 Entering Gaussian System, Link 0=g16
 Input=azadicarboxylate_3_conf18123.com
 Output=azadicarboxylate_3_conf18123.log
 Initial command:
 /opt/export//g16/l1.exe "/scratch/bjs4/job.32220/Gau-32224.inp" -scrdir="/scratch/bjs4/job.32220/"
 Entering Link 1 = /opt/export//g16/l1.exe PID=     32226.
  
 Copyright (c) 1988,1990,1992,1993,1995,1998,2003,2009,2016,
            Gaussian, Inc.  All Rights Reserved.
  
 This is part of the Gaussian(R) 16 program.  It is based on
 the Gaussian(R) 09 system (copyright 2009, Gaussian, Inc.),
 the Gaussian(R) 03 system (copyright 2003, Gaussian, Inc.),
 the Gaussian(R) 98 system (copyright 1998, Gaussian, Inc.),
 the Gaussian(R) 94 system (copyright 1995, Gaussian, Inc.),
 the Gaussian 92(TM) system (copyright 1992, Gaussian, Inc.),
 the Gaussian 90(TM) system (copyright 1990, Gaussian, Inc.),
 the Gaussian 88(TM) system (copyright 1988, Gaussian, Inc.),
 the Gaussian 86(TM) system (copyright 1986, Carnegie Mellon
 University), and the Gaussian 82(TM) system (copyright 1983,
 Carnegie Mellon University). Gaussian is a federally registered
 trademark of Gaussian, Inc.
  
 This software contains proprietary and confidential information,
 including trade secrets, belonging to Gaussian, Inc.
  
 This software is provided under written license and may be
 used, copied, transmitted, or stored only in accord with that
 written license.
  
 The following legend is applicable only to US Government
 contracts under FAR:
  
                    RESTRICTED RIGHTS LEGEND
  
 Use, reproduction and disclosure by the US Government is
 subject to restrictions as set forth in subparagraphs (a)
 and (c) of the Commercial Computer Software - Restricted
 Rights clause in FAR 52.227-19.
  
 Gaussian, Inc.
 340 Quinnipiac St., Bldg. 40, Wallingford CT 06492
  
  
 ---------------------------------------------------------------
 Warning -- This program may not be used in any manner that
 competes with the business of Gaussian, Inc. or will provide
 assistance to any competitor of Gaussian, Inc.  The licensee
 of this program is prohibited from giving any competitor of
 Gaussian, Inc. access to this program.  By using this program,
 the user acknowledges that Gaussian, Inc. is engaged in the
 business of creating and licensing software in the field of
 computational chemistry and represents and warrants to the
 licensee that it is not a competitor of Gaussian, Inc. and that
 it will not use this program in any manner prohibited above.
 ---------------------------------------------------------------
  

 Cite this work as:
 Gaussian 16, Revision A.03,
 M. J. Frisch, G. W. Trucks, H. B. Schlegel, G. E. Scuseria, 
 M. A. Robb, J. R. Cheeseman, G. Scalmani, V. Barone, 
 G. A. Petersson, H. Nakatsuji, X. Li, M. Caricato, A. V. Marenich, 
 J. Bloino, B. G. Janesko, R. Gomperts, B. Mennucci, H. P. Hratchian, 
 J. V. Ortiz, A. F. Izmaylov, J. L. Sonnenberg, D. Williams-Young, 
 F. Ding, F. Lipparini, F. Egidi, J. Goings, B. Peng, A. Petrone, 
 T. Henderson, D. Ranasinghe, V. G. Zakrzewski, J. Gao, N. Rega, 
 G. Zheng, W. Liang, M. Hada, M. Ehara, K. Toyota, R. Fukuda, 
 J. Hasegawa, M. Ishida, T. Nakajima, Y. Honda, O. Kitao, H. Nakai, 
 T. Vreven, K. Throssell, J. A. Montgomery, Jr., J. E. Peralta, 
 F. Ogliaro, M. J. Bearpark, J. J. Heyd, E. N. Brothers, K. N. Kudin, 
 V. N. Staroverov, T. A. Keith, R. Kobayashi, J. Normand, 
 K. Raghavachari, A. P. Rendell, J. C. Burant, S. S. Iyengar, 
 J. Tomasi, M. Cossi, J. M. Millam, M. Klene, C. Adamo, R. Cammi, 
 J. W. Ochterski, R. L. Martin, K. Morokuma, O. Farkas, 
 J. B. Foresman, and D. J. Fox, Gaussian, Inc., Wallingford CT, 2016.
 
 ******************************************
 Gaussian 16:  ES64L-G16RevA.03 25-Dec-2016
                22-Aug-2020 
 ******************************************
 %nprocshared=5
 Will use up to    5 processors via shared memory.
 %Mem=10GB
 %Chk=azadicarboxylate_3_conf181.chk
 ---------------------------------
 # opt=CalcAll B3LYP/6-31G* scf=qc
 ---------------------------------
 1/10=4,18=20,19=15,26=3,38=1/1,3;
 2/9=110,12=2,17=6,18=5,40=1/2;
 3/5=1,6=6,7=1,11=2,25=1,30=1,71=2,74=-5,140=1/1,2,3;
 4//1;
 5/5=2,8=3,38=5/8;
 8/6=4,10=90,11=11/1;
 11/6=1,8=1,9=11,15=111,16=1/1,2,10;
 10/6=1/2;
 6/7=2,8=2,9=2,10=2,18=1,28=1/1;
 7/10=1,25=1/1,2,3,16;
 1/10=4,18=20,19=15,26=3/3(3);
 2/9=110/2;
 7/8=1,9=1,25=1,44=-1/16;
 99//99;
 2/9=110/2;
 3/5=1,6=6,7=1,11=2,25=1,30=1,71=2,74=-5,140=1/1,2,3;
 4/5=5,16=3,69=1/1;
 5/5=2,8=3,38=5/8;
 8/6=4,10=90,11=11/1;
 11/6=1,8=1,9=11,15=111,16=1/1,2,10;
 10/6=1/2;
 7/10=1,25=1/1,2,3,16;
 1/10=4,18=20,19=15,26=3/3(-8);
 2/9=110/2;
 6/7=2,8=2,9=2,10=2,18=1,19=2,28=1/1;
 7/8=1,9=1,25=1,44=-1/16;
 99//99;
 -------------------
 Title Card Required
 -------------------
 Symbolic Z-matrix:
 Charge =  0 Multiplicity = 1
 C                    -2.58429  -0.39131   0.40244 
 C                    -3.15957   0.01272  -0.93731 
 O1                   -3.75188   1.31639  -0.8597 
 C2                   -5.0041    1.3932   -0.331 
 O3                   -5.64151   0.42652   0.07345 
 N4                   -5.404     2.7122   -0.3088 
 N5                   -6.6449    2.8402   -0.4308 
 C6                   -7.0458    4.1568   -0.3655 
 O7                   -8.19472   4.5779   -0.44139 
 O8                   -5.94972   4.95164  -0.22398 
 C                    -6.17888   6.3661   -0.16226 
 C                    -5.67385   6.92962   1.1476 
 C                    -5.07481   6.10971   2.11664 
 C                    -4.61511   6.64968   3.32109 
 C                    -4.73373   8.01669   3.55785 
 C                    -5.29196   8.85126   2.59312 
 C                    -5.7549    8.31038   1.39022 
 Cl                   -4.18944   8.67799   5.04993 
 C                    -3.35083  -1.08753   1.35003 
 C                    -2.80052  -1.45221   2.5822 
 C                    -1.47406  -1.13979   2.86884 
 C                    -0.68792  -0.48151   1.92682 
 C                    -1.23936  -0.11412   0.69623 
 Cl                   -0.80336  -1.56767   4.39432 
 H                    -3.95183  -0.69558  -1.20475 
 H                    -2.38635  -0.05313  -1.71077 
 H                    -7.2338    6.62761  -0.29824 
 H                    -5.61745   6.82812  -0.98185 
 H                    -4.96917   5.03997   1.94489 
 H                    -4.16988   5.99834   4.06848 
 H                    -5.37383   9.92024   2.77145 
 H                    -6.18742   8.97722   0.6464 
 H                    -4.38746  -1.34443   1.13949 
 H                    -3.41254  -1.97551   3.31224 
 H                     0.35113  -0.24797   2.14416 
 H                    -0.6102    0.39842  -0.02929 
 

 GradGradGradGradGradGradGradGradGradGradGradGradGradGradGradGradGradGrad
 Berny optimization.
 Initialization pass.
                           ----------------------------
                           !    Initial Parameters    !
                           ! (Angstroms and Degrees)  !
 --------------------------                            --------------------------
 ! Name  Definition              Value          Derivative Info.                !
 --------------------------------------------------------------------------------
 ! R1    R(1,2)                  1.513          calculate D2E/DX2 analytically  !
 ! R2    R(1,19)                 1.4036         calculate D2E/DX2 analytically  !
 ! R3    R(1,23)                 1.4043         calculate D2E/DX2 analytically  !
 ! R4    R(2,3)                  1.434          calculate D2E/DX2 analytically  !
 ! R5    R(2,25)                 1.0959         calculate D2E/DX2 analytically  !
 ! R6    R(2,26)                 1.0956         calculate D2E/DX2 analytically  !
 ! R7    R(3,4)                  1.3614         calculate D2E/DX2 analytically  !
 ! R8    R(4,5)                  1.2265         calculate D2E/DX2 analytically  !
 ! R9    R(4,6)                  1.3785         calculate D2E/DX2 analytically  !
 ! R10   R(6,7)                  1.2534         calculate D2E/DX2 analytically  !
 ! R11   R(7,8)                  1.3778         calculate D2E/DX2 analytically  !
 ! R12   R(8,9)                  1.226          calculate D2E/DX2 analytically  !
 ! R13   R(8,10)                 1.3613         calculate D2E/DX2 analytically  !
 ! R14   R(10,11)                1.4342         calculate D2E/DX2 analytically  !
 ! R15   R(11,12)                1.5127         calculate D2E/DX2 analytically  !
 ! R16   R(11,27)                1.0953         calculate D2E/DX2 analytically  !
 ! R17   R(11,28)                1.0956         calculate D2E/DX2 analytically  !
 ! R18   R(12,13)                1.4036         calculate D2E/DX2 analytically  !
 ! R19   R(12,17)                1.4043         calculate D2E/DX2 analytically  !
 ! R20   R(13,14)                1.3977         calculate D2E/DX2 analytically  !
 ! R21   R(13,29)                1.0886         calculate D2E/DX2 analytically  !
 ! R22   R(14,15)                1.3924         calculate D2E/DX2 analytically  !
 ! R23   R(14,30)                1.0868         calculate D2E/DX2 analytically  !
 ! R24   R(15,16)                1.3924         calculate D2E/DX2 analytically  !
 ! R25   R(15,18)                1.7204         calculate D2E/DX2 analytically  !
 ! R26   R(16,17)                1.3978         calculate D2E/DX2 analytically  !
 ! R27   R(16,31)                1.0868         calculate D2E/DX2 analytically  !
 ! R28   R(17,32)                1.0886         calculate D2E/DX2 analytically  !
 ! R29   R(19,20)                1.3979         calculate D2E/DX2 analytically  !
 ! R30   R(19,33)                1.0885         calculate D2E/DX2 analytically  !
 ! R31   R(20,21)                1.3926         calculate D2E/DX2 analytically  !
 ! R32   R(20,34)                1.0869         calculate D2E/DX2 analytically  !
 ! R33   R(21,22)                1.3924         calculate D2E/DX2 analytically  !
 ! R34   R(21,24)                1.7205         calculate D2E/DX2 analytically  !
 ! R35   R(22,23)                1.3976         calculate D2E/DX2 analytically  !
 ! R36   R(22,35)                1.0869         calculate D2E/DX2 analytically  !
 ! R37   R(23,36)                1.0885         calculate D2E/DX2 analytically  !
 ! A1    A(2,1,19)             121.5071         calculate D2E/DX2 analytically  !
 ! A2    A(2,1,23)             119.7823         calculate D2E/DX2 analytically  !
 ! A3    A(19,1,23)            118.6656         calculate D2E/DX2 analytically  !
 ! A4    A(1,2,3)              110.6033         calculate D2E/DX2 analytically  !
 ! A5    A(1,2,25)             108.5659         calculate D2E/DX2 analytically  !
 ! A6    A(1,2,26)             109.9211         calculate D2E/DX2 analytically  !
 ! A7    A(3,2,25)             107.5892         calculate D2E/DX2 analytically  !
 ! A8    A(3,2,26)             112.6025         calculate D2E/DX2 analytically  !
 ! A9    A(25,2,26)            107.4024         calculate D2E/DX2 analytically  !
 ! A10   A(2,3,4)              116.8861         calculate D2E/DX2 analytically  !
 ! A11   A(3,4,5)              124.1663         calculate D2E/DX2 analytically  !
 ! A12   A(3,4,6)              109.0912         calculate D2E/DX2 analytically  !
 ! A13   A(5,4,6)              126.7321         calculate D2E/DX2 analytically  !
 ! A14   A(4,6,7)              112.5413         calculate D2E/DX2 analytically  !
 ! A15   A(6,7,8)              112.397          calculate D2E/DX2 analytically  !
 ! A16   A(7,8,9)              126.7227         calculate D2E/DX2 analytically  !
 ! A17   A(7,8,10)             109.1827         calculate D2E/DX2 analytically  !
 ! A18   A(9,8,10)             124.085          calculate D2E/DX2 analytically  !
 ! A19   A(8,10,11)            116.8497         calculate D2E/DX2 analytically  !
 ! A20   A(10,11,12)           110.5671         calculate D2E/DX2 analytically  !
 ! A21   A(10,11,27)           112.5818         calculate D2E/DX2 analytically  !
 ! A22   A(10,11,28)           107.5667         calculate D2E/DX2 analytically  !
 ! A23   A(12,11,27)           109.8828         calculate D2E/DX2 analytically  !
 ! A24   A(12,11,28)           108.637          calculate D2E/DX2 analytically  !
 ! A25   A(27,11,28)           107.4563         calculate D2E/DX2 analytically  !
 ! A26   A(11,12,13)           121.5123         calculate D2E/DX2 analytically  !
 ! A27   A(11,12,17)           119.7768         calculate D2E/DX2 analytically  !
 ! A28   A(13,12,17)           118.667          calculate D2E/DX2 analytically  !
 ! A29   A(12,13,14)           120.639          calculate D2E/DX2 analytically  !
 ! A30   A(12,13,29)           120.4325         calculate D2E/DX2 analytically  !
 ! A31   A(14,13,29)           118.9261         calculate D2E/DX2 analytically  !
 ! A32   A(13,14,15)           119.8532         calculate D2E/DX2 analytically  !
 ! A33   A(13,14,30)           119.7246         calculate D2E/DX2 analytically  !
 ! A34   A(15,14,30)           120.4219         calculate D2E/DX2 analytically  !
 ! A35   A(14,15,16)           120.3163         calculate D2E/DX2 analytically  !
 ! A36   A(14,15,18)           119.8599         calculate D2E/DX2 analytically  !
 ! A37   A(16,15,18)           119.8238         calculate D2E/DX2 analytically  !
 ! A38   A(15,16,17)           119.8078         calculate D2E/DX2 analytically  !
 ! A39   A(15,16,31)           120.4            calculate D2E/DX2 analytically  !
 ! A40   A(17,16,31)           119.7917         calculate D2E/DX2 analytically  !
 ! A41   A(12,17,16)           120.667          calculate D2E/DX2 analytically  !
 ! A42   A(12,17,32)           120.4777         calculate D2E/DX2 analytically  !
 ! A43   A(16,17,32)           118.8535         calculate D2E/DX2 analytically  !
 ! A44   A(1,19,20)            120.6287         calculate D2E/DX2 analytically  !
 ! A45   A(1,19,33)            120.4342         calculate D2E/DX2 analytically  !
 ! A46   A(20,19,33)           118.935          calculate D2E/DX2 analytically  !
 ! A47   A(19,20,21)           119.8605         calculate D2E/DX2 analytically  !
 ! A48   A(19,20,34)           119.7341         calculate D2E/DX2 analytically  !
 ! A49   A(21,20,34)           120.4052         calculate D2E/DX2 analytically  !
 ! A50   A(20,21,22)           120.3048         calculate D2E/DX2 analytically  !
 ! A51   A(20,21,24)           119.8704         calculate D2E/DX2 analytically  !
 ! A52   A(22,21,24)           119.8248         calculate D2E/DX2 analytically  !
 ! A53   A(21,22,23)           119.8146         calculate D2E/DX2 analytically  !
 ! A54   A(21,22,35)           120.3997         calculate D2E/DX2 analytically  !
 ! A55   A(23,22,35)           119.7852         calculate D2E/DX2 analytically  !
 ! A56   A(1,23,22)            120.6768         calculate D2E/DX2 analytically  !
 ! A57   A(1,23,36)            120.4682         calculate D2E/DX2 analytically  !
 ! A58   A(22,23,36)           118.8533         calculate D2E/DX2 analytically  !
 ! D1    D(19,1,2,3)            90.3532         calculate D2E/DX2 analytically  !
 ! D2    D(19,1,2,25)          -27.4756         calculate D2E/DX2 analytically  !
 ! D3    D(19,1,2,26)         -144.6889         calculate D2E/DX2 analytically  !
 ! D4    D(23,1,2,3)           -92.1182         calculate D2E/DX2 analytically  !
 ! D5    D(23,1,2,25)          150.053          calculate D2E/DX2 analytically  !
 ! D6    D(23,1,2,26)           32.8397         calculate D2E/DX2 analytically  !
 ! D7    D(2,1,19,20)          179.9786         calculate D2E/DX2 analytically  !
 ! D8    D(2,1,19,33)           -0.5612         calculate D2E/DX2 analytically  !
 ! D9    D(23,1,19,20)           2.4232         calculate D2E/DX2 analytically  !
 ! D10   D(23,1,19,33)        -178.1166         calculate D2E/DX2 analytically  !
 ! D11   D(2,1,23,22)         -179.8653         calculate D2E/DX2 analytically  !
 ! D12   D(2,1,23,36)            0.6174         calculate D2E/DX2 analytically  !
 ! D13   D(19,1,23,22)          -2.2666         calculate D2E/DX2 analytically  !
 ! D14   D(19,1,23,36)         178.216          calculate D2E/DX2 analytically  !
 ! D15   D(1,2,3,4)            -80.4704         calculate D2E/DX2 analytically  !
 ! D16   D(25,2,3,4)            37.9547         calculate D2E/DX2 analytically  !
 ! D17   D(26,2,3,4)           156.1076         calculate D2E/DX2 analytically  !
 ! D18   D(2,3,4,5)             -0.0795         calculate D2E/DX2 analytically  !
 ! D19   D(2,3,4,6)            178.8166         calculate D2E/DX2 analytically  !
 ! D20   D(3,4,6,7)            149.6469         calculate D2E/DX2 analytically  !
 ! D21   D(5,4,6,7)            -31.4928         calculate D2E/DX2 analytically  !
 ! D22   D(4,6,7,8)            178.0638         calculate D2E/DX2 analytically  !
 ! D23   D(6,7,8,9)           -179.2939         calculate D2E/DX2 analytically  !
 ! D24   D(6,7,8,10)             1.8019         calculate D2E/DX2 analytically  !
 ! D25   D(7,8,10,11)          178.9397         calculate D2E/DX2 analytically  !
 ! D26   D(9,8,10,11)            0.0001         calculate D2E/DX2 analytically  !
 ! D27   D(8,10,11,12)         119.9997         calculate D2E/DX2 analytically  !
 ! D28   D(8,10,11,27)          -3.3303         calculate D2E/DX2 analytically  !
 ! D29   D(8,10,11,28)        -121.5231         calculate D2E/DX2 analytically  !
 ! D30   D(10,11,12,13)          0.0            calculate D2E/DX2 analytically  !
 ! D31   D(10,11,12,17)        177.5576         calculate D2E/DX2 analytically  !
 ! D32   D(27,11,12,13)        124.8788         calculate D2E/DX2 analytically  !
 ! D33   D(27,11,12,17)        -57.5635         calculate D2E/DX2 analytically  !
 ! D34   D(28,11,12,13)       -117.8233         calculate D2E/DX2 analytically  !
 ! D35   D(28,11,12,17)         59.7343         calculate D2E/DX2 analytically  !
 ! D36   D(11,12,13,14)       -179.9695         calculate D2E/DX2 analytically  !
 ! D37   D(11,12,13,29)         -0.5267         calculate D2E/DX2 analytically  !
 ! D38   D(17,12,13,14)          2.4465         calculate D2E/DX2 analytically  !
 ! D39   D(17,12,13,29)       -178.1107         calculate D2E/DX2 analytically  !
 ! D40   D(11,12,17,16)       -179.8986         calculate D2E/DX2 analytically  !
 ! D41   D(11,12,17,32)          0.595          calculate D2E/DX2 analytically  !
 ! D42   D(13,12,17,16)         -2.2716         calculate D2E/DX2 analytically  !
 ! D43   D(13,12,17,32)        178.222          calculate D2E/DX2 analytically  !
 ! D44   D(12,13,14,15)         -0.9086         calculate D2E/DX2 analytically  !
 ! D45   D(12,13,14,30)        178.8992         calculate D2E/DX2 analytically  !
 ! D46   D(29,13,14,15)        179.6403         calculate D2E/DX2 analytically  !
 ! D47   D(29,13,14,30)         -0.5518         calculate D2E/DX2 analytically  !
 ! D48   D(13,14,15,16)         -0.8573         calculate D2E/DX2 analytically  !
 ! D49   D(13,14,15,18)        179.0861         calculate D2E/DX2 analytically  !
 ! D50   D(30,14,15,16)        179.3362         calculate D2E/DX2 analytically  !
 ! D51   D(30,14,15,18)         -0.7205         calculate D2E/DX2 analytically  !
 ! D52   D(14,15,16,17)          1.0309         calculate D2E/DX2 analytically  !
 ! D53   D(14,15,16,31)       -179.2318         calculate D2E/DX2 analytically  !
 ! D54   D(18,15,16,17)       -178.9124         calculate D2E/DX2 analytically  !
 ! D55   D(18,15,16,31)          0.8249         calculate D2E/DX2 analytically  !
 ! D56   D(15,16,17,12)          0.5578         calculate D2E/DX2 analytically  !
 ! D57   D(15,16,17,32)       -179.9279         calculate D2E/DX2 analytically  !
 ! D58   D(31,16,17,12)       -179.1812         calculate D2E/DX2 analytically  !
 ! D59   D(31,16,17,32)          0.3332         calculate D2E/DX2 analytically  !
 ! D60   D(1,19,20,21)          -0.8876         calculate D2E/DX2 analytically  !
 ! D61   D(1,19,20,34)         178.9151         calculate D2E/DX2 analytically  !
 ! D62   D(33,19,20,21)        179.6442         calculate D2E/DX2 analytically  !
 ! D63   D(33,19,20,34)         -0.5531         calculate D2E/DX2 analytically  !
 ! D64   D(19,20,21,22)         -0.8577         calculate D2E/DX2 analytically  !
 ! D65   D(19,20,21,24)        179.0887         calculate D2E/DX2 analytically  !
 ! D66   D(34,20,21,22)        179.3409         calculate D2E/DX2 analytically  !
 ! D67   D(34,20,21,24)         -0.7126         calculate D2E/DX2 analytically  !
 ! D68   D(20,21,22,23)          1.0137         calculate D2E/DX2 analytically  !
 ! D69   D(20,21,22,35)       -179.2328         calculate D2E/DX2 analytically  !
 ! D70   D(24,21,22,23)       -178.9328         calculate D2E/DX2 analytically  !
 ! D71   D(24,21,22,35)          0.8207         calculate D2E/DX2 analytically  !
 ! D72   D(21,22,23,1)           0.5726         calculate D2E/DX2 analytically  !
 ! D73   D(21,22,23,36)       -179.9024         calculate D2E/DX2 analytically  !
 ! D74   D(35,22,23,1)        -179.1824         calculate D2E/DX2 analytically  !
 ! D75   D(35,22,23,36)          0.3426         calculate D2E/DX2 analytically  !
 --------------------------------------------------------------------------------
 Trust Radius=3.00D-01 FncErr=1.00D-07 GrdErr=1.00D-06 EigMax=2.50D+02 EigMin=1.00D-04
 Number of steps in this run=    180 maximum allowed number of steps=    216.
 GradGradGradGradGradGradGradGradGradGradGradGradGradGradGradGradGradGrad

                          Input orientation:                          
 ---------------------------------------------------------------------
 Center     Atomic      Atomic             Coordinates (Angstroms)
 Number     Number       Type             X           Y           Z
 ---------------------------------------------------------------------
      1          6           0       -2.584290   -0.391310    0.402440
      2          6           0       -3.159570    0.012720   -0.937310
      3          8           0       -3.751880    1.316390   -0.859700
      4          6           0       -5.004100    1.393200   -0.331000
      5          8           0       -5.641510    0.426520    0.073450
      6          7           0       -5.404000    2.712200   -0.308800
      7          7           0       -6.644900    2.840200   -0.430800
      8          6           0       -7.045800    4.156800   -0.365500
      9          8           0       -8.194720    4.577900   -0.441390
     10          8           0       -5.949720    4.951640   -0.223980
     11          6           0       -6.178880    6.366100   -0.162260
     12          6           0       -5.673850    6.929620    1.147600
     13          6           0       -5.074810    6.109710    2.116640
     14          6           0       -4.615110    6.649680    3.321090
     15          6           0       -4.733730    8.016690    3.557850
     16          6           0       -5.291960    8.851260    2.593120
     17          6           0       -5.754900    8.310380    1.390220
     18         17           0       -4.189440    8.677990    5.049930
     19          6           0       -3.350830   -1.087530    1.350030
     20          6           0       -2.800520   -1.452210    2.582200
     21          6           0       -1.474060   -1.139790    2.868840
     22          6           0       -0.687920   -0.481510    1.926820
     23          6           0       -1.239360   -0.114120    0.696230
     24         17           0       -0.803360   -1.567670    4.394320
     25          1           0       -3.951830   -0.695580   -1.204750
     26          1           0       -2.386350   -0.053130   -1.710770
     27          1           0       -7.233800    6.627610   -0.298240
     28          1           0       -5.617450    6.828120   -0.981850
     29          1           0       -4.969170    5.039970    1.944890
     30          1           0       -4.169880    5.998340    4.068480
     31          1           0       -5.373830    9.920240    2.771450
     32          1           0       -6.187420    8.977220    0.646400
     33          1           0       -4.387460   -1.344430    1.139490
     34          1           0       -3.412540   -1.975510    3.312240
     35          1           0        0.351130   -0.247970    2.144160
     36          1           0       -0.610200    0.398420   -0.029290
 ---------------------------------------------------------------------
                    Distance matrix (angstroms):
                    1          2          3          4          5
     1  C    0.000000
     2  C    1.512983   0.000000
     3  O    2.423325   1.434019   0.000000
     4  C    3.094817   2.382358   1.361425   0.000000
     5  O    3.181772   2.711622   2.287649   1.226516   0.000000
     6  N    4.253046   3.566466   2.231877   1.378468   2.329562
     7  N    5.255997   4.516494   3.297805   2.189976   2.662125
     8  C    6.417173   5.709917   4.377450   3.436163   4.009950
     9  O    7.542017   6.814656   5.527319   4.509385   4.900806
    10  O    6.345521   5.717229   4.295309   3.683496   4.545346
    11  C    7.674800   7.076890   5.645912   5.112564   5.968495
    12  C    7.981019   7.649311   6.263511   5.769469   6.591294
    13  C    7.169688   7.082940   5.795227   5.314265   6.065841
    14  C    7.887857   8.018841   6.831409   6.412461   7.094250
    15  C    9.234239   9.313860   8.085345   7.685498   8.400940
    16  C    9.877027   9.753503   8.430189   8.015984   8.800407
    17  C    9.313855   9.000239   7.615125   7.167543   7.993872
    18  Cl  10.316389  10.582749   9.450309   9.093198   9.744774
    19  C    1.403650   2.545399   3.289769   3.422453   3.028072
    20  C    2.433848   3.829084   4.518507   4.630211   4.230210
    21  C    2.806414   4.319259   5.012314   5.395943   5.256917
    22  C    2.434767   3.815306   4.514974   5.219358   5.366335
    23  C    1.404273   2.524232   3.283296   4.183358   4.478735
    24  Cl   4.526659   6.039506   6.679543   6.981520   6.786340
    25  H    2.132089   1.095851   2.051113   2.496740   2.397482
    26  H    2.149233   1.095649   2.112955   3.293668   3.742936
    27  H    8.448321   7.795161   6.375583   5.689612   6.413038
    28  H    7.952137   7.245194   5.820175   5.508009   6.488044
    29  H    6.129079   6.070830   4.817942   4.298817   5.023768
    30  H    7.535355   7.868056   6.810458   6.423291   7.012213
    31  H   10.941746  10.808182   9.478513   9.081427   9.873276
    32  H   10.040489   9.593658   8.178540   7.737759   8.587244
    33  H    2.168664   2.768152   3.388316   3.168155   2.417715
    34  H    3.415058   4.698481   5.325114   5.210995   4.607365
    35  H    3.416259   4.678507   5.320253   6.123589   6.376089
    36  H    2.169584   2.733597   3.376744   4.515194   5.032437
                    6          7          8          9         10
     6  N    0.000000
     7  N    1.253436   0.000000
     8  C    2.187599   1.377832   0.000000
     9  O    3.359544   2.328445   1.226010   0.000000
    10  O    2.306533   2.232539   1.361319   2.286258   0.000000
    11  C    3.738034   3.566687   2.381987   2.709093   1.434232
    12  C    4.469961   4.489726   3.443871   3.796085   2.422755
    13  C    4.187386   4.432192   3.722859   4.315530   2.754105
    14  C    5.413150   5.719166   5.070863   5.591255   4.151150
    15  C    6.598322   6.808667   5.969681   6.308538   5.017509
    16  C    6.791300   6.863482   5.819565   5.991316   4.855485
    17  C    5.860838   5.833617   4.690544   4.820677   3.731586
    18  Cl   8.110598   8.375409   7.610968   7.937733   6.693160
    19  C    4.626572   5.426722   6.640696   7.666130   6.760422
    20  C    5.698974   6.502477   7.627079   8.637229   7.668207
    21  C    6.354499   7.312013   8.340210   9.424270   8.167165
    22  C    6.118757   7.216491   8.197029   9.357248   7.863307
    23  C    5.132484   6.262433   7.285793   8.466774   6.978266
    24  Cl   7.848727   8.765540   9.715632  10.760312   9.503427
    25  H    3.811101   4.511470   5.815719   6.811345   6.069973
    26  H    4.326521   5.305180   6.422129   7.536241   6.321066
    27  H    4.321888   3.835212   2.478865   2.268297   2.112641
    28  H    4.176045   4.154854   3.091282   3.463800   2.050841
    29  H    3.269053   3.645677   3.229595   4.038813   2.381864
    30  H    5.610913   6.028523   5.596639   6.209341   4.763258
    31  H    7.838666   7.873817   6.771498   6.842540   5.830200
    32  H    6.385658   6.247613   4.999721   4.956466   4.125452
    33  H    4.425737   5.007292   6.292479   7.215844   6.628741
    34  H    6.249197   6.902866   8.020697   8.939025   8.180925
    35  H    6.921065   8.069179   8.967439  10.149170   8.505571
    36  H    5.330312   6.522354   7.460255   8.669650   7.019985
                   11         12         13         14         15
    11  C    0.000000
    12  C    1.512727   0.000000
    13  C    2.545210   1.403617   0.000000
    14  C    3.828775   2.433794   1.397709   0.000000
    15  C    4.318811   2.806217   2.414538   1.392423   0.000000
    16  C    3.815071   2.434762   2.791108   2.415579   1.392419
    17  C    2.523921   1.404255   2.415193   2.790216   2.414055
    18  Cl   6.039009   4.526417   3.998016   2.698912   1.720428
    19  C    8.114277   8.349377   7.440434   8.083805   9.469620
    20  C    8.948260   8.976033   7.910232   8.335425   9.713355
    21  C    9.362760   9.258309   8.129358   8.411098   9.743783
    22  C    9.022453   8.966132   7.919913   8.259581   9.552394
    23  C    8.193236   8.335629   7.447436   8.002160   9.301052
    24  Cl  10.611472  10.318275   9.076083   9.121738  10.392663
    25  H    7.477557   8.163491   7.655370   8.653093   9.959788
    26  H    7.614964   8.230233   7.736762   8.672638   9.919201
    27  H    1.095324   2.148280   3.280412   4.467390   4.800971
    28  H    1.095625   2.132614   3.226641   4.421744   4.775200
    29  H    2.768050   2.168645   1.088578   2.147196   3.393808
    30  H    4.697924   3.414784   2.154294   1.086768   2.156944
    31  H    4.678319   3.416242   3.877928   3.402106   2.156770
    32  H    2.733487   2.169705   3.409123   3.878604   3.392989
    33  H    8.022220   8.373456   7.549270   8.289572   9.674654
    34  H    9.450251   9.439308   8.340467   8.708625  10.082159
    35  H    9.576352   9.423975   8.358330   8.580576   9.806066
    36  H    8.163399   8.347586   7.560198   8.145097   9.375986
                   16         17         18         19         20
    16  C    0.000000
    17  C    1.397796   0.000000
    18  Cl   2.698423   3.997409   0.000000
    19  C   10.202588   9.700612  10.476541   0.000000
    20  C   10.600419  10.269242  10.518543   1.397883   0.000000
    21  C   10.699227  10.479390  10.417257   2.414908   1.392575
    22  C   10.427931  10.161671  10.291302   2.791243   2.415546
    23  C   10.019970   9.583524  10.244944   2.415220   2.790087
    24  Cl  11.486773  11.450687  10.810593   3.998480   2.699214
    25  H   10.361560   9.544226  11.271260   2.653625   4.029764
    26  H   10.307968   9.534756  11.188863   3.371751   4.534154
    27  H    4.132230   2.805309   6.486533   8.793045   9.655796
    28  H    4.120613   2.800483   6.468663   8.557613   9.444650
    29  H    3.879475   3.408902   4.846075   6.365465   6.874417
    30  H    3.402191   3.876970   2.853796   7.633503   7.719771
    31  H    1.086841   2.155147   2.852619  11.282020  11.661490
    32  H    2.146493   1.088585   4.844847  10.480483  11.135144
    33  H   10.338436   9.754389  10.760096   1.088543   2.147419
    34  H   11.012189  10.722889  10.822209   2.154666   1.086908
    35  H   10.716437  10.540274  10.427513   3.878145   3.402201
    36  H   10.012313   9.543692  10.351846   3.409050   3.878429
                   21         22         23         24         25
    21  C    0.000000
    22  C    1.392390   0.000000
    23  C    2.413984   1.397646   0.000000
    24  Cl   1.720468   2.698449   3.997346   0.000000
    25  H    4.788612   4.528318   3.362932   6.482514   0.000000
    26  H    4.794364   4.037355   2.667012   6.486279   1.766218
    27  H   10.175338   9.916603   9.075969  11.425117   8.076026
    28  H    9.771545   9.283928   8.377250  11.071041   7.709088
    29  H    7.159533   6.986857   6.483462   8.186244   6.622065
    30  H    7.723955   7.661541   7.571142   8.287589   8.524263
    31  H   11.727828  11.439736  11.049378  12.469763  11.424880
    32  H   11.380197  11.015968  10.350761  12.418926  10.098895
    33  H    3.394176   3.879577   3.408911   4.846600   2.471081
    34  H    2.157020   3.402202   3.876982   2.853954   4.725701
    35  H    2.156808   1.086923   2.155012   2.852661   5.470925
    36  H    3.392860   2.146319   1.088540   4.844703   3.707429
                   26         27         28         29         30
    26  H    0.000000
    27  H    8.374085   0.000000
    28  H    7.636945   1.766385   0.000000
    29  H    6.780448   3.561009   3.490495   0.000000
    30  H    8.555758   5.371390   5.318818   2.463122   0.000000
    31  H   11.335054   4.870718   4.869067   4.966285   4.302683
    32  H   10.077282   2.740059   2.755847   4.321128   4.965363
    33  H    3.714280   8.586160   8.532499   6.461240   7.908388
    34  H    5.475330  10.082225  10.040156   7.315033   8.045356
    35  H    4.732044  10.524737   9.770718   7.503840   7.947259
    36  H    2.487163   9.096550   8.204935   6.666483   7.798855
                   31         32         33         34         35
    31  H    0.000000
    32  H    2.463139   0.000000
    33  H   11.424929  10.489016   0.000000
    34  H   12.068471  11.609003   2.463650   0.000000
    35  H   11.685938  11.406141   4.966470   4.302792   0.000000
    36  H   11.009149  10.254645   4.321026   4.965327   2.462897
                   36
    36  H    0.000000
 Stoichiometry    C16H12Cl2N2O4
 Framework group  C1[X(C16H12Cl2N2O4)]
 Deg. of freedom   102
 Full point group                 C1      NOp   1
 Largest Abelian subgroup         C1      NOp   1
 Largest concise Abelian subgroup C1      NOp   1
                         Standard orientation:                         
 ---------------------------------------------------------------------
 Center     Atomic      Atomic             Coordinates (Angstroms)
 Number     Number       Type             X           Y           Z
 ---------------------------------------------------------------------
      1          6           0       -3.997260   -0.647560    0.693974
      2          6           0       -3.478481   -1.987224    1.168619
      3          8           0       -2.046126   -2.023322    1.109736
      4          6           0       -1.485948   -2.269451   -0.106446
      5          8           0       -2.127338   -2.459743   -1.134430
      6          7           0       -0.113168   -2.241933    0.015588
      7          7           0        0.457124   -3.003639   -0.800299
      8          6           0        1.830246   -2.941936   -0.704640
      9          8           0        2.640984   -3.564183   -1.381851
     10          8           0        2.170838   -2.083270    0.295299
     11          6           0        3.571249   -1.912685    0.553697
     12          6           0        3.974819   -0.467432    0.362076
     13          6           0        3.042381    0.510444   -0.017999
     14          6           0        3.435435    1.840606   -0.190534
     15          6           0        4.759970    2.206666    0.034073
     16          6           0        5.691181    1.257374    0.447017
     17          6           0        5.298557   -0.073470    0.615936
     18         17           0        5.249109    3.839256   -0.201015
     19          6           0       -4.312283   -0.418905   -0.654622
     20          6           0       -4.790824    0.826097   -1.073003
     21          6           0       -4.975527    1.846092   -0.143078
     22          6           0       -4.702662    1.626175    1.204487
     23          6           0       -4.221108    0.382311    1.622004
     24         17           0       -5.542158    3.385724   -0.661219
     25          1           0       -3.857254   -2.765910    0.497004
     26          1           0       -3.864294   -2.203054    2.171121
     27          1           0        4.196134   -2.559921   -0.071074
     28          1           0        3.751108   -2.190921    1.598029
     29          1           0        2.001843    0.242087   -0.191970
     30          1           0        2.704863    2.582241   -0.502476
     31          1           0        6.722582    1.544077    0.634728
     32          1           0        6.039008   -0.802479    0.940429
     33          1           0       -4.179076   -1.207268   -1.393315
     34          1           0       -5.013466    0.992698   -2.123738
     35          1           0       -4.858094    2.417346    1.933386
     36          1           0       -4.014544    0.226975    2.679417
 ---------------------------------------------------------------------
 Rotational constants (GHZ):           0.2203140           0.0827077           0.0636717
 Standard basis: 6-31G(d) (6D, 7F)
 There are   392 symmetry adapted cartesian basis functions of A   symmetry.
 There are   392 symmetry adapted basis functions of A   symmetry.
   392 basis functions,   768 primitive gaussians,   392 cartesian basis functions
    94 alpha electrons       94 beta electrons
       nuclear repulsion energy      2070.8543327403 Hartrees.
 NAtoms=   36 NActive=   36 NUniq=   36 SFac= 1.00D+00 NAtFMM=   60 NAOKFM=F Big=F
 Integral buffers will be    131072 words long.
 Raffenetti 2 integral format.
 Two-electron integral symmetry is turned on.
 One-electron integrals computed using PRISM.
 NBasis=   392 RedAO= T EigKep=  4.53D-04  NBF=   392
 NBsUse=   392 1.00D-06 EigRej= -1.00D+00 NBFU=   392
 ExpMin= 1.43D-01 ExpMax= 2.52D+04 ExpMxC= 3.78D+03 IAcc=3 IRadAn=         5 AccDes= 0.00D+00
 Harris functional with IExCor=  402 and IRadAn=       5 diagonalized for initial guess.
 HarFok:  IExCor=  402 AccDes= 0.00D+00 IRadAn=         5 IDoV= 1 UseB2=F ITyADJ=14
 ICtDFT=  3500011 ScaDFX=  1.000000  1.000000  1.000000  1.000000
 FoFCou: FMM=F IPFlag=           0 FMFlag=      100000 FMFlg1=           0
         NFxFlg=           0 DoJE=T BraDBF=F KetDBF=T FulRan=T
         wScrn=  0.000000 ICntrl=       500 IOpCl=  0 I1Cent=   200000004 NGrid=           0
         NMat0=    1 NMatS0=      1 NMatT0=    0 NMatD0=    1 NMtDS0=    0 NMtDT0=    0
 Petite list used in FoFCou.
 Gradient too large for Newton-Raphson -- use scaled steepest descent instead.
     Minimum is close to point  2 DX=  3.16D-02 DF= -4.37D-03 DXR=  9.54D-02 DFR=  9.19D-03 which will be used.
 Gradient too large for Newton-Raphson -- use scaled steepest descent instead.
     Accept linear search using points  2 and  3.
 Gradient too large for Newton-Raphson -- use scaled steepest descent instead.
 Gradient too large for Newton-Raphson -- use scaled steepest descent instead.
     Accept linear search using points  1 and  2.
 Gradient too large for Newton-Raphson -- use scaled steepest descent instead.
     Accept linear search using points  2 and  3.
 Gradient too large for Newton-Raphson -- use scaled steepest descent instead.
     Accept linear search using points  1 and  2.
 Gradient too large for Newton-Raphson -- use scaled steepest descent instead.
 LinEq1:  Iter=  0 NonCon=     1 RMS=5.04D-05 Max=2.41D-03 NDo=     1
 AX will form     1 AO Fock derivatives at one time.
 LinEq1:  Iter=  1 NonCon=     1 RMS=5.33D-05 Max=2.87D-03 NDo=     1
 LinEq1:  Iter=  2 NonCon=     1 RMS=1.19D-05 Max=6.37D-04 NDo=     1
 LinEq1:  Iter=  3 NonCon=     1 RMS=9.02D-06 Max=5.52D-04 NDo=     1
 LinEq1:  Iter=  4 NonCon=     1 RMS=4.80D-06 Max=3.07D-04 NDo=     1
 LinEq1:  Iter=  5 NonCon=     1 RMS=3.19D-06 Max=2.47D-04 NDo=     1
 LinEq1:  Iter=  6 NonCon=     1 RMS=2.31D-06 Max=1.88D-04 NDo=     1
 LinEq1:  Iter=  7 NonCon=     1 RMS=1.29D-06 Max=5.62D-05 NDo=     1
 LinEq1:  Iter=  8 NonCon=     1 RMS=6.44D-07 Max=2.74D-05 NDo=     1
 LinEq1:  Iter=  9 NonCon=     1 RMS=4.56D-07 Max=2.22D-05 NDo=     1
 LinEq1:  Iter= 10 NonCon=     1 RMS=2.51D-07 Max=1.33D-05 NDo=     1
 LinEq1:  Iter= 11 NonCon=     1 RMS=2.00D-07 Max=7.90D-06 NDo=     1
 LinEq1:  Iter= 12 NonCon=     1 RMS=1.41D-07 Max=6.68D-06 NDo=     1
 LinEq1:  Iter= 13 NonCon=     1 RMS=1.23D-07 Max=6.94D-06 NDo=     1
 LinEq1:  Iter= 14 NonCon=     1 RMS=7.41D-08 Max=3.53D-06 NDo=     1
 LinEq1:  Iter= 15 NonCon=     1 RMS=4.57D-08 Max=1.26D-06 NDo=     1
 LinEq1:  Iter= 16 NonCon=     1 RMS=2.08D-08 Max=6.15D-07 NDo=     1
 LinEq1:  Iter= 17 NonCon=     1 RMS=1.07D-08 Max=3.79D-07 NDo=     1
 LinEq1:  Iter= 18 NonCon=     1 RMS=6.51D-09 Max=2.45D-07 NDo=     1
 LinEq1:  Iter= 19 NonCon=     0 RMS=3.72D-09 Max=1.80D-07 NDo=     1
 Linear equations converged to 2.367D-08 2.367D-07 after    19 iterations.
 Restarting incremental Fock formation.
     Minimum is close to point  2 DX=  9.05D-04 DF= -1.89D-11 DXR=  9.05D-04 DFR=  8.33D-07 which will be used.
 LinEq1:  Iter=  0 NonCon=     1 RMS=8.16D-08 Max=4.80D-06 NDo=     1
 LinEq1:  Iter=  1 NonCon=     1 RMS=7.16D-08 Max=3.43D-06 NDo=     1
 LinEq1:  Iter=  2 NonCon=     1 RMS=4.97D-08 Max=2.81D-06 NDo=     1
 LinEq1:  Iter=  3 NonCon=     1 RMS=3.30D-08 Max=1.66D-06 NDo=     1
 LinEq1:  Iter=  4 NonCon=     1 RMS=2.73D-08 Max=1.22D-06 NDo=     1
 LinEq1:  Iter=  5 NonCon=     1 RMS=1.95D-08 Max=1.22D-06 NDo=     1
 LinEq1:  Iter=  6 NonCon=     1 RMS=1.27D-08 Max=9.02D-07 NDo=     1
 LinEq1:  Iter=  7 NonCon=     1 RMS=9.58D-09 Max=5.88D-07 NDo=     1
 LinEq1:  Iter=  8 NonCon=     1 RMS=6.11D-09 Max=2.80D-07 NDo=     1
 LinEq1:  Iter=  9 NonCon=     1 RMS=4.69D-09 Max=2.22D-07 NDo=     1
 LinEq1:  Iter= 10 NonCon=     1 RMS=3.06D-09 Max=1.65D-07 NDo=     1
 LinEq1:  Iter= 11 NonCon=     1 RMS=2.78D-09 Max=1.21D-07 NDo=     1
 LinEq1:  Iter= 12 NonCon=     1 RMS=1.76D-09 Max=6.25D-08 NDo=     1
 LinEq1:  Iter= 13 NonCon=     1 RMS=1.08D-09 Max=3.37D-08 NDo=     1
 LinEq1:  Iter= 14 NonCon=     1 RMS=5.50D-10 Max=2.92D-08 NDo=     1
 LinEq1:  Iter= 15 NonCon=     1 RMS=3.69D-10 Max=1.63D-08 NDo=     1
 LinEq1:  Iter= 16 NonCon=     1 RMS=1.80D-10 Max=4.99D-09 NDo=     1
 LinEq1:  Iter= 17 NonCon=     1 RMS=9.69D-11 Max=3.90D-09 NDo=     1
 LinEq1:  Iter= 18 NonCon=     1 RMS=4.61D-11 Max=1.62D-09 NDo=     1
 LinEq1:  Iter= 19 NonCon=     1 RMS=2.72D-11 Max=8.30D-10 NDo=     1
 LinEq1:  Iter= 20 NonCon=     0 RMS=1.63D-11 Max=6.60D-10 NDo=     1
 Linear equations converged to 7.183D-11 7.183D-10 after    20 iterations.
 SCF Done:  E(RB3LYP) =  -1947.64493550     a.u. after   10 cycles
            Convg  =    0.3857D-09                    61 Fock formations.
              S**2 =  0.0000                  -V/T =  2.0063
 DoSCS=F DFT=T ScalE2(SS,OS)=  1.000000  1.000000
 Range of M.O.s used for correlation:     1   392
 NBasis=   392 NAE=    94 NBE=    94 NFC=     0 NFV=     0
 NROrb=    392 NOA=    94 NOB=    94 NVA=   298 NVB=   298

 **** Warning!!: The smallest alpha delta epsilon is  0.90429896D-01

 Symmetrizing basis deriv contribution to polar:
 IMax=3 JMax=2 DiffMx= 0.00D+00
 G2DrvN: will do    37 centers at a time, making    1 passes.
 Calling FoFCou, ICntrl=  3107 FMM=F I1Cent=   0 AccDes= 0.00D+00.
 End of G2Drv F.D. properties file   721 does not exist.
 End of G2Drv F.D. properties file   722 does not exist.
 End of G2Drv F.D. properties file   788 does not exist.
          IDoAtm=111111111111111111111111111111111111
          Differentiating once with respect to electric field.
                with respect to dipole field.
          Differentiating once with respect to nuclear coordinates.
 CalDSu exits because no D1Ps are significant.
          There are   111 degrees of freedom in the 1st order CPHF.  IDoFFX=6 NUNeed=     3.
    108 vectors produced by pass  0 Test12= 2.80D-14 1.00D-09 XBig12= 2.71D+02 6.28D+00.
 AX will form   108 AO Fock derivatives at one time.
    108 vectors produced by pass  1 Test12= 2.80D-14 1.00D-09 XBig12= 6.78D+01 1.90D+00.
    108 vectors produced by pass  2 Test12= 2.80D-14 1.00D-09 XBig12= 1.30D+00 1.33D-01.
    108 vectors produced by pass  3 Test12= 2.80D-14 1.00D-09 XBig12= 1.43D-02 1.29D-02.
    108 vectors produced by pass  4 Test12= 2.80D-14 1.00D-09 XBig12= 3.11D-05 6.11D-04.
    104 vectors produced by pass  5 Test12= 2.80D-14 1.00D-09 XBig12= 3.80D-08 1.49D-05.
     32 vectors produced by pass  6 Test12= 2.80D-14 1.00D-09 XBig12= 3.57D-11 4.22D-07.
      3 vectors produced by pass  7 Test12= 2.80D-14 1.00D-09 XBig12= 2.81D-14 1.19D-08.
 InvSVY:  IOpt=1 It=  1 EMax= 2.13D-14
 Solved reduced A of dimension   679 with   111 vectors.
 Isotropic polarizability for W=    0.000000      213.03 Bohr**3.
 End of Minotr F.D. properties file   721 does not exist.
 End of Minotr F.D. properties file   722 does not exist.
 End of Minotr F.D. properties file   788 does not exist.

 **********************************************************************

            Population analysis using the SCF density.

 **********************************************************************

 Orbital symmetries:
       Occupied  (A) (A) (A) (A) (A) (A) (A) (A) (A) (A) (A) (A)
                 (A) (A) (A) (A) (A) (A) (A) (A) (A) (A) (A) (A)
                 (A) (A) (A) (A) (A) (A) (A) (A) (A) (A) (A) (A)
                 (A) (A) (A) (A) (A) (A) (A) (A) (A) (A) (A) (A)
                 (A) (A) (A) (A) (A) (A) (A) (A) (A) (A) (A) (A)
                 (A) (A) (A) (A) (A) (A) (A) (A) (A) (A) (A) (A)
                 (A) (A) (A) (A) (A) (A) (A) (A) (A) (A) (A) (A)
                 (A) (A) (A) (A) (A) (A) (A) (A) (A) (A)
       Virtual   (A) (A) (A) (A) (A) (A) (A) (A) (A) (A) (A) (A)
                 (A) (A) (A) (A) (A) (A) (A) (A) (A) (A) (A) (A)
                 (A) (A) (A) (A) (A) (A) (A) (A) (A) (A) (A) (A)
                 (A) (A) (A) (A) (A) (A) (A) (A) (A) (A) (A) (A)
                 (A) (A) (A) (A) (A) (A) (A) (A) (A) (A) (A) (A)
                 (A) (A) (A) (A) (A) (A) (A) (A) (A) (A) (A) (A)
                 (A) (A) (A) (A) (A) (A) (A) (A) (A) (A) (A) (A)
                 (A) (A) (A) (A) (A) (A) (A) (A) (A) (A) (A) (A)
                 (A) (A) (A) (A) (A) (A) (A) (A) (A) (A) (A) (A)
                 (A) (A) (A) (A) (A) (A) (A) (A) (A) (A) (A) (A)
                 (A) (A) (A) (A) (A) (A) (A) (A) (A) (A) (A) (A)
                 (A) (A) (A) (A) (A) (A) (A) (A) (A) (A) (A) (A)
                 (A) (A) (A) (A) (A) (A) (A) (A) (A) (A) (A) (A)
                 (A) (A) (A) (A) (A) (A) (A) (A) (A) (A) (A) (A)
                 (A) (A) (A) (A) (A) (A) (A) (A) (A) (A) (A) (A)
                 (A) (A) (A) (A) (A) (A) (A) (A) (A) (A) (A) (A)
                 (A) (A) (A) (A) (A) (A) (A) (A) (A) (A) (A) (A)
                 (A) (A) (A) (A) (A) (A) (A) (A) (A) (A) (A) (A)
                 (A) (A) (A) (A) (A) (A) (A) (A) (A) (A) (A) (A)
                 (A) (A) (A) (A) (A) (A) (A) (A) (A) (A) (A) (A)
                 (A) (A) (A) (A) (A) (A) (A) (A) (A) (A) (A) (A)
                 (A) (A) (A) (A) (A) (A) (A) (A) (A) (A) (A) (A)
                 (A) (A) (A) (A) (A) (A) (A) (A) (A) (A) (A) (A)
                 (A) (A) (A) (A) (A) (A) (A) (A) (A) (A) (A) (A)
                 (A) (A) (A) (A) (A) (A) (A) (A) (A) (A)
 The electronic state is 1-A.
 Alpha  occ. eigenvalues -- -101.55590-101.55138 -19.22416 -19.21795 -19.18002
 Alpha  occ. eigenvalues --  -19.17174 -14.44199 -14.43891 -10.36898 -10.36794
 Alpha  occ. eigenvalues --  -10.26891 -10.26431 -10.26009 -10.25370 -10.21623
 Alpha  occ. eigenvalues --  -10.21599 -10.21337 -10.21162 -10.21015 -10.20964
 Alpha  occ. eigenvalues --  -10.20896 -10.20856 -10.20704 -10.20510  -9.47283
 Alpha  occ. eigenvalues --   -9.46832  -7.23670  -7.23218  -7.22713  -7.22669
 Alpha  occ. eigenvalues --   -7.22259  -7.22222  -1.15732  -1.13394  -1.07836
 Alpha  occ. eigenvalues --   -1.04664  -1.03896  -0.90397  -0.89960  -0.86177
 Alpha  occ. eigenvalues --   -0.85102  -0.84184  -0.78154  -0.76869  -0.76547
 Alpha  occ. eigenvalues --   -0.76204  -0.71590  -0.69645  -0.64208  -0.63183
 Alpha  occ. eigenvalues --   -0.63033  -0.60319  -0.59687  -0.57540  -0.56709
 Alpha  occ. eigenvalues --   -0.53713  -0.52820  -0.52504  -0.51173  -0.50254
 Alpha  occ. eigenvalues --   -0.49431  -0.48452  -0.47690  -0.47545  -0.47005
 Alpha  occ. eigenvalues --   -0.46344  -0.45583  -0.44653  -0.44277  -0.43655
 Alpha  occ. eigenvalues --   -0.43565  -0.42302  -0.40594  -0.40100  -0.39686
 Alpha  occ. eigenvalues --   -0.38625  -0.38351  -0.37767  -0.37165  -0.36357
 Alpha  occ. eigenvalues --   -0.36092  -0.34010  -0.33509  -0.32720  -0.32408
 Alpha  occ. eigenvalues --   -0.32251  -0.31947  -0.31469  -0.31405  -0.27789
 Alpha  occ. eigenvalues --   -0.26901  -0.26611  -0.25268  -0.24379
 Alpha virt. eigenvalues --   -0.15336  -0.02819  -0.02093  -0.02021  -0.01454
 Alpha virt. eigenvalues --    0.00016   0.03374   0.03834   0.04112   0.10230
 Alpha virt. eigenvalues --    0.10349   0.10382   0.10940   0.11738   0.11944
 Alpha virt. eigenvalues --    0.12397   0.12697   0.13794   0.14365   0.16350
 Alpha virt. eigenvalues --    0.16693   0.17123   0.17666   0.18796   0.19552
 Alpha virt. eigenvalues --    0.21008   0.21493   0.22032   0.22610   0.25508
 Alpha virt. eigenvalues --    0.26779   0.27538   0.27580   0.27653   0.29193
 Alpha virt. eigenvalues --    0.30529   0.31267   0.31915   0.32807   0.33204
 Alpha virt. eigenvalues --    0.38105   0.39196   0.39786   0.40234   0.41352
 Alpha virt. eigenvalues --    0.41669   0.41762   0.43012   0.43713   0.44084
 Alpha virt. eigenvalues --    0.45630   0.46426   0.47570   0.47671   0.48974
 Alpha virt. eigenvalues --    0.50013   0.51714   0.52448   0.52656   0.53782
 Alpha virt. eigenvalues --    0.54328   0.54545   0.55087   0.55726   0.56242
 Alpha virt. eigenvalues --    0.57150   0.57675   0.57739   0.57973   0.58004
 Alpha virt. eigenvalues --    0.58437   0.58679   0.59574   0.60112   0.60281
 Alpha virt. eigenvalues --    0.60932   0.62204   0.62326   0.62750   0.63102
 Alpha virt. eigenvalues --    0.63339   0.65044   0.65405   0.66139   0.66360
 Alpha virt. eigenvalues --    0.68293   0.70037   0.71033   0.71771   0.73087
 Alpha virt. eigenvalues --    0.74327   0.74792   0.75321   0.75744   0.76452
 Alpha virt. eigenvalues --    0.77937   0.78896   0.79919   0.80548   0.81316
 Alpha virt. eigenvalues --    0.82040   0.83034   0.83561   0.84185   0.84624
 Alpha virt. eigenvalues --    0.84842   0.85440   0.86153   0.86553   0.86973
 Alpha virt. eigenvalues --    0.87552   0.87844   0.88438   0.89555   0.90210
 Alpha virt. eigenvalues --    0.91223   0.92101   0.92697   0.92897   0.93320
 Alpha virt. eigenvalues --    0.93705   0.95883   0.97231   0.97615   0.98348
 Alpha virt. eigenvalues --    0.99701   1.00724   1.02335   1.03173   1.03760
 Alpha virt. eigenvalues --    1.05242   1.06635   1.07374   1.08610   1.09600
 Alpha virt. eigenvalues --    1.10712   1.12059   1.12287   1.13710   1.14523
 Alpha virt. eigenvalues --    1.15697   1.16720   1.18277   1.18908   1.19415
 Alpha virt. eigenvalues --    1.20318   1.23222   1.23898   1.26401   1.30157
 Alpha virt. eigenvalues --    1.32384   1.33812   1.34195   1.34823   1.37068
 Alpha virt. eigenvalues --    1.37892   1.38994   1.40234   1.40607   1.42121
 Alpha virt. eigenvalues --    1.43127   1.43378   1.44671   1.45393   1.45529
 Alpha virt. eigenvalues --    1.47083   1.47369   1.49118   1.49278   1.49736
 Alpha virt. eigenvalues --    1.53312   1.55116   1.55397   1.56525   1.60616
 Alpha virt. eigenvalues --    1.62276   1.63712   1.65931   1.68770   1.70173
 Alpha virt. eigenvalues --    1.70948   1.73468   1.75644   1.76735   1.77524
 Alpha virt. eigenvalues --    1.77999   1.78497   1.78719   1.80395   1.80894
 Alpha virt. eigenvalues --    1.81604   1.83788   1.83962   1.84431   1.85230
 Alpha virt. eigenvalues --    1.87785   1.89777   1.91211   1.92567   1.94143
 Alpha virt. eigenvalues --    1.94755   1.95877   1.96320   1.99028   2.00299
 Alpha virt. eigenvalues --    2.01876   2.02345   2.02811   2.04881   2.05983
 Alpha virt. eigenvalues --    2.06431   2.06864   2.07700   2.09312   2.11219
 Alpha virt. eigenvalues --    2.12199   2.12341   2.12975   2.13888   2.14639
 Alpha virt. eigenvalues --    2.16008   2.20895   2.21240   2.23486   2.23660
 Alpha virt. eigenvalues --    2.23679   2.25220   2.28675   2.28965   2.30356
 Alpha virt. eigenvalues --    2.32227   2.32328   2.33841   2.35388   2.38160
 Alpha virt. eigenvalues --    2.39801   2.44550   2.46538   2.47936   2.50842
 Alpha virt. eigenvalues --    2.55349   2.56295   2.57579   2.57710   2.59395
 Alpha virt. eigenvalues --    2.62329   2.62842   2.64029   2.64867   2.67281
 Alpha virt. eigenvalues --    2.68056   2.68818   2.71282   2.72964   2.73576
 Alpha virt. eigenvalues --    2.73973   2.74854   2.74870   2.76048   2.78505
 Alpha virt. eigenvalues --    2.79301   2.85451   2.86374   2.88015   2.92650
 Alpha virt. eigenvalues --    2.94823   3.03764   3.04023   3.05356   3.10389
 Alpha virt. eigenvalues --    3.17981   3.24617   3.35962   3.36475   3.77218
 Alpha virt. eigenvalues --    3.92055   3.99622   4.04043   4.04767   4.05125
 Alpha virt. eigenvalues --    4.09690   4.09833   4.10940   4.11384   4.20680
 Alpha virt. eigenvalues --    4.22293   4.24805   4.27548   4.30665   4.31146
 Alpha virt. eigenvalues --    4.32064   4.34339   4.38392   4.41332   4.43345
 Alpha virt. eigenvalues --    4.45988   4.68403   4.69028
          Condensed to atoms (all electrons):
               1          2          3          4          5          6
     1  C    4.726967   0.346608  -0.043913  -0.005885  -0.004709  -0.000829
     2  C    0.346608   5.009292   0.185451  -0.015902  -0.000496   0.004249
     3  O   -0.043913   0.185451   8.227631   0.296371  -0.077408  -0.088657
     4  C   -0.005885  -0.015902   0.296371   4.237413   0.518370   0.243012
     5  O   -0.004709  -0.000496  -0.077408   0.518370   8.049021  -0.072139
     6  N   -0.000829   0.004249  -0.088657   0.243012  -0.072139   6.967474
     7  N    0.000003  -0.000131   0.001659  -0.047987  -0.000527   0.204578
     8  C    0.000000   0.000000  -0.000134   0.004548   0.000380  -0.055716
     9  O    0.000000  -0.000000   0.000000  -0.000118   0.000002   0.001848
    10  O   -0.000000  -0.000000  -0.000001  -0.000131  -0.000010  -0.018620
    11  C   -0.000000   0.000000  -0.000000   0.000004   0.000000   0.000657
    12  C    0.000000   0.000000   0.000000  -0.000002  -0.000000  -0.000031
    13  C   -0.000000  -0.000000   0.000000   0.000007  -0.000000  -0.000988
    14  C    0.000000   0.000000  -0.000000   0.000000   0.000000   0.000004
    15  C    0.000000   0.000000  -0.000000  -0.000000  -0.000000   0.000000
    16  C   -0.000000  -0.000000   0.000000  -0.000000  -0.000000  -0.000000
    17  C   -0.000000  -0.000000  -0.000000   0.000000   0.000000  -0.000000
    18  Cl  -0.000000   0.000000   0.000000  -0.000000   0.000000  -0.000000
    19  C    0.545966  -0.048414  -0.003733   0.003069  -0.002840  -0.000068
    20  C   -0.026613   0.006084  -0.000053  -0.000034   0.000224   0.000003
    21  C   -0.031015   0.000396   0.000004  -0.000005   0.000002   0.000000
    22  C   -0.023534   0.006048  -0.000022  -0.000016  -0.000002  -0.000000
    23  C    0.539643  -0.053661   0.001394   0.000068   0.000062  -0.000021
    24  Cl   0.000555   0.000007  -0.000000  -0.000000   0.000000  -0.000000
    25  H   -0.035017   0.352867  -0.034086  -0.007856   0.012899   0.000088
    26  H   -0.036226   0.367117  -0.027992   0.003892   0.000298  -0.000060
    27  H    0.000000   0.000000  -0.000000   0.000003  -0.000000  -0.000136
    28  H   -0.000000  -0.000000  -0.000000   0.000002   0.000000   0.000110
    29  H    0.000000   0.000000  -0.000003  -0.000013   0.000001   0.003830
    30  H   -0.000000  -0.000000   0.000000   0.000000   0.000000  -0.000001
    31  H   -0.000000  -0.000000  -0.000000   0.000000   0.000000  -0.000000
    32  H    0.000000   0.000000   0.000000   0.000000  -0.000000   0.000000
    33  H   -0.036317  -0.008692   0.000080  -0.000410   0.010681   0.000100
    34  H    0.003650  -0.000153   0.000001   0.000005  -0.000009   0.000000
    35  H    0.003797  -0.000163   0.000001   0.000000  -0.000000   0.000000
    36  H   -0.043886  -0.007816   0.000317   0.000025  -0.000000   0.000000
               7          8          9         10         11         12
     1  C    0.000003   0.000000   0.000000  -0.000000  -0.000000   0.000000
     2  C   -0.000131   0.000000  -0.000000  -0.000000   0.000000   0.000000
     3  O    0.001659  -0.000134   0.000000  -0.000001  -0.000000   0.000000
     4  C   -0.047987   0.004548  -0.000118  -0.000131   0.000004  -0.000002
     5  O   -0.000527   0.000380   0.000002  -0.000010   0.000000  -0.000000
     6  N    0.204578  -0.055716   0.001848  -0.018620   0.000657  -0.000031
     7  N    6.996596   0.237257  -0.061608  -0.100715   0.004249  -0.000116
     8  C    0.237257   4.222233   0.552693   0.276815  -0.014904  -0.001247
     9  O   -0.061608   0.552693   8.005894  -0.077811  -0.009688  -0.000325
    10  O   -0.100715   0.276815  -0.077811   8.248615   0.193667  -0.031174
    11  C    0.004249  -0.014904  -0.009688   0.193667   5.018871   0.340326
    12  C   -0.000116  -0.001247  -0.000325  -0.031174   0.340326   4.740296
    13  C   -0.000045   0.001075   0.000117  -0.002858  -0.061544   0.553941
    14  C   -0.000001  -0.000011   0.000001   0.000371   0.006487  -0.021352
    15  C   -0.000000  -0.000001  -0.000000  -0.000005   0.000416  -0.032394
    16  C   -0.000000   0.000000   0.000000  -0.000064   0.005277  -0.013658
    17  C    0.000001   0.000030  -0.000035   0.002127  -0.061905   0.512647
    18  Cl  -0.000000  -0.000000   0.000000   0.000000   0.000008   0.000686
    19  C    0.000003  -0.000000  -0.000000  -0.000000  -0.000000   0.000000
    20  C    0.000000  -0.000000  -0.000000   0.000000   0.000000  -0.000000
    21  C   -0.000000   0.000000   0.000000   0.000000   0.000000   0.000000
    22  C   -0.000000  -0.000000   0.000000  -0.000000  -0.000000   0.000000
    23  C    0.000000  -0.000000   0.000000  -0.000000  -0.000000   0.000000
    24  Cl   0.000000  -0.000000  -0.000000  -0.000000  -0.000000  -0.000000
    25  H    0.000044   0.000001  -0.000000   0.000000   0.000000  -0.000000
    26  H    0.000003  -0.000000   0.000000   0.000000  -0.000000   0.000000
    27  H    0.000574  -0.009247   0.021909  -0.026874   0.348880  -0.033792
    28  H   -0.000200   0.002295   0.000518  -0.032862   0.364510  -0.040963
    29  H   -0.000435  -0.000469  -0.000086   0.009973  -0.014437  -0.039180
    30  H    0.000000   0.000001  -0.000000   0.000003  -0.000177   0.003680
    31  H    0.000000   0.000000   0.000000   0.000000  -0.000144   0.003382
    32  H   -0.000000  -0.000004  -0.000003   0.000052  -0.006944  -0.051801
    33  H   -0.000003   0.000000  -0.000000   0.000000  -0.000000   0.000000
    34  H   -0.000000   0.000000   0.000000   0.000000   0.000000  -0.000000
    35  H    0.000000   0.000000   0.000000   0.000000   0.000000  -0.000000
    36  H    0.000000   0.000000   0.000000   0.000000   0.000000   0.000000
              13         14         15         16         17         18
     1  C   -0.000000   0.000000   0.000000  -0.000000  -0.000000  -0.000000
     2  C   -0.000000   0.000000   0.000000  -0.000000  -0.000000   0.000000
     3  O    0.000000  -0.000000  -0.000000   0.000000  -0.000000   0.000000
     4  C    0.000007   0.000000  -0.000000  -0.000000   0.000000  -0.000000
     5  O   -0.000000   0.000000  -0.000000  -0.000000   0.000000   0.000000
     6  N   -0.000988   0.000004   0.000000  -0.000000  -0.000000  -0.000000
     7  N   -0.000045  -0.000001  -0.000000  -0.000000   0.000001  -0.000000
     8  C    0.001075  -0.000011  -0.000001   0.000000   0.000030  -0.000000
     9  O    0.000117   0.000001  -0.000000   0.000000  -0.000035   0.000000
    10  O   -0.002858   0.000371  -0.000005  -0.000064   0.002127   0.000000
    11  C   -0.061544   0.006487   0.000416   0.005277  -0.061905   0.000008
    12  C    0.553941  -0.021352  -0.032394  -0.013658   0.512647   0.000686
    13  C    4.941972   0.498461  -0.028787  -0.042986  -0.030601   0.004439
    14  C    0.498461   4.948793   0.530297  -0.034415  -0.043591  -0.071720
    15  C   -0.028787   0.530297   4.933490   0.531940  -0.031474   0.236979
    16  C   -0.042986  -0.034415   0.531940   4.925465   0.510877  -0.071303
    17  C   -0.030601  -0.043591  -0.031474   0.510877   4.976921   0.004647
    18  Cl   0.004439  -0.071720   0.236979  -0.071303   0.004647  16.907442
    19  C   -0.000000   0.000000   0.000000  -0.000000   0.000000  -0.000000
    20  C   -0.000000   0.000000   0.000000  -0.000000   0.000000   0.000000
    21  C    0.000000  -0.000000  -0.000000   0.000000  -0.000000   0.000000
    22  C   -0.000000   0.000000  -0.000000   0.000000  -0.000000   0.000000
    23  C    0.000000  -0.000000   0.000000  -0.000000   0.000000   0.000000
    24  Cl   0.000000   0.000000   0.000000  -0.000000   0.000000  -0.000000
    25  H    0.000000  -0.000000  -0.000000   0.000000   0.000000  -0.000000
    26  H   -0.000000   0.000000   0.000000  -0.000000   0.000000  -0.000000
    27  H    0.002229  -0.000041   0.000015  -0.000082  -0.002096  -0.000000
    28  H    0.000408  -0.000104   0.000027  -0.000149  -0.001092  -0.000000
    29  H    0.356181  -0.044020   0.004620   0.000309   0.005840  -0.000162
    30  H   -0.035362   0.360292  -0.043970   0.004245   0.000829  -0.000398
    31  H    0.000680   0.004409  -0.042917   0.360022  -0.035630  -0.000318
    32  H    0.005312   0.000472   0.004707  -0.041442   0.361803  -0.000175
    33  H    0.000000  -0.000000  -0.000000   0.000000   0.000000  -0.000000
    34  H    0.000000  -0.000000  -0.000000   0.000000   0.000000   0.000000
    35  H   -0.000000   0.000000  -0.000000  -0.000000   0.000000   0.000000
    36  H    0.000000  -0.000000  -0.000000   0.000000   0.000000  -0.000000
              19         20         21         22         23         24
     1  C    0.545966  -0.026613  -0.031015  -0.023534   0.539643   0.000555
     2  C   -0.048414   0.006084   0.000396   0.006048  -0.053661   0.000007
     3  O   -0.003733  -0.000053   0.000004  -0.000022   0.001394  -0.000000
     4  C    0.003069  -0.000034  -0.000005  -0.000016   0.000068  -0.000000
     5  O   -0.002840   0.000224   0.000002  -0.000002   0.000062   0.000000
     6  N   -0.000068   0.000003   0.000000  -0.000000  -0.000021  -0.000000
     7  N    0.000003   0.000000  -0.000000  -0.000000   0.000000   0.000000
     8  C   -0.000000  -0.000000   0.000000  -0.000000  -0.000000  -0.000000
     9  O   -0.000000  -0.000000   0.000000   0.000000   0.000000  -0.000000
    10  O   -0.000000   0.000000   0.000000  -0.000000  -0.000000  -0.000000
    11  C   -0.000000   0.000000   0.000000  -0.000000  -0.000000  -0.000000
    12  C    0.000000  -0.000000   0.000000   0.000000   0.000000  -0.000000
    13  C   -0.000000  -0.000000   0.000000  -0.000000   0.000000   0.000000
    14  C    0.000000   0.000000  -0.000000   0.000000  -0.000000   0.000000
    15  C    0.000000   0.000000  -0.000000  -0.000000   0.000000   0.000000
    16  C   -0.000000  -0.000000   0.000000   0.000000  -0.000000  -0.000000
    17  C    0.000000   0.000000  -0.000000  -0.000000   0.000000   0.000000
    18  Cl  -0.000000   0.000000   0.000000   0.000000   0.000000  -0.000000
    19  C    4.950409   0.498561  -0.029320  -0.042320  -0.040747   0.004465
    20  C    0.498561   4.955547   0.527607  -0.035486  -0.042623  -0.071681
    21  C   -0.029320   0.527607   4.929034   0.531790  -0.030451   0.240295
    22  C   -0.042320  -0.035486   0.531790   4.935481   0.512194  -0.071852
    23  C   -0.040747  -0.042623  -0.030451   0.512194   4.942835   0.004645
    24  Cl   0.004465  -0.071681   0.240295  -0.071852   0.004645  16.898363
    25  H   -0.005484   0.000100  -0.000003  -0.000193   0.004489  -0.000000
    26  H    0.004356  -0.000195   0.000004   0.000069  -0.005548  -0.000000
    27  H   -0.000000   0.000000   0.000000  -0.000000   0.000000   0.000000
    28  H   -0.000000  -0.000000   0.000000   0.000000  -0.000000  -0.000000
    29  H    0.000000   0.000000  -0.000000   0.000000  -0.000000  -0.000000
    30  H   -0.000000  -0.000000   0.000000   0.000000   0.000000  -0.000000
    31  H   -0.000000  -0.000000   0.000000   0.000000  -0.000000  -0.000000
    32  H    0.000000   0.000000  -0.000000  -0.000000   0.000000   0.000000
    33  H    0.356092  -0.040575   0.004336   0.000382   0.005079  -0.000152
    34  H   -0.034092   0.360572  -0.043895   0.004300   0.000706  -0.000475
    35  H    0.000644   0.004345  -0.043343   0.359624  -0.035176  -0.000443
    36  H    0.005296   0.000436   0.004597  -0.041366   0.357701  -0.000171
              25         26         27         28         29         30
     1  C   -0.035017  -0.036226   0.000000  -0.000000   0.000000  -0.000000
     2  C    0.352867   0.367117   0.000000  -0.000000   0.000000  -0.000000
     3  O   -0.034086  -0.027992  -0.000000  -0.000000  -0.000003   0.000000
     4  C   -0.007856   0.003892   0.000003   0.000002  -0.000013   0.000000
     5  O    0.012899   0.000298  -0.000000   0.000000   0.000001   0.000000
     6  N    0.000088  -0.000060  -0.000136   0.000110   0.003830  -0.000001
     7  N    0.000044   0.000003   0.000574  -0.000200  -0.000435   0.000000
     8  C    0.000001  -0.000000  -0.009247   0.002295  -0.000469   0.000001
     9  O   -0.000000   0.000000   0.021909   0.000518  -0.000086  -0.000000
    10  O    0.000000   0.000000  -0.026874  -0.032862   0.009973   0.000003
    11  C    0.000000  -0.000000   0.348880   0.364510  -0.014437  -0.000177
    12  C   -0.000000   0.000000  -0.033792  -0.040963  -0.039180   0.003680
    13  C    0.000000  -0.000000   0.002229   0.000408   0.356181  -0.035362
    14  C   -0.000000   0.000000  -0.000041  -0.000104  -0.044020   0.360292
    15  C   -0.000000   0.000000   0.000015   0.000027   0.004620  -0.043970
    16  C    0.000000  -0.000000  -0.000082  -0.000149   0.000309   0.004245
    17  C    0.000000   0.000000  -0.002096  -0.001092   0.005840   0.000829
    18  Cl  -0.000000  -0.000000  -0.000000  -0.000000  -0.000162  -0.000398
    19  C   -0.005484   0.004356  -0.000000  -0.000000   0.000000  -0.000000
    20  C    0.000100  -0.000195   0.000000  -0.000000   0.000000  -0.000000
    21  C   -0.000003   0.000004   0.000000   0.000000  -0.000000   0.000000
    22  C   -0.000193   0.000069  -0.000000   0.000000   0.000000   0.000000
    23  C    0.004489  -0.005548   0.000000  -0.000000  -0.000000   0.000000
    24  Cl  -0.000000  -0.000000   0.000000  -0.000000  -0.000000  -0.000000
    25  H    0.563837  -0.035263   0.000000  -0.000000  -0.000000   0.000000
    26  H   -0.035263   0.549221  -0.000000   0.000000   0.000000  -0.000000
    27  H    0.000000  -0.000000   0.534891  -0.038044   0.000217   0.000002
    28  H   -0.000000   0.000000  -0.038044   0.566852   0.000350   0.000003
    29  H   -0.000000   0.000000   0.000217   0.000350   0.568751  -0.005395
    30  H    0.000000  -0.000000   0.000002   0.000003  -0.005395   0.560136
    31  H    0.000000  -0.000000   0.000001   0.000001   0.000014  -0.000173
    32  H   -0.000000   0.000000   0.002108   0.002117  -0.000153   0.000016
    33  H    0.004263   0.000057   0.000000  -0.000000  -0.000000   0.000000
    34  H   -0.000003   0.000003   0.000000   0.000000  -0.000000   0.000000
    35  H    0.000003  -0.000005  -0.000000   0.000000   0.000000   0.000000
    36  H    0.000088   0.004797   0.000000   0.000000  -0.000000   0.000000
              31         32         33         34         35         36
     1  C   -0.000000   0.000000  -0.036317   0.003650   0.003797  -0.043886
     2  C   -0.000000   0.000000  -0.008692  -0.000153  -0.000163  -0.007816
     3  O   -0.000000   0.000000   0.000080   0.000001   0.000001   0.000317
     4  C    0.000000   0.000000  -0.000410   0.000005   0.000000   0.000025
     5  O    0.000000  -0.000000   0.010681  -0.000009  -0.000000  -0.000000
     6  N   -0.000000   0.000000   0.000100   0.000000   0.000000   0.000000
     7  N    0.000000  -0.000000  -0.000003  -0.000000   0.000000   0.000000
     8  C    0.000000  -0.000004   0.000000   0.000000   0.000000   0.000000
     9  O    0.000000  -0.000003  -0.000000   0.000000   0.000000   0.000000
    10  O    0.000000   0.000052   0.000000   0.000000   0.000000   0.000000
    11  C   -0.000144  -0.006944  -0.000000   0.000000   0.000000   0.000000
    12  C    0.003382  -0.051801   0.000000  -0.000000  -0.000000   0.000000
    13  C    0.000680   0.005312   0.000000   0.000000  -0.000000   0.000000
    14  C    0.004409   0.000472  -0.000000  -0.000000   0.000000  -0.000000
    15  C   -0.042917   0.004707  -0.000000  -0.000000  -0.000000  -0.000000
    16  C    0.360022  -0.041442   0.000000   0.000000  -0.000000   0.000000
    17  C   -0.035630   0.361803   0.000000   0.000000   0.000000   0.000000
    18  Cl  -0.000318  -0.000175  -0.000000   0.000000   0.000000  -0.000000
    19  C   -0.000000   0.000000   0.356092  -0.034092   0.000644   0.005296
    20  C   -0.000000   0.000000  -0.040575   0.360572   0.004345   0.000436
    21  C    0.000000  -0.000000   0.004336  -0.043895  -0.043343   0.004597
    22  C    0.000000  -0.000000   0.000382   0.004300   0.359624  -0.041366
    23  C   -0.000000   0.000000   0.005079   0.000706  -0.035176   0.357701
    24  Cl  -0.000000   0.000000  -0.000152  -0.000475  -0.000443  -0.000171
    25  H    0.000000  -0.000000   0.004263  -0.000003   0.000003   0.000088
    26  H   -0.000000   0.000000   0.000057   0.000003  -0.000005   0.004797
    27  H    0.000001   0.002108   0.000000   0.000000  -0.000000   0.000000
    28  H    0.000001   0.002117  -0.000000   0.000000   0.000000   0.000000
    29  H    0.000014  -0.000153  -0.000000  -0.000000   0.000000  -0.000000
    30  H   -0.000173   0.000016   0.000000   0.000000   0.000000   0.000000
    31  H    0.561139  -0.005694   0.000000   0.000000   0.000000   0.000000
    32  H   -0.005694   0.594052  -0.000000   0.000000  -0.000000  -0.000000
    33  H    0.000000  -0.000000   0.535066  -0.005272   0.000013  -0.000160
    34  H    0.000000   0.000000  -0.005272   0.555650  -0.000172   0.000015
    35  H    0.000000  -0.000000   0.000013  -0.000172   0.560384  -0.005702
    36  H    0.000000  -0.000000  -0.000160   0.000015  -0.005702   0.583746
 Mulliken charges:
               1
     1  C    0.120754
     2  C   -0.142692
     3  O   -0.436907
     4  C    0.771571
     5  O   -0.433800
     6  N   -0.188687
     7  N   -0.233199
     8  C    0.784406
     9  O   -0.433308
    10  O   -0.440499
    11  C   -0.113609
    12  C    0.111078
    13  C   -0.161650
    14  C   -0.134332
    15  C   -0.062943
    16  C   -0.134035
    17  C   -0.169297
    18  Cl  -0.010126
    19  C   -0.161845
    20  C   -0.136221
    21  C   -0.060033
    22  C   -0.135098
    23  C   -0.160590
    24  Cl  -0.003556
    25  H    0.179226
    26  H    0.175471
    27  H    0.199481
    28  H    0.176221
    29  H    0.154268
    30  H    0.156269
    31  H    0.155228
    32  H    0.135577
    33  H    0.175433
    34  H    0.159170
    35  H    0.156192
    36  H    0.142081
 Sum of Mulliken charges =   0.00000
 Mulliken charges with hydrogens summed into heavy atoms:
               1
     1  C    0.120754
     2  C    0.212005
     3  O   -0.436907
     4  C    0.771571
     5  O   -0.433800
     6  N   -0.188687
     7  N   -0.233199
     8  C    0.784406
     9  O   -0.433308
    10  O   -0.440499
    11  C    0.262093
    12  C    0.111078
    13  C   -0.007383
    14  C    0.021936
    15  C   -0.062943
    16  C    0.021192
    17  C   -0.033720
    18  Cl  -0.010126
    19  C    0.013588
    20  C    0.022950
    21  C   -0.060033
    22  C    0.021094
    23  C   -0.018509
    24  Cl  -0.003556
 APT charges:
               1
     1  C   -0.134268
     2  C    0.718725
     3  O   -0.939671
     4  C    1.196989
     5  O   -0.649310
     6  N   -0.159037
     7  N   -0.242552
     8  C    1.276306
     9  O   -0.625701
    10  O   -0.902565
    11  C    0.543271
    12  C    0.011629
    13  C   -0.035418
    14  C   -0.087656
    15  C    0.410979
    16  C   -0.101139
    17  C   -0.013684
    18  Cl  -0.351194
    19  C   -0.015295
    20  C   -0.124142
    21  C    0.465769
    22  C   -0.135056
    23  C    0.023391
    24  Cl  -0.361509
    25  H   -0.024549
    26  H   -0.025924
    27  H   -0.000844
    28  H   -0.064701
    29  H    0.045993
    30  H    0.043466
    31  H    0.042023
    32  H    0.022287
    33  H    0.077399
    34  H    0.046721
    35  H    0.044575
    36  H    0.024693
 Sum of APT charges =   0.00000
 APT charges with hydrogens summed into heavy atoms:
               1
     1  C   -0.134268
     2  C    0.668251
     3  O   -0.939671
     4  C    1.196989
     5  O   -0.649310
     6  N   -0.159037
     7  N   -0.242552
     8  C    1.276306
     9  O   -0.625701
    10  O   -0.902565
    11  C    0.477725
    12  C    0.011629
    13  C    0.010575
    14  C   -0.044190
    15  C    0.410979
    16  C   -0.059115
    17  C    0.008603
    18  Cl  -0.351194
    19  C    0.062103
    20  C   -0.077421
    21  C    0.465769
    22  C   -0.090481
    23  C    0.048084
    24  Cl  -0.361509
 Electronic spatial extent (au):  <R**2>=          15317.9530
 Charge=              0.0000 electrons
 Dipole moment (field-independent basis, Debye):
    X=             -0.6219    Y=             -1.2267    Z=              3.4908  Tot=              3.7519
 Quadrupole moment (field-independent basis, Debye-Ang):
   XX=           -140.2474   YY=           -160.6155   ZZ=           -148.1223
   XY=              0.0334   XZ=              0.5733   YZ=             -9.8762
 Traceless Quadrupole moment (field-independent basis, Debye-Ang):
   XX=              9.4144   YY=            -10.9538   ZZ=              1.5394
   XY=              0.0334   XZ=              0.5733   YZ=             -9.8762
 Octapole moment (field-independent basis, Debye-Ang**2):
  XXX=             79.9755  YYY=            -16.3100  ZZZ=              4.9437  XYY=            -28.5402
  XXY=            -89.9849  XXZ=             58.3128  XZZ=            -33.8898  YZZ=              8.4517
  YYZ=             41.9353  XYZ=            -14.6286
 Hexadecapole moment (field-independent basis, Debye-Ang**3):
 XXXX=         -14412.7099 YYYY=          -4980.9700 ZZZZ=           -702.4626 XXXY=            -12.6636
 XXXZ=            142.4128 YYYX=             26.4962 YYYZ=           -139.1034 ZZZX=            -21.8278
 ZZZY=            -21.3788 XXYY=          -3429.9592 XXZZ=          -2481.8072 YYZZ=           -973.3731
 XXYZ=            -54.4896 YYXZ=              9.2548 ZZXY=            -20.7326
 N-N= 2.070854332740D+03 E-N=-8.721183286322D+03  KE= 1.935538667308D+03
  Exact polarizability: 234.788 -26.895 251.504   8.177  -4.237 152.798
 Approx polarizability: 312.897 -49.230 383.158  15.380   2.858 278.679
 Calling FoFJK, ICntrl=    100127 FMM=F ISym2X=0 I1Cent= 0 IOpClX= 0 NMat=1 NMatS=1 NMatT=0.
 ***** Axes restored to original set *****
 -------------------------------------------------------------------
 Center     Atomic                   Forces (Hartrees/Bohr)
 Number     Number              X              Y              Z
 -------------------------------------------------------------------
      1        6           0.007293732   -0.003720863   -0.001150926
      2        6          -0.009853260   -0.027071293    0.012898500
      3        8          -0.008489669    0.020720894   -0.002052773
      4        6           0.013794972   -0.074188752   -0.005531849
      5        8           0.009850200    0.023496933   -0.004838756
      6        7          -0.010569747    0.026015644    0.003158077
      7        7           0.000736941   -0.049358679   -0.006585337
      8        6          -0.011595502    0.075497087    0.003647765
      9        8           0.025328037   -0.026847985    0.000921070
     10        8          -0.018042116    0.017036468   -0.004351669
     11        6           0.002847915    0.011324512    0.004226697
     12        6           0.006505732   -0.001527952    0.005288754
     13        6          -0.002365776    0.002621877    0.000931133
     14        6          -0.000259216   -0.004386970   -0.001889154
     15        6          -0.004202896   -0.007048359   -0.012293304
     16        6          -0.003581874    0.003032910   -0.006794214
     17        6           0.000556376   -0.003514409    0.003838070
     18       17           0.005869000    0.006959390    0.015067545
     19        6           0.001150885   -0.000644697    0.002918487
     20        6          -0.006165692   -0.000706154   -0.002690274
     21        6          -0.005988191    0.003940210   -0.012762742
     22        6           0.004308470    0.004281929   -0.005635942
     23        6          -0.003044542   -0.000827476    0.005240431
     24       17           0.006685658   -0.004475899    0.014579432
     25        1           0.000824878    0.000646549   -0.001853664
     26        1          -0.003927482    0.015835140   -0.000568925
     27        1           0.000130183   -0.006929429   -0.001014156
     28        1           0.000594453   -0.003958142   -0.002857312
     29        1          -0.000773527    0.003351948   -0.000811503
     30        1          -0.000143070    0.001577545   -0.000147087
     31        1           0.000529549   -0.001260701    0.000714246
     32        1          -0.000257322   -0.000872119    0.000175668
     33        1           0.003196167    0.001982213   -0.000371185
     34        1           0.001626565    0.000205452   -0.000326125
     35        1          -0.001143583   -0.000988992    0.000785308
     36        1          -0.001426250   -0.000197830    0.000135712
 -------------------------------------------------------------------
 Cartesian Forces:  Max     0.075497087 RMS     0.013950034
 FormGI is forming the generalized inverse of G from B-inverse, IUseBI=4.

 GradGradGradGradGradGradGradGradGradGradGradGradGradGradGradGradGradGrad
 Berny optimization.
 Internal  Forces:  Max     0.062053025 RMS     0.009437425
 Search for a local minimum.
 Step number   1 out of a maximum of  180
 All quantities printed in internal units (Hartrees-Bohrs-Radians)
 Mixed Optimization -- RFO/linear search
 Second derivative matrix not updated -- analytic derivatives used.
 ITU=  0
     Eigenvalues ---   -0.02235  -0.00141  -0.00090  -0.00032   0.00087
     Eigenvalues ---    0.00868   0.01480   0.01632   0.01716   0.01727
     Eigenvalues ---    0.01749   0.01774   0.01778   0.02045   0.02077
     Eigenvalues ---    0.02263   0.02265   0.02499   0.02540   0.02660
     Eigenvalues ---    0.02670   0.02693   0.02751   0.02789   0.03041
     Eigenvalues ---    0.03128   0.05968   0.06163   0.06969   0.07170
     Eigenvalues ---    0.08709   0.10204   0.10467   0.10508   0.11383
     Eigenvalues ---    0.11418   0.11619   0.11711   0.11945   0.11985
     Eigenvalues ---    0.12032   0.12840   0.12897   0.13825   0.14109
     Eigenvalues ---    0.17420   0.17436   0.17961   0.18046   0.18938
     Eigenvalues ---    0.19206   0.19405   0.19432   0.20547   0.20579
     Eigenvalues ---    0.21308   0.21652   0.23202   0.24098   0.24226
     Eigenvalues ---    0.25873   0.26678   0.28892   0.28963   0.29398
     Eigenvalues ---    0.29565   0.30365   0.31237   0.31387   0.32784
     Eigenvalues ---    0.33245   0.33649   0.33775   0.34300   0.35543
[...]
   140    O   10  px     Val( 2p)     1.53737
   141    O   10  px     Ryd( 3p)     0.00145
   142    O   10  py     Val( 2p)     1.62366
   143    O   10  py     Ryd( 3p)     0.00130
   144    O   10  pz     Val( 2p)     1.71788
   145    O   10  pz     Ryd( 3p)     0.00157
   146    O   10  dxy    Ryd( 3d)     0.00052
   147    O   10  dxz    Ryd( 3d)     0.00175
   148    O   10  dyz    Ryd( 3d)     0.00173
   149    O   10  dx2y2  Ryd( 3d)     0.00033
   150    O   10  dz2    Ryd( 3d)     0.00158
 
   151    C   11  S      Cor( 1S)     1.99912
   152    C   11  S      Val( 2S)     1.03192
   153    C   11  S      Ryd( 3S)     0.00119
   154    C   11  S      Ryd( 4S)     0.00005
   155    C   11  px     Val( 2p)     0.82245
   156    C   11  px     Ryd( 3p)     0.00278
   157    C   11  py     Val( 2p)     1.02069
   158    C   11  py     Ryd( 3p)     0.00191
   159    C   11  pz     Val( 2p)     1.23249
   160    C   11  pz     Ryd( 3p)     0.00717
   161    C   11  dxy    Ryd( 3d)     0.00153
   162    C   11  dxz    Ryd( 3d)     0.00077
   163    C   11  dyz    Ryd( 3d)     0.00132
   164    C   11  dx2y2  Ryd( 3d)     0.00138
   165    C   11  dz2    Ryd( 3d)     0.00110
 
   166    C   12  S      Cor( 1S)     1.99901
   167    C   12  S      Val( 2S)     0.88887
   168    C   12  S      Ryd( 3S)     0.00069
   169    C   12  S      Ryd( 4S)     0.00006
   170    C   12  px     Val( 2p)     1.05522
   171    C   12  px     Ryd( 3p)     0.00423
   172    C   12  py     Val( 2p)     1.04741
   173    C   12  py     Ryd( 3p)     0.00241
   174    C   12  pz     Val( 2p)     1.08908
   175    C   12  pz     Ryd( 3p)     0.00420
   176    C   12  dxy    Ryd( 3d)     0.00053
   177    C   12  dxz    Ryd( 3d)     0.00067
   178    C   12  dyz    Ryd( 3d)     0.00060
   179    C   12  dx2y2  Ryd( 3d)     0.00040
   180    C   12  dz2    Ryd( 3d)     0.00060
 
   181    C   13  S      Cor( 1S)     1.99903
   182    C   13  S      Val( 2S)     0.95352
   183    C   13  S      Ryd( 3S)     0.00058
   184    C   13  S      Ryd( 4S)     0.00005
   185    C   13  px     Val( 2p)     1.04956
   186    C   13  px     Ryd( 3p)     0.00318
   187    C   13  py     Val( 2p)     1.03856
   188    C   13  py     Ryd( 3p)     0.00196
   189    C   13  pz     Val( 2p)     1.14480
   190    C   13  pz     Ryd( 3p)     0.00452
   191    C   13  dxy    Ryd( 3d)     0.00048
   192    C   13  dxz    Ryd( 3d)     0.00058
   193    C   13  dyz    Ryd( 3d)     0.00066
   194    C   13  dx2y2  Ryd( 3d)     0.00049
   195    C   13  dz2    Ryd( 3d)     0.00060
 
   196    C   14  S      Cor( 1S)     1.99893
   197    C   14  S      Val( 2S)     0.95927
   198    C   14  S      Ryd( 3S)     0.00097
   199    C   14  S      Ryd( 4S)     0.00005
   200    C   14  px     Val( 2p)     1.08547
   201    C   14  px     Ryd( 3p)     0.00429
   202    C   14  py     Val( 2p)     1.02011
   203    C   14  py     Ryd( 3p)     0.00229
   204    C   14  pz     Val( 2p)     1.16458
   205    C   14  pz     Ryd( 3p)     0.00461
   206    C   14  dxy    Ryd( 3d)     0.00039
   207    C   14  dxz    Ryd( 3d)     0.00075
   208    C   14  dyz    Ryd( 3d)     0.00048
   209    C   14  dx2y2  Ryd( 3d)     0.00050
   210    C   14  dz2    Ryd( 3d)     0.00059
 
   211    C   15  S      Cor( 1S)     1.99856
   212    C   15  S      Val( 2S)     0.93329
   213    C   15  S      Ryd( 3S)     0.00060
   214    C   15  S      Ryd( 4S)     0.00009
   215    C   15  px     Val( 2p)     0.96104
   216    C   15  px     Ryd( 3p)     0.00552
   217    C   15  py     Val( 2p)     1.01847
   218    C   15  py     Ryd( 3p)     0.00317
   219    C   15  pz     Val( 2p)     1.10187
   220    C   15  pz     Ryd( 3p)     0.00724
   221    C   15  dxy    Ryd( 3d)     0.00138
   222    C   15  dxz    Ryd( 3d)     0.00089
   223    C   15  dyz    Ryd( 3d)     0.00073
   224    C   15  dx2y2  Ryd( 3d)     0.00115
   225    C   15  dz2    Ryd( 3d)     0.00101
 
   226    C   16  S      Cor( 1S)     1.99894
   227    C   16  S      Val( 2S)     0.95991
   228    C   16  S      Ryd( 3S)     0.00098
   229    C   16  S      Ryd( 4S)     0.00005
   230    C   16  px     Val( 2p)     1.06058
   231    C   16  px     Ryd( 3p)     0.00414
   232    C   16  py     Val( 2p)     1.05554
   233    C   16  py     Ryd( 3p)     0.00251
   234    C   16  pz     Val( 2p)     1.15244
   235    C   16  pz     Ryd( 3p)     0.00456
   236    C   16  dxy    Ryd( 3d)     0.00047
   237    C   16  dxz    Ryd( 3d)     0.00062
   238    C   16  dyz    Ryd( 3d)     0.00060
   239    C   16  dx2y2  Ryd( 3d)     0.00044
   240    C   16  dz2    Ryd( 3d)     0.00058
 
   241    C   17  S      Cor( 1S)     1.99903
   242    C   17  S      Val( 2S)     0.95667
   243    C   17  S      Ryd( 3S)     0.00059
   244    C   17  S      Ryd( 4S)     0.00004
   245    C   17  px     Val( 2p)     1.06935
   246    C   17  px     Ryd( 3p)     0.00353
   247    C   17  py     Val( 2p)     0.99575
   248    C   17  py     Ryd( 3p)     0.00165
   249    C   17  pz     Val( 2p)     1.16442
   250    C   17  pz     Ryd( 3p)     0.00472
   251    C   17  dxy    Ryd( 3d)     0.00042
   252    C   17  dxz    Ryd( 3d)     0.00077
   253    C   17  dyz    Ryd( 3d)     0.00043
   254    C   17  dx2y2  Ryd( 3d)     0.00056
   255    C   17  dz2    Ryd( 3d)     0.00066
 
   256   Cl   18  S      Cor( 1S)     2.00000
   257   Cl   18  S      Cor( 2S)     1.99979
   258   Cl   18  S      Val( 3S)     1.83543
   259   Cl   18  S      Ryd( 4S)     0.00331
   260   Cl   18  S      Ryd( 5S)     0.00000
   261   Cl   18  px     Cor( 2p)     1.99993
   262   Cl   18  px     Val( 3p)     1.44218
   263   Cl   18  px     Ryd( 4p)     0.00329
   264   Cl   18  py     Cor( 2p)     1.99997
   265   Cl   18  py     Val( 3p)     1.73251
   266   Cl   18  py     Ryd( 4p)     0.00229
   267   Cl   18  pz     Cor( 2p)     1.99999
   268   Cl   18  pz     Val( 3p)     1.96746
   269   Cl   18  pz     Ryd( 4p)     0.00153
   270   Cl   18  dxy    Ryd( 3d)     0.00361
   271   Cl   18  dxz    Ryd( 3d)     0.00090
   272   Cl   18  dyz    Ryd( 3d)     0.00040
   273   Cl   18  dx2y2  Ryd( 3d)     0.00257
   274   Cl   18  dz2    Ryd( 3d)     0.00139
 
   275    C   19  S      Cor( 1S)     1.99903
   276    C   19  S      Val( 2S)     0.95667
   277    C   19  S      Ryd( 3S)     0.00059
   278    C   19  S      Ryd( 4S)     0.00004
   279    C   19  px     Val( 2p)     1.06938
   280    C   19  px     Ryd( 3p)     0.00353
   281    C   19  py     Val( 2p)     0.99577
   282    C   19  py     Ryd( 3p)     0.00165
   283    C   19  pz     Val( 2p)     1.16437
   284    C   19  pz     Ryd( 3p)     0.00472
   285    C   19  dxy    Ryd( 3d)     0.00042
   286    C   19  dxz    Ryd( 3d)     0.00077
   287    C   19  dyz    Ryd( 3d)     0.00043
   288    C   19  dx2y2  Ryd( 3d)     0.00056
   289    C   19  dz2    Ryd( 3d)     0.00066
 
   290    C   20  S      Cor( 1S)     1.99894
   291    C   20  S      Val( 2S)     0.95991
   292    C   20  S      Ryd( 3S)     0.00098
   293    C   20  S      Ryd( 4S)     0.00005
   294    C   20  px     Val( 2p)     1.06053
   295    C   20  px     Ryd( 3p)     0.00414
   296    C   20  py     Val( 2p)     1.05551
   297    C   20  py     Ryd( 3p)     0.00251
   298    C   20  pz     Val( 2p)     1.15251
   299    C   20  pz     Ryd( 3p)     0.00456
   300    C   20  dxy    Ryd( 3d)     0.00047
   301    C   20  dxz    Ryd( 3d)     0.00062
   302    C   20  dyz    Ryd( 3d)     0.00060
   303    C   20  dx2y2  Ryd( 3d)     0.00044
   304    C   20  dz2    Ryd( 3d)     0.00058
 
   305    C   21  S      Cor( 1S)     1.99856
   306    C   21  S      Val( 2S)     0.93329
   307    C   21  S      Ryd( 3S)     0.00060
   308    C   21  S      Ryd( 4S)     0.00009
   309    C   21  px     Val( 2p)     0.96108
   310    C   21  px     Ryd( 3p)     0.00552
   311    C   21  py     Val( 2p)     1.01843
   312    C   21  py     Ryd( 3p)     0.00317
   313    C   21  pz     Val( 2p)     1.10188
   314    C   21  pz     Ryd( 3p)     0.00724
   315    C   21  dxy    Ryd( 3d)     0.00138
   316    C   21  dxz    Ryd( 3d)     0.00089
   317    C   21  dyz    Ryd( 3d)     0.00073
   318    C   21  dx2y2  Ryd( 3d)     0.00115
   319    C   21  dz2    Ryd( 3d)     0.00101
 
   320    C   22  S      Cor( 1S)     1.99893
   321    C   22  S      Val( 2S)     0.95927
   322    C   22  S      Ryd( 3S)     0.00097
   323    C   22  S      Ryd( 4S)     0.00005
   324    C   22  px     Val( 2p)     1.08550
   325    C   22  px     Ryd( 3p)     0.00429
   326    C   22  py     Val( 2p)     1.02012
   327    C   22  py     Ryd( 3p)     0.00229
   328    C   22  pz     Val( 2p)     1.16454
   329    C   22  pz     Ryd( 3p)     0.00461
   330    C   22  dxy    Ryd( 3d)     0.00039
   331    C   22  dxz    Ryd( 3d)     0.00075
   332    C   22  dyz    Ryd( 3d)     0.00048
   333    C   22  dx2y2  Ryd( 3d)     0.00050
   334    C   22  dz2    Ryd( 3d)     0.00059
 
   335    C   23  S      Cor( 1S)     1.99903
   336    C   23  S      Val( 2S)     0.95352
   337    C   23  S      Ryd( 3S)     0.00058
   338    C   23  S      Ryd( 4S)     0.00005
   339    C   23  px     Val( 2p)     1.04952
   340    C   23  px     Ryd( 3p)     0.00318
   341    C   23  py     Val( 2p)     1.03853
   342    C   23  py     Ryd( 3p)     0.00196
   343    C   23  pz     Val( 2p)     1.14487
   344    C   23  pz     Ryd( 3p)     0.00453
   345    C   23  dxy    Ryd( 3d)     0.00048
   346    C   23  dxz    Ryd( 3d)     0.00058
   347    C   23  dyz    Ryd( 3d)     0.00066
   348    C   23  dx2y2  Ryd( 3d)     0.00049
   349    C   23  dz2    Ryd( 3d)     0.00060
 
   350   Cl   24  S      Cor( 1S)     2.00000
   351   Cl   24  S      Cor( 2S)     1.99979
   352   Cl   24  S      Val( 3S)     1.83543
   353   Cl   24  S      Ryd( 4S)     0.00331
   354   Cl   24  S      Ryd( 5S)     0.00000
   355   Cl   24  px     Cor( 2p)     1.99993
   356   Cl   24  px     Val( 3p)     1.44233
   357   Cl   24  px     Ryd( 4p)     0.00329
   358   Cl   24  py     Cor( 2p)     1.99997
   359   Cl   24  py     Val( 3p)     1.73233
   360   Cl   24  py     Ryd( 4p)     0.00229
   361   Cl   24  pz     Cor( 2p)     1.99999
   362   Cl   24  pz     Val( 3p)     1.96749
   363   Cl   24  pz     Ryd( 4p)     0.00153
   364   Cl   24  dxy    Ryd( 3d)     0.00361
   365   Cl   24  dxz    Ryd( 3d)     0.00090
   366   Cl   24  dyz    Ryd( 3d)     0.00040
   367   Cl   24  dx2y2  Ryd( 3d)     0.00257
   368   Cl   24  dz2    Ryd( 3d)     0.00139
 
   369    H   25  S      Val( 1S)     0.75363
   370    H   25  S      Ryd( 2S)     0.00211
 
   371    H   26  S      Val( 1S)     0.75511
   372    H   26  S      Ryd( 2S)     0.00116
 
   373    H   27  S      Val( 1S)     0.75363
   374    H   27  S      Ryd( 2S)     0.00211
 
   375    H   28  S      Val( 1S)     0.75511
   376    H   28  S      Ryd( 2S)     0.00116
 
   377    H   29  S      Val( 1S)     0.75456
   378    H   29  S      Ryd( 2S)     0.00101
 
   379    H   30  S      Val( 1S)     0.74222
   380    H   30  S      Ryd( 2S)     0.00101
 
   381    H   31  S      Val( 1S)     0.74148
   382    H   31  S      Ryd( 2S)     0.00100
 
   383    H   32  S      Val( 1S)     0.74030
   384    H   32  S      Ryd( 2S)     0.00139
 
   385    H   33  S      Val( 1S)     0.74030
   386    H   33  S      Ryd( 2S)     0.00139
 
   387    H   34  S      Val( 1S)     0.74148
   388    H   34  S      Ryd( 2S)     0.00100
 
   389    H   35  S      Val( 1S)     0.74222
   390    H   35  S      Ryd( 2S)     0.00101
 
   391    H   36  S      Val( 1S)     0.75456
   392    H   36  S      Ryd( 2S)     0.00101

 WARNING:  1 low occupancy (<1.9990e) core orbital  found on  C   14
           1 low occupancy (<1.9990e) core orbital  found on  C   15
           1 low occupancy (<1.9990e) core orbital  found on  C   16
           1 low occupancy (<1.9990e) core orbital  found on  C   20
           1 low occupancy (<1.9990e) core orbital  found on  C   21
           1 low occupancy (<1.9990e) core orbital  found on  C   22


 Summary of Natural Population Analysis:                  
                                                          
                                       Natural Population 
                Natural  -----------------------------------------------
    Atom  No    Charge         Core      Valence    Rydberg      Total
 -----------------------------------------------------------------------
      C    1   -0.09396      1.99901     4.08057    0.01439     6.09396
      C    2   -0.12587      1.99912     4.10755    0.01920     6.12587
      O    3   -0.52123      1.99973     6.50917    0.01234     8.52123
      C    4    0.92266      1.99950     3.02724    0.05059     5.07734
      O    5   -0.55358      1.99977     6.53313    0.02069     8.55358
      N    6   -0.21864      1.99938     5.19296    0.02630     7.21864
      N    7   -0.21864      1.99938     5.19295    0.02630     7.21864
      C    8    0.92265      1.99950     3.02726    0.05059     5.07735
      O    9   -0.55360      1.99977     6.53315    0.02069     8.55360
      O   10   -0.52124      1.99973     6.50918    0.01234     8.52124
      C   11   -0.12587      1.99912     4.10755    0.01920     6.12587
      C   12   -0.09396      1.99901     4.08057    0.01439     6.09396
      C   13   -0.19858      1.99903     4.18643    0.01311     6.19858
      C   14   -0.24328      1.99893     4.22943    0.01492     6.24328
      C   15   -0.03501      1.99856     4.01468    0.02177     6.03501
      C   16   -0.24234      1.99894     4.22847    0.01494     6.24234
      C   17   -0.19859      1.99903     4.18619    0.01337     6.19859
     Cl   18    0.00344      9.99967     6.97759    0.01930    16.99656
      C   19   -0.19859      1.99903     4.18619    0.01337     6.19859
      C   20   -0.24234      1.99894     4.22847    0.01494     6.24234
      C   21   -0.03501      1.99856     4.01468    0.02177     6.03501
      C   22   -0.24328      1.99893     4.22943    0.01492     6.24328
      C   23   -0.19858      1.99903     4.18643    0.01311     6.19858
     Cl   24    0.00344      9.99967     6.97759    0.01930    16.99656
      H   25    0.24426      0.00000     0.75363    0.00211     0.75574
      H   26    0.24372      0.00000     0.75511    0.00116     0.75628
      H   27    0.24426      0.00000     0.75363    0.00211     0.75574
      H   28    0.24372      0.00000     0.75511    0.00116     0.75628
      H   29    0.24443      0.00000     0.75456    0.00101     0.75557
      H   30    0.25676      0.00000     0.74222    0.00101     0.74324
      H   31    0.25752      0.00000     0.74148    0.00100     0.74248
      H   32    0.25831      0.00000     0.74030    0.00139     0.74169
      H   33    0.25831      0.00000     0.74030    0.00139     0.74169
      H   34    0.25752      0.00000     0.74148    0.00100     0.74248
      H   35    0.25677      0.00000     0.74222    0.00101     0.74323
      H   36    0.24443      0.00000     0.75456    0.00101     0.75557
 =======================================================================
   * Total *    0.00000     63.98135   123.52146    0.49719   188.00000

                                 Natural Population      
 --------------------------------------------------------
   Core                      63.98135 ( 99.9709% of  64)
   Valence                  123.52146 ( 99.6141% of 124)
   Natural Minimal Basis    187.50281 ( 99.7355% of 188)
   Natural Rydberg Basis      0.49719 (  0.2645% of 188)
 --------------------------------------------------------

    Atom  No          Natural Electron Configuration
 ----------------------------------------------------------------------------
      C    1      [core]2S( 0.89)2p( 3.19)3p( 0.01)
      C    2      [core]2S( 1.03)2p( 3.08)3p( 0.01)3d( 0.01)
      O    3      [core]2S( 1.63)2p( 4.88)3d( 0.01)
      C    4      [core]2S( 0.73)2p( 2.30)3p( 0.03)3d( 0.01)
      O    5      [core]2S( 1.71)2p( 4.83)3d( 0.02)
      N    6      [core]2S( 1.39)2p( 3.80)3S( 0.01)3p( 0.01)3d( 0.01)
      N    7      [core]2S( 1.39)2p( 3.80)3S( 0.01)3p( 0.01)3d( 0.01)
      C    8      [core]2S( 0.73)2p( 2.30)3p( 0.03)3d( 0.01)
      O    9      [core]2S( 1.71)2p( 4.83)3d( 0.02)
      O   10      [core]2S( 1.63)2p( 4.88)3d( 0.01)
      C   11      [core]2S( 1.03)2p( 3.08)3p( 0.01)3d( 0.01)
      C   12      [core]2S( 0.89)2p( 3.19)3p( 0.01)
      C   13      [core]2S( 0.95)2p( 3.23)3p( 0.01)
      C   14      [core]2S( 0.96)2p( 3.27)3p( 0.01)
      C   15      [core]2S( 0.93)2p( 3.08)3p( 0.02)3d( 0.01)
      C   16      [core]2S( 0.96)2p( 3.27)3p( 0.01)
      C   17      [core]2S( 0.96)2p( 3.23)3p( 0.01)
     Cl   18      [core]3S( 1.84)3p( 5.14)3d( 0.01)4p( 0.01)
      C   19      [core]2S( 0.96)2p( 3.23)3p( 0.01)
      C   20      [core]2S( 0.96)2p( 3.27)3p( 0.01)
      C   21      [core]2S( 0.93)2p( 3.08)3p( 0.02)3d( 0.01)
      C   22      [core]2S( 0.96)2p( 3.27)3p( 0.01)
      C   23      [core]2S( 0.95)2p( 3.23)3p( 0.01)
     Cl   24      [core]3S( 1.84)3p( 5.14)3d( 0.01)4p( 0.01)
      H   25            1S( 0.75)
      H   26            1S( 0.76)
      H   27            1S( 0.75)
      H   28            1S( 0.76)
      H   29            1S( 0.75)
      H   30            1S( 0.74)
      H   31            1S( 0.74)
      H   32            1S( 0.74)
      H   33            1S( 0.74)
      H   34            1S( 0.74)
      H   35            1S( 0.74)
      H   36            1S( 0.75)


 NBO analysis skipped by request.
 1\1\GINC-DELLA-R1C4N13\SP\RB3LYP TD-FC\6-31G(d)\C16H12Cl2N2O4\BJS4\22-
 Aug-2020\0\\# TD(NStates=10, Root=1) B3LYP/6-31G* scf=qc volume pop=NP
 A density=current Geom=AllCheck Guess=Read\\Title Card Required\\0,1\C
 ,0,-2.0118548769,-0.9933003328,1.0944864863\C,0,-1.5343221458,0.424367
 3207,0.9295429091\O,0,-2.5441987187,1.3913549289,1.3744246475\C,0,-3.4
 275846459,1.7823193071,0.4599273632\O,0,-3.4997508571,1.4569641265,-0.
 6990868779\N,0,-4.4400063474,2.6200762218,1.0699918021\N,0,-4.07001878
 81,3.799174406,1.2202586399\C,0,-5.082444432,4.6369246928,1.8303267551
 \O,0,-5.0099417237,4.9627380942,2.98919116\O,0,-5.9662687311,5.0273073
 347,0.9160039017\C,0,-6.9762394307,5.9941930494,1.3608920884\C,0,-6.49
 91359258,7.4119279192,1.1952868549\C,0,-6.6869470722,8.0836163336,-0.0
 189427202\C,0,-6.2423454758,9.393117349,-0.1912269712\C,0,-5.602337037
 3,10.033537144,0.8696154208\C,0,-5.4016008912,9.3872989766,2.089062956
 6\C,0,-5.8515488927,8.0771989962,2.2447905809\Cl,0,-5.0425260157,11.68
 673969,0.6663560705\C,0,-2.6593506444,-1.6579974493,0.0445620744\C,0,-
 3.109708404,-2.9680283515,0.1996816291\C,0,-2.9094745785,-3.6147795006
 ,1.4189402382\C,0,-2.2695633998,-2.9749376576,2.4801895905\C,0,-1.8245
 503805,-1.6654963461,2.3085129732\Cl,0,-3.4698068669,-5.2678988181,1.6
 214341772\H,0,-1.2804398012,0.6511525915,-0.1071139106\H,0,-0.68093114
 99,0.6395269853,1.5741821825\H,0,-7.2297064709,5.7677084557,2.39771618
 82\H,0,-7.829796085,5.7785822904,0.7166225946\H,0,-7.1878625078,7.5801
 580256,-0.8421845955\H,0,-6.3913839086,9.9126092032,-1.1316156327\H,0,
 -4.9021413517,9.9025345232,2.9024270903\H,0,-5.6892002064,7.5614751254
 ,3.1863361396\H,0,-2.8213056948,-1.1418750365,-0.8968328447\H,0,-3.609
 0986063,-3.482819439,-0.6140065217\H,0,-2.1209167799,-3.4948237884,3.4
 20422379\H,0,-1.3237111552,-1.1624863709,3.1320751809\\Version=ES64L-G
 16RevA.03\State=1-A\HF=-1947.6738062\RMSD=2.390e-09\Dipole=-0.000106,-
 0.0005433,0.0001869\Quadrupole=10.6036952,-10.95866,0.3549648,-9.88716
 83,3.1457233,-1.4404555\PG=C01 [X(C16H12Cl2N2O4)]\\@


 WOE UNTO THEM THAT CALL EVIL GOOD, AND GOOD EVIL      
 Job cpu time:       0 days  1 hours  5 minutes  1.1 seconds.
 Elapsed time:       0 days  0 hours 13 minutes  0.9 seconds.
 File lengths (MBytes):  RWF=   1224 Int=      0 D2E=      0 Chk=    268 Scr=      1
 Normal termination of Gaussian 16 at Sat Aug 22 22:58:27 2020.
