 Entering Gaussian System, Link 0=g16
 Input=azadicarboxylate_1_conf3123.com
 Output=azadicarboxylate_1_conf3123.log
 Initial command:
 /opt/export//g16/l1.exe "/scratch/bjs4/job.149059/Gau-149061.inp" -scrdir="/scratch/bjs4/job.149059/"
 Entering Link 1 = /opt/export//g16/l1.exe PID=    149062.
  
 Copyright (c) 1988,1990,1992,1993,1995,1998,2003,2009,2016,
            Gaussian, Inc.  All Rights Reserved.
  
 This is part of the Gaussian(R) 16 program.  It is based on
 the Gaussian(R) 09 system (copyright 2009, Gaussian, Inc.),
 the Gaussian(R) 03 system (copyright 2003, Gaussian, Inc.),
 the Gaussian(R) 98 system (copyright 1998, Gaussian, Inc.),
 the Gaussian(R) 94 system (copyright 1995, Gaussian, Inc.),
 the Gaussian 92(TM) system (copyright 1992, Gaussian, Inc.),
 the Gaussian 90(TM) system (copyright 1990, Gaussian, Inc.),
 the Gaussian 88(TM) system (copyright 1988, Gaussian, Inc.),
 the Gaussian 86(TM) system (copyright 1986, Carnegie Mellon
 University), and the Gaussian 82(TM) system (copyright 1983,
 Carnegie Mellon University). Gaussian is a federally registered
 trademark of Gaussian, Inc.
  
 This software contains proprietary and confidential information,
 including trade secrets, belonging to Gaussian, Inc.
  
 This software is provided under written license and may be
 used, copied, transmitted, or stored only in accord with that
 written license.
  
 The following legend is applicable only to US Government
 contracts under FAR:
  
                    RESTRICTED RIGHTS LEGEND
  
 Use, reproduction and disclosure by the US Government is
 subject to restrictions as set forth in subparagraphs (a)
 and (c) of the Commercial Computer Software - Restricted
 Rights clause in FAR 52.227-19.
  
 Gaussian, Inc.
 340 Quinnipiac St., Bldg. 40, Wallingford CT 06492
  
  
 ---------------------------------------------------------------
 Warning -- This program may not be used in any manner that
 competes with the business of Gaussian, Inc. or will provide
 assistance to any competitor of Gaussian, Inc.  The licensee
 of this program is prohibited from giving any competitor of
 Gaussian, Inc. access to this program.  By using this program,
 the user acknowledges that Gaussian, Inc. is engaged in the
 business of creating and licensing software in the field of
 computational chemistry and represents and warrants to the
 licensee that it is not a competitor of Gaussian, Inc. and that
 it will not use this program in any manner prohibited above.
 ---------------------------------------------------------------
  

 Cite this work as:
 Gaussian 16, Revision A.03,
 M. J. Frisch, G. W. Trucks, H. B. Schlegel, G. E. Scuseria, 
 M. A. Robb, J. R. Cheeseman, G. Scalmani, V. Barone, 
 G. A. Petersson, H. Nakatsuji, X. Li, M. Caricato, A. V. Marenich, 
 J. Bloino, B. G. Janesko, R. Gomperts, B. Mennucci, H. P. Hratchian, 
 J. V. Ortiz, A. F. Izmaylov, J. L. Sonnenberg, D. Williams-Young, 
 F. Ding, F. Lipparini, F. Egidi, J. Goings, B. Peng, A. Petrone, 
 T. Henderson, D. Ranasinghe, V. G. Zakrzewski, J. Gao, N. Rega, 
 G. Zheng, W. Liang, M. Hada, M. Ehara, K. Toyota, R. Fukuda, 
 J. Hasegawa, M. Ishida, T. Nakajima, Y. Honda, O. Kitao, H. Nakai, 
 T. Vreven, K. Throssell, J. A. Montgomery, Jr., J. E. Peralta, 
 F. Ogliaro, M. J. Bearpark, J. J. Heyd, E. N. Brothers, K. N. Kudin, 
 V. N. Staroverov, T. A. Keith, R. Kobayashi, J. Normand, 
 K. Raghavachari, A. P. Rendell, J. C. Burant, S. S. Iyengar, 
 J. Tomasi, M. Cossi, J. M. Millam, M. Klene, C. Adamo, R. Cammi, 
 J. W. Ochterski, R. L. Martin, K. Morokuma, O. Farkas, 
 J. B. Foresman, and D. J. Fox, Gaussian, Inc., Wallingford CT, 2016.
 
 ******************************************
 Gaussian 16:  ES64L-G16RevA.03 25-Dec-2016
                22-Aug-2020 
 ******************************************
 %nprocshared=5
 Will use up to    5 processors via shared memory.
 %Mem=10GB
 %Chk=azadicarboxylate_1_conf31.chk
 ---------------------------------
 # opt=CalcAll B3LYP/6-31G* scf=qc
 ---------------------------------
 1/10=4,18=20,19=15,26=3,38=1/1,3;
 2/9=110,12=2,17=6,18=5,40=1/2;
 3/5=1,6=6,7=1,11=2,25=1,30=1,71=2,74=-5,140=1/1,2,3;
 4//1;
 5/5=2,8=3,38=5/8;
 8/6=4,10=90,11=11/1;
 11/6=1,8=1,9=11,15=111,16=1/1,2,10;
 10/6=1/2;
 6/7=2,8=2,9=2,10=2,18=1,28=1/1;
 7/10=1,25=1/1,2,3,16;
 1/10=4,18=20,19=15,26=3/3(3);
 2/9=110/2;
 7/8=1,9=1,25=1,44=-1/16;
 99//99;
 2/9=110/2;
 3/5=1,6=6,7=1,11=2,25=1,30=1,71=2,74=-5,140=1/1,2,3;
 4/5=5,16=3,69=1/1;
 5/5=2,8=3,38=5/8;
 8/6=4,10=90,11=11/1;
 11/6=1,8=1,9=11,15=111,16=1/1,2,10;
 10/6=1/2;
 7/10=1,25=1/1,2,3,16;
 1/10=4,18=20,19=15,26=3/3(-8);
 2/9=110/2;
 6/7=2,8=2,9=2,10=2,18=1,19=2,28=1/1;
 7/8=1,9=1,25=1,44=-1/16;
 99//99;
 -------------------
 Title Card Required
 -------------------
 Symbolic Z-matrix:
 Charge =  0 Multiplicity = 1
 C                     6.16921   0.08245  -1.17177 
 C                     5.65571  -0.85754  -0.07361 
 C                     4.26407  -1.41848  -0.39305 
 C                     6.6322   -2.043     0.02731 
 O1                    5.67942  -0.20397   1.22494 
 C2                    4.6771    0.6551    1.5808 
 O3                    3.72021   0.93162   0.86621 
 N4                    4.9172    1.1559    2.8418 
 N5                    6.1448    1.2226    3.0972 
 C6                    6.3853    1.7078    4.365 
 O7                    5.64885   1.57655   5.33598 
 O8                    7.57917   2.3714    4.38681 
 C                     8.05456   2.9803    5.61553 
 C                     8.70362   1.94215   6.54042 
 C                     9.14099   3.98658   5.19724 
 C                     6.93401   3.76165   6.3143 
 H                     6.23286  -0.42967  -2.13768 
 H                     7.16433   0.46494  -0.9163 
 H                     5.52621   0.95641  -1.30572 
 H                     4.26836  -1.98162  -1.33272 
 H                     3.50928  -0.63353  -0.48693 
 H                     3.92304  -2.08483   0.4075 
 H                     6.68426  -2.60137  -0.91478 
 H                     6.33107  -2.73669   0.82059 
 H                     7.64282  -1.70128   0.27881 
 H                     9.50417   1.40618   6.01758 
 H                     7.99337   1.18452   6.88051 
 H                     9.12999   2.41504   7.43181 
 H                     9.95923   3.48677   4.66576 
 H                     9.56306   4.50646   6.06499 
 H                     8.73739   4.73936   4.50985 
 H                     6.12046   3.11282   6.64865 
 H                     6.48861   4.4907    5.6275 
 H                     7.30915   4.29736   7.19283 
 

 GradGradGradGradGradGradGradGradGradGradGradGradGradGradGradGradGradGrad
 Berny optimization.
 Initialization pass.
                           ----------------------------
                           !    Initial Parameters    !
                           ! (Angstroms and Degrees)  !
 --------------------------                            --------------------------
 ! Name  Definition              Value          Derivative Info.                !
 --------------------------------------------------------------------------------
 ! R1    R(1,2)                  1.534          calculate D2E/DX2 analytically  !
 ! R2    R(1,17)                 1.0951         calculate D2E/DX2 analytically  !
 ! R3    R(1,18)                 1.0963         calculate D2E/DX2 analytically  !
 ! R4    R(1,19)                 1.0933         calculate D2E/DX2 analytically  !
 ! R5    R(2,3)                  1.5341         calculate D2E/DX2 analytically  !
 ! R6    R(2,4)                  1.5392         calculate D2E/DX2 analytically  !
 ! R7    R(2,5)                  1.4539         calculate D2E/DX2 analytically  !
 ! R8    R(3,20)                 1.0955         calculate D2E/DX2 analytically  !
 ! R9    R(3,21)                 1.093          calculate D2E/DX2 analytically  !
 ! R10   R(3,22)                 1.096          calculate D2E/DX2 analytically  !
 ! R11   R(4,23)                 1.0964         calculate D2E/DX2 analytically  !
 ! R12   R(4,24)                 1.096          calculate D2E/DX2 analytically  !
 ! R13   R(4,25)                 1.0961         calculate D2E/DX2 analytically  !
 ! R14   R(5,6)                  1.3672         calculate D2E/DX2 analytically  !
 ! R15   R(6,7)                  1.2259         calculate D2E/DX2 analytically  !
 ! R16   R(6,8)                  1.3779         calculate D2E/DX2 analytically  !
 ! R17   R(8,9)                  1.2557         calculate D2E/DX2 analytically  !
 ! R18   R(9,10)                 1.3786         calculate D2E/DX2 analytically  !
 ! R19   R(10,11)                1.2257         calculate D2E/DX2 analytically  !
 ! R20   R(10,12)                1.3661         calculate D2E/DX2 analytically  !
 ! R21   R(12,13)                1.4514         calculate D2E/DX2 analytically  !
 ! R22   R(13,14)                1.5344         calculate D2E/DX2 analytically  !
 ! R23   R(13,15)                1.5388         calculate D2E/DX2 analytically  !
 ! R24   R(13,16)                1.5344         calculate D2E/DX2 analytically  !
 ! R25   R(14,26)                1.0961         calculate D2E/DX2 analytically  !
 ! R26   R(14,27)                1.0928         calculate D2E/DX2 analytically  !
 ! R27   R(14,28)                1.0954         calculate D2E/DX2 analytically  !
 ! R28   R(15,29)                1.0963         calculate D2E/DX2 analytically  !
 ! R29   R(15,30)                1.0961         calculate D2E/DX2 analytically  !
 ! R30   R(15,31)                1.0964         calculate D2E/DX2 analytically  !
 ! R31   R(16,32)                1.093          calculate D2E/DX2 analytically  !
 ! R32   R(16,33)                1.0962         calculate D2E/DX2 analytically  !
 ! R33   R(16,34)                1.0952         calculate D2E/DX2 analytically  !
 ! A1    A(2,1,17)             111.3651         calculate D2E/DX2 analytically  !
 ! A2    A(2,1,18)             110.5377         calculate D2E/DX2 analytically  !
 ! A3    A(2,1,19)             112.376          calculate D2E/DX2 analytically  !
 ! A4    A(17,1,18)            108.4174         calculate D2E/DX2 analytically  !
 ! A5    A(17,1,19)            107.4547         calculate D2E/DX2 analytically  !
 ! A6    A(18,1,19)            106.4704         calculate D2E/DX2 analytically  !
 ! A7    A(1,2,3)              112.2505         calculate D2E/DX2 analytically  !
 ! A8    A(1,2,4)              107.8494         calculate D2E/DX2 analytically  !
 ! A9    A(1,2,5)              111.0054         calculate D2E/DX2 analytically  !
 ! A10   A(3,2,4)              107.9118         calculate D2E/DX2 analytically  !
 ! A11   A(3,2,5)              111.416          calculate D2E/DX2 analytically  !
 ! A12   A(4,2,5)              106.0997         calculate D2E/DX2 analytically  !
 ! A13   A(2,3,20)             111.2859         calculate D2E/DX2 analytically  !
 ! A14   A(2,3,21)             112.4413         calculate D2E/DX2 analytically  !
 ! A15   A(2,3,22)             110.6395         calculate D2E/DX2 analytically  !
 ! A16   A(20,3,21)            107.3493         calculate D2E/DX2 analytically  !
 ! A17   A(20,3,22)            108.3738         calculate D2E/DX2 analytically  !
 ! A18   A(21,3,22)            106.5284         calculate D2E/DX2 analytically  !
 ! A19   A(2,4,23)             111.4715         calculate D2E/DX2 analytically  !
 ! A20   A(2,4,24)             111.139          calculate D2E/DX2 analytically  !
 ! A21   A(2,4,25)             111.0934         calculate D2E/DX2 analytically  !
 ! A22   A(23,4,24)            108.2191         calculate D2E/DX2 analytically  !
 ! A23   A(23,4,25)            108.1898         calculate D2E/DX2 analytically  !
 ! A24   A(24,4,25)            106.5341         calculate D2E/DX2 analytically  !
 ! A25   A(2,5,6)              120.1956         calculate D2E/DX2 analytically  !
 ! A26   A(5,6,7)              124.2125         calculate D2E/DX2 analytically  !
 ! A27   A(5,6,8)              109.8054         calculate D2E/DX2 analytically  !
 ! A28   A(7,6,8)              125.9806         calculate D2E/DX2 analytically  !
 ! A29   A(6,8,9)              112.0744         calculate D2E/DX2 analytically  !
 ! A30   A(8,9,10)             112.1045         calculate D2E/DX2 analytically  !
 ! A31   A(9,10,11)            125.8733         calculate D2E/DX2 analytically  !
 ! A32   A(9,10,12)            109.7616         calculate D2E/DX2 analytically  !
 ! A33   A(11,10,12)           124.3648         calculate D2E/DX2 analytically  !
 ! A34   A(10,12,13)           120.2362         calculate D2E/DX2 analytically  !
 ! A35   A(12,13,14)           111.4073         calculate D2E/DX2 analytically  !
 ! A36   A(12,13,15)           105.9903         calculate D2E/DX2 analytically  !
 ! A37   A(12,13,16)           111.0983         calculate D2E/DX2 analytically  !
 ! A38   A(14,13,15)           107.9169         calculate D2E/DX2 analytically  !
 ! A39   A(14,13,16)           112.2677         calculate D2E/DX2 analytically  !
 ! A40   A(15,13,16)           107.8418         calculate D2E/DX2 analytically  !
 ! A41   A(13,14,26)           110.6247         calculate D2E/DX2 analytically  !
 ! A42   A(13,14,27)           112.4415         calculate D2E/DX2 analytically  !
 ! A43   A(13,14,28)           111.2879         calculate D2E/DX2 analytically  !
 ! A44   A(26,14,27)           106.507          calculate D2E/DX2 analytically  !
 ! A45   A(26,14,28)           108.3579         calculate D2E/DX2 analytically  !
 ! A46   A(27,14,28)           107.3992         calculate D2E/DX2 analytically  !
 ! A47   A(13,15,29)           111.1377         calculate D2E/DX2 analytically  !
 ! A48   A(13,15,30)           111.5205         calculate D2E/DX2 analytically  !
 ! A49   A(13,15,31)           111.0706         calculate D2E/DX2 analytically  !
 ! A50   A(29,15,30)           108.2189         calculate D2E/DX2 analytically  !
 ! A51   A(29,15,31)           106.4894         calculate D2E/DX2 analytically  !
 ! A52   A(30,15,31)           108.2065         calculate D2E/DX2 analytically  !
 ! A53   A(13,16,32)           112.3704         calculate D2E/DX2 analytically  !
 ! A54   A(13,16,33)           110.492          calculate D2E/DX2 analytically  !
 ! A55   A(13,16,34)           111.3603         calculate D2E/DX2 analytically  !
 ! A56   A(32,16,33)           106.5013         calculate D2E/DX2 analytically  !
 ! A57   A(32,16,34)           107.4536         calculate D2E/DX2 analytically  !
 ! A58   A(33,16,34)           108.4476         calculate D2E/DX2 analytically  !
 ! D1    D(17,1,2,3)           -59.3135         calculate D2E/DX2 analytically  !
 ! D2    D(17,1,2,4)            59.427          calculate D2E/DX2 analytically  !
 ! D3    D(17,1,2,5)           175.2579         calculate D2E/DX2 analytically  !
 ! D4    D(18,1,2,3)          -179.8995         calculate D2E/DX2 analytically  !
 ! D5    D(18,1,2,4)           -61.159          calculate D2E/DX2 analytically  !
 ! D6    D(18,1,2,5)            54.6719         calculate D2E/DX2 analytically  !
 ! D7    D(19,1,2,3)            61.3076         calculate D2E/DX2 analytically  !
 ! D8    D(19,1,2,4)          -179.9519         calculate D2E/DX2 analytically  !
 ! D9    D(19,1,2,5)           -64.1211         calculate D2E/DX2 analytically  !
 ! D10   D(1,2,3,20)            59.4905         calculate D2E/DX2 analytically  !
 ! D11   D(1,2,3,21)           -60.9844         calculate D2E/DX2 analytically  !
 ! D12   D(1,2,3,22)          -179.9626         calculate D2E/DX2 analytically  !
 ! D13   D(4,2,3,20)           -59.2133         calculate D2E/DX2 analytically  !
 ! D14   D(4,2,3,21)          -179.6882         calculate D2E/DX2 analytically  !
 ! D15   D(4,2,3,22)            61.3336         calculate D2E/DX2 analytically  !
 ! D16   D(5,2,3,20)          -175.3059         calculate D2E/DX2 analytically  !
 ! D17   D(5,2,3,21)            64.2193         calculate D2E/DX2 analytically  !
 ! D18   D(5,2,3,22)           -54.759          calculate D2E/DX2 analytically  !
 ! D19   D(1,2,4,23)           -60.8738         calculate D2E/DX2 analytically  !
 ! D20   D(1,2,4,24)           178.3097         calculate D2E/DX2 analytically  !
 ! D21   D(1,2,4,25)            59.8739         calculate D2E/DX2 analytically  !
 ! D22   D(3,2,4,23)            60.6028         calculate D2E/DX2 analytically  !
 ! D23   D(3,2,4,24)           -60.2137         calculate D2E/DX2 analytically  !
 ! D24   D(3,2,4,25)          -178.6495         calculate D2E/DX2 analytically  !
 ! D25   D(5,2,4,23)          -179.8796         calculate D2E/DX2 analytically  !
 ! D26   D(5,2,4,24)            59.3039         calculate D2E/DX2 analytically  !
 ! D27   D(5,2,4,25)           -59.1318         calculate D2E/DX2 analytically  !
 ! D28   D(1,2,5,6)             80.4709         calculate D2E/DX2 analytically  !
 ! D29   D(3,2,5,6)            -45.4236         calculate D2E/DX2 analytically  !
 ! D30   D(4,2,5,6)           -162.6208         calculate D2E/DX2 analytically  !
 ! D31   D(2,5,6,7)             -0.0004         calculate D2E/DX2 analytically  !
 ! D32   D(2,5,6,8)           -179.5807         calculate D2E/DX2 analytically  !
 ! D33   D(5,6,8,9)             29.6469         calculate D2E/DX2 analytically  !
 ! D34   D(7,6,8,9)           -149.9242         calculate D2E/DX2 analytically  !
 ! D35   D(6,8,9,10)          -179.2377         calculate D2E/DX2 analytically  !
 ! D36   D(8,9,10,11)           29.647          calculate D2E/DX2 analytically  !
 ! D37   D(8,9,10,12)         -150.147          calculate D2E/DX2 analytically  !
 ! D38   D(9,10,12,13)         179.7976         calculate D2E/DX2 analytically  !
 ! D39   D(11,10,12,13)         -0.0002         calculate D2E/DX2 analytically  !
 ! D40   D(10,12,13,14)         80.4709         calculate D2E/DX2 analytically  !
 ! D41   D(10,12,13,15)       -162.3947         calculate D2E/DX2 analytically  !
 ! D42   D(10,12,13,16)        -45.5106         calculate D2E/DX2 analytically  !
 ! D43   D(12,13,14,26)         55.119          calculate D2E/DX2 analytically  !
 ! D44   D(12,13,14,27)        -63.8223         calculate D2E/DX2 analytically  !
 ! D45   D(12,13,14,28)        175.6371         calculate D2E/DX2 analytically  !
 ! D46   D(15,13,14,26)        -60.8398         calculate D2E/DX2 analytically  !
 ! D47   D(15,13,14,27)       -179.781          calculate D2E/DX2 analytically  !
 ! D48   D(15,13,14,28)         59.6784         calculate D2E/DX2 analytically  !
 ! D49   D(16,13,14,26)       -179.5476         calculate D2E/DX2 analytically  !
 ! D50   D(16,13,14,27)         61.5111         calculate D2E/DX2 analytically  !
 ! D51   D(16,13,14,28)        -59.0295         calculate D2E/DX2 analytically  !
 ! D52   D(12,13,15,29)        -59.3889         calculate D2E/DX2 analytically  !
 ! D53   D(12,13,15,30)        179.7623         calculate D2E/DX2 analytically  !
 ! D54   D(12,13,15,31)         58.9754         calculate D2E/DX2 analytically  !
 ! D55   D(14,13,15,29)         60.0628         calculate D2E/DX2 analytically  !
 ! D56   D(14,13,15,30)        -60.7861         calculate D2E/DX2 analytically  !
 ! D57   D(14,13,15,31)        178.4271         calculate D2E/DX2 analytically  !
 ! D58   D(16,13,15,29)       -178.4415         calculate D2E/DX2 analytically  !
 ! D59   D(16,13,15,30)         60.7096         calculate D2E/DX2 analytically  !
 ! D60   D(16,13,15,31)        -60.0772         calculate D2E/DX2 analytically  !
 ! D61   D(12,13,16,32)         64.5404         calculate D2E/DX2 analytically  !
 ! D62   D(12,13,16,33)        -54.257          calculate D2E/DX2 analytically  !
 ! D63   D(12,13,16,34)       -174.8472         calculate D2E/DX2 analytically  !
 ! D64   D(14,13,16,32)        -60.962          calculate D2E/DX2 analytically  !
 ! D65   D(14,13,16,33)       -179.7594         calculate D2E/DX2 analytically  !
 ! D66   D(14,13,16,34)         59.6504         calculate D2E/DX2 analytically  !
 ! D67   D(15,13,16,32)       -179.7141         calculate D2E/DX2 analytically  !
 ! D68   D(15,13,16,33)         61.4885         calculate D2E/DX2 analytically  !
 ! D69   D(15,13,16,34)        -59.1017         calculate D2E/DX2 analytically  !
 --------------------------------------------------------------------------------
 Trust Radius=3.00D-01 FncErr=1.00D-07 GrdErr=1.00D-06 EigMax=2.50D+02 EigMin=1.00D-04
 Number of steps in this run=    170 maximum allowed number of steps=    204.
 GradGradGradGradGradGradGradGradGradGradGradGradGradGradGradGradGradGrad

                          Input orientation:                          
 ---------------------------------------------------------------------
 Center     Atomic      Atomic             Coordinates (Angstroms)
 Number     Number       Type             X           Y           Z
 ---------------------------------------------------------------------
      1          6           0        6.169210    0.082450   -1.171770
      2          6           0        5.655710   -0.857540   -0.073610
      3          6           0        4.264070   -1.418480   -0.393050
      4          6           0        6.632200   -2.043000    0.027310
      5          8           0        5.679420   -0.203970    1.224940
      6          6           0        4.677100    0.655100    1.580800
      7          8           0        3.720210    0.931620    0.866210
      8          7           0        4.917200    1.155900    2.841800
      9          7           0        6.144800    1.222600    3.097200
     10          6           0        6.385300    1.707800    4.365000
     11          8           0        5.648850    1.576550    5.335980
     12          8           0        7.579170    2.371400    4.386810
     13          6           0        8.054560    2.980300    5.615530
     14          6           0        8.703620    1.942150    6.540420
     15          6           0        9.140990    3.986580    5.197240
     16          6           0        6.934010    3.761650    6.314300
     17          1           0        6.232860   -0.429670   -2.137680
     18          1           0        7.164330    0.464940   -0.916300
     19          1           0        5.526210    0.956410   -1.305720
     20          1           0        4.268360   -1.981620   -1.332720
     21          1           0        3.509280   -0.633530   -0.486930
     22          1           0        3.923040   -2.084830    0.407500
     23          1           0        6.684260   -2.601370   -0.914780
     24          1           0        6.331070   -2.736690    0.820590
     25          1           0        7.642820   -1.701280    0.278810
     26          1           0        9.504170    1.406180    6.017580
     27          1           0        7.993370    1.184520    6.880510
     28          1           0        9.129990    2.415040    7.431810
     29          1           0        9.959230    3.486770    4.665760
     30          1           0        9.563060    4.506460    6.064990
     31          1           0        8.737390    4.739360    4.509850
     32          1           0        6.120460    3.112820    6.648650
     33          1           0        6.488610    4.490700    5.627500
     34          1           0        7.309150    4.297360    7.192830
 ---------------------------------------------------------------------
                    Distance matrix (angstroms):
                    1          2          3          4          5
     1  C    0.000000
     2  C    1.534020   0.000000
     3  C    2.547303   1.534066   0.000000
     4  C    2.483886   1.539166   2.484908   0.000000
     5  O    2.462955   1.453942   2.469037   2.392517   0.000000
     6  C    3.182917   2.445982   2.892475   3.676342   1.367217
     7  O    3.297280   2.798306   2.721119   4.246387   2.292762
     8  N    4.339190   3.619248   4.185483   4.592988   2.245988
     9  N    4.418670   3.823641   4.763853   4.508428   2.399383
    10  C    5.774451   5.178275   6.075548   5.739775   3.743409
    11  O    6.697307   5.931990   6.611324   6.500007   4.480160
    12  O    6.174552   5.832761   6.942632   6.276059   4.498778
    13  C    7.617055   7.269788   8.355843   7.647539   5.920992
    14  C    8.328241   7.802142   8.892494   7.911561   6.481199
    15  C    8.039776   7.962069   9.178800   8.329348   6.732187
    16  C    8.376316   7.986010   8.885430   8.562201   6.572802
    17  H    1.095126   2.185534   2.810269   2.729375   3.415326
    18  H    1.096279   2.176009   3.497509   2.731909   2.690224
    19  H    1.093251   2.196652   2.840082   3.463617   2.788224
    20  H    2.810609   2.184869   1.095502   2.727854   3.419467
    21  H    2.838461   2.197311   1.093009   3.464632   2.797236
    22  H    3.498067   2.177120   1.095995   2.736027   2.700132
    23  H    2.744852   2.192356   2.743857   1.096367   3.366843
    24  H    3.455900   2.187901   2.735523   1.095983   2.646284
    25  H    2.730824   2.187396   3.456490   1.096074   2.644246
    26  H    8.034984   7.552329   8.748344   7.485211   6.339613
    27  H    8.329546   7.615409   8.578343   7.696494   6.266398
    28  H    9.393018   8.894478   9.980054   8.996649   7.569074
    29  H    7.747929   7.736598   9.060236   7.947497   6.616463
    30  H    9.135687   9.040038  10.241606   9.377577   7.790821
    31  H    7.782234   7.863215   9.053619   8.397940   6.676700
    32  H    8.387162   7.821031   8.576969   8.407526   6.372774
    33  H    8.109547   7.861301   8.724334   8.606508   6.486698
    34  H    9.435649   9.061347   9.974413   9.591825   7.650732
                    6          7          8          9         10
     6  C    0.000000
     7  O    1.225863   0.000000
     8  N    1.377886   2.320785   0.000000
     9  N    2.185330   3.307661   1.255659   0.000000
    10  C    3.431894   4.466172   2.186332   1.378614   0.000000
    11  O    3.986821   4.910645   2.633096   2.320212   1.225719
    12  O    4.386501   5.418410   3.309166   2.245051   1.366077
    13  C    5.752637   6.748312   4.567827   3.616446   2.443258
    14  C    6.516686   7.619200   5.351164   4.349836   3.187786
    15  C    6.641063   7.581257   5.603682   4.585511   3.671415
    16  C    6.095106   6.929593   4.787036   4.173651   2.884294
    17  H    4.174232   4.146067   5.388897   5.490147   6.846668
    18  H    3.529587   3.906033   4.432870   4.209712   5.481215
    19  H    3.023867   2.824806   4.196738   4.454123   5.784435
    20  H    3.950691   3.690898   5.262285   5.780333   7.110363
    21  H    2.701829   2.079705   4.032957   4.820495   6.106926
    22  H    3.074485   3.057863   4.173308   4.807265   6.009041
    23  H    4.567407   4.943636   5.599239   5.568640   6.821613
    24  H    3.849386   4.502796   4.608316   4.570955   5.685004
    25  H    4.005396   4.760680   4.707590   4.328563   5.468101
    26  H    6.599223   7.759898   5.584668   4.455074   3.542506
    27  H    6.274142   7.382118   5.076891   4.210949   3.031089
    28  H    7.560419   8.635587   6.356196   5.396491   4.175983
    29  H    6.740640   7.738911   5.846525   4.704968   4.003519
    30  H    7.668999   8.599168   6.572611   5.592496   4.562962
    31  H    6.461151   7.276475   5.497038   4.591808   3.839748
    32  H    5.814360   6.629890   4.446288   4.023223   2.694305
    33  H    5.862523   6.557513   4.620643   4.147421   3.057632
    34  H    7.189480   8.014663   5.875513   5.252052   3.944102
                   11         12         13         14         15
    11  O    0.000000
    12  O    2.293217   0.000000
    13  C    2.799304   1.451381   0.000000
    14  C    3.303931   2.467120   1.534424   0.000000
    15  C    4.245296   2.388490   1.538797   2.484979   0.000000
    16  C    2.717243   2.462569   1.534412   2.548182   2.483783
    17  H    7.760256   7.226861   8.663645   9.329502   9.042209
    18  H    6.528657   5.650633   7.055802   7.755916   7.326971
    19  H    6.671716   6.214639   7.641491   8.522296   8.033496
    20  H    7.683612   7.913487   9.339922   9.851591  10.099619
    21  H    6.585476   7.024738   8.423738   9.110376   9.239662
    22  H    6.377620   7.004297   8.357546   8.756896   9.329021
    23  H    7.589406   7.323671   8.699294   8.961105   9.316297
    24  H    6.281577   6.353602   7.658057   7.761249   8.500181
    25  H    6.347839   5.785018   7.111069   7.321724   7.667282
    26  H    3.918813   2.701238   2.177353   1.096132   2.731908
    27  H    2.834790   2.792631   2.197440   1.092758   3.464386
    28  H    4.148964   3.417451   2.185164   1.095442   2.731879
    29  H    4.762091   2.643208   2.187771   2.734366   1.096265
    30  H    4.943366   3.363122   2.192430   2.745971   1.096088
    31  H    4.497214   2.638910   2.187025   3.456695   1.096392
    32  H    2.075005   2.791677   2.196734   2.838115   3.463185
    33  H    3.046712   2.687018   2.175695   3.497828   2.733931
    34  H    3.688807   3.414086   2.185900   2.813752   2.726647
                   16         17         18         19         20
    16  C    0.000000
    17  H    9.460166   0.000000
    18  H    7.950026   1.777564   0.000000
    19  H    8.241115   1.764293   1.754032   0.000000
    20  H    9.928129   2.629785   3.813883   3.196081   0.000000
    21  H    8.792219   3.191304   3.840623   2.695614   1.763210
    22  H    8.839545   3.814809   4.331251   3.841148   1.777150
    23  H    9.633794   2.532889   3.103663   3.761876   2.528900
    24  H    8.530698   3.752779   3.736515   4.336817   3.075979
    25  H    8.171484   3.073175   2.519871   3.748878   3.750013
    26  H    3.498858   8.976641   7.378311   8.346088   9.639388
    27  H    2.843314   9.329135   7.873713   8.552969   9.558101
    28  H    2.807938  10.395233   8.795320   9.563434  10.944544
    29  H    3.456183   8.689714   6.935583   7.855760   9.913176
    30  H    2.743866  10.136045   8.415830   9.122849  11.173860
    31  H    2.732057   8.785283   7.084369   7.644818   9.963906
    32  H    1.092993   9.474253   8.082661   8.262883   9.648101
    33  H    1.096170   9.196383   7.712630   7.841362   9.760384
    34  H    1.095231  10.514829   8.970307   9.304094  11.016215
                   21         22         23         24         25
    21  H    0.000000
    22  H    1.754273   0.000000
    23  H    3.759780   3.104766   0.000000
    24  H    3.754383   2.528670   1.776109   0.000000
    25  H    4.337350   3.741716   1.775854   1.756783   0.000000
    26  H    9.077873   8.649229   8.489403   7.364825   6.786340
    27  H    8.814281   8.316014   8.764318   7.406872   7.213402
    28  H   10.178045   9.833722  10.040494   8.836431   8.385772
    29  H    9.226535   9.252626   8.884442   8.165803   7.178227
    30  H   10.295407  10.356743  10.369471   9.508560   8.700761
    31  H    9.009378   9.304666   9.355654   8.677116   7.783420
    32  H    8.471712   8.414046   9.496068   8.259988   8.128222
    33  H    8.515891   8.778846   9.650760   8.681381   8.263250
    34  H    9.885919   9.911548  10.663785   9.541485   9.159623
                   26         27         28         29         30
    26  H    0.000000
    27  H    1.753938   0.000000
    28  H    1.777036   1.763524   0.000000
    29  H    2.522568   3.751010   3.080142   0.000000
    30  H    3.101202   3.763547   2.535702   1.776109   0.000000
    31  H    3.737819   4.337105   3.754257   1.756753   1.776073
    32  H    3.841922   2.698127   3.187084   4.336801   3.759573
    33  H    4.331285   3.842546   3.813238   3.738719   3.105461
    34  H    3.815527   3.202417   2.629772   3.750475   2.529003
                   31         32         33         34
    31  H    0.000000
    32  H    3.750789   0.000000
    33  H    2.523487   1.754091   0.000000
    34  H    3.071419   1.764157   1.777899   0.000000
 Stoichiometry    C10H18N2O4
 Framework group  C1[X(C10H18N2O4)]
 Deg. of freedom    96
 Full point group                 C1      NOp   1
 Largest Abelian subgroup         C1      NOp   1
 Largest concise Abelian subgroup C1      NOp   1
                         Standard orientation:                         
 ---------------------------------------------------------------------
 Center     Atomic      Atomic             Coordinates (Angstroms)
 Number     Number       Type             X           Y           Z
 ---------------------------------------------------------------------
      1          6           0       -3.750193    1.174163    1.350256
      2          6           0       -3.532361    0.627623   -0.066452
      3          6           0       -4.557721   -0.451681   -0.436720
      4          6           0       -3.698159    1.796683   -1.053793
      5          8           0       -2.170741    0.146771   -0.235917
      6          6           0       -1.815615   -1.089854    0.226604
      7          8           0       -2.581765   -1.858935    0.796051
      8          7           0       -0.483283   -1.322047   -0.037116
      9          7           0        0.186750   -0.260209   -0.052492
     10          6           0        1.516819   -0.490098   -0.332926
     11          8           0        1.958582   -1.404902   -1.018759
     12          8           0        2.287934    0.459303    0.275502
     13          6           0        3.731987    0.429414    0.132945
     14          6           0        4.175491    1.037830   -1.204063
     15          6           0        4.287900    1.313622    1.263004
     16          6           0        4.277712   -0.990340    0.335193
     17          1           0       -4.747188    1.613948    1.459299
     18          1           0       -3.004884    1.943199    1.584621
     19          1           0       -3.647831    0.399952    2.115316
     20          1           0       -5.580436   -0.062060   -0.387986
     21          1           0       -4.507660   -1.319569    0.225799
     22          1           0       -4.377701   -0.823547   -1.451862
     23          1           0       -4.703491    2.230397   -0.997041
     24          1           0       -3.523400    1.470560   -2.085434
     25          1           0       -2.970842    2.591028   -0.850314
     26          1           0        3.778026    2.053098   -1.317020
     27          1           0        3.814993    0.465959   -2.062623
     28          1           0        5.267500    1.084741   -1.276909
     29          1           0        3.907906    2.339030    1.185923
     30          1           0        5.383131    1.351547    1.242065
     31          1           0        3.976812    0.939495    2.245516
     32          1           0        3.930372   -1.683213   -0.435467
     33          1           0        3.940449   -1.397949    1.295244
     34          1           0        5.372748   -1.002894    0.318835
 ---------------------------------------------------------------------
 Rotational constants (GHZ):           1.1834717           0.2082939           0.1966677
 Standard basis: 6-31G(d) (6D, 7F)
 There are   276 symmetry adapted cartesian basis functions of A   symmetry.
 There are   276 symmetry adapted basis functions of A   symmetry.
   276 basis functions,   520 primitive gaussians,   276 cartesian basis functions
    62 alpha electrons       62 beta electrons
       nuclear repulsion energy      1156.7813743030 Hartrees.
 NAtoms=   34 NActive=   34 NUniq=   34 SFac= 1.00D+00 NAtFMM=   60 NAOKFM=F Big=F
 Integral buffers will be    131072 words long.
 Raffenetti 2 integral format.
 Two-electron integral symmetry is turned on.
 One-electron integrals computed using PRISM.
 NBasis=   276 RedAO= T EigKep=  2.14D-03  NBF=   276
 NBsUse=   276 1.00D-06 EigRej= -1.00D+00 NBFU=   276
 ExpMin= 1.61D-01 ExpMax= 5.48D+03 ExpMxC= 8.25D+02 IAcc=3 IRadAn=         5 AccDes= 0.00D+00
 Harris functional with IExCor=  402 and IRadAn=       5 diagonalized for initial guess.
 HarFok:  IExCor=  402 AccDes= 0.00D+00 IRadAn=         5 IDoV= 1 UseB2=F ITyADJ=14
 ICtDFT=  3500011 ScaDFX=  1.000000  1.000000  1.000000  1.000000
 FoFCou: FMM=F IPFlag=           0 FMFlag=      100000 FMFlg1=           0
         NFxFlg=           0 DoJE=T BraDBF=F KetDBF=T FulRan=T
         wScrn=  0.000000 ICntrl=       500 IOpCl=  0 I1Cent=   200000004 NGrid=           0
         NMat0=    1 NMatS0=      1 NMatT0=    0 NMatD0=    1 NMtDS0=    0 NMtDT0=    0
 Petite list used in FoFCou.
 Gradient too large for Newton-Raphson -- use scaled steepest descent instead.
     Minimum is close to point  2 DX=  1.49D-02 DF= -1.10D-03 DXR=  4.74D-02 DFR=  2.25D-03 which will be used.
 Gradient too large for Newton-Raphson -- use scaled steepest descent instead.
 Gradient too large for Newton-Raphson -- use scaled steepest descent instead.
     Accept linear search using points  1 and  2.
 Gradient too large for Newton-Raphson -- use scaled steepest descent instead.
     Minimum is close to point  3 DX=  4.05D-02 DF= -1.28D-05 DXR=  4.82D-02 DFR=  2.33D-03 which will be used.
 Gradient too large for Newton-Raphson -- use scaled steepest descent instead.
     Accept linear search using points  1 and  2.
 Gradient too large for Newton-Raphson -- use scaled steepest descent instead.
     Accept linear search using points  1 and  2.
 LinEq1:  Iter=  0 NonCon=     1 RMS=8.12D-05 Max=3.37D-03 NDo=     1
 AX will form     1 AO Fock derivatives at one time.
 LinEq1:  Iter=  1 NonCon=     1 RMS=1.05D-04 Max=6.61D-03 NDo=     1
 LinEq1:  Iter=  2 NonCon=     1 RMS=4.29D-05 Max=1.37D-03 NDo=     1
 LinEq1:  Iter=  3 NonCon=     1 RMS=3.47D-05 Max=2.34D-03 NDo=     1
 LinEq1:  Iter=  4 NonCon=     1 RMS=3.06D-05 Max=1.48D-03 NDo=     1
 LinEq1:  Iter=  5 NonCon=     1 RMS=1.73D-05 Max=5.55D-04 NDo=     1
 LinEq1:  Iter=  6 NonCon=     1 RMS=1.19D-05 Max=3.35D-04 NDo=     1
 LinEq1:  Iter=  7 NonCon=     1 RMS=5.16D-06 Max=1.34D-04 NDo=     1
 LinEq1:  Iter=  8 NonCon=     1 RMS=4.29D-06 Max=1.85D-04 NDo=     1
 LinEq1:  Iter=  9 NonCon=     1 RMS=3.10D-06 Max=9.48D-05 NDo=     1
 LinEq1:  Iter= 10 NonCon=     1 RMS=1.50D-06 Max=3.94D-05 NDo=     1
 LinEq1:  Iter= 11 NonCon=     1 RMS=7.82D-07 Max=3.17D-05 NDo=     1
 LinEq1:  Iter= 12 NonCon=     1 RMS=4.31D-07 Max=9.13D-06 NDo=     1
 LinEq1:  Iter= 13 NonCon=     1 RMS=2.51D-07 Max=5.83D-06 NDo=     1
 LinEq1:  Iter= 14 NonCon=     1 RMS=5.68D-08 Max=1.59D-06 NDo=     1
 LinEq1:  Iter= 15 NonCon=     1 RMS=2.10D-08 Max=4.57D-07 NDo=     1
 LinEq1:  Iter= 16 NonCon=     1 RMS=9.98D-09 Max=2.32D-07 NDo=     1
 LinEq1:  Iter= 17 NonCon=     0 RMS=3.67D-09 Max=1.23D-07 NDo=     1
 Linear equations converged to 1.629D-08 1.629D-07 after    17 iterations.
     Accept linear search using points  1 and  2.
     Minimum is close to point  2 DX= -1.01D-03 DF= -4.81D-11 DXR=  1.01D-03 DFR=  1.03D-06 which will be used.
 LinEq1:  Iter=  0 NonCon=     1 RMS=2.31D-07 Max=1.42D-05 NDo=     1
 LinEq1:  Iter=  1 NonCon=     1 RMS=1.81D-07 Max=7.82D-06 NDo=     1
 LinEq1:  Iter=  2 NonCon=     1 RMS=1.05D-07 Max=4.39D-06 NDo=     1
 LinEq1:  Iter=  3 NonCon=     1 RMS=6.91D-08 Max=3.51D-06 NDo=     1
 LinEq1:  Iter=  4 NonCon=     1 RMS=6.03D-08 Max=1.76D-06 NDo=     1
 LinEq1:  Iter=  5 NonCon=     1 RMS=4.41D-08 Max=1.27D-06 NDo=     1
 LinEq1:  Iter=  6 NonCon=     1 RMS=3.16D-08 Max=7.92D-07 NDo=     1
 LinEq1:  Iter=  7 NonCon=     1 RMS=1.97D-08 Max=6.65D-07 NDo=     1
 LinEq1:  Iter=  8 NonCon=     1 RMS=1.19D-08 Max=4.47D-07 NDo=     1
 LinEq1:  Iter=  9 NonCon=     1 RMS=1.08D-08 Max=4.27D-07 NDo=     1
 LinEq1:  Iter= 10 NonCon=     1 RMS=7.13D-09 Max=3.47D-07 NDo=     1
 LinEq1:  Iter= 11 NonCon=     1 RMS=3.33D-09 Max=1.87D-07 NDo=     1
 LinEq1:  Iter= 12 NonCon=     1 RMS=1.21D-09 Max=4.55D-08 NDo=     1
 LinEq1:  Iter= 13 NonCon=     1 RMS=8.12D-10 Max=1.91D-08 NDo=     1
 LinEq1:  Iter= 14 NonCon=     1 RMS=3.84D-10 Max=1.09D-08 NDo=     1
 LinEq1:  Iter= 15 NonCon=     1 RMS=1.32D-10 Max=3.20D-09 NDo=     1
 LinEq1:  Iter= 16 NonCon=     0 RMS=6.26D-11 Max=9.86D-10 NDo=     1
 Linear equations converged to 1.674D-10 1.674D-09 after    16 iterations.
 SCF Done:  E(RB3LYP) =  -802.249397093     a.u. after    9 cycles
            Convg  =    0.5141D-09                    50 Fock formations.
              S**2 =  0.0000                  -V/T =  2.0091
 DoSCS=F DFT=T ScalE2(SS,OS)=  1.000000  1.000000
 Range of M.O.s used for correlation:     1   276
 NBasis=   276 NAE=    62 NBE=    62 NFC=     0 NFV=     0
 NROrb=    276 NOA=    62 NOB=    62 NVA=   214 NVB=   214
 Symmetrizing basis deriv contribution to polar:
 IMax=3 JMax=2 DiffMx= 0.00D+00
 G2DrvN: will do    35 centers at a time, making    1 passes.
 Calling FoFCou, ICntrl=  3107 FMM=F I1Cent=   0 AccDes= 0.00D+00.
 End of G2Drv F.D. properties file   721 does not exist.
 End of G2Drv F.D. properties file   722 does not exist.
 End of G2Drv F.D. properties file   788 does not exist.
          IDoAtm=1111111111111111111111111111111111
          Differentiating once with respect to electric field.
                with respect to dipole field.
          Differentiating once with respect to nuclear coordinates.
 Keep R1 ints in memory in canonical form, NReq=741275395.
          There are   105 degrees of freedom in the 1st order CPHF.  IDoFFX=6 NUNeed=     3.
    102 vectors produced by pass  0 Test12= 1.33D-14 1.00D-09 XBig12= 1.36D+02 4.26D+00.
 AX will form   102 AO Fock derivatives at one time.
    102 vectors produced by pass  1 Test12= 1.33D-14 1.00D-09 XBig12= 4.43D+01 1.24D+00.
    102 vectors produced by pass  2 Test12= 1.33D-14 1.00D-09 XBig12= 7.91D-01 1.71D-01.
    102 vectors produced by pass  3 Test12= 1.33D-14 1.00D-09 XBig12= 3.95D-03 7.60D-03.
    102 vectors produced by pass  4 Test12= 1.33D-14 1.00D-09 XBig12= 5.79D-06 1.89D-04.
     55 vectors produced by pass  5 Test12= 1.33D-14 1.00D-09 XBig12= 4.49D-09 4.43D-06.
      8 vectors produced by pass  6 Test12= 1.33D-14 1.00D-09 XBig12= 3.28D-12 1.40D-07.
      3 vectors produced by pass  7 Test12= 1.33D-14 1.00D-09 XBig12= 2.78D-15 3.96D-09.
 InvSVY:  IOpt=1 It=  1 EMax= 3.55D-15
 Solved reduced A of dimension   576 with   105 vectors.
 Isotropic polarizability for W=    0.000000      137.90 Bohr**3.
 End of Minotr F.D. properties file   721 does not exist.
 End of Minotr F.D. properties file   722 does not exist.
 End of Minotr F.D. properties file   788 does not exist.

 **********************************************************************

            Population analysis using the SCF density.

 **********************************************************************

 Orbital symmetries:
       Occupied  (A) (A) (A) (A) (A) (A) (A) (A) (A) (A) (A) (A)
                 (A) (A) (A) (A) (A) (A) (A) (A) (A) (A) (A) (A)
                 (A) (A) (A) (A) (A) (A) (A) (A) (A) (A) (A) (A)
                 (A) (A) (A) (A) (A) (A) (A) (A) (A) (A) (A) (A)
                 (A) (A) (A) (A) (A) (A) (A) (A) (A) (A) (A) (A)
                 (A) (A)
       Virtual   (A) (A) (A) (A) (A) (A) (A) (A) (A) (A) (A) (A)
                 (A) (A) (A) (A) (A) (A) (A) (A) (A) (A) (A) (A)
                 (A) (A) (A) (A) (A) (A) (A) (A) (A) (A) (A) (A)
                 (A) (A) (A) (A) (A) (A) (A) (A) (A) (A) (A) (A)
                 (A) (A) (A) (A) (A) (A) (A) (A) (A) (A) (A) (A)
                 (A) (A) (A) (A) (A) (A) (A) (A) (A) (A) (A) (A)
                 (A) (A) (A) (A) (A) (A) (A) (A) (A) (A) (A) (A)
                 (A) (A) (A) (A) (A) (A) (A) (A) (A) (A) (A) (A)
                 (A) (A) (A) (A) (A) (A) (A) (A) (A) (A) (A) (A)
                 (A) (A) (A) (A) (A) (A) (A) (A) (A) (A) (A) (A)
                 (A) (A) (A) (A) (A) (A) (A) (A) (A) (A) (A) (A)
                 (A) (A) (A) (A) (A) (A) (A) (A) (A) (A) (A) (A)
                 (A) (A) (A) (A) (A) (A) (A) (A) (A) (A) (A) (A)
                 (A) (A) (A) (A) (A) (A) (A) (A) (A) (A) (A) (A)
                 (A) (A) (A) (A) (A) (A) (A) (A) (A) (A) (A) (A)
                 (A) (A) (A) (A) (A) (A) (A) (A) (A) (A) (A) (A)
                 (A) (A) (A) (A) (A) (A) (A) (A) (A) (A) (A) (A)
                 (A) (A) (A) (A) (A) (A) (A) (A) (A) (A)
 The electronic state is 1-A.
 Alpha  occ. eigenvalues --  -19.20697 -19.19888 -19.16227 -19.15632 -14.42912
 Alpha  occ. eigenvalues --  -14.42841 -10.35581 -10.35482 -10.26786 -10.26371
 Alpha  occ. eigenvalues --  -10.18611 -10.18598 -10.18302 -10.18302 -10.17413
 Alpha  occ. eigenvalues --  -10.17293  -1.13974  -1.11478  -1.06243  -1.03018
 Alpha  occ. eigenvalues --   -1.02492  -0.84872  -0.81454  -0.79171  -0.70032
 Alpha  occ. eigenvalues --   -0.69738  -0.69533  -0.69315  -0.66842  -0.62188
 Alpha  occ. eigenvalues --   -0.57921  -0.52053  -0.51895  -0.50823  -0.50255
 Alpha  occ. eigenvalues --   -0.48053  -0.47823  -0.46754  -0.45579  -0.45244
 Alpha  occ. eigenvalues --   -0.44922  -0.43521  -0.42112  -0.41580  -0.40916
 Alpha  occ. eigenvalues --   -0.40030  -0.39739  -0.39140  -0.37537  -0.37196
 Alpha  occ. eigenvalues --   -0.36859  -0.36563  -0.36172  -0.35474  -0.35111
 Alpha  occ. eigenvalues --   -0.34051  -0.33926  -0.30972  -0.30671  -0.30034
 Alpha  occ. eigenvalues --   -0.28791  -0.26205
 Alpha virt. eigenvalues --   -0.13698   0.01396   0.04106   0.08023   0.08227
 Alpha virt. eigenvalues --    0.09913   0.10143   0.14150   0.14419   0.14812
 Alpha virt. eigenvalues --    0.15010   0.15397   0.15600   0.16634   0.16885
 Alpha virt. eigenvalues --    0.17771   0.18217   0.18773   0.18970   0.19096
 Alpha virt. eigenvalues --    0.19362   0.20268   0.20502   0.21925   0.22228
 Alpha virt. eigenvalues --    0.22291   0.22421   0.24613   0.24775   0.25223
 Alpha virt. eigenvalues --    0.25447   0.29247   0.32599   0.34883   0.40511
 Alpha virt. eigenvalues --    0.43940   0.47912   0.48386   0.49007   0.49585
 Alpha virt. eigenvalues --    0.51002   0.51213   0.51471   0.53050   0.55151
 Alpha virt. eigenvalues --    0.55376   0.55951   0.57539   0.58636   0.59325
 Alpha virt. eigenvalues --    0.59929   0.60258   0.61449   0.62663   0.64888
 Alpha virt. eigenvalues --    0.65380   0.68160   0.69389   0.69890   0.70439
 Alpha virt. eigenvalues --    0.70742   0.70980   0.71598   0.72249   0.74701
 Alpha virt. eigenvalues --    0.75734   0.78868   0.80836   0.81431   0.82780
 Alpha virt. eigenvalues --    0.84040   0.84617   0.85614   0.86561   0.86966
 Alpha virt. eigenvalues --    0.88787   0.89134   0.89209   0.89435   0.89975
 Alpha virt. eigenvalues --    0.90214   0.91886   0.92331   0.92475   0.92964
 Alpha virt. eigenvalues --    0.93326   0.93699   0.95249   0.95930   0.97025
 Alpha virt. eigenvalues --    0.97520   0.98763   0.99812   1.01270   1.02006
 Alpha virt. eigenvalues --    1.06039   1.07810   1.09523   1.10706   1.12119
 Alpha virt. eigenvalues --    1.13335   1.15073   1.19128   1.20485   1.22869
 Alpha virt. eigenvalues --    1.27918   1.31787   1.33222   1.34630   1.38224
 Alpha virt. eigenvalues --    1.39811   1.41036   1.42287   1.43595   1.45016
 Alpha virt. eigenvalues --    1.47941   1.49035   1.50716   1.52396   1.53760
 Alpha virt. eigenvalues --    1.58167   1.59374   1.63972   1.65485   1.68741
 Alpha virt. eigenvalues --    1.70516   1.72333   1.72879   1.73701   1.75247
 Alpha virt. eigenvalues --    1.77184   1.77427   1.78465   1.80380   1.80860
 Alpha virt. eigenvalues --    1.83001   1.84055   1.84266   1.85151   1.85569
 Alpha virt. eigenvalues --    1.87630   1.88411   1.89281   1.91288   1.94582
 Alpha virt. eigenvalues --    1.94912   1.96232   1.98643   2.03605   2.05318
 Alpha virt. eigenvalues --    2.07980   2.08832   2.09019   2.09827   2.13082
 Alpha virt. eigenvalues --    2.14729   2.15897   2.16622   2.17634   2.19399
 Alpha virt. eigenvalues --    2.21112   2.22560   2.23029   2.24846   2.25063
 Alpha virt. eigenvalues --    2.25655   2.25871   2.26863   2.27080   2.31591
 Alpha virt. eigenvalues --    2.32955   2.33145   2.37398   2.44342   2.44974
 Alpha virt. eigenvalues --    2.49780   2.52339   2.54101   2.55970   2.57111
 Alpha virt. eigenvalues --    2.62558   2.63085   2.66042   2.69552   2.70945
 Alpha virt. eigenvalues --    2.71105   2.74972   2.75276   2.76637   2.77613
 Alpha virt. eigenvalues --    2.85952   2.88058   2.93824   2.96152   3.08801
 Alpha virt. eigenvalues --    3.10911   3.20477   3.24595   3.78338   3.90380
 Alpha virt. eigenvalues --    4.04177   4.08243   4.16545   4.18580   4.24745
 Alpha virt. eigenvalues --    4.27914   4.28905   4.30094   4.30250   4.32047
 Alpha virt. eigenvalues --    4.38264   4.42984   4.65696   4.66408
          Condensed to atoms (all electrons):
               1          2          3          4          5          6
     1  C    5.177162   0.380394  -0.064622  -0.073494  -0.043531  -0.003549
     2  C    0.380394   4.581825   0.379444   0.401475   0.177643  -0.011812
     3  C   -0.064622   0.379444   5.221548  -0.072148  -0.039253  -0.007129
     4  C   -0.073494   0.401475  -0.072148   5.157473  -0.045384   0.002831
     5  O   -0.043531   0.177643  -0.039253  -0.045384   8.322485   0.283403
     6  C   -0.003549  -0.011812  -0.007129   0.002831   0.283403   4.223725
     7  O   -0.002426   0.000269  -0.018001   0.000183  -0.077037   0.525924
     8  N   -0.000306   0.004136  -0.000676  -0.000230  -0.102516   0.243480
     9  N   -0.000015   0.000161   0.000045  -0.000006  -0.006867  -0.054179
    10  C   -0.000002  -0.000010   0.000003  -0.000000   0.000222   0.004208
    11  O    0.000000   0.000000   0.000000  -0.000000  -0.000007   0.000492
    12  O   -0.000000   0.000000  -0.000000  -0.000000   0.000000  -0.000188
    13  C   -0.000000  -0.000000   0.000000   0.000000   0.000000   0.000001
    14  C   -0.000000   0.000000  -0.000000  -0.000000   0.000000  -0.000000
    15  C    0.000000  -0.000000   0.000000   0.000000   0.000000  -0.000000
    16  C   -0.000000   0.000000   0.000000  -0.000000  -0.000000   0.000000
    17  H    0.362528  -0.022914  -0.001977  -0.002868   0.002806   0.000105
    18  H    0.364199  -0.026886   0.005444  -0.006364   0.000249   0.000034
    19  H    0.366505  -0.024196  -0.005392   0.005432  -0.003118   0.002598
    20  H   -0.002580  -0.025145   0.355861  -0.003487   0.002443   0.000572
    21  H   -0.004186  -0.023675   0.366441   0.004980  -0.001809  -0.001815
    22  H    0.005618  -0.027952   0.362480  -0.006711  -0.000578   0.001185
    23  H   -0.001640  -0.026413  -0.002224   0.364251   0.002911  -0.000030
    24  H    0.005979  -0.025510  -0.005821   0.362911   0.000432   0.000094
    25  H   -0.005978  -0.025479   0.006027   0.362427   0.000317  -0.000078
    26  H    0.000000  -0.000000   0.000000   0.000000   0.000000  -0.000000
    27  H    0.000000  -0.000000   0.000000   0.000000   0.000000  -0.000000
    28  H    0.000000  -0.000000   0.000000   0.000000   0.000000   0.000000
    29  H    0.000000   0.000000   0.000000   0.000000   0.000000   0.000000
    30  H   -0.000000   0.000000   0.000000   0.000000   0.000000   0.000000
    31  H   -0.000000   0.000000  -0.000000  -0.000000   0.000000  -0.000000
    32  H    0.000000  -0.000000   0.000000   0.000000   0.000000  -0.000000
    33  H    0.000000  -0.000000  -0.000000  -0.000000   0.000000  -0.000001
    34  H   -0.000000   0.000000  -0.000000  -0.000000   0.000000   0.000000
               7          8          9         10         11         12
     1  C   -0.002426  -0.000306  -0.000015  -0.000002   0.000000  -0.000000
     2  C    0.000269   0.004136   0.000161  -0.000010   0.000000   0.000000
     3  C   -0.018001  -0.000676   0.000045   0.000003   0.000000  -0.000000
     4  C    0.000183  -0.000230  -0.000006  -0.000000  -0.000000  -0.000000
     5  O   -0.077037  -0.102516  -0.006867   0.000222  -0.000007   0.000000
     6  C    0.525924   0.243480  -0.054179   0.004208   0.000492  -0.000188
     7  O    8.063109  -0.058565   0.000388  -0.000156   0.000000   0.000000
     8  N   -0.058565   6.960103   0.219069  -0.052062   0.000704   0.001798
     9  N    0.000388   0.219069   6.966607   0.244534  -0.075863  -0.088313
    10  C   -0.000156  -0.052062   0.244534   4.238040   0.511052   0.298508
    11  O    0.000000   0.000704  -0.075863   0.511052   8.078328  -0.074158
    12  O    0.000000   0.001798  -0.088313   0.298508  -0.074158   8.296606
    13  C   -0.000000  -0.000086   0.003405  -0.014897   0.000133   0.176520
    14  C    0.000000   0.000001  -0.000324  -0.003725  -0.002459  -0.042455
    15  C    0.000000   0.000003  -0.000192   0.003106   0.000206  -0.045622
    16  C    0.000000   0.000046  -0.000698  -0.007069  -0.018115  -0.041071
    17  H    0.000025   0.000004   0.000000   0.000000  -0.000000   0.000000
    18  H    0.000043  -0.000018   0.000044   0.000002  -0.000000   0.000000
    19  H    0.004151  -0.000025  -0.000014  -0.000000  -0.000000  -0.000000
    20  H    0.000770   0.000010  -0.000000  -0.000000   0.000000  -0.000000
    21  H    0.011907   0.000156  -0.000014   0.000000  -0.000000  -0.000000
    22  H   -0.000341  -0.000044  -0.000011  -0.000000   0.000000  -0.000000
    23  H    0.000010   0.000003  -0.000001   0.000000   0.000000   0.000000
    24  H   -0.000003  -0.000010  -0.000004  -0.000001   0.000000  -0.000000
    25  H    0.000005  -0.000002   0.000035   0.000002  -0.000000  -0.000000
    26  H   -0.000000   0.000001  -0.000006   0.000134   0.000061   0.000259
    27  H   -0.000000  -0.000000  -0.000009   0.002762   0.004169  -0.003109
    28  H   -0.000000   0.000000   0.000004   0.000104   0.000032   0.002757
    29  H   -0.000000   0.000000   0.000007  -0.000012   0.000006   0.000404
    30  H   -0.000000  -0.000000   0.000002  -0.000040   0.000009   0.002906
    31  H    0.000000  -0.000001  -0.000003   0.000048  -0.000004   0.000423
    32  H    0.000000  -0.000016   0.000226  -0.001581   0.012756  -0.001788
    33  H    0.000000  -0.000015  -0.000022   0.001148  -0.000504  -0.000540
    34  H    0.000000  -0.000001   0.000010   0.000596   0.000776   0.002489
              13         14         15         16         17         18
     1  C   -0.000000  -0.000000   0.000000  -0.000000   0.362528   0.364199
     2  C   -0.000000   0.000000  -0.000000   0.000000  -0.022914  -0.026886
     3  C    0.000000  -0.000000   0.000000   0.000000  -0.001977   0.005444
     4  C    0.000000  -0.000000   0.000000  -0.000000  -0.002868  -0.006364
     5  O    0.000000   0.000000   0.000000  -0.000000   0.002806   0.000249
     6  C    0.000001  -0.000000  -0.000000   0.000000   0.000105   0.000034
     7  O   -0.000000   0.000000   0.000000   0.000000   0.000025   0.000043
     8  N   -0.000086   0.000001   0.000003   0.000046   0.000004  -0.000018
     9  N    0.003405  -0.000324  -0.000192  -0.000698   0.000000   0.000044
    10  C   -0.014897  -0.003725   0.003106  -0.007069   0.000000   0.000002
    11  O    0.000133  -0.002459   0.000206  -0.018115  -0.000000  -0.000000
    12  O    0.176520  -0.042455  -0.045622  -0.041071   0.000000   0.000000
    13  C    4.588050   0.380426   0.403420   0.381040   0.000000   0.000000
    14  C    0.380426   5.175701  -0.073326  -0.063909   0.000000   0.000000
    15  C    0.403420  -0.073326   5.153895  -0.071918  -0.000000   0.000000
    16  C    0.381040  -0.063909  -0.071918   5.219398   0.000000   0.000000
    17  H    0.000000   0.000000  -0.000000   0.000000   0.561510  -0.027026
    18  H    0.000000   0.000000   0.000000   0.000000  -0.027026   0.560640
    19  H    0.000000  -0.000000  -0.000000   0.000000  -0.027801  -0.030653
    20  H    0.000000  -0.000000  -0.000000  -0.000000   0.001659  -0.000026
    21  H    0.000000  -0.000000  -0.000000  -0.000000   0.000130  -0.000059
    22  H   -0.000000  -0.000000  -0.000000  -0.000000  -0.000048  -0.000186
    23  H    0.000000   0.000000  -0.000000   0.000000   0.001543   0.000120
    24  H   -0.000000  -0.000000  -0.000000  -0.000000  -0.000021  -0.000044
    25  H    0.000000   0.000000   0.000000   0.000000   0.000149   0.004425
    26  H   -0.027219   0.363532  -0.006402   0.005439  -0.000000  -0.000000
    27  H   -0.024127   0.366815   0.005314  -0.005248  -0.000000   0.000000
    28  H   -0.022783   0.362910  -0.002867  -0.002046  -0.000000  -0.000000
    29  H   -0.025626  -0.005977   0.361692   0.006061  -0.000000  -0.000000
    30  H   -0.026753  -0.001590   0.365677  -0.002278   0.000000   0.000000
    31  H   -0.025412   0.005941   0.363058  -0.005810   0.000000   0.000000
    32  H   -0.023786  -0.004193   0.004928   0.365815  -0.000000  -0.000000
    33  H   -0.028051   0.005584  -0.006682   0.362716   0.000000   0.000000
    34  H   -0.025528  -0.002735  -0.003370   0.356426   0.000000   0.000000
              19         20         21         22         23         24
     1  C    0.366505  -0.002580  -0.004186   0.005618  -0.001640   0.005979
     2  C   -0.024196  -0.025145  -0.023675  -0.027952  -0.026413  -0.025510
     3  C   -0.005392   0.355861   0.366441   0.362480  -0.002224  -0.005821
     4  C    0.005432  -0.003487   0.004980  -0.006711   0.364251   0.362911
     5  O   -0.003118   0.002443  -0.001809  -0.000578   0.002911   0.000432
     6  C    0.002598   0.000572  -0.001815   0.001185  -0.000030   0.000094
     7  O    0.004151   0.000770   0.011907  -0.000341   0.000010  -0.000003
     8  N   -0.000025   0.000010   0.000156  -0.000044   0.000003  -0.000010
     9  N   -0.000014  -0.000000  -0.000014  -0.000011  -0.000001  -0.000004
    10  C   -0.000000  -0.000000   0.000000  -0.000000   0.000000  -0.000001
    11  O   -0.000000   0.000000  -0.000000   0.000000   0.000000   0.000000
    12  O   -0.000000  -0.000000  -0.000000  -0.000000   0.000000  -0.000000
    13  C    0.000000   0.000000   0.000000  -0.000000   0.000000  -0.000000
    14  C   -0.000000  -0.000000  -0.000000  -0.000000   0.000000  -0.000000
    15  C   -0.000000  -0.000000  -0.000000  -0.000000  -0.000000  -0.000000
    16  C    0.000000  -0.000000  -0.000000  -0.000000   0.000000  -0.000000
    17  H   -0.027801   0.001659   0.000130  -0.000048   0.001543  -0.000021
    18  H   -0.030653  -0.000026  -0.000059  -0.000186   0.000120  -0.000044
    19  H    0.543536   0.000143   0.002558  -0.000025   0.000007  -0.000186
    20  H    0.000143   0.577034  -0.024812  -0.026847   0.002113   0.000061
    21  H    0.002558  -0.024812   0.496738  -0.028798  -0.000001  -0.000045
    22  H   -0.000025  -0.026847  -0.028798   0.571289   0.000200   0.004460
    23  H    0.000007   0.002113  -0.000001   0.000200   0.563462  -0.026983
    24  H   -0.000186   0.000061  -0.000045   0.004460  -0.026983   0.561262
    25  H   -0.000060   0.000016  -0.000181  -0.000044  -0.027701  -0.029811
    26  H   -0.000000  -0.000000  -0.000000   0.000000   0.000000   0.000000
    27  H   -0.000000  -0.000000   0.000000   0.000000  -0.000000   0.000000
    28  H   -0.000000   0.000000   0.000000   0.000000   0.000000   0.000000
    29  H    0.000000  -0.000000  -0.000000   0.000000   0.000000  -0.000000
    30  H    0.000000   0.000000   0.000000   0.000000   0.000000  -0.000000
    31  H    0.000000  -0.000000  -0.000000  -0.000000  -0.000000  -0.000000
    32  H   -0.000000  -0.000000   0.000000   0.000000   0.000000  -0.000000
    33  H    0.000000  -0.000000  -0.000000   0.000000  -0.000000  -0.000000
    34  H    0.000000  -0.000000   0.000000  -0.000000  -0.000000  -0.000000
              25         26         27         28         29         30
     1  C   -0.005978   0.000000   0.000000   0.000000   0.000000  -0.000000
     2  C   -0.025479  -0.000000  -0.000000  -0.000000   0.000000   0.000000
     3  C    0.006027   0.000000   0.000000   0.000000   0.000000   0.000000
     4  C    0.362427   0.000000   0.000000   0.000000   0.000000   0.000000
     5  O    0.000317   0.000000   0.000000   0.000000   0.000000   0.000000
     6  C   -0.000078  -0.000000  -0.000000   0.000000   0.000000   0.000000
     7  O    0.000005  -0.000000  -0.000000  -0.000000  -0.000000  -0.000000
     8  N   -0.000002   0.000001  -0.000000   0.000000   0.000000  -0.000000
     9  N    0.000035  -0.000006  -0.000009   0.000004   0.000007   0.000002
    10  C    0.000002   0.000134   0.002762   0.000104  -0.000012  -0.000040
    11  O   -0.000000   0.000061   0.004169   0.000032   0.000006   0.000009
    12  O   -0.000000   0.000259  -0.003109   0.002757   0.000404   0.002906
    13  C    0.000000  -0.027219  -0.024127  -0.022783  -0.025626  -0.026753
    14  C    0.000000   0.363532   0.366815   0.362910  -0.005977  -0.001590
    15  C    0.000000  -0.006402   0.005314  -0.002867   0.361692   0.365677
    16  C    0.000000   0.005439  -0.005248  -0.002046   0.006061  -0.002278
    17  H    0.000149  -0.000000  -0.000000  -0.000000  -0.000000   0.000000
    18  H    0.004425  -0.000000   0.000000  -0.000000  -0.000000   0.000000
    19  H   -0.000060  -0.000000  -0.000000  -0.000000   0.000000   0.000000
    20  H    0.000016  -0.000000  -0.000000   0.000000  -0.000000   0.000000
    21  H   -0.000181  -0.000000   0.000000   0.000000  -0.000000   0.000000
    22  H   -0.000044   0.000000   0.000000   0.000000   0.000000   0.000000
    23  H   -0.027701   0.000000  -0.000000   0.000000   0.000000   0.000000
    24  H   -0.029811   0.000000   0.000000   0.000000  -0.000000  -0.000000
    25  H    0.560888  -0.000000   0.000000   0.000000   0.000000   0.000000
    26  H   -0.000000   0.563125  -0.030596  -0.027004   0.004471   0.000119
    27  H    0.000000  -0.030596   0.539498  -0.027416  -0.000061   0.000018
    28  H    0.000000  -0.027004  -0.027416   0.558610   0.000143   0.001531
    29  H    0.000000   0.004471  -0.000061   0.000143   0.562280  -0.027485
    30  H    0.000000   0.000119   0.000018   0.001531  -0.027485   0.559693
    31  H    0.000000  -0.000045  -0.000185  -0.000019  -0.029856  -0.026665
    32  H   -0.000000  -0.000055   0.002555   0.000146  -0.000181   0.000000
    33  H   -0.000000  -0.000186  -0.000023  -0.000041  -0.000044   0.000197
    34  H    0.000000  -0.000027   0.000132   0.001653   0.000022   0.002064
              31         32         33         34
     1  C   -0.000000   0.000000   0.000000  -0.000000
     2  C    0.000000  -0.000000  -0.000000   0.000000
     3  C   -0.000000   0.000000  -0.000000  -0.000000
     4  C   -0.000000   0.000000  -0.000000  -0.000000
     5  O    0.000000   0.000000   0.000000   0.000000
     6  C   -0.000000  -0.000000  -0.000001   0.000000
     7  O    0.000000   0.000000   0.000000   0.000000
     8  N   -0.000001  -0.000016  -0.000015  -0.000001
     9  N   -0.000003   0.000226  -0.000022   0.000010
    10  C    0.000048  -0.001581   0.001148   0.000596
    11  O   -0.000004   0.012756  -0.000504   0.000776
    12  O    0.000423  -0.001788  -0.000540   0.002489
    13  C   -0.025412  -0.023786  -0.028051  -0.025528
    14  C    0.005941  -0.004193   0.005584  -0.002735
    15  C    0.363058   0.004928  -0.006682  -0.003370
    16  C   -0.005810   0.365815   0.362716   0.356426
    17  H    0.000000  -0.000000   0.000000   0.000000
    18  H    0.000000  -0.000000   0.000000   0.000000
    19  H    0.000000  -0.000000   0.000000   0.000000
    20  H   -0.000000  -0.000000  -0.000000  -0.000000
    21  H   -0.000000   0.000000  -0.000000   0.000000
    22  H   -0.000000   0.000000   0.000000  -0.000000
    23  H   -0.000000   0.000000  -0.000000  -0.000000
    24  H   -0.000000  -0.000000  -0.000000  -0.000000
    25  H    0.000000  -0.000000  -0.000000   0.000000
    26  H   -0.000045  -0.000055  -0.000186  -0.000027
    27  H   -0.000185   0.002555  -0.000023   0.000132
    28  H   -0.000019   0.000146  -0.000041   0.001653
    29  H   -0.029856  -0.000181  -0.000044   0.000022
    30  H   -0.026665   0.000000   0.000197   0.002064
    31  H    0.559137  -0.000045   0.004474   0.000048
    32  H   -0.000045   0.492832  -0.028444  -0.024507
    33  H    0.004474  -0.028444   0.570127  -0.026795
    34  H    0.000048  -0.024507  -0.026795   0.576350
 Mulliken charges:
               1
     1  C   -0.460056
     2  C    0.314644
     3  C   -0.480054
     4  C   -0.451271
     5  O   -0.472812
     6  C    0.790129
     7  O   -0.450255
     8  N   -0.214941
     9  N   -0.207994
    10  C    0.775087
    11  O   -0.437614
    12  O   -0.485426
    13  C    0.311272
    14  C   -0.460216
    15  C   -0.450921
    16  C   -0.478781
    17  H    0.152194
    18  H    0.156063
    19  H    0.166543
    20  H    0.142216
    21  H    0.202483
    22  H    0.146353
    23  H    0.150373
    24  H    0.153240
    25  H    0.155044
    26  H    0.154399
    27  H    0.169512
    28  H    0.154285
    29  H    0.154156
    30  H    0.152597
    31  H    0.154916
    32  H    0.205335
    33  H    0.147103
    34  H    0.142397
 Sum of Mulliken charges =   0.00000
 Mulliken charges with hydrogens summed into heavy atoms:
               1
     1  C    0.014744
     2  C    0.314644
     3  C    0.010998
     4  C    0.007386
     5  O   -0.472812
     6  C    0.790129
     7  O   -0.450255
     8  N   -0.214941
     9  N   -0.207994
    10  C    0.775087
    11  O   -0.437614
    12  O   -0.485426
    13  C    0.311272
    14  C    0.017980
    15  C    0.010748
    16  C    0.016055
 APT charges:
               1
     1  C   -0.032583
     2  C    0.647863
     3  C   -0.065845
     4  C    0.015583
     5  O   -0.916288
     6  C    1.229345
     7  O   -0.650519
     8  N   -0.227116
     9  N   -0.216798
    10  C    1.280882
    11  O   -0.664530
    12  O   -0.968453
    13  C    0.672283
    14  C   -0.033929
    15  C    0.022104
    16  C   -0.066552
    17  H   -0.003644
    18  H   -0.010369
    19  H    0.002339
    20  H   -0.011970
    21  H    0.064436
    22  H   -0.016660
    23  H   -0.009297
    24  H   -0.014535
    25  H   -0.012406
    26  H   -0.012679
    27  H    0.005760
    28  H   -0.005135
    29  H   -0.014300
    30  H   -0.009036
    31  H   -0.012459
    32  H    0.061575
    33  H   -0.015435
    34  H   -0.011634
 Sum of APT charges =   0.00000
 APT charges with hydrogens summed into heavy atoms:
               1
     1  C   -0.044257
     2  C    0.647863
     3  C   -0.030039
     4  C   -0.020655
     5  O   -0.916288
     6  C    1.229345
     7  O   -0.650519
     8  N   -0.227116
     9  N   -0.216798
    10  C    1.280882
    11  O   -0.664530
    12  O   -0.968453
    13  C    0.672283
    14  C   -0.045983
    15  C   -0.013691
    16  C   -0.032046
 Electronic spatial extent (au):  <R**2>=           5778.6611
 Charge=              0.0000 electrons
 Dipole moment (field-independent basis, Debye):
    X=              0.7067    Y=              3.2309    Z=              0.1730  Tot=              3.3118
 Quadrupole moment (field-independent basis, Debye-Ang):
   XX=            -77.4625   YY=           -102.2352   ZZ=            -95.2777
   XY=             -2.4205   XZ=              3.4528   YZ=             -0.5049
 Traceless Quadrupole moment (field-independent basis, Debye-Ang):
   XX=             14.1960   YY=            -10.5767   ZZ=             -3.6192
   XY=             -2.4205   XZ=              3.4528   YZ=             -0.5049
 Octapole moment (field-independent basis, Debye-Ang**2):
  XXX=             21.7542  YYY=             10.0953  ZZZ=             -0.0289  XYY=              2.6415
  XXY=             31.5789  XXZ=             -1.9739  XZZ=             -1.2670  YZZ=             -0.3893
  YYZ=             -1.1403  XYZ=            -11.4271
 Hexadecapole moment (field-independent basis, Debye-Ang**3):
 XXXX=          -5829.0892 YYYY=           -872.7580 ZZZZ=           -495.7374 XXXY=            -30.1012
 XXXZ=             -2.6024 YYYX=             -5.8593 YYYZ=              5.0383 ZZZX=             -6.1636
 ZZZY=             -1.7086 XXYY=          -1206.6454 XXZZ=          -1138.5682 YYZZ=           -231.7924
 XXYZ=              9.2107 YYXZ=             14.2748 ZZXY=              5.0304
 N-N= 1.156781374303D+03 E-N=-4.184060716732D+03  KE= 7.950094852953D+02
  Exact polarizability: 184.542   7.163 122.666  -3.318  -0.169 106.490
 Approx polarizability: 220.544  19.648 194.678 -13.756   0.263 157.719
 Calling FoFJK, ICntrl=    100127 FMM=F ISym2X=0 I1Cent= 0 IOpClX= 0 NMat=1 NMatS=1 NMatT=0.
 ***** Axes restored to original set *****
 -------------------------------------------------------------------
 Center     Atomic                   Forces (Hartrees/Bohr)
 Number     Number              X              Y              Z
 -------------------------------------------------------------------
      1        6          -0.000557754    0.012648656    0.003982059
      2        6          -0.001981845   -0.018151486   -0.019664095
      3        6          -0.011646215    0.001898047   -0.001984037
      4        6           0.004938729    0.001084331    0.012073056
      5        8          -0.011739392    0.003748667   -0.000425655
      6        6           0.003804831   -0.033269199   -0.073764000
      7        8           0.016858846    0.011505796    0.033725994
      8        7           0.001514937    0.021220847    0.036827539
      9        7          -0.006548045   -0.007025693   -0.034688435
     10        6           0.007182665    0.032585869    0.073929387
     11        8           0.011375749   -0.013132896   -0.023965874
     12        8          -0.013345357   -0.017664200   -0.014430723
     13        6           0.006177265    0.019266847    0.021124725
     14        6          -0.003771174   -0.012363943   -0.003556437
     15        6           0.001022220   -0.001494733   -0.013718295
     16        6          -0.010665457    0.000061346    0.005466726
     17        1          -0.000464665   -0.002297553    0.002151114
     18        1           0.000731327   -0.002417070    0.000036203
     19        1          -0.003545189   -0.000311962    0.000697168
     20        1           0.004582512   -0.001581772    0.001155441
     21        1           0.003762334   -0.003078437   -0.002339825
     22        1           0.001989359   -0.001948826   -0.000163124
     23        1          -0.002149171    0.003011812    0.000588343
     24        1          -0.001911476   -0.000047711   -0.000782539
     25        1           0.000125230    0.001256141   -0.001197681
     26        1           0.001184355    0.002171664   -0.000421641
     27        1          -0.003775373    0.000806490    0.000271472
     28        1          -0.000815593    0.002484513   -0.002326735
     29        1           0.000291697   -0.001249899    0.001263871
     30        1          -0.002743519   -0.002727305    0.000280760
     31        1          -0.001403787    0.000174396    0.001522908
     32        1           0.004880225    0.002342522    0.001041030
     33        1           0.002290318    0.001586005   -0.000234820
     34        1           0.004351411    0.000908738   -0.002473878
 -------------------------------------------------------------------
 Cartesian Forces:  Max     0.073929387 RMS     0.014799537
 FormGI is forming the generalized inverse of G from B-inverse, IUseBI=4.

 GradGradGradGradGradGradGradGradGradGradGradGradGradGradGradGradGradGrad
 Berny optimization.
 Internal  Forces:  Max     0.051688304 RMS     0.009979085
 Search for a local minimum.
 Step number   1 out of a maximum of  170
 All quantities printed in internal units (Hartrees-Bohrs-Radians)
 Mixed Optimization -- RFO/linear search
 Second derivative matrix not updated -- analytic derivatives used.
 ITU=  0
     Eigenvalues ---   -0.00556  -0.00338  -0.00308  -0.00115   0.00199
     Eigenvalues ---    0.00201   0.00291   0.00292   0.00336   0.00336
     Eigenvalues ---    0.00585   0.00617   0.04477   0.04508   0.04523
     Eigenvalues ---    0.04527   0.04607   0.04608   0.04693   0.04699
     Eigenvalues ---    0.04722   0.04723   0.04812   0.04816   0.04866
     Eigenvalues ---    0.04884   0.05882   0.05897   0.06895   0.06997
     Eigenvalues ---    0.07190   0.10027   0.11082   0.11175   0.11907
     Eigenvalues ---    0.12218   0.12225   0.12245   0.12256   0.12807
     Eigenvalues ---    0.12809   0.13310   0.13355   0.14193   0.14224
     Eigenvalues ---    0.14820   0.14836   0.15207   0.15224   0.15235
     Eigenvalues ---    0.15305   0.17747   0.17780   0.18769   0.18851
     Eigenvalues ---    0.20245   0.21462   0.23672   0.24949   0.26836
     Eigenvalues ---    0.26884   0.27023   0.27802   0.27817   0.29070
     Eigenvalues ---    0.29652   0.30446   0.32377   0.32584   0.33641
     Eigenvalues ---    0.33673   0.33812   0.33830   0.33855   0.33873
     Eigenvalues ---    0.33930   0.33949   0.34073   0.34136   0.34282
     Eigenvalues ---    0.34293   0.34606   0.34626   0.34855   0.34904
     Eigenvalues ---    0.35068   0.35130   0.36031   0.36857   0.49064
     Eigenvalues ---    0.62578   0.78139   0.78847   0.80730   0.86356
     Eigenvalues ---    0.86606
 RFO step:  Lambda=-3.90743767D-02 EMin=-5.56373942D-03
 Linear search not attempted -- first point.
 Maximum step size (   0.300) exceeded in Quadratic search.
    -- Step size scaled by   0.976
 Iteration  1 RMS(Cart)=  0.13356780 RMS(Int)=  0.04541351
 Iteration  2 RMS(Cart)=  0.16149862 RMS(Int)=  0.02372419
 Iteration  3 RMS(Cart)=  0.16332372 RMS(Int)=  0.00511318
 Iteration  4 RMS(Cart)=  0.01577396 RMS(Int)=  0.00046779
 Iteration  5 RMS(Cart)=  0.00011637 RMS(Int)=  0.00046666
 Iteration  6 RMS(Cart)=  0.00000002 RMS(Int)=  0.00046666
 Variable       Old X    -DE/DX   Delta X   Delta X   Delta X     New X
                                 (Linear)    (Quad)   (Total)
    R1        2.89888  -0.00153   0.00000  -0.00609  -0.00609   2.89279
    R2        2.06949  -0.00085   0.00000  -0.00082  -0.00082   2.06867
    R3        2.07167  -0.00017   0.00000  -0.00165  -0.00165   2.07002
    R4        2.06594   0.00175   0.00000  -0.00002  -0.00002   2.06593
    R5        2.89896   0.00361   0.00000   0.00078   0.00078   2.89975
    R6        2.90860  -0.00275   0.00000  -0.01503  -0.01503   2.89357
    R7        2.74755   0.00943   0.00000   0.03189   0.03189   2.77944
    R8        2.07020  -0.00016   0.00000  -0.00163  -0.00163   2.06857
    R9        2.06549  -0.00461   0.00000  -0.00330  -0.00330   2.06218
   R10        2.07113   0.00045   0.00000   0.00023   0.00023   2.07136
   R11        2.07183  -0.00214   0.00000  -0.00377  -0.00377   2.06806
   R12        2.07111  -0.00001   0.00000  -0.00168  -0.00168   2.06943
   R13        2.07128   0.00023   0.00000  -0.00118  -0.00118   2.07010
   R14        2.58367  -0.00768   0.00000  -0.05854  -0.05854   2.52513
   R15        2.31655  -0.03022   0.00000  -0.03598  -0.03598   2.28056
   R16        2.60383   0.05169   0.00000   0.09281   0.09281   2.69663
   R17        2.37285  -0.00201   0.00000  -0.01481  -0.01481   2.35804
   R18        2.60520   0.04549   0.00000   0.13353   0.13353   2.73873
   R19        2.31627  -0.02441   0.00000  -0.03788  -0.03788   2.27840
   R20        2.58151  -0.01713   0.00000  -0.06490  -0.06490   2.51662
   R21        2.74271   0.01102   0.00000   0.03038   0.03038   2.77310
   R22        2.89964  -0.00200   0.00000  -0.00566  -0.00566   2.89398
   R23        2.90790  -0.00257   0.00000  -0.01187  -0.01187   2.89604
   R24        2.89962   0.00360   0.00000  -0.00112  -0.00112   2.89850
   R25        2.07139   0.00000   0.00000  -0.00151  -0.00151   2.06988
   R26        2.06501   0.00198   0.00000   0.00315   0.00315   2.06817
   R27        2.07008  -0.00114   0.00000  -0.00157  -0.00157   2.06852
   R28        2.07164   0.00017   0.00000  -0.00172  -0.00172   2.06992
   R29        2.07131  -0.00213   0.00000  -0.00352  -0.00352   2.06778
   R30        2.07188  -0.00032   0.00000  -0.00233  -0.00233   2.06955
   R31        2.06546  -0.00470   0.00000  -0.00534  -0.00534   2.06012
   R32        2.07146   0.00027   0.00000  -0.00039  -0.00039   2.07107
   R33        2.06969  -0.00005   0.00000  -0.00072  -0.00072   2.06897
    A1        1.94369  -0.00390   0.00000  -0.02423  -0.02445   1.91924
    A2        1.92925  -0.00029   0.00000  -0.00189  -0.00194   1.92730
    A3        1.96133  -0.00258   0.00000  -0.01653  -0.01665   1.94468
    A4        1.89224   0.00141   0.00000   0.00285   0.00271   1.89495
    A5        1.87544   0.00284   0.00000   0.01597   0.01569   1.89113
    A6        1.85826   0.00302   0.00000   0.02698   0.02702   1.88528
    A7        1.95914  -0.00346   0.00000   0.00272   0.00135   1.96049
    A8        1.88233   0.00910   0.00000   0.04024   0.03965   1.92198
    A9        1.93741  -0.00598   0.00000  -0.02008  -0.01970   1.91771
   A10        1.88342  -0.00292   0.00000   0.02868   0.02794   1.91136
   A11        1.94458   0.01139   0.00000  -0.01305  -0.01285   1.93173
   A12        1.85179  -0.00836   0.00000  -0.03712  -0.03662   1.81517
   A13        1.94231  -0.00639   0.00000  -0.02539  -0.02561   1.91670
   A14        1.96247   0.00213   0.00000  -0.01215  -0.01222   1.95025
   A15        1.93102  -0.00089   0.00000  -0.00647  -0.00658   1.92444
   A16        1.87360   0.00223   0.00000   0.01963   0.01947   1.89307
   A17        1.89148   0.00140   0.00000   0.00169   0.00143   1.89291
   A18        1.85927   0.00195   0.00000   0.02586   0.02589   1.88516
   A19        1.94554  -0.00434   0.00000  -0.02340  -0.02354   1.92201
   A20        1.93974  -0.00068   0.00000  -0.00455  -0.00462   1.93512
   A21        1.93894  -0.00031   0.00000  -0.00260  -0.00265   1.93629
   A22        1.88878   0.00190   0.00000   0.00668   0.00653   1.89531
   A23        1.88827   0.00187   0.00000   0.00642   0.00630   1.89457
   A24        1.85937   0.00196   0.00000   0.01985   0.01986   1.87923
   A25        2.09781   0.03512   0.00000  -0.01007  -0.01007   2.08774
   A26        2.16792   0.01884   0.00000   0.08044   0.07917   2.24709
   A27        1.91647   0.02022   0.00000  -0.02003  -0.02116   1.89531
   A28        2.19878  -0.03902   0.00000  -0.05982  -0.06085   2.13793
   A29        1.95607   0.02436   0.00000  -0.01645  -0.01645   1.93962
   A30        1.95659   0.00325   0.00000  -0.02131  -0.02131   1.93528
   A31        2.19690  -0.00405   0.00000  -0.00296  -0.00309   2.19381
   A32        1.91570  -0.02157   0.00000  -0.06353  -0.06366   1.85204
   A33        2.17057   0.02565   0.00000   0.06659   0.06645   2.23702
   A34        2.09852   0.03423   0.00000   0.02513   0.02513   2.12365
   A35        1.94442  -0.00668   0.00000  -0.04246  -0.04198   1.90245
   A36        1.84988  -0.00841   0.00000  -0.03982  -0.03958   1.81030
   A37        1.93903   0.01209   0.00000   0.02501   0.02504   1.96407
   A38        1.88351   0.00932   0.00000   0.04059   0.04011   1.92361
   A39        1.95944  -0.00351   0.00000  -0.00975  -0.01074   1.94871
   A40        1.88219  -0.00305   0.00000   0.02793   0.02771   1.90991
   A41        1.93077  -0.00023   0.00000   0.00019   0.00019   1.93096
   A42        1.96247  -0.00281   0.00000  -0.02090  -0.02104   1.94144
   A43        1.94234  -0.00418   0.00000  -0.02008  -0.02028   1.92206
   A44        1.85890   0.00310   0.00000   0.02542   0.02547   1.88437
   A45        1.89120   0.00152   0.00000   0.00422   0.00416   1.89537
   A46        1.87447   0.00311   0.00000   0.01412   0.01381   1.88828
   A47        1.93972  -0.00023   0.00000  -0.00383  -0.00388   1.93584
   A48        1.94640  -0.00463   0.00000  -0.02190  -0.02203   1.92437
   A49        1.93855  -0.00054   0.00000  -0.00556  -0.00563   1.93292
   A50        1.88878   0.00190   0.00000   0.00722   0.00711   1.89588
   A51        1.85859   0.00195   0.00000   0.01938   0.01939   1.87798
   A52        1.88856   0.00197   0.00000   0.00711   0.00697   1.89553
   A53        1.96123   0.00203   0.00000  -0.00661  -0.00671   1.95453
   A54        1.92845  -0.00062   0.00000   0.00265   0.00251   1.93096
   A55        1.94360  -0.00654   0.00000  -0.03807  -0.03831   1.90529
   A56        1.85880   0.00196   0.00000   0.02268   0.02267   1.88147
[...]
     8    C    1  py     Ryd( 3p)     0.00249
     9    C    1  pz     Val( 2p)     1.10085
    10    C    1  pz     Ryd( 3p)     0.00168
    11    C    1  dxy    Ryd( 3d)     0.00042
    12    C    1  dxz    Ryd( 3d)     0.00035
    13    C    1  dyz    Ryd( 3d)     0.00072
    14    C    1  dx2y2  Ryd( 3d)     0.00098
    15    C    1  dz2    Ryd( 3d)     0.00081
 
    16    C    2  S      Cor( 1S)     1.99900
    17    C    2  S      Val( 2S)     0.91216
    18    C    2  S      Ryd( 3S)     0.00081
    19    C    2  S      Ryd( 4S)     0.00004
    20    C    2  px     Val( 2p)     0.67497
    21    C    2  px     Ryd( 3p)     0.00339
    22    C    2  py     Val( 2p)     1.06156
    23    C    2  py     Ryd( 3p)     0.00554
    24    C    2  pz     Val( 2p)     1.05387
    25    C    2  pz     Ryd( 3p)     0.00290
    26    C    2  dxy    Ryd( 3d)     0.00096
    27    C    2  dxz    Ryd( 3d)     0.00110
    28    C    2  dyz    Ryd( 3d)     0.00090
    29    C    2  dx2y2  Ryd( 3d)     0.00185
    30    C    2  dz2    Ryd( 3d)     0.00122
 
    31    C    3  S      Cor( 1S)     1.99932
    32    C    3  S      Val( 2S)     1.09990
    33    C    3  S      Ryd( 3S)     0.00051
    34    C    3  S      Ryd( 4S)     0.00002
    35    C    3  px     Val( 2p)     1.22299
    36    C    3  px     Ryd( 3p)     0.00130
    37    C    3  py     Val( 2p)     1.20877
    38    C    3  py     Ryd( 3p)     0.00230
    39    C    3  pz     Val( 2p)     1.16412
    40    C    3  pz     Ryd( 3p)     0.00183
    41    C    3  dxy    Ryd( 3d)     0.00036
    42    C    3  dxz    Ryd( 3d)     0.00027
    43    C    3  dyz    Ryd( 3d)     0.00061
    44    C    3  dx2y2  Ryd( 3d)     0.00103
    45    C    3  dz2    Ryd( 3d)     0.00101
 
    46    C    4  S      Cor( 1S)     1.99932
    47    C    4  S      Val( 2S)     1.09915
    48    C    4  S      Ryd( 3S)     0.00060
    49    C    4  S      Ryd( 4S)     0.00002
    50    C    4  px     Val( 2p)     1.22534
    51    C    4  px     Ryd( 3p)     0.00215
    52    C    4  py     Val( 2p)     1.09607
    53    C    4  py     Ryd( 3p)     0.00168
    54    C    4  pz     Val( 2p)     1.25672
    55    C    4  pz     Ryd( 3p)     0.00252
    56    C    4  dxy    Ryd( 3d)     0.00035
    57    C    4  dxz    Ryd( 3d)     0.00034
    58    C    4  dyz    Ryd( 3d)     0.00085
    59    C    4  dx2y2  Ryd( 3d)     0.00091
    60    C    4  dz2    Ryd( 3d)     0.00083
 
    61    O    5  S      Cor( 1S)     1.99970
    62    O    5  S      Val( 2S)     1.61380
    63    O    5  S      Ryd( 3S)     0.00231
    64    O    5  S      Ryd( 4S)     0.00015
    65    O    5  px     Val( 2p)     1.44324
    66    O    5  px     Ryd( 3p)     0.00127
    67    O    5  py     Val( 2p)     1.70068
    68    O    5  py     Ryd( 3p)     0.00185
    69    O    5  pz     Val( 2p)     1.77040
    70    O    5  pz     Ryd( 3p)     0.00196
    71    O    5  dxy    Ryd( 3d)     0.00143
    72    O    5  dxz    Ryd( 3d)     0.00033
    73    O    5  dyz    Ryd( 3d)     0.00180
    74    O    5  dx2y2  Ryd( 3d)     0.00128
    75    O    5  dz2    Ryd( 3d)     0.00076
 
    76    C    6  S      Cor( 1S)     1.99951
    77    C    6  S      Val( 2S)     0.72883
    78    C    6  S      Ryd( 3S)     0.00405
    79    C    6  S      Ryd( 4S)     0.00044
    80    C    6  px     Val( 2p)     0.79344
    81    C    6  px     Ryd( 3p)     0.00647
    82    C    6  py     Val( 2p)     0.71463
    83    C    6  py     Ryd( 3p)     0.02397
    84    C    6  pz     Val( 2p)     0.78776
    85    C    6  pz     Ryd( 3p)     0.00463
    86    C    6  dxy    Ryd( 3d)     0.00411
    87    C    6  dxz    Ryd( 3d)     0.00172
    88    C    6  dyz    Ryd( 3d)     0.00284
    89    C    6  dx2y2  Ryd( 3d)     0.00301
    90    C    6  dz2    Ryd( 3d)     0.00066
 
    91    O    7  S      Cor( 1S)     1.99977
    92    O    7  S      Val( 2S)     1.70730
    93    O    7  S      Ryd( 3S)     0.00082
    94    O    7  S      Ryd( 4S)     0.00013
    95    O    7  px     Val( 2p)     1.75605
    96    O    7  px     Ryd( 3p)     0.00140
    97    O    7  py     Val( 2p)     1.59435
    98    O    7  py     Ryd( 3p)     0.00042
    99    O    7  pz     Val( 2p)     1.47658
   100    O    7  pz     Ryd( 3p)     0.00071
   101    O    7  dxy    Ryd( 3d)     0.00496
   102    O    7  dxz    Ryd( 3d)     0.00034
   103    O    7  dyz    Ryd( 3d)     0.00501
   104    O    7  dx2y2  Ryd( 3d)     0.00486
   105    O    7  dz2    Ryd( 3d)     0.00168
 
   106    N    8  S      Cor( 1S)     1.99939
   107    N    8  S      Val( 2S)     1.39540
   108    N    8  S      Ryd( 3S)     0.00610
   109    N    8  S      Ryd( 4S)     0.00003
   110    N    8  px     Val( 2p)     1.15640
   111    N    8  px     Ryd( 3p)     0.00384
   112    N    8  py     Val( 2p)     1.37624
   113    N    8  py     Ryd( 3p)     0.00457
   114    N    8  pz     Val( 2p)     1.26762
   115    N    8  pz     Ryd( 3p)     0.00430
   116    N    8  dxy    Ryd( 3d)     0.00090
   117    N    8  dxz    Ryd( 3d)     0.00158
   118    N    8  dyz    Ryd( 3d)     0.00179
   119    N    8  dx2y2  Ryd( 3d)     0.00110
   120    N    8  dz2    Ryd( 3d)     0.00226
 
   121    N    9  S      Cor( 1S)     1.99939
   122    N    9  S      Val( 2S)     1.39540
   123    N    9  S      Ryd( 3S)     0.00610
   124    N    9  S      Ryd( 4S)     0.00003
   125    N    9  px     Val( 2p)     1.15640
   126    N    9  px     Ryd( 3p)     0.00384
   127    N    9  py     Val( 2p)     1.37624
   128    N    9  py     Ryd( 3p)     0.00457
   129    N    9  pz     Val( 2p)     1.26762
   130    N    9  pz     Ryd( 3p)     0.00430
   131    N    9  dxy    Ryd( 3d)     0.00090
   132    N    9  dxz    Ryd( 3d)     0.00158
   133    N    9  dyz    Ryd( 3d)     0.00179
   134    N    9  dx2y2  Ryd( 3d)     0.00110
   135    N    9  dz2    Ryd( 3d)     0.00226
 
   136    C   10  S      Cor( 1S)     1.99951
   137    C   10  S      Val( 2S)     0.72883
   138    C   10  S      Ryd( 3S)     0.00405
   139    C   10  S      Ryd( 4S)     0.00044
   140    C   10  px     Val( 2p)     0.79344
   141    C   10  px     Ryd( 3p)     0.00647
   142    C   10  py     Val( 2p)     0.71463
   143    C   10  py     Ryd( 3p)     0.02397
   144    C   10  pz     Val( 2p)     0.78776
   145    C   10  pz     Ryd( 3p)     0.00463
   146    C   10  dxy    Ryd( 3d)     0.00411
   147    C   10  dxz    Ryd( 3d)     0.00172
   148    C   10  dyz    Ryd( 3d)     0.00284
   149    C   10  dx2y2  Ryd( 3d)     0.00301
   150    C   10  dz2    Ryd( 3d)     0.00066
 
   151    O   11  S      Cor( 1S)     1.99977
   152    O   11  S      Val( 2S)     1.70730
   153    O   11  S      Ryd( 3S)     0.00082
   154    O   11  S      Ryd( 4S)     0.00013
   155    O   11  px     Val( 2p)     1.75605
   156    O   11  px     Ryd( 3p)     0.00140
   157    O   11  py     Val( 2p)     1.59435
   158    O   11  py     Ryd( 3p)     0.00042
   159    O   11  pz     Val( 2p)     1.47658
   160    O   11  pz     Ryd( 3p)     0.00071
   161    O   11  dxy    Ryd( 3d)     0.00496
   162    O   11  dxz    Ryd( 3d)     0.00034
   163    O   11  dyz    Ryd( 3d)     0.00501
   164    O   11  dx2y2  Ryd( 3d)     0.00486
   165    O   11  dz2    Ryd( 3d)     0.00168
 
   166    O   12  S      Cor( 1S)     1.99970
   167    O   12  S      Val( 2S)     1.61380
   168    O   12  S      Ryd( 3S)     0.00231
   169    O   12  S      Ryd( 4S)     0.00015
   170    O   12  px     Val( 2p)     1.44324
   171    O   12  px     Ryd( 3p)     0.00127
   172    O   12  py     Val( 2p)     1.70068
   173    O   12  py     Ryd( 3p)     0.00185
   174    O   12  pz     Val( 2p)     1.77040
   175    O   12  pz     Ryd( 3p)     0.00196
   176    O   12  dxy    Ryd( 3d)     0.00143
   177    O   12  dxz    Ryd( 3d)     0.00033
   178    O   12  dyz    Ryd( 3d)     0.00180
   179    O   12  dx2y2  Ryd( 3d)     0.00128
   180    O   12  dz2    Ryd( 3d)     0.00076
 
   181    C   13  S      Cor( 1S)     1.99900
   182    C   13  S      Val( 2S)     0.91216
   183    C   13  S      Ryd( 3S)     0.00081
   184    C   13  S      Ryd( 4S)     0.00004
   185    C   13  px     Val( 2p)     0.67497
   186    C   13  px     Ryd( 3p)     0.00339
   187    C   13  py     Val( 2p)     1.06156
   188    C   13  py     Ryd( 3p)     0.00554
   189    C   13  pz     Val( 2p)     1.05387
   190    C   13  pz     Ryd( 3p)     0.00290
   191    C   13  dxy    Ryd( 3d)     0.00096
   192    C   13  dxz    Ryd( 3d)     0.00110
   193    C   13  dyz    Ryd( 3d)     0.00090
   194    C   13  dx2y2  Ryd( 3d)     0.00185
   195    C   13  dz2    Ryd( 3d)     0.00122
 
   196    C   14  S      Cor( 1S)     1.99932
   197    C   14  S      Val( 2S)     1.09990
   198    C   14  S      Ryd( 3S)     0.00051
   199    C   14  S      Ryd( 4S)     0.00002
   200    C   14  px     Val( 2p)     1.22299
   201    C   14  px     Ryd( 3p)     0.00130
   202    C   14  py     Val( 2p)     1.20876
   203    C   14  py     Ryd( 3p)     0.00230
   204    C   14  pz     Val( 2p)     1.16412
   205    C   14  pz     Ryd( 3p)     0.00183
   206    C   14  dxy    Ryd( 3d)     0.00036
   207    C   14  dxz    Ryd( 3d)     0.00027
   208    C   14  dyz    Ryd( 3d)     0.00061
   209    C   14  dx2y2  Ryd( 3d)     0.00103
   210    C   14  dz2    Ryd( 3d)     0.00101
 
   211    C   15  S      Cor( 1S)     1.99932
   212    C   15  S      Val( 2S)     1.09915
   213    C   15  S      Ryd( 3S)     0.00060
   214    C   15  S      Ryd( 4S)     0.00002
   215    C   15  px     Val( 2p)     1.22534
   216    C   15  px     Ryd( 3p)     0.00215
   217    C   15  py     Val( 2p)     1.09607
   218    C   15  py     Ryd( 3p)     0.00168
   219    C   15  pz     Val( 2p)     1.25672
   220    C   15  pz     Ryd( 3p)     0.00252
   221    C   15  dxy    Ryd( 3d)     0.00035
   222    C   15  dxz    Ryd( 3d)     0.00034
   223    C   15  dyz    Ryd( 3d)     0.00085
   224    C   15  dx2y2  Ryd( 3d)     0.00091
   225    C   15  dz2    Ryd( 3d)     0.00083
 
   226    C   16  S      Cor( 1S)     1.99932
   227    C   16  S      Val( 2S)     1.09990
   228    C   16  S      Ryd( 3S)     0.00050
   229    C   16  S      Ryd( 4S)     0.00002
   230    C   16  px     Val( 2p)     1.24238
   231    C   16  px     Ryd( 3p)     0.00113
   232    C   16  py     Val( 2p)     1.25182
   233    C   16  py     Ryd( 3p)     0.00249
   234    C   16  pz     Val( 2p)     1.10085
   235    C   16  pz     Ryd( 3p)     0.00168
   236    C   16  dxy    Ryd( 3d)     0.00042
   237    C   16  dxz    Ryd( 3d)     0.00035
   238    C   16  dyz    Ryd( 3d)     0.00072
   239    C   16  dx2y2  Ryd( 3d)     0.00098
   240    C   16  dz2    Ryd( 3d)     0.00081
 
   241    H   17  S      Val( 1S)     0.75946
   242    H   17  S      Ryd( 2S)     0.00077
 
   243    H   18  S      Val( 1S)     0.75724
   244    H   18  S      Ryd( 2S)     0.00112
 
   245    H   19  S      Val( 1S)     0.74130
   246    H   19  S      Ryd( 2S)     0.00125
 
   247    H   20  S      Val( 1S)     0.75771
   248    H   20  S      Ryd( 2S)     0.00074
 
   249    H   21  S      Val( 1S)     0.74141
   250    H   21  S      Ryd( 2S)     0.00138
 
   251    H   22  S      Val( 1S)     0.75805
   252    H   22  S      Ryd( 2S)     0.00112
 
   253    H   23  S      Val( 1S)     0.76041
   254    H   23  S      Ryd( 2S)     0.00068
 
   255    H   24  S      Val( 1S)     0.75432
   256    H   24  S      Ryd( 2S)     0.00105
 
   257    H   25  S      Val( 1S)     0.75319
   258    H   25  S      Ryd( 2S)     0.00104
 
   259    H   26  S      Val( 1S)     0.75805
   260    H   26  S      Ryd( 2S)     0.00112
 
   261    H   27  S      Val( 1S)     0.74141
   262    H   27  S      Ryd( 2S)     0.00138
 
   263    H   28  S      Val( 1S)     0.75771
   264    H   28  S      Ryd( 2S)     0.00074
 
   265    H   29  S      Val( 1S)     0.75432
   266    H   29  S      Ryd( 2S)     0.00105
 
   267    H   30  S      Val( 1S)     0.76041
   268    H   30  S      Ryd( 2S)     0.00068
 
   269    H   31  S      Val( 1S)     0.75319
   270    H   31  S      Ryd( 2S)     0.00104
 
   271    H   32  S      Val( 1S)     0.74130
   272    H   32  S      Ryd( 2S)     0.00125
 
   273    H   33  S      Val( 1S)     0.75724
   274    H   33  S      Ryd( 2S)     0.00112
 
   275    H   34  S      Val( 1S)     0.75946
   276    H   34  S      Ryd( 2S)     0.00077

 WARNING:  1 low occupancy (<1.9990e) core orbital  found on  C    2
           1 low occupancy (<1.9990e) core orbital  found on  C   13


 Summary of Natural Population Analysis:                  
                                                          
                                       Natural Population 
                Natural  -----------------------------------------------
    Atom  No    Charge         Core      Valence    Rydberg      Total
 -----------------------------------------------------------------------
      C    1   -0.70336      1.99932     4.69495    0.00909     6.70336
      C    2    0.27974      1.99900     3.70255    0.01871     5.72026
      C    3   -0.70432      1.99932     4.69578    0.00922     6.70432
      C    4   -0.68686      1.99932     4.67729    0.01025     6.68686
      O    5   -0.54098      1.99970     6.52813    0.01315     8.54098
      C    6    0.92394      1.99951     3.02466    0.05189     5.07606
      O    7   -0.55437      1.99977     6.53429    0.02032     8.55437
      N    8   -0.22153      1.99939     5.19566    0.02648     7.22153
      N    9   -0.22153      1.99939     5.19566    0.02648     7.22153
      C   10    0.92394      1.99951     3.02466    0.05189     5.07606
      O   11   -0.55437      1.99977     6.53428    0.02032     8.55437
      O   12   -0.54098      1.99970     6.52813    0.01315     8.54098
      C   13    0.27974      1.99900     3.70255    0.01871     5.72026
      C   14   -0.70432      1.99932     4.69578    0.00922     6.70432
      C   15   -0.68686      1.99932     4.67729    0.01025     6.68686
      C   16   -0.70336      1.99932     4.69495    0.00909     6.70336
      H   17    0.23977      0.00000     0.75946    0.00077     0.76023
      H   18    0.24163      0.00000     0.75724    0.00112     0.75837
      H   19    0.25745      0.00000     0.74130    0.00125     0.74255
      H   20    0.24155      0.00000     0.75771    0.00074     0.75845
      H   21    0.25721      0.00000     0.74141    0.00138     0.74279
      H   22    0.24083      0.00000     0.75805    0.00112     0.75917
      H   23    0.23891      0.00000     0.76041    0.00068     0.76109
      H   24    0.24463      0.00000     0.75432    0.00105     0.75537
      H   25    0.24576      0.00000     0.75319    0.00104     0.75424
      H   26    0.24083      0.00000     0.75805    0.00112     0.75917
      H   27    0.25721      0.00000     0.74141    0.00138     0.74279
      H   28    0.24155      0.00000     0.75771    0.00074     0.75845
      H   29    0.24463      0.00000     0.75432    0.00105     0.75537
      H   30    0.23891      0.00000     0.76041    0.00068     0.76109
      H   31    0.24576      0.00000     0.75319    0.00104     0.75424
      H   32    0.25745      0.00000     0.74130    0.00125     0.74255
      H   33    0.24163      0.00000     0.75724    0.00112     0.75837
      H   34    0.23977      0.00000     0.75946    0.00077     0.76023
 =======================================================================
   * Total *   -0.00000     31.99063    91.67281    0.33656   124.00000

                                 Natural Population      
 --------------------------------------------------------
   Core                      31.99063 ( 99.9707% of  32)
   Valence                   91.67281 ( 99.6444% of  92)
   Natural Minimal Basis    123.66344 ( 99.7286% of 124)
   Natural Rydberg Basis      0.33656 (  0.2714% of 124)
 --------------------------------------------------------

    Atom  No          Natural Electron Configuration
 ----------------------------------------------------------------------------
      C    1      [core]2S( 1.10)2p( 3.60)3p( 0.01)
      C    2      [core]2S( 0.91)2p( 2.79)3p( 0.01)3d( 0.01)
      C    3      [core]2S( 1.10)2p( 3.60)3p( 0.01)
      C    4      [core]2S( 1.10)2p( 3.58)3p( 0.01)
      O    5      [core]2S( 1.61)2p( 4.91)3p( 0.01)3d( 0.01)
      C    6      [core]2S( 0.73)2p( 2.30)3p( 0.04)3d( 0.01)
      O    7      [core]2S( 1.71)2p( 4.83)3d( 0.02)
      N    8      [core]2S( 1.40)2p( 3.80)3S( 0.01)3p( 0.01)3d( 0.01)
      N    9      [core]2S( 1.40)2p( 3.80)3S( 0.01)3p( 0.01)3d( 0.01)
      C   10      [core]2S( 0.73)2p( 2.30)3p( 0.04)3d( 0.01)
      O   11      [core]2S( 1.71)2p( 4.83)3d( 0.02)
      O   12      [core]2S( 1.61)2p( 4.91)3p( 0.01)3d( 0.01)
      C   13      [core]2S( 0.91)2p( 2.79)3p( 0.01)3d( 0.01)
      C   14      [core]2S( 1.10)2p( 3.60)3p( 0.01)
      C   15      [core]2S( 1.10)2p( 3.58)3p( 0.01)
      C   16      [core]2S( 1.10)2p( 3.60)3p( 0.01)
      H   17            1S( 0.76)
      H   18            1S( 0.76)
      H   19            1S( 0.74)
      H   20            1S( 0.76)
      H   21            1S( 0.74)
      H   22            1S( 0.76)
      H   23            1S( 0.76)
      H   24            1S( 0.75)
      H   25            1S( 0.75)
      H   26            1S( 0.76)
      H   27            1S( 0.74)
      H   28            1S( 0.76)
      H   29            1S( 0.75)
      H   30            1S( 0.76)
      H   31            1S( 0.75)
      H   32            1S( 0.74)
      H   33            1S( 0.76)
      H   34            1S( 0.76)


 NBO analysis skipped by request.
 1\1\GINC-DELLA-R2C1N14\SP\RB3LYP TD-FC\6-31G(d)\C10H18N2O4\BJS4\22-Aug
 -2020\0\\# TD(NStates=10, Root=1) B3LYP/6-31G* scf=qc volume pop=NPA d
 ensity=current Geom=AllCheck Guess=Read\\Title Card Required\\0,1\C,0,
 6.5345309801,-0.803913887,-1.2290293705\C,0,5.4038652509,-1.0851432637
 ,-0.2368086435\C,0,4.0502939064,-0.5577620547,-0.7181059555\C,0,5.3287
 993311,-2.5714024444,0.112590708\O,0,5.7374430804,-0.4671989641,1.0765
 159593\C,0,5.8833756798,0.843978661,1.2042015624\O,0,5.7923733028,1.71
 79589679,0.3765144967\N,0,6.0758573549,1.1806425835,2.6050045049\N,0,7
 .24139617,0.9806983689,2.9954344297\C,0,7.4338779487,1.3173621278,4.39
 62377922\O,0,7.5248419637,0.4433842626,5.2239316636\O,0,7.5798572741,2
 .628535315,4.5239160261\C,0,7.913442478,3.246476519,5.8372399975\C,0,9
 .2669917592,2.7190533307,6.3185533068\C,0,7.9885607268,4.7327311088,5.
 4878325319\C,0,6.7827580958,2.9652908865,6.8294520016\H,0,6.3491739247
 ,-1.3576134912,-2.1561096656\H,0,7.4937861712,-1.1371711447,-0.8192171
 613\H,0,6.6004015903,0.2596488578,-1.4655168899\H,0,3.7543309511,-1.09
 60970636,-1.6252512242\H,0,4.0963061224,0.5086840938,-0.946258797\H,0,
 3.2809323164,-0.726451549,0.0429033854\H,0,5.0890010897,-3.1524308546,
 -0.7840059593\H,0,4.5536076465,-2.7546249622,0.8631767442\H,0,6.285306
 8742,-2.9241838183,0.5104844404\H,0,10.0363663554,2.887713423,5.557550
 5984\H,0,9.2209419307,1.6526098916,6.5467112567\H,0,9.5629636782,3.257
 3832311,7.2256986905\H,0,8.7637650694,4.9159235331,4.7372522254\H,0,8.
 22837032,5.3137567863,6.3844279125\H,0,7.0320683673,5.0855418484,5.089
 9283421\H,0,6.7168502725,1.9017320252,7.0659465475\H,0,5.8235176787,3.
 298576668,6.4196283768\H,0,6.9681243389,3.5189910074,7.7565301663\\Ver
 sion=ES64L-G16RevA.03\State=1-A\HF=-802.2811441\RMSD=6.825e-09\Dipole=
 0.0000364,-0.000004,0.0000076\Quadrupole=-2.7583969,-0.8257077,3.58410
 46,5.1767287,4.0554442,14.5511834\PG=C01 [X(C10H18N2O4)]\\@


 IMAGINATION WILL OFTEN CARRY US TO WORLDS THAT NEVER WERE.
 BUT WITHOUT IT, WE GO NOWHERE. -- CARL SAGAN (COSMOS)
 Job cpu time:       0 days  0 hours 31 minutes  1.6 seconds.
 Elapsed time:       0 days  0 hours  6 minutes 13.6 seconds.
 File lengths (MBytes):  RWF=    679 Int=      0 D2E=      0 Chk=    268 Scr=      1
 Normal termination of Gaussian 16 at Sat Aug 22 14:13:35 2020.
