 Entering Gaussian System, Link 0=g16
 Input=azadicarboxylate_3_conf24123.com
 Output=azadicarboxylate_3_conf24123.log
 Initial command:
 /opt/export//g16/l1.exe "/scratch/bjs4/job.6581/Gau-6583.inp" -scrdir="/scratch/bjs4/job.6581/"
 Entering Link 1 = /opt/export//g16/l1.exe PID=      6584.
  
 Copyright (c) 1988,1990,1992,1993,1995,1998,2003,2009,2016,
            Gaussian, Inc.  All Rights Reserved.
  
 This is part of the Gaussian(R) 16 program.  It is based on
 the Gaussian(R) 09 system (copyright 2009, Gaussian, Inc.),
 the Gaussian(R) 03 system (copyright 2003, Gaussian, Inc.),
 the Gaussian(R) 98 system (copyright 1998, Gaussian, Inc.),
 the Gaussian(R) 94 system (copyright 1995, Gaussian, Inc.),
 the Gaussian 92(TM) system (copyright 1992, Gaussian, Inc.),
 the Gaussian 90(TM) system (copyright 1990, Gaussian, Inc.),
 the Gaussian 88(TM) system (copyright 1988, Gaussian, Inc.),
 the Gaussian 86(TM) system (copyright 1986, Carnegie Mellon
 University), and the Gaussian 82(TM) system (copyright 1983,
 Carnegie Mellon University). Gaussian is a federally registered
 trademark of Gaussian, Inc.
  
 This software contains proprietary and confidential information,
 including trade secrets, belonging to Gaussian, Inc.
  
 This software is provided under written license and may be
 used, copied, transmitted, or stored only in accord with that
 written license.
  
 The following legend is applicable only to US Government
 contracts under FAR:
  
                    RESTRICTED RIGHTS LEGEND
  
 Use, reproduction and disclosure by the US Government is
 subject to restrictions as set forth in subparagraphs (a)
 and (c) of the Commercial Computer Software - Restricted
 Rights clause in FAR 52.227-19.
  
 Gaussian, Inc.
 340 Quinnipiac St., Bldg. 40, Wallingford CT 06492
  
  
 ---------------------------------------------------------------
 Warning -- This program may not be used in any manner that
 competes with the business of Gaussian, Inc. or will provide
 assistance to any competitor of Gaussian, Inc.  The licensee
 of this program is prohibited from giving any competitor of
 Gaussian, Inc. access to this program.  By using this program,
 the user acknowledges that Gaussian, Inc. is engaged in the
 business of creating and licensing software in the field of
 computational chemistry and represents and warrants to the
 licensee that it is not a competitor of Gaussian, Inc. and that
 it will not use this program in any manner prohibited above.
 ---------------------------------------------------------------
  

 Cite this work as:
 Gaussian 16, Revision A.03,
 M. J. Frisch, G. W. Trucks, H. B. Schlegel, G. E. Scuseria, 
 M. A. Robb, J. R. Cheeseman, G. Scalmani, V. Barone, 
 G. A. Petersson, H. Nakatsuji, X. Li, M. Caricato, A. V. Marenich, 
 J. Bloino, B. G. Janesko, R. Gomperts, B. Mennucci, H. P. Hratchian, 
 J. V. Ortiz, A. F. Izmaylov, J. L. Sonnenberg, D. Williams-Young, 
 F. Ding, F. Lipparini, F. Egidi, J. Goings, B. Peng, A. Petrone, 
 T. Henderson, D. Ranasinghe, V. G. Zakrzewski, J. Gao, N. Rega, 
 G. Zheng, W. Liang, M. Hada, M. Ehara, K. Toyota, R. Fukuda, 
 J. Hasegawa, M. Ishida, T. Nakajima, Y. Honda, O. Kitao, H. Nakai, 
 T. Vreven, K. Throssell, J. A. Montgomery, Jr., J. E. Peralta, 
 F. Ogliaro, M. J. Bearpark, J. J. Heyd, E. N. Brothers, K. N. Kudin, 
 V. N. Staroverov, T. A. Keith, R. Kobayashi, J. Normand, 
 K. Raghavachari, A. P. Rendell, J. C. Burant, S. S. Iyengar, 
 J. Tomasi, M. Cossi, J. M. Millam, M. Klene, C. Adamo, R. Cammi, 
 J. W. Ochterski, R. L. Martin, K. Morokuma, O. Farkas, 
 J. B. Foresman, and D. J. Fox, Gaussian, Inc., Wallingford CT, 2016.
 
 ******************************************
 Gaussian 16:  ES64L-G16RevA.03 25-Dec-2016
                22-Aug-2020 
 ******************************************
 %nprocshared=5
 Will use up to    5 processors via shared memory.
 %Mem=10GB
 %Chk=azadicarboxylate_3_conf241.chk
 ---------------------------------
 # opt=CalcAll B3LYP/6-31G* scf=qc
 ---------------------------------
 1/10=4,18=20,19=15,26=3,38=1/1,3;
 2/9=110,12=2,17=6,18=5,40=1/2;
 3/5=1,6=6,7=1,11=2,25=1,30=1,71=2,74=-5,140=1/1,2,3;
 4//1;
 5/5=2,8=3,38=5/8;
 8/6=4,10=90,11=11/1;
 11/6=1,8=1,9=11,15=111,16=1/1,2,10;
 10/6=1/2;
 6/7=2,8=2,9=2,10=2,18=1,28=1/1;
 7/10=1,25=1/1,2,3,16;
 1/10=4,18=20,19=15,26=3/3(3);
 2/9=110/2;
 7/8=1,9=1,25=1,44=-1/16;
 99//99;
 2/9=110/2;
 3/5=1,6=6,7=1,11=2,25=1,30=1,71=2,74=-5,140=1/1,2,3;
 4/5=5,16=3,69=1/1;
 5/5=2,8=3,38=5/8;
 8/6=4,10=90,11=11/1;
 11/6=1,8=1,9=11,15=111,16=1/1,2,10;
 10/6=1/2;
 7/10=1,25=1/1,2,3,16;
 1/10=4,18=20,19=15,26=3/3(-8);
 2/9=110/2;
 6/7=2,8=2,9=2,10=2,18=1,19=2,28=1/1;
 7/8=1,9=1,25=1,44=-1/16;
 99//99;
 -------------------
 Title Card Required
 -------------------
 Symbolic Z-matrix:
 Charge =  0 Multiplicity = 1
 C                    -4.5538   -1.12161   1.0343 
 C                    -5.77285  -0.7987    0.19836 
 O1                   -6.00409   0.61625   0.16883 
 C2                   -5.0041    1.3932   -0.331 
 O3                   -3.93618   0.95738  -0.74807 
 N4                   -5.404     2.7122   -0.3088 
 N5                   -6.6449    2.8402   -0.4308 
 C6                   -7.0458    4.1568   -0.3655 
 O7                   -6.49846   5.05974   0.25758 
 O8                   -8.18479   4.31423  -1.09426 
 C                    -8.76148   5.62718  -1.11936 
 C                    -7.77803   6.62888  -1.68306 
 C                    -6.49527   6.242    -2.1014 
 C                    -5.60082   7.18307  -2.61902 
 C                    -5.98888   8.51485  -2.73991 
 C                    -7.26994   8.91053  -2.36422 
 C                    -8.16294   7.96981  -1.84322 
 Cl                   -4.8801    9.67766  -3.355 
 C                    -3.80644  -0.1127    1.66182 
 C                    -2.68333  -0.43193   2.43045 
 C                    -2.30984  -1.76364   2.59263 
 C                    -3.06026  -2.78007   2.0074 
 C                    -4.18124  -2.46041   1.23625 
 Cl                   -0.91409  -2.15539   3.51912 
 H                    -6.64806  -1.26768   0.66201 
 H                    -5.66302  -1.22844  -0.80348 
 H                    -9.10288   5.95556  -0.13176 
 H                    -9.63857   5.59063  -1.77492 
 H                    -6.17817   5.20389  -2.01905 
 H                    -4.60501   6.87039  -2.92177 
 H                    -7.5784    9.94733  -2.46964 
 H                    -9.16093   8.2959   -1.55564 
 H                    -4.08817   0.93277   1.54986 
 H                    -2.10487   0.36216   2.89541 
 H                    -2.7773   -3.82068   2.14329 
 H                    -4.7575   -3.26745   0.78734 
 

 GradGradGradGradGradGradGradGradGradGradGradGradGradGradGradGradGradGrad
 Berny optimization.
 Initialization pass.
                           ----------------------------
                           !    Initial Parameters    !
                           ! (Angstroms and Degrees)  !
 --------------------------                            --------------------------
 ! Name  Definition              Value          Derivative Info.                !
 --------------------------------------------------------------------------------
 ! R1    R(1,2)                  1.513          calculate D2E/DX2 analytically  !
 ! R2    R(1,19)                 1.4036         calculate D2E/DX2 analytically  !
 ! R3    R(1,23)                 1.4043         calculate D2E/DX2 analytically  !
 ! R4    R(2,3)                  1.434          calculate D2E/DX2 analytically  !
 ! R5    R(2,25)                 1.0959         calculate D2E/DX2 analytically  !
 ! R6    R(2,26)                 1.0956         calculate D2E/DX2 analytically  !
 ! R7    R(3,4)                  1.3614         calculate D2E/DX2 analytically  !
 ! R8    R(4,5)                  1.2265         calculate D2E/DX2 analytically  !
 ! R9    R(4,6)                  1.3785         calculate D2E/DX2 analytically  !
 ! R10   R(6,7)                  1.2534         calculate D2E/DX2 analytically  !
 ! R11   R(7,8)                  1.3778         calculate D2E/DX2 analytically  !
 ! R12   R(8,9)                  1.226          calculate D2E/DX2 analytically  !
 ! R13   R(8,10)                 1.3613         calculate D2E/DX2 analytically  !
 ! R14   R(10,11)                1.4342         calculate D2E/DX2 analytically  !
 ! R15   R(11,12)                1.5127         calculate D2E/DX2 analytically  !
 ! R16   R(11,27)                1.0953         calculate D2E/DX2 analytically  !
 ! R17   R(11,28)                1.0956         calculate D2E/DX2 analytically  !
 ! R18   R(12,13)                1.4036         calculate D2E/DX2 analytically  !
 ! R19   R(12,17)                1.4042         calculate D2E/DX2 analytically  !
 ! R20   R(13,14)                1.3977         calculate D2E/DX2 analytically  !
 ! R21   R(13,29)                1.0886         calculate D2E/DX2 analytically  !
 ! R22   R(14,15)                1.3924         calculate D2E/DX2 analytically  !
 ! R23   R(14,30)                1.0868         calculate D2E/DX2 analytically  !
 ! R24   R(15,16)                1.3924         calculate D2E/DX2 analytically  !
 ! R25   R(15,18)                1.7204         calculate D2E/DX2 analytically  !
 ! R26   R(16,17)                1.3978         calculate D2E/DX2 analytically  !
 ! R27   R(16,31)                1.0868         calculate D2E/DX2 analytically  !
 ! R28   R(17,32)                1.0886         calculate D2E/DX2 analytically  !
 ! R29   R(19,20)                1.3979         calculate D2E/DX2 analytically  !
 ! R30   R(19,33)                1.0885         calculate D2E/DX2 analytically  !
 ! R31   R(20,21)                1.3926         calculate D2E/DX2 analytically  !
 ! R32   R(20,34)                1.0869         calculate D2E/DX2 analytically  !
 ! R33   R(21,22)                1.3924         calculate D2E/DX2 analytically  !
 ! R34   R(21,24)                1.7205         calculate D2E/DX2 analytically  !
 ! R35   R(22,23)                1.3977         calculate D2E/DX2 analytically  !
 ! R36   R(22,35)                1.0869         calculate D2E/DX2 analytically  !
 ! R37   R(23,36)                1.0885         calculate D2E/DX2 analytically  !
 ! A1    A(2,1,19)             121.5068         calculate D2E/DX2 analytically  !
 ! A2    A(2,1,23)             119.7815         calculate D2E/DX2 analytically  !
 ! A3    A(19,1,23)            118.6668         calculate D2E/DX2 analytically  !
 ! A4    A(1,2,3)              110.6028         calculate D2E/DX2 analytically  !
 ! A5    A(1,2,25)             108.5657         calculate D2E/DX2 analytically  !
 ! A6    A(1,2,26)             109.9212         calculate D2E/DX2 analytically  !
 ! A7    A(3,2,25)             107.5893         calculate D2E/DX2 analytically  !
 ! A8    A(3,2,26)             112.6031         calculate D2E/DX2 analytically  !
 ! A9    A(25,2,26)            107.402          calculate D2E/DX2 analytically  !
 ! A10   A(2,3,4)              116.886          calculate D2E/DX2 analytically  !
 ! A11   A(3,4,5)              124.1666         calculate D2E/DX2 analytically  !
 ! A12   A(3,4,6)              109.0911         calculate D2E/DX2 analytically  !
 ! A13   A(5,4,6)              126.7319         calculate D2E/DX2 analytically  !
 ! A14   A(4,6,7)              112.5413         calculate D2E/DX2 analytically  !
 ! A15   A(6,7,8)              112.397          calculate D2E/DX2 analytically  !
 ! A16   A(7,8,9)              126.7227         calculate D2E/DX2 analytically  !
 ! A17   A(7,8,10)             109.1826         calculate D2E/DX2 analytically  !
 ! A18   A(9,8,10)             124.0851         calculate D2E/DX2 analytically  !
 ! A19   A(8,10,11)            116.85           calculate D2E/DX2 analytically  !
 ! A20   A(10,11,12)           110.5669         calculate D2E/DX2 analytically  !
 ! A21   A(10,11,27)           112.5813         calculate D2E/DX2 analytically  !
 ! A22   A(10,11,28)           107.567          calculate D2E/DX2 analytically  !
 ! A23   A(12,11,27)           109.883          calculate D2E/DX2 analytically  !
 ! A24   A(12,11,28)           108.637          calculate D2E/DX2 analytically  !
 ! A25   A(27,11,28)           107.4564         calculate D2E/DX2 analytically  !
 ! A26   A(11,12,13)           121.5124         calculate D2E/DX2 analytically  !
 ! A27   A(11,12,17)           119.7771         calculate D2E/DX2 analytically  !
 ! A28   A(13,12,17)           118.6665         calculate D2E/DX2 analytically  !
 ! A29   A(12,13,14)           120.6394         calculate D2E/DX2 analytically  !
 ! A30   A(12,13,29)           120.4322         calculate D2E/DX2 analytically  !
 ! A31   A(14,13,29)           118.9262         calculate D2E/DX2 analytically  !
 ! A32   A(13,14,15)           119.853          calculate D2E/DX2 analytically  !
 ! A33   A(13,14,30)           119.7245         calculate D2E/DX2 analytically  !
 ! A34   A(15,14,30)           120.4222         calculate D2E/DX2 analytically  !
 ! A35   A(14,15,16)           120.3163         calculate D2E/DX2 analytically  !
 ! A36   A(14,15,18)           119.8596         calculate D2E/DX2 analytically  !
 ! A37   A(16,15,18)           119.8241         calculate D2E/DX2 analytically  !
 ! A38   A(15,16,17)           119.8077         calculate D2E/DX2 analytically  !
 ! A39   A(15,16,31)           120.3998         calculate D2E/DX2 analytically  !
 ! A40   A(17,16,31)           119.7919         calculate D2E/DX2 analytically  !
 ! A41   A(12,17,16)           120.6674         calculate D2E/DX2 analytically  !
 ! A42   A(12,17,32)           120.4781         calculate D2E/DX2 analytically  !
 ! A43   A(16,17,32)           118.8527         calculate D2E/DX2 analytically  !
 ! A44   A(1,19,20)            120.6277         calculate D2E/DX2 analytically  !
 ! A45   A(1,19,33)            120.4345         calculate D2E/DX2 analytically  !
 ! A46   A(20,19,33)           118.9357         calculate D2E/DX2 analytically  !
 ! A47   A(19,20,21)           119.8616         calculate D2E/DX2 analytically  !
 ! A48   A(19,20,34)           119.7334         calculate D2E/DX2 analytically  !
 ! A49   A(21,20,34)           120.4047         calculate D2E/DX2 analytically  !
 ! A50   A(20,21,22)           120.3042         calculate D2E/DX2 analytically  !
 ! A51   A(20,21,24)           119.871          calculate D2E/DX2 analytically  !
 ! A52   A(22,21,24)           119.8247         calculate D2E/DX2 analytically  !
 ! A53   A(21,22,23)           119.8149         calculate D2E/DX2 analytically  !
 ! A54   A(21,22,35)           120.3999         calculate D2E/DX2 analytically  !
 ! A55   A(23,22,35)           119.7847         calculate D2E/DX2 analytically  !
 ! A56   A(1,23,22)            120.6759         calculate D2E/DX2 analytically  !
 ! A57   A(1,23,36)            120.4693         calculate D2E/DX2 analytically  !
 ! A58   A(22,23,36)           118.853          calculate D2E/DX2 analytically  !
 ! D1    D(19,1,2,3)            -0.0004         calculate D2E/DX2 analytically  !
 ! D2    D(19,1,2,25)         -117.829          calculate D2E/DX2 analytically  !
 ! D3    D(19,1,2,26)          124.9582         calculate D2E/DX2 analytically  !
 ! D4    D(23,1,2,3)           177.5284         calculate D2E/DX2 analytically  !
 ! D5    D(23,1,2,25)           59.6998         calculate D2E/DX2 analytically  !
 ! D6    D(23,1,2,26)          -57.5131         calculate D2E/DX2 analytically  !
 ! D7    D(2,1,19,20)          179.9787         calculate D2E/DX2 analytically  !
 ! D8    D(2,1,19,33)           -0.5607         calculate D2E/DX2 analytically  !
 ! D9    D(23,1,19,20)           2.4232         calculate D2E/DX2 analytically  !
 ! D10   D(23,1,19,33)        -178.1163         calculate D2E/DX2 analytically  !
 ! D11   D(2,1,23,22)         -179.8656         calculate D2E/DX2 analytically  !
 ! D12   D(2,1,23,36)            0.6173         calculate D2E/DX2 analytically  !
 ! D13   D(19,1,23,22)          -2.2668         calculate D2E/DX2 analytically  !
 ! D14   D(19,1,23,36)         178.2161         calculate D2E/DX2 analytically  !
 ! D15   D(1,2,3,4)             59.2946         calculate D2E/DX2 analytically  !
 ! D16   D(25,2,3,4)           177.7194         calculate D2E/DX2 analytically  !
 ! D17   D(26,2,3,4)           -64.1276         calculate D2E/DX2 analytically  !
 ! D18   D(2,3,4,5)             -0.08           calculate D2E/DX2 analytically  !
 ! D19   D(2,3,4,6)            178.8166         calculate D2E/DX2 analytically  !
 ! D20   D(3,4,6,7)            -29.6472         calculate D2E/DX2 analytically  !
 ! D21   D(5,4,6,7)            149.2136         calculate D2E/DX2 analytically  !
 ! D22   D(4,6,7,8)            178.0638         calculate D2E/DX2 analytically  !
 ! D23   D(6,7,8,9)            -29.6471         calculate D2E/DX2 analytically  !
 ! D24   D(6,7,8,10)           151.4486         calculate D2E/DX2 analytically  !
 ! D25   D(7,8,10,11)          178.9395         calculate D2E/DX2 analytically  !
 ! D26   D(9,8,10,11)            0.0            calculate D2E/DX2 analytically  !
 ! D27   D(8,10,11,12)          59.294          calculate D2E/DX2 analytically  !
 ! D28   D(8,10,11,27)         -64.0359         calculate D2E/DX2 analytically  !
 ! D29   D(8,10,11,28)         177.7713         calculate D2E/DX2 analytically  !
 ! D30   D(10,11,12,13)          0.0004         calculate D2E/DX2 analytically  !
 ! D31   D(10,11,12,17)        177.5576         calculate D2E/DX2 analytically  !
 ! D32   D(27,11,12,13)        124.8786         calculate D2E/DX2 analytically  !
 ! D33   D(27,11,12,17)        -57.5642         calculate D2E/DX2 analytically  !
 ! D34   D(28,11,12,13)       -117.8232         calculate D2E/DX2 analytically  !
 ! D35   D(28,11,12,17)         59.7339         calculate D2E/DX2 analytically  !
 ! D36   D(11,12,13,14)       -179.97           calculate D2E/DX2 analytically  !
 ! D37   D(11,12,13,29)         -0.5271         calculate D2E/DX2 analytically  !
 ! D38   D(17,12,13,14)          2.4465         calculate D2E/DX2 analytically  !
 ! D39   D(17,12,13,29)       -178.1106         calculate D2E/DX2 analytically  !
 ! D40   D(11,12,17,16)       -179.8987         calculate D2E/DX2 analytically  !
 ! D41   D(11,12,17,32)          0.5957         calculate D2E/DX2 analytically  !
 ! D42   D(13,12,17,16)         -2.2721         calculate D2E/DX2 analytically  !
 ! D43   D(13,12,17,32)        178.2223         calculate D2E/DX2 analytically  !
 ! D44   D(12,13,14,15)         -0.9081         calculate D2E/DX2 analytically  !
 ! D45   D(12,13,14,30)        178.8991         calculate D2E/DX2 analytically  !
 ! D46   D(29,13,14,15)        179.6407         calculate D2E/DX2 analytically  !
 ! D47   D(29,13,14,30)         -0.5521         calculate D2E/DX2 analytically  !
 ! D48   D(13,14,15,16)         -0.8578         calculate D2E/DX2 analytically  !
 ! D49   D(13,14,15,18)        179.0858         calculate D2E/DX2 analytically  !
 ! D50   D(30,14,15,16)        179.3363         calculate D2E/DX2 analytically  !
 ! D51   D(30,14,15,18)         -0.72           calculate D2E/DX2 analytically  !
 ! D52   D(14,15,16,17)          1.0309         calculate D2E/DX2 analytically  !
 ! D53   D(14,15,16,31)       -179.2318         calculate D2E/DX2 analytically  !
 ! D54   D(18,15,16,17)       -178.9128         calculate D2E/DX2 analytically  !
 ! D55   D(18,15,16,31)          0.8245         calculate D2E/DX2 analytically  !
 ! D56   D(15,16,17,12)          0.5583         calculate D2E/DX2 analytically  !
 ! D57   D(15,16,17,32)       -179.9282         calculate D2E/DX2 analytically  !
 ! D58   D(31,16,17,12)       -179.1806         calculate D2E/DX2 analytically  !
 ! D59   D(31,16,17,32)          0.3329         calculate D2E/DX2 analytically  !
 ! D60   D(1,19,20,21)          -0.8872         calculate D2E/DX2 analytically  !
 ! D61   D(1,19,20,34)         178.9151         calculate D2E/DX2 analytically  !
 ! D62   D(33,19,20,21)        179.6443         calculate D2E/DX2 analytically  !
 ! D63   D(33,19,20,34)         -0.5535         calculate D2E/DX2 analytically  !
 ! D64   D(19,20,21,22)         -0.8583         calculate D2E/DX2 analytically  !
 ! D65   D(19,20,21,24)        179.0885         calculate D2E/DX2 analytically  !
 ! D66   D(34,20,21,22)        179.3408         calculate D2E/DX2 analytically  !
 ! D67   D(34,20,21,24)         -0.7124         calculate D2E/DX2 analytically  !
 ! D68   D(20,21,22,23)          1.0141         calculate D2E/DX2 analytically  !
 ! D69   D(20,21,22,35)       -179.2324         calculate D2E/DX2 analytically  !
 ! D70   D(24,21,22,23)       -178.9328         calculate D2E/DX2 analytically  !
 ! D71   D(24,21,22,35)          0.8208         calculate D2E/DX2 analytically  !
 ! D72   D(21,22,23,1)           0.5725         calculate D2E/DX2 analytically  !
 ! D73   D(21,22,23,36)       -179.9026         calculate D2E/DX2 analytically  !
 ! D74   D(35,22,23,1)        -179.1825         calculate D2E/DX2 analytically  !
 ! D75   D(35,22,23,36)          0.3423         calculate D2E/DX2 analytically  !
 --------------------------------------------------------------------------------
 Trust Radius=3.00D-01 FncErr=1.00D-07 GrdErr=1.00D-06 EigMax=2.50D+02 EigMin=1.00D-04
 Number of steps in this run=    180 maximum allowed number of steps=    216.
 GradGradGradGradGradGradGradGradGradGradGradGradGradGradGradGradGradGrad

                          Input orientation:                          
 ---------------------------------------------------------------------
 Center     Atomic      Atomic             Coordinates (Angstroms)
 Number     Number       Type             X           Y           Z
 ---------------------------------------------------------------------
      1          6           0       -4.553800   -1.121610    1.034300
      2          6           0       -5.772850   -0.798700    0.198360
      3          8           0       -6.004090    0.616250    0.168830
      4          6           0       -5.004100    1.393200   -0.331000
      5          8           0       -3.936180    0.957380   -0.748070
      6          7           0       -5.404000    2.712200   -0.308800
      7          7           0       -6.644900    2.840200   -0.430800
      8          6           0       -7.045800    4.156800   -0.365500
      9          8           0       -6.498460    5.059740    0.257580
     10          8           0       -8.184790    4.314230   -1.094260
     11          6           0       -8.761480    5.627180   -1.119360
     12          6           0       -7.778030    6.628880   -1.683060
     13          6           0       -6.495270    6.242000   -2.101400
     14          6           0       -5.600820    7.183070   -2.619020
     15          6           0       -5.988880    8.514850   -2.739910
     16          6           0       -7.269940    8.910530   -2.364220
     17          6           0       -8.162940    7.969810   -1.843220
     18         17           0       -4.880100    9.677660   -3.355000
     19          6           0       -3.806440   -0.112700    1.661820
     20          6           0       -2.683330   -0.431930    2.430450
     21          6           0       -2.309840   -1.763640    2.592630
     22          6           0       -3.060260   -2.780070    2.007400
     23          6           0       -4.181240   -2.460410    1.236250
     24         17           0       -0.914090   -2.155390    3.519120
     25          1           0       -6.648060   -1.267680    0.662010
     26          1           0       -5.663020   -1.228440   -0.803480
     27          1           0       -9.102880    5.955560   -0.131760
     28          1           0       -9.638570    5.590630   -1.774920
     29          1           0       -6.178170    5.203890   -2.019050
     30          1           0       -4.605010    6.870390   -2.921770
     31          1           0       -7.578400    9.947330   -2.469640
     32          1           0       -9.160930    8.295900   -1.555640
     33          1           0       -4.088170    0.932770    1.549860
     34          1           0       -2.104870    0.362160    2.895410
     35          1           0       -2.777300   -3.820680    2.143290
     36          1           0       -4.757500   -3.267450    0.787340
 ---------------------------------------------------------------------
                    Distance matrix (angstroms):
                    1          2          3          4          5
     1  C    0.000000
     2  C    1.512994   0.000000
     3  O    2.423332   1.434025   0.000000
     4  C    2.896737   2.382357   1.361419   0.000000
     5  O    2.807222   2.711624   2.287647   1.226515   0.000000
     6  N    4.150284   3.566466   2.231870   1.378468   2.329559
     7  N    4.713296   3.794457   2.390847   2.189976   3.314036
     8  C    6.002592   5.147360   3.729097   3.436163   4.477989
     9  O    6.526414   5.903502   4.471787   4.002881   4.940240
    10  O    6.874825   5.799170   4.475031   4.385404   5.425770
    11  C    8.239477   7.208344   5.862768   5.715418   6.725207
    12  C    8.823253   7.920191   6.536672   6.077425   6.913749
    13  C    8.235574   7.441925   6.086400   5.372966   6.025583
    14  C    9.132946   8.466161   7.145478   6.254095   6.710492
    15  C   10.448228   9.768435   8.417178   7.582251   8.080616
    16  C   10.934861  10.152696   8.764348   8.110380   8.773739
    17  C   10.196074   9.314899   7.923624   7.450965   8.260692
    18  Cl  11.661761  11.098535   9.787231   8.819990   9.150429
    19  C    1.403648   2.545404   2.755005   2.770100   2.639976
    20  C    2.433835   3.829083   4.152235   4.042608   3.688198
    21  C    2.806413   4.319268   5.018582   5.076641   4.605346
    22  C    2.434764   3.815311   4.856075   5.163604   4.725292
    23  C    1.404269   2.524226   3.732024   4.240717   3.959655
    24  Cl   4.526646   6.039504   6.694366   6.644102   6.085333
    25  H    2.132103   1.095859   2.051126   3.281609   3.780676
    26  H    2.149236   1.095638   2.112959   2.744159   2.786190
    27  H    8.493536   7.537779   6.180703   6.136353   7.215014
    28  H    8.876980   7.724064   6.460036   6.417292   7.418806
    29  H    7.209263   6.411886   5.085623   4.330048   4.967369
    30  H    8.917689   8.361459   7.115019   6.072147   6.335297
    31  H   11.997801  11.218529   9.823901   9.185529   9.851333
    32  H   10.799210   9.862421   8.480357   8.150230   9.044560
    33  H    2.168661   2.768156   2.382893   2.142092   2.303082
    34  H    3.415049   4.698484   4.764737   4.458509   4.121035
    35  H    3.416254   4.678508   5.830696   6.185895   5.703755
    36  H    2.169588   2.733598   4.125490   4.799287   4.569599
                    6          7          8          9         10
     6  N    0.000000
     7  N    1.253436   0.000000
     8  C    2.187599   1.377832   0.000000
     9  O    2.651334   2.328448   1.226014   0.000000
    10  O    3.303973   2.232533   1.361313   2.286256   0.000000
    11  C    4.519600   3.566691   2.381991   2.709098   1.434238
    12  C    4.781735   4.148040   2.895394   2.804565   2.422755
    13  C    4.106552   3.792827   2.768482   2.638662   2.754107
    14  C    5.036321   4.973824   4.040375   3.686342   4.151149
    15  C    6.318475   6.161494   5.074200   4.602434   5.017509
    16  C    6.791596   6.401382   5.161692   4.722033   4.855484
    17  C    6.132590   5.532836   4.239187   3.956307   3.731579
    18  Cl   7.620462   7.643057   6.641330   6.082352   6.693153
    19  C    3.796788   4.599514   5.729931   5.997749   6.809085
    20  C    4.979065   5.881124   6.921338   7.031004   8.075622
    21  C    6.166463   7.009224   8.138271   8.339995   9.222185
    22  C    6.404914   7.098021   8.344780   8.737603   9.284945
    23  C    5.535180   6.078252   7.386391   7.929688   8.207036
    24  Cl   7.648902   8.567378   9.619349   9.689217  10.770438
    25  H    4.281308   4.250755   5.535247   6.342096   6.050103
    26  H    3.980005   4.202001   5.577160   6.431564   6.096316
    27  H    4.922646   3.979517   2.742581   2.781561   2.112643
    28  H    5.326016   4.281773   3.280974   3.777988   2.050846
    29  H    3.119746   2.885724   2.140889   2.303564   2.381860
    30  H    4.975595   5.158344   4.455956   4.119693   4.763252
    31  H    7.857757   7.452489   6.183955   5.700222   5.830197
    32  H    6.844475   6.112310   4.798162   4.566097   4.125460
    33  H    2.890051   3.754753   4.776039   4.950896   5.933628
    34  H    5.164679   6.149490   7.031758   6.951909   8.276578
    35  H    7.455925   8.121059   9.389052   9.811462  10.290745
    36  H    6.113567   6.507652   7.853970   8.523713   8.530452
                   11         12         13         14         15
    11  C    0.000000
    12  C    1.512724   0.000000
    13  C    2.545214   1.403623   0.000000
    14  C    3.828779   2.433802   1.397707   0.000000
    15  C    4.318811   2.806220   2.414534   1.392423   0.000000
    16  C    3.815069   2.434761   2.791100   2.415575   1.392415
    17  C    2.523913   1.404244   2.415183   2.790212   2.414054
    18  Cl   6.039005   4.526416   3.998005   2.698904   1.720423
    19  C    8.076732   8.509445   7.859634   8.647176   9.928388
    20  C    9.287512   9.629744   8.922438   9.591513  10.849155
    21  C   10.489364  10.891144  10.180472  10.864413  12.149843
    22  C   10.628377  11.153707  10.491867  11.274855  12.597182
    23  C    9.588358  10.201689   9.603467  10.482129  11.812440
    24  Cl  11.986051  12.302022  11.543655  12.118128  13.370975
    25  H    7.428251   8.314556   8.003441   9.125626  10.378125
    26  H    7.529924   8.184400   7.627890   8.605438   9.939197
    27  H    1.095327   2.148283   3.280421   4.467401   4.800980
    28  H    1.095619   2.132606   3.226640   4.421741   4.775197
    29  H    2.768051   2.168649   1.088580   2.147196   3.393807
    30  H    4.697925   3.414789   2.154290   1.086768   2.156946
    31  H    4.678315   3.416236   3.877917   3.402098   2.156761
    32  H    2.733490   2.169701   3.409120   3.878602   3.392983
    33  H    7.141572   7.517480   6.878499   7.663806   8.916432
    34  H    9.388784   9.613476   8.877851   9.442215  10.644657
    35  H   11.649779  12.200064  11.536820  12.318051  13.650098
    36  H    9.938904  10.637849  10.089316  11.023967  12.360436
                   16         17         18         19         20
    16  C    0.000000
    17  C    1.397800   0.000000
    18  Cl   2.698420   3.997408   0.000000
    19  C   10.470125   9.828091  11.053161   0.000000
    20  C   11.458945  10.903193  11.853313   1.397883   0.000000
    21  C   12.771486  12.193260  13.148532   2.414916   1.392569
    22  C   13.172038  12.506980  13.684378   2.791249   2.415535
    23  C   12.320784  11.581302  12.996181   2.415228   2.790086
    24  Cl  14.052228  13.558031  14.247941   3.998479   2.699209
    25  H   10.636765   9.690318  11.792477   3.226206   4.420966
    26  H   10.383488   9.588455  11.227922   3.281687   4.468924
    27  H    4.132238   2.805314   6.486538   8.251847   9.411460
    28  H    4.120609   2.800473   6.468655   8.851717  10.115915
    29  H    3.879470   3.408892   4.846067   6.887673   7.985889
    30  H    3.402188   3.876965   2.853792   8.391100   9.255430
    31  H    1.086837   2.155151   2.852614  11.510901  12.478046
    32  H    2.146489   1.088587   4.844839  10.475074  11.576840
    33  H    9.438662   8.811168  10.057729   1.088538   2.147422
    34  H   11.287882  10.818094  11.556300   2.154664   1.086914
    35  H   14.233242  13.561454  14.726104   3.878151   3.402193
    36  H   12.827622  12.032991  13.592273   3.409058   3.878423
                   21         22         23         24         25
    21  C    0.000000
    22  C    1.392392   0.000000
    23  C    2.413999   1.397659   0.000000
    24  Cl   1.720456   2.698438   3.997349   0.000000
    25  H    4.774246   4.119430   2.799564   6.467574   0.000000
    26  H    4.802480   4.133154   2.806051   6.488177   1.766212
    27  H   10.637375  10.835151   9.844925  12.090191   7.670164
    28  H   11.263706  11.298174  10.181790  12.811879   7.868811
    29  H    9.207499   9.469809   8.563072  10.608528   7.020691
    30  H   10.498709  10.945974  10.224116  11.686431   9.123909
    31  H   13.803301  14.228288  13.387544  15.058357  11.681148
    32  H   12.858457  13.137372  12.177445  14.247562  10.133832
    33  H    3.394179   3.879578   3.408912   4.846597   3.490458
    34  H    2.157015   3.402197   3.876987   2.853950   5.318367
    35  H    2.156812   1.086923   2.155018   2.852657   4.867729
    36  H    3.392868   2.146325   1.088535   4.844698   2.754815
                   26         27         28         29         30
    26  H    0.000000
    27  H    7.993354   0.000000
    28  H    7.952887   1.766384   0.000000
    29  H    6.566419   3.561011   3.490492   0.000000
    30  H    8.437866   5.371397   5.318813   2.463120   0.000000
    31  H   11.460480   4.870724   4.869063   4.966276   4.302677
    32  H   10.174191   2.740072   2.755850   4.321126   4.965360
    33  H    3.562189   7.294079   7.972249   5.945392   7.451035
    34  H    5.373288   9.456322  10.291041   8.011619   9.080052
    35  H    4.871400  11.864387  12.288293  10.503992  11.970561
    36  H    2.740116  10.236747  10.433389   9.036467  10.796136
                   31         32         33         34         35
    31  H    0.000000
    32  H    2.463132   0.000000
    33  H   10.469020   9.465342   0.000000
    34  H   12.272684  11.512778   2.463652   0.000000
    35  H   15.293390  14.186061   4.966470   4.302789   0.000000
    36  H   13.899489  12.593284   4.321029   4.965327   2.462896
                   36
    36  H    0.000000
 Stoichiometry    C16H12Cl2N2O4
 Framework group  C1[X(C16H12Cl2N2O4)]
 Deg. of freedom   102
 Full point group                 C1      NOp   1
 Largest Abelian subgroup         C1      NOp   1
 Largest concise Abelian subgroup C1      NOp   1
                         Standard orientation:                         
 ---------------------------------------------------------------------
 Center     Atomic      Atomic             Coordinates (Angstroms)
 Number     Number       Type             X           Y           Z
 ---------------------------------------------------------------------
      1          6           0       -4.277438   -0.901161    0.457763
      2          6           0       -3.261700   -1.933165    0.896392
      3          8           0       -1.963531   -1.616476    0.375918
      4          6           0       -1.435174   -0.412734    0.729903
      5          8           0       -1.998784    0.400573    1.454620
      6          7           0       -0.183184   -0.286827    0.167016
      7          7           0        0.389495   -1.391643    0.016940
      8          6           0        1.622636   -1.266315   -0.584789
      9          8           0        1.963588   -0.401981   -1.384656
     10          8           0        2.427596   -2.283246   -0.171189
     11          6           0        3.752315   -2.324734   -0.719309
     12          6           0        4.503649   -1.053702   -0.390205
     13          6           0        3.910549   -0.023044    0.355540
     14          6           0        4.621505    1.144101    0.648623
     15          6           0        5.937340    1.281635    0.214449
     16          6           0        6.554345    0.254624   -0.495039
     17          6           0        5.841860   -0.910949   -0.791095
     18         17           0        6.804882    2.727810    0.554747
     19          6           0       -3.914556    0.188394   -0.349340
     20          6           0       -4.868322    1.130966   -0.744262
     21          6           0       -6.195640    0.981159   -0.350520
     22          6           0       -6.580736   -0.112832    0.419961
     23          6           0       -5.626313   -1.053343    0.817411
     24         17           0       -7.365266    2.153583   -0.816747
     25          1           0       -3.554213   -2.906643    0.486903
     26          1           0       -3.267394   -2.021937    1.988413
     27          1           0        3.754461   -2.488956   -1.802253
     28          1           0        4.274867   -3.169856   -0.257693
     29          1           0        2.884708   -0.117061    0.707417
     30          1           0        4.141783    1.940202    1.211788
     31          1           0        7.585349    0.355484   -0.823783
     32          1           0        6.339801   -1.704468   -1.345534
     33          1           0       -2.882478    0.317080   -0.670540
     34          1           0       -4.567934    1.978642   -1.354668
     35          1           0       -7.618584   -0.237860    0.717685
     36          1           0       -5.944883   -1.903383    1.418122
 ---------------------------------------------------------------------
 Rotational constants (GHZ):           0.4806481           0.0579366           0.0537547
 Standard basis: 6-31G(d) (6D, 7F)
 There are   392 symmetry adapted cartesian basis functions of A   symmetry.
 There are   392 symmetry adapted basis functions of A   symmetry.
   392 basis functions,   768 primitive gaussians,   392 cartesian basis functions
    94 alpha electrons       94 beta electrons
       nuclear repulsion energy      2081.1383271820 Hartrees.
 NAtoms=   36 NActive=   36 NUniq=   36 SFac= 1.00D+00 NAtFMM=   60 NAOKFM=F Big=F
 Integral buffers will be    131072 words long.
 Raffenetti 2 integral format.
 Two-electron integral symmetry is turned on.
 One-electron integrals computed using PRISM.
 NBasis=   392 RedAO= T EigKep=  4.45D-04  NBF=   392
 NBsUse=   392 1.00D-06 EigRej= -1.00D+00 NBFU=   392
 ExpMin= 1.43D-01 ExpMax= 2.52D+04 ExpMxC= 3.78D+03 IAcc=3 IRadAn=         5 AccDes= 0.00D+00
 Harris functional with IExCor=  402 and IRadAn=       5 diagonalized for initial guess.
 HarFok:  IExCor=  402 AccDes= 0.00D+00 IRadAn=         5 IDoV= 1 UseB2=F ITyADJ=14
 ICtDFT=  3500011 ScaDFX=  1.000000  1.000000  1.000000  1.000000
 FoFCou: FMM=F IPFlag=           0 FMFlag=      100000 FMFlg1=           0
         NFxFlg=           0 DoJE=T BraDBF=F KetDBF=T FulRan=T
         wScrn=  0.000000 ICntrl=       500 IOpCl=  0 I1Cent=   200000004 NGrid=           0
         NMat0=    1 NMatS0=      1 NMatT0=    0 NMatD0=    1 NMtDS0=    0 NMtDT0=    0
 Petite list used in FoFCou.
 Gradient too large for Newton-Raphson -- use scaled steepest descent instead.
 Gradient too large for Newton-Raphson -- use scaled steepest descent instead.
 Gradient too large for Newton-Raphson -- use scaled steepest descent instead.
     Minimum is close to point  2 DX=  6.27D-03 DF= -2.58D-06 DXR=  1.54D-02 DFR=  2.38D-04 which will be used.
 Gradient too large for Newton-Raphson -- use scaled steepest descent instead.
     Minimum is close to point  2 DX=  3.27D-02 DF= -1.81D-05 DXR=  7.55D-02 DFR=  5.74D-03 which will be used.
 Gradient too large for Newton-Raphson -- use scaled steepest descent instead.
 Gradient too large for Newton-Raphson -- use scaled steepest descent instead.
     Accept linear search using points  1 and  2.
 Gradient too large for Newton-Raphson -- use scaled steepest descent instead.
     Minimum is close to point  3 DX=  4.23D-02 DF= -3.69D-07 DXR=  4.05D-02 DFR=  1.65D-03 which will be used.
 LinEq1:  Iter=  0 NonCon=     1 RMS=4.90D-05 Max=2.57D-03 NDo=     1
 AX will form     1 AO Fock derivatives at one time.
 LinEq1:  Iter=  1 NonCon=     1 RMS=7.35D-05 Max=5.46D-03 NDo=     1
 LinEq1:  Iter=  2 NonCon=     1 RMS=1.43D-05 Max=7.14D-04 NDo=     1
 LinEq1:  Iter=  3 NonCon=     1 RMS=1.88D-05 Max=2.00D-03 NDo=     1
 LinEq1:  Iter=  4 NonCon=     1 RMS=7.60D-06 Max=6.03D-04 NDo=     1
 LinEq1:  Iter=  5 NonCon=     1 RMS=5.61D-06 Max=3.28D-04 NDo=     1
 LinEq1:  Iter=  6 NonCon=     1 RMS=3.77D-06 Max=1.63D-04 NDo=     1
 LinEq1:  Iter=  7 NonCon=     1 RMS=3.15D-06 Max=1.65D-04 NDo=     1
 LinEq1:  Iter=  8 NonCon=     1 RMS=2.21D-06 Max=8.40D-05 NDo=     1
 LinEq1:  Iter=  9 NonCon=     1 RMS=1.49D-06 Max=6.39D-05 NDo=     1
 LinEq1:  Iter= 10 NonCon=     1 RMS=8.17D-07 Max=2.92D-05 NDo=     1
 LinEq1:  Iter= 11 NonCon=     1 RMS=5.21D-07 Max=2.27D-05 NDo=     1
 LinEq1:  Iter= 12 NonCon=     1 RMS=3.51D-07 Max=1.25D-05 NDo=     1
 LinEq1:  Iter= 13 NonCon=     1 RMS=2.09D-07 Max=6.72D-06 NDo=     1
 LinEq1:  Iter= 14 NonCon=     1 RMS=1.12D-07 Max=4.04D-06 NDo=     1
 LinEq1:  Iter= 15 NonCon=     1 RMS=6.69D-08 Max=2.38D-06 NDo=     1
 LinEq1:  Iter= 16 NonCon=     1 RMS=3.38D-08 Max=1.30D-06 NDo=     1
 LinEq1:  Iter= 17 NonCon=     1 RMS=1.49D-08 Max=6.83D-07 NDo=     1
 LinEq1:  Iter= 18 NonCon=     1 RMS=9.05D-09 Max=4.60D-07 NDo=     1
 LinEq1:  Iter= 19 NonCon=     1 RMS=5.91D-09 Max=2.75D-07 NDo=     1
 LinEq1:  Iter= 20 NonCon=     0 RMS=3.15D-09 Max=1.06D-07 NDo=     1
 Linear equations converged to 2.367D-08 2.367D-07 after    20 iterations.
 Restarting incremental Fock formation.
     Minimum is close to point  2 DX=  1.02D-03 DF= -2.48D-11 DXR=  1.02D-03 DFR=  1.05D-06 which will be used.
 LinEq1:  Iter=  0 NonCon=     1 RMS=1.54D-07 Max=6.47D-06 NDo=     1
 LinEq1:  Iter=  1 NonCon=     1 RMS=1.47D-07 Max=7.03D-06 NDo=     1
 LinEq1:  Iter=  2 NonCon=     1 RMS=1.37D-07 Max=1.05D-05 NDo=     1
 LinEq1:  Iter=  3 NonCon=     1 RMS=7.00D-08 Max=2.50D-06 NDo=     1
 LinEq1:  Iter=  4 NonCon=     1 RMS=4.76D-08 Max=1.93D-06 NDo=     1
 LinEq1:  Iter=  5 NonCon=     1 RMS=4.17D-08 Max=2.04D-06 NDo=     1
 LinEq1:  Iter=  6 NonCon=     1 RMS=2.69D-08 Max=1.17D-06 NDo=     1
 LinEq1:  Iter=  7 NonCon=     1 RMS=2.07D-08 Max=1.37D-06 NDo=     1
 LinEq1:  Iter=  8 NonCon=     1 RMS=9.61D-09 Max=5.27D-07 NDo=     1
 LinEq1:  Iter=  9 NonCon=     1 RMS=9.12D-09 Max=4.80D-07 NDo=     1
 LinEq1:  Iter= 10 NonCon=     1 RMS=4.63D-09 Max=2.57D-07 NDo=     1
 LinEq1:  Iter= 11 NonCon=     1 RMS=3.44D-09 Max=1.46D-07 NDo=     1
 LinEq1:  Iter= 12 NonCon=     1 RMS=2.68D-09 Max=1.16D-07 NDo=     1
 LinEq1:  Iter= 13 NonCon=     1 RMS=2.17D-09 Max=6.84D-08 NDo=     1
 LinEq1:  Iter= 14 NonCon=     1 RMS=1.25D-09 Max=3.71D-08 NDo=     1
 LinEq1:  Iter= 15 NonCon=     1 RMS=9.35D-10 Max=3.88D-08 NDo=     1
 LinEq1:  Iter= 16 NonCon=     1 RMS=5.00D-10 Max=1.32D-08 NDo=     1
 LinEq1:  Iter= 17 NonCon=     1 RMS=2.61D-10 Max=1.06D-08 NDo=     1
 LinEq1:  Iter= 18 NonCon=     1 RMS=1.15D-10 Max=5.02D-09 NDo=     1
 LinEq1:  Iter= 19 NonCon=     0 RMS=4.76D-11 Max=2.15D-09 NDo=     1
 Linear equations converged to 2.204D-10 2.204D-09 after    19 iterations.
 SCF Done:  E(RB3LYP) =  -1947.61898501     a.u. after   10 cycles
            Convg  =    0.3379D-09                    61 Fock formations.
              S**2 =  0.0000                  -V/T =  2.0062
 DoSCS=F DFT=T ScalE2(SS,OS)=  1.000000  1.000000
 Range of M.O.s used for correlation:     1   392
 NBasis=   392 NAE=    94 NBE=    94 NFC=     0 NFV=     0
 NROrb=    392 NOA=    94 NOB=    94 NVA=   298 NVB=   298

 **** Warning!!: The smallest alpha delta epsilon is  0.89086972D-01

 Symmetrizing basis deriv contribution to polar:
 IMax=3 JMax=2 DiffMx= 0.00D+00
 G2DrvN: will do    37 centers at a time, making    1 passes.
 Calling FoFCou, ICntrl=  3107 FMM=F I1Cent=   0 AccDes= 0.00D+00.
 End of G2Drv F.D. properties file   721 does not exist.
 End of G2Drv F.D. properties file   722 does not exist.
 End of G2Drv F.D. properties file   788 does not exist.
          IDoAtm=111111111111111111111111111111111111
          Differentiating once with respect to electric field.
                with respect to dipole field.
          Differentiating once with respect to nuclear coordinates.
 CalDSu exits because no D1Ps are significant.
          There are   111 degrees of freedom in the 1st order CPHF.  IDoFFX=6 NUNeed=     3.
    108 vectors produced by pass  0 Test12= 2.80D-14 1.00D-09 XBig12= 3.73D+02 7.82D+00.
 AX will form   108 AO Fock derivatives at one time.
    108 vectors produced by pass  1 Test12= 2.80D-14 1.00D-09 XBig12= 8.59D+01 2.17D+00.
    108 vectors produced by pass  2 Test12= 2.80D-14 1.00D-09 XBig12= 1.33D+00 1.63D-01.
    108 vectors produced by pass  3 Test12= 2.80D-14 1.00D-09 XBig12= 1.01D-02 9.21D-03.
    108 vectors produced by pass  4 Test12= 2.80D-14 1.00D-09 XBig12= 2.16D-05 3.62D-04.
    102 vectors produced by pass  5 Test12= 2.80D-14 1.00D-09 XBig12= 2.77D-08 1.65D-05.
     32 vectors produced by pass  6 Test12= 2.80D-14 1.00D-09 XBig12= 3.08D-11 5.71D-07.
      3 vectors produced by pass  7 Test12= 2.80D-14 1.00D-09 XBig12= 2.92D-14 1.26D-08.
 InvSVY:  IOpt=1 It=  1 EMax= 1.07D-14
 Solved reduced A of dimension   677 with   111 vectors.
 Isotropic polarizability for W=    0.000000      224.72 Bohr**3.
 End of Minotr F.D. properties file   721 does not exist.
 End of Minotr F.D. properties file   722 does not exist.
 End of Minotr F.D. properties file   788 does not exist.

 **********************************************************************

            Population analysis using the SCF density.

 **********************************************************************

 Orbital symmetries:
       Occupied  (A) (A) (A) (A) (A) (A) (A) (A) (A) (A) (A) (A)
                 (A) (A) (A) (A) (A) (A) (A) (A) (A) (A) (A) (A)
                 (A) (A) (A) (A) (A) (A) (A) (A) (A) (A) (A) (A)
                 (A) (A) (A) (A) (A) (A) (A) (A) (A) (A) (A) (A)
                 (A) (A) (A) (A) (A) (A) (A) (A) (A) (A) (A) (A)
                 (A) (A) (A) (A) (A) (A) (A) (A) (A) (A) (A) (A)
                 (A) (A) (A) (A) (A) (A) (A) (A) (A) (A) (A) (A)
                 (A) (A) (A) (A) (A) (A) (A) (A) (A) (A)
       Virtual   (A) (A) (A) (A) (A) (A) (A) (A) (A) (A) (A) (A)
                 (A) (A) (A) (A) (A) (A) (A) (A) (A) (A) (A) (A)
                 (A) (A) (A) (A) (A) (A) (A) (A) (A) (A) (A) (A)
                 (A) (A) (A) (A) (A) (A) (A) (A) (A) (A) (A) (A)
                 (A) (A) (A) (A) (A) (A) (A) (A) (A) (A) (A) (A)
                 (A) (A) (A) (A) (A) (A) (A) (A) (A) (A) (A) (A)
                 (A) (A) (A) (A) (A) (A) (A) (A) (A) (A) (A) (A)
                 (A) (A) (A) (A) (A) (A) (A) (A) (A) (A) (A) (A)
                 (A) (A) (A) (A) (A) (A) (A) (A) (A) (A) (A) (A)
                 (A) (A) (A) (A) (A) (A) (A) (A) (A) (A) (A) (A)
                 (A) (A) (A) (A) (A) (A) (A) (A) (A) (A) (A) (A)
                 (A) (A) (A) (A) (A) (A) (A) (A) (A) (A) (A) (A)
                 (A) (A) (A) (A) (A) (A) (A) (A) (A) (A) (A) (A)
                 (A) (A) (A) (A) (A) (A) (A) (A) (A) (A) (A) (A)
                 (A) (A) (A) (A) (A) (A) (A) (A) (A) (A) (A) (A)
                 (A) (A) (A) (A) (A) (A) (A) (A) (A) (A) (A) (A)
                 (A) (A) (A) (A) (A) (A) (A) (A) (A) (A) (A) (A)
                 (A) (A) (A) (A) (A) (A) (A) (A) (A) (A) (A) (A)
                 (A) (A) (A) (A) (A) (A) (A) (A) (A) (A) (A) (A)
                 (A) (A) (A) (A) (A) (A) (A) (A) (A) (A) (A) (A)
                 (A) (A) (A) (A) (A) (A) (A) (A) (A) (A) (A) (A)
                 (A) (A) (A) (A) (A) (A) (A) (A) (A) (A) (A) (A)
                 (A) (A) (A) (A) (A) (A) (A) (A) (A) (A) (A) (A)
                 (A) (A) (A) (A) (A) (A) (A) (A) (A) (A) (A) (A)
                 (A) (A) (A) (A) (A) (A) (A) (A) (A) (A)
 The electronic state is 1-A.
 Alpha  occ. eigenvalues -- -101.55007-101.54982 -19.22834 -19.22169 -19.17667
 Alpha  occ. eigenvalues --  -19.17093 -14.44194 -14.44140 -10.36836 -10.36657
 Alpha  occ. eigenvalues --  -10.27565 -10.27222 -10.25250 -10.25209 -10.21666
 Alpha  occ. eigenvalues --  -10.21576 -10.20918 -10.20846 -10.20748 -10.20701
 Alpha  occ. eigenvalues --  -10.20696 -10.20631 -10.20548 -10.20521  -9.46700
 Alpha  occ. eigenvalues --   -9.46675  -7.23086  -7.23062  -7.22126  -7.22102
 Alpha  occ. eigenvalues --   -7.22089  -7.22065  -1.15909  -1.13771  -1.08120
 Alpha  occ. eigenvalues --   -1.04741  -1.04050  -0.89858  -0.89805  -0.86253
 Alpha  occ. eigenvalues --   -0.84913  -0.84015  -0.78216  -0.76818  -0.76200
 Alpha  occ. eigenvalues --   -0.76112  -0.71897  -0.70263  -0.64667  -0.62986
 Alpha  occ. eigenvalues --   -0.62626  -0.60849  -0.59776  -0.57376  -0.56678
 Alpha  occ. eigenvalues --   -0.53912  -0.53680  -0.52065  -0.51095  -0.49441
 Alpha  occ. eigenvalues --   -0.49261  -0.48121  -0.47969  -0.47875  -0.47335
 Alpha  occ. eigenvalues --   -0.46901  -0.45699  -0.44768  -0.44193  -0.43743
 Alpha  occ. eigenvalues --   -0.43553  -0.41643  -0.40450  -0.39922  -0.39591
 Alpha  occ. eigenvalues --   -0.39336  -0.38659  -0.37414  -0.37345  -0.36562
 Alpha  occ. eigenvalues --   -0.36362  -0.33623  -0.33542  -0.33007  -0.32875
 Alpha  occ. eigenvalues --   -0.32119  -0.31367  -0.31338  -0.31174  -0.27961
 Alpha  occ. eigenvalues --   -0.26268  -0.26227  -0.24121  -0.24051
 Alpha virt. eigenvalues --   -0.15143  -0.01830  -0.01775  -0.01408  -0.01295
 Alpha virt. eigenvalues --   -0.00244   0.02506   0.03966   0.04018   0.09249
 Alpha virt. eigenvalues --    0.09555   0.10231   0.10347   0.11424   0.11515
 Alpha virt. eigenvalues --    0.11798   0.11921   0.13444   0.13457   0.16113
 Alpha virt. eigenvalues --    0.16200   0.17594   0.17749   0.19192   0.19259
 Alpha virt. eigenvalues --    0.21825   0.22256   0.22618   0.23335   0.26237
 Alpha virt. eigenvalues --    0.27542   0.27757   0.28481   0.28679   0.28829
 Alpha virt. eigenvalues --    0.29607   0.30639   0.33040   0.33355   0.33470
 Alpha virt. eigenvalues --    0.38023   0.39852   0.40324   0.40607   0.40906
 Alpha virt. eigenvalues --    0.42005   0.42135   0.43391   0.44236   0.44265
 Alpha virt. eigenvalues --    0.46389   0.47020   0.48663   0.48918   0.51593
 Alpha virt. eigenvalues --    0.52022   0.52472   0.53106   0.53157   0.53472
 Alpha virt. eigenvalues --    0.54431   0.54934   0.56178   0.56392   0.56918
 Alpha virt. eigenvalues --    0.57026   0.57743   0.58135   0.58672   0.58886
 Alpha virt. eigenvalues --    0.59189   0.59646   0.60135   0.60637   0.61059
 Alpha virt. eigenvalues --    0.61951   0.62575   0.62987   0.63603   0.64072
 Alpha virt. eigenvalues --    0.64815   0.65497   0.65647   0.66285   0.67661
 Alpha virt. eigenvalues --    0.68644   0.69689   0.70336   0.71727   0.72851
 Alpha virt. eigenvalues --    0.73398   0.74167   0.75555   0.75828   0.76917
 Alpha virt. eigenvalues --    0.79948   0.80307   0.80553   0.81054   0.81250
 Alpha virt. eigenvalues --    0.82480   0.82612   0.83936   0.84582   0.84988
 Alpha virt. eigenvalues --    0.85665   0.85974   0.87091   0.87155   0.87537
 Alpha virt. eigenvalues --    0.87975   0.88902   0.89646   0.89818   0.90617
 Alpha virt. eigenvalues --    0.91425   0.91808   0.92760   0.93306   0.93479
 Alpha virt. eigenvalues --    0.95769   0.97354   0.99473   0.99704   1.00398
 Alpha virt. eigenvalues --    1.01233   1.01966   1.02666   1.04203   1.05520
 Alpha virt. eigenvalues --    1.07555   1.08985   1.09964   1.10761   1.11751
 Alpha virt. eigenvalues --    1.12100   1.12689   1.13294   1.14476   1.15632
 Alpha virt. eigenvalues --    1.16909   1.17741   1.18572   1.19862   1.22209
 Alpha virt. eigenvalues --    1.23495   1.24491   1.26782   1.28492   1.29967
 Alpha virt. eigenvalues --    1.31349   1.32649   1.35574   1.35975   1.38156
 Alpha virt. eigenvalues --    1.38892   1.39186   1.40011   1.41540   1.42809
 Alpha virt. eigenvalues --    1.44131   1.45163   1.45814   1.45971   1.46270
 Alpha virt. eigenvalues --    1.46485   1.47713   1.49468   1.50926   1.51784
 Alpha virt. eigenvalues --    1.55298   1.55598   1.56559   1.56941   1.59253
 Alpha virt. eigenvalues --    1.64144   1.66201   1.67467   1.68682   1.70904
 Alpha virt. eigenvalues --    1.72924   1.75336   1.76406   1.77106   1.77703
 Alpha virt. eigenvalues --    1.78040   1.78681   1.80724   1.81477   1.82903
 Alpha virt. eigenvalues --    1.84266   1.85348   1.86446   1.86649   1.86879
 Alpha virt. eigenvalues --    1.88354   1.91092   1.92527   1.94044   1.94863
 Alpha virt. eigenvalues --    1.95402   1.95961   1.96723   1.98818   1.99173
 Alpha virt. eigenvalues --    1.99352   2.02661   2.03313   2.04384   2.05725
 Alpha virt. eigenvalues --    2.06898   2.07981   2.10088   2.11629   2.13090
 Alpha virt. eigenvalues --    2.13387   2.13743   2.14144   2.15530   2.16044
 Alpha virt. eigenvalues --    2.19521   2.20549   2.21701   2.22977   2.23759
 Alpha virt. eigenvalues --    2.23887   2.24311   2.29402   2.29488   2.30204
 Alpha virt. eigenvalues --    2.33646   2.34733   2.34945   2.37352   2.38066
 Alpha virt. eigenvalues --    2.39135   2.39648   2.45383   2.47529   2.54060
 Alpha virt. eigenvalues --    2.56408   2.56671   2.58592   2.59540   2.60659
 Alpha virt. eigenvalues --    2.63183   2.63350   2.63992   2.65634   2.67178
 Alpha virt. eigenvalues --    2.68898   2.70288   2.71841   2.72941   2.74720
 Alpha virt. eigenvalues --    2.76579   2.76810   2.77657   2.78342   2.79647
 Alpha virt. eigenvalues --    2.85454   2.85839   2.86889   2.87776   2.93878
 Alpha virt. eigenvalues --    2.97463   3.03608   3.04141   3.08515   3.10306
 Alpha virt. eigenvalues --    3.19739   3.23413   3.36568   3.36592   3.78496
 Alpha virt. eigenvalues --    3.91885   4.01473   4.02948   4.05561   4.05702
 Alpha virt. eigenvalues --    4.09726   4.09811   4.16601   4.17436   4.19848
 Alpha virt. eigenvalues --    4.23523   4.24943   4.25703   4.30465   4.31283
 Alpha virt. eigenvalues --    4.34164   4.35425   4.38054   4.39678   4.46610
 Alpha virt. eigenvalues --    4.49614   4.68915   4.68980
          Condensed to atoms (all electrons):
               1          2          3          4          5          6
     1  C    4.779096   0.320627  -0.033026  -0.000759  -0.005274  -0.000294
     2  C    0.320627   4.971243   0.208915  -0.024635   0.008413   0.005484
     3  O   -0.033026   0.208915   8.246510   0.257155  -0.080887  -0.106167
     4  C   -0.000759  -0.024635   0.257155   4.313015   0.508436   0.229251
     5  O   -0.005274   0.008413  -0.080887   0.508436   8.073492  -0.061297
     6  N   -0.000294   0.005484  -0.106167   0.229251  -0.061297   6.991816
     7  N    0.000088   0.000092  -0.007347  -0.052882   0.000626   0.220460
     8  C    0.000002   0.000021  -0.000111   0.004477  -0.000164  -0.060143
     9  O    0.000000  -0.000000  -0.000006   0.000510   0.000000   0.001634
    10  O   -0.000000   0.000000   0.000001  -0.000194   0.000000   0.002138
    11  C    0.000000   0.000000   0.000000   0.000003  -0.000000  -0.000090
    12  C    0.000000  -0.000000   0.000000   0.000000  -0.000000   0.000083
    13  C   -0.000000   0.000000  -0.000000  -0.000001   0.000000  -0.001050
    14  C   -0.000000   0.000000  -0.000000  -0.000000   0.000000  -0.000012
    15  C   -0.000000  -0.000000   0.000000  -0.000000  -0.000000   0.000000
    16  C   -0.000000   0.000000  -0.000000   0.000000   0.000000  -0.000000
    17  C    0.000000  -0.000000   0.000000  -0.000000   0.000000   0.000000
    18  Cl   0.000000  -0.000000   0.000000   0.000000  -0.000000   0.000000
    19  C    0.546495  -0.062088  -0.000108   0.007885  -0.012562  -0.002412
    20  C   -0.022720   0.006543   0.000801  -0.000590  -0.001241  -0.000032
    21  C   -0.032561   0.000492  -0.000012  -0.000014  -0.000011   0.000000
    22  C   -0.016102   0.005045  -0.000062  -0.000035   0.000038  -0.000000
    23  C    0.523831  -0.056122   0.002104   0.000438  -0.000990  -0.000008
    24  Cl   0.000717   0.000008   0.000000  -0.000000   0.000000   0.000000
    25  H   -0.036818   0.371728  -0.027324   0.004143   0.000152  -0.000131
    26  H   -0.040597   0.360279  -0.028540  -0.005988   0.006265   0.000033
    27  H   -0.000000   0.000000   0.000000  -0.000000   0.000000  -0.000009
    28  H    0.000000  -0.000000   0.000000  -0.000000   0.000000   0.000002
    29  H    0.000000  -0.000000   0.000003  -0.000064  -0.000002   0.004677
    30  H    0.000000   0.000000  -0.000000   0.000000   0.000000  -0.000007
    31  H   -0.000000   0.000000  -0.000000  -0.000000   0.000000  -0.000000
    32  H    0.000000  -0.000000   0.000000   0.000000   0.000000   0.000000
    33  H   -0.049777  -0.012026   0.001858   0.006904  -0.012661   0.000802
    34  H    0.003792  -0.000185   0.000007   0.000041  -0.000001  -0.000003
    35  H    0.003603  -0.000144   0.000000   0.000000  -0.000000   0.000000
    36  H   -0.053763  -0.006787   0.000056   0.000001  -0.000013  -0.000000
               7          8          9         10         11         12
     1  C    0.000088   0.000002   0.000000  -0.000000   0.000000   0.000000
     2  C    0.000092   0.000021  -0.000000   0.000000   0.000000  -0.000000
     3  O   -0.007347  -0.000111  -0.000006   0.000001   0.000000   0.000000
     4  C   -0.052882   0.004477   0.000510  -0.000194   0.000003   0.000000
     5  O    0.000626  -0.000164   0.000000   0.000000  -0.000000  -0.000000
     6  N    0.220460  -0.060143   0.001634   0.002138  -0.000090   0.000083
     7  N    6.972644   0.244168  -0.078537  -0.091344   0.004630  -0.000143
     8  C    0.244168   4.338818   0.488420   0.271848  -0.027551   0.000080
     9  O   -0.078537   0.488420   8.090420  -0.078529   0.008098  -0.004389
    10  O   -0.091344   0.271848  -0.078529   8.219137   0.209520  -0.035373
    11  C    0.004630  -0.027551   0.008098   0.209520   4.978024   0.320839
    12  C   -0.000143   0.000080  -0.004389  -0.035373   0.320839   4.777009
    13  C   -0.001790   0.008259  -0.011817   0.000583  -0.061884   0.546777
    14  C   -0.000028  -0.000603  -0.001276   0.000803   0.006520  -0.022850
    15  C   -0.000000  -0.000025  -0.000013  -0.000011   0.000502  -0.032484
    16  C   -0.000000  -0.000025   0.000040  -0.000062   0.005070  -0.016109
    17  C   -0.000009   0.000303  -0.001004   0.002100  -0.056421   0.522843
    18  Cl   0.000000  -0.000000   0.000000   0.000000   0.000008   0.000726
    19  C    0.000006   0.000002   0.000000   0.000000  -0.000000   0.000000
    20  C    0.000000  -0.000000   0.000000   0.000000  -0.000000   0.000000
    21  C    0.000000   0.000000  -0.000000  -0.000000   0.000000   0.000000
    22  C   -0.000000   0.000000  -0.000000   0.000000   0.000000  -0.000000
    23  C    0.000001  -0.000000   0.000000  -0.000000  -0.000000   0.000000
    24  Cl  -0.000000  -0.000000   0.000000  -0.000000   0.000000   0.000000
    25  H    0.000085   0.000000   0.000000  -0.000000   0.000000   0.000000
    26  H   -0.000118  -0.000002   0.000000  -0.000000   0.000000   0.000000
    27  H   -0.000062  -0.005933   0.006185  -0.027697   0.359151  -0.039722
    28  H   -0.000059   0.004261   0.000175  -0.027098   0.373110  -0.036372
    29  H   -0.001991   0.001909  -0.011587   0.001499  -0.011448  -0.050150
    30  H   -0.000000   0.000048   0.000000   0.000007  -0.000186   0.003785
    31  H    0.000000   0.000000  -0.000000   0.000000  -0.000145   0.003591
    32  H   -0.000000  -0.000001  -0.000014   0.000055  -0.006790  -0.053912
    33  H    0.000319  -0.000026   0.000001   0.000000  -0.000000  -0.000000
    34  H    0.000000   0.000000   0.000000   0.000000   0.000000   0.000000
    35  H   -0.000000  -0.000000   0.000000   0.000000  -0.000000  -0.000000
    36  H    0.000000  -0.000000   0.000000   0.000000  -0.000000   0.000000
              13         14         15         16         17         18
     1  C   -0.000000  -0.000000  -0.000000  -0.000000   0.000000   0.000000
     2  C    0.000000   0.000000  -0.000000   0.000000  -0.000000  -0.000000
     3  O   -0.000000  -0.000000   0.000000  -0.000000   0.000000   0.000000
     4  C   -0.000001  -0.000000  -0.000000   0.000000  -0.000000   0.000000
     5  O    0.000000   0.000000  -0.000000   0.000000   0.000000  -0.000000
     6  N   -0.001050  -0.000012   0.000000  -0.000000   0.000000   0.000000
     7  N   -0.001790  -0.000028  -0.000000  -0.000000  -0.000009   0.000000
     8  C    0.008259  -0.000603  -0.000025  -0.000025   0.000303  -0.000000
     9  O   -0.011817  -0.001276  -0.000013   0.000040  -0.001004   0.000000
    10  O    0.000583   0.000803  -0.000011  -0.000062   0.002100   0.000000
    11  C   -0.061884   0.006520   0.000502   0.005070  -0.056421   0.000008
    12  C    0.546777  -0.022850  -0.032484  -0.016109   0.522843   0.000726
    13  C    4.906505   0.508970  -0.029092  -0.042276  -0.027059   0.004647
    14  C    0.508970   4.947602   0.528749  -0.035173  -0.041941  -0.070870
    15  C   -0.029092   0.528749   4.932451   0.534669  -0.032212   0.236547
    16  C   -0.042276  -0.035173   0.534669   4.923644   0.512322  -0.071527
    17  C   -0.027059  -0.041941  -0.032212   0.512322   4.959789   0.004677
    18  Cl   0.004647  -0.070870   0.236547  -0.071527   0.004677  16.906410
    19  C    0.000000  -0.000000  -0.000000   0.000000  -0.000000   0.000000
    20  C   -0.000000   0.000000   0.000000  -0.000000   0.000000  -0.000000
    21  C   -0.000000   0.000000   0.000000  -0.000000   0.000000  -0.000000
    22  C    0.000000  -0.000000  -0.000000   0.000000  -0.000000   0.000000
    23  C   -0.000000   0.000000   0.000000  -0.000000   0.000000   0.000000
    24  Cl  -0.000000  -0.000000   0.000000   0.000000   0.000000   0.000000
    25  H   -0.000000   0.000000   0.000000  -0.000000   0.000000   0.000000
    26  H   -0.000000  -0.000000   0.000000  -0.000000  -0.000000   0.000000
    27  H    0.003144  -0.000011   0.000012  -0.000130  -0.002537  -0.000000
    28  H   -0.000862  -0.000119   0.000022  -0.000120  -0.001199  -0.000000
    29  H    0.349893  -0.034578   0.004624   0.000504   0.005195  -0.000174
    30  H   -0.033602   0.359277  -0.043678   0.004139   0.000886  -0.000371
    31  H    0.000694   0.004393  -0.042941   0.359735  -0.035953  -0.000322
    32  H    0.004805   0.000529   0.004760  -0.040330   0.362484  -0.000177
    33  H   -0.000000   0.000000   0.000000  -0.000000   0.000000  -0.000000
    34  H    0.000000  -0.000000  -0.000000   0.000000  -0.000000   0.000000
    35  H    0.000000   0.000000   0.000000   0.000000   0.000000   0.000000
    36  H   -0.000000   0.000000   0.000000  -0.000000   0.000000  -0.000000
              19         20         21         22         23         24
     1  C    0.546495  -0.022720  -0.032561  -0.016102   0.523831   0.000717
     2  C   -0.062088   0.006543   0.000492   0.005045  -0.056122   0.000008
     3  O   -0.000108   0.000801  -0.000012  -0.000062   0.002104   0.000000
     4  C    0.007885  -0.000590  -0.000014  -0.000035   0.000438  -0.000000
     5  O   -0.012562  -0.001241  -0.000011   0.000038  -0.000990   0.000000
     6  N   -0.002412  -0.000032   0.000000  -0.000000  -0.000008   0.000000
     7  N    0.000006   0.000000   0.000000  -0.000000   0.000001  -0.000000
     8  C    0.000002  -0.000000   0.000000   0.000000  -0.000000  -0.000000
     9  O    0.000000   0.000000  -0.000000  -0.000000   0.000000   0.000000
    10  O    0.000000   0.000000  -0.000000   0.000000  -0.000000  -0.000000
    11  C   -0.000000  -0.000000   0.000000   0.000000  -0.000000   0.000000
    12  C    0.000000   0.000000   0.000000  -0.000000   0.000000   0.000000
    13  C    0.000000  -0.000000  -0.000000   0.000000  -0.000000  -0.000000
    14  C   -0.000000   0.000000   0.000000  -0.000000   0.000000  -0.000000
    15  C   -0.000000   0.000000   0.000000  -0.000000   0.000000   0.000000
    16  C    0.000000  -0.000000  -0.000000   0.000000  -0.000000   0.000000
    17  C   -0.000000   0.000000   0.000000  -0.000000   0.000000   0.000000
    18  Cl   0.000000  -0.000000  -0.000000   0.000000   0.000000   0.000000
    19  C    4.909645   0.507972  -0.028878  -0.042211  -0.028037   0.004647
    20  C    0.507972   4.948069   0.529129  -0.035403  -0.041355  -0.070891
    21  C   -0.028878   0.529129   4.932426   0.534868  -0.032534   0.236322
    22  C   -0.042211  -0.035403   0.534868   4.923717   0.512590  -0.071539
    23  C   -0.028037  -0.041355  -0.032534   0.512590   4.958296   0.004675
    24  Cl   0.004647  -0.070891   0.236322  -0.071539   0.004675  16.907247
    25  H   -0.000788  -0.000119   0.000024  -0.000124  -0.001084  -0.000000
    26  H    0.003077  -0.000008   0.000011  -0.000125  -0.002493  -0.000000
    27  H   -0.000000   0.000000   0.000000   0.000000  -0.000000  -0.000000
    28  H   -0.000000   0.000000   0.000000  -0.000000   0.000000  -0.000000
    29  H   -0.000000   0.000000   0.000000  -0.000000   0.000000   0.000000
    30  H    0.000000  -0.000000  -0.000000   0.000000  -0.000000   0.000000
    31  H   -0.000000  -0.000000   0.000000   0.000000   0.000000   0.000000
    32  H   -0.000000   0.000000   0.000000  -0.000000   0.000000   0.000000
    33  H    0.352682  -0.034310   0.004509   0.000548   0.004965  -0.000173
    34  H   -0.033836   0.359026  -0.043645   0.004142   0.000896  -0.000365
    35  H    0.000683   0.004415  -0.043045   0.359677  -0.035960  -0.000334
    36  H    0.004853   0.000524   0.004773  -0.040585   0.362494  -0.000177
              25         26         27         28         29         30
     1  C   -0.036818  -0.040597  -0.000000   0.000000   0.000000   0.000000
     2  C    0.371728   0.360279   0.000000  -0.000000  -0.000000   0.000000
     3  O   -0.027324  -0.028540   0.000000   0.000000   0.000003  -0.000000
     4  C    0.004143  -0.005988  -0.000000  -0.000000  -0.000064   0.000000
     5  O    0.000152   0.006265   0.000000   0.000000  -0.000002   0.000000
     6  N   -0.000131   0.000033  -0.000009   0.000002   0.004677  -0.000007
     7  N    0.000085  -0.000118  -0.000062  -0.000059  -0.001991  -0.000000
     8  C    0.000000  -0.000002  -0.005933   0.004261   0.001909   0.000048
     9  O    0.000000   0.000000   0.006185   0.000175  -0.011587   0.000000
    10  O   -0.000000  -0.000000  -0.027697  -0.027098   0.001499   0.000007
    11  C    0.000000   0.000000   0.359151   0.373110  -0.011448  -0.000186
    12  C    0.000000   0.000000  -0.039722  -0.036372  -0.050150   0.003785
    13  C   -0.000000  -0.000000   0.003144  -0.000862   0.349893  -0.033602
    14  C    0.000000  -0.000000  -0.000011  -0.000119  -0.034578   0.359277
    15  C    0.000000   0.000000   0.000012   0.000022   0.004624  -0.043678
    16  C   -0.000000  -0.000000  -0.000130  -0.000120   0.000504   0.004139
    17  C    0.000000  -0.000000  -0.002537  -0.001199   0.005195   0.000886
    18  Cl   0.000000   0.000000  -0.000000  -0.000000  -0.000174  -0.000371
    19  C   -0.000788   0.003077  -0.000000  -0.000000  -0.000000   0.000000
    20  C   -0.000119  -0.000008   0.000000   0.000000   0.000000  -0.000000
    21  C    0.000024   0.000011   0.000000   0.000000   0.000000  -0.000000
    22  C   -0.000124  -0.000125   0.000000  -0.000000  -0.000000   0.000000
    23  C   -0.001084  -0.002493  -0.000000   0.000000   0.000000  -0.000000
    24  Cl  -0.000000  -0.000000  -0.000000  -0.000000   0.000000   0.000000
    25  H    0.542668  -0.039013  -0.000000   0.000000   0.000000  -0.000000
    26  H   -0.039013   0.560644  -0.000000  -0.000000   0.000000  -0.000000
    27  H   -0.000000  -0.000000   0.556109  -0.038239   0.000373   0.000002
    28  H    0.000000  -0.000000  -0.038239   0.537718  -0.000147   0.000003
    29  H    0.000000   0.000000   0.000373  -0.000147   0.595795  -0.005708
    30  H   -0.000000  -0.000000   0.000002   0.000003  -0.005708   0.556559
    31  H   -0.000000  -0.000000   0.000002   0.000001   0.000015  -0.000174
    32  H    0.000000   0.000000   0.002199   0.001721  -0.000176   0.000017
    33  H   -0.000107   0.000366   0.000000   0.000000   0.000000  -0.000000
    34  H    0.000002   0.000002  -0.000000  -0.000000  -0.000000   0.000000
    35  H    0.000000   0.000002  -0.000000  -0.000000  -0.000000   0.000000
    36  H    0.001776   0.002203  -0.000000   0.000000   0.000000  -0.000000
              31         32         33         34         35         36
     1  C   -0.000000   0.000000  -0.049777   0.003792   0.003603  -0.053763
     2  C    0.000000  -0.000000  -0.012026  -0.000185  -0.000144  -0.006787
     3  O   -0.000000   0.000000   0.001858   0.000007   0.000000   0.000056
     4  C   -0.000000   0.000000   0.006904   0.000041   0.000000   0.000001
     5  O    0.000000   0.000000  -0.012661  -0.000001  -0.000000  -0.000013
     6  N   -0.000000   0.000000   0.000802  -0.000003   0.000000  -0.000000
     7  N    0.000000  -0.000000   0.000319   0.000000  -0.000000   0.000000
     8  C    0.000000  -0.000001  -0.000026   0.000000  -0.000000  -0.000000
     9  O   -0.000000  -0.000014   0.000001   0.000000   0.000000   0.000000
    10  O    0.000000   0.000055   0.000000   0.000000   0.000000   0.000000
    11  C   -0.000145  -0.006790  -0.000000   0.000000  -0.000000  -0.000000
    12  C    0.003591  -0.053912  -0.000000   0.000000  -0.000000   0.000000
    13  C    0.000694   0.004805  -0.000000   0.000000   0.000000  -0.000000
    14  C    0.004393   0.000529   0.000000  -0.000000   0.000000   0.000000
    15  C   -0.042941   0.004760   0.000000  -0.000000   0.000000   0.000000
    16  C    0.359735  -0.040330  -0.000000   0.000000   0.000000  -0.000000
    17  C   -0.035953   0.362484   0.000000  -0.000000   0.000000   0.000000
    18  Cl  -0.000322  -0.000177  -0.000000   0.000000   0.000000  -0.000000
    19  C   -0.000000  -0.000000   0.352682  -0.033836   0.000683   0.004853
    20  C   -0.000000   0.000000  -0.034310   0.359026   0.004415   0.000524
    21  C    0.000000   0.000000   0.004509  -0.043645  -0.043045   0.004773
    22  C    0.000000  -0.000000   0.000548   0.004142   0.359677  -0.040585
    23  C    0.000000   0.000000   0.004965   0.000896  -0.035960   0.362494
    24  Cl   0.000000   0.000000  -0.000173  -0.000365  -0.000334  -0.000177
    25  H   -0.000000   0.000000  -0.000107   0.000002   0.000000   0.001776
    26  H   -0.000000   0.000000   0.000366   0.000002   0.000002   0.002203
    27  H    0.000002   0.002199   0.000000  -0.000000  -0.000000  -0.000000
    28  H    0.000001   0.001721   0.000000  -0.000000  -0.000000   0.000000
    29  H    0.000015  -0.000176   0.000000  -0.000000  -0.000000   0.000000
    30  H   -0.000174   0.000017  -0.000000   0.000000   0.000000  -0.000000
    31  H    0.562947  -0.005790   0.000000  -0.000000   0.000000   0.000000
    32  H   -0.005790   0.598230   0.000000  -0.000000   0.000000   0.000000
    33  H    0.000000   0.000000   0.589758  -0.005600   0.000015  -0.000176
    34  H   -0.000000  -0.000000  -0.005600   0.557972  -0.000174   0.000017
    35  H    0.000000   0.000000   0.000015  -0.000174   0.563305  -0.005801
    36  H    0.000000   0.000000  -0.000176   0.000017  -0.005801   0.598124
 Mulliken charges:
               1
     1  C    0.113439
     2  C   -0.096906
     3  O   -0.433820
     4  C    0.752901
     5  O   -0.422318
     6  N   -0.224727
     7  N   -0.208809
     8  C    0.731965
     9  O   -0.408310
    10  O   -0.447383
    11  C   -0.100961
    12  C    0.115772
    13  C   -0.124845
    14  C   -0.149381
    15  C   -0.061880
    16  C   -0.134373
    17  C   -0.172266
    18  Cl  -0.009574
    19  C   -0.127027
    20  C   -0.149810
    21  C   -0.061856
    22  C   -0.134440
    23  C   -0.171706
    24  Cl  -0.010139
    25  H    0.184928
    26  H    0.184005
    27  H    0.187162
    28  H    0.187202
    29  H    0.151539
    30  H    0.159004
    31  H    0.153945
    32  H    0.132389
    33  H    0.152127
    34  H    0.157912
    35  H    0.153757
    36  H    0.132483
 Sum of Mulliken charges =  -0.00000
 Mulliken charges with hydrogens summed into heavy atoms:
               1
     1  C    0.113439
     2  C    0.272028
     3  O   -0.433820
     4  C    0.752901
     5  O   -0.422318
     6  N   -0.224727
     7  N   -0.208809
     8  C    0.731965
     9  O   -0.408310
    10  O   -0.447383
    11  C    0.273403
    12  C    0.115772
    13  C    0.026694
    14  C    0.009622
    15  C   -0.061880
    16  C    0.019573
    17  C   -0.039877
    18  Cl  -0.009574
    19  C    0.025100
    20  C    0.008101
    21  C   -0.061856
    22  C    0.019316
    23  C   -0.039223
    24  Cl  -0.010139
 APT charges:
               1
     1  C   -0.035012
     2  C    0.579064
     3  O   -0.833754
     4  C    1.210591
     5  O   -0.613853
     6  N   -0.190458
     7  N   -0.203189
     8  C    1.245972
     9  O   -0.629509
    10  O   -0.885697
    11  C    0.599075
    12  C   -0.036280
    13  C   -0.015549
    14  C   -0.075221
    15  C    0.403299
    16  C   -0.115345
    17  C    0.026995
    18  Cl  -0.360315
    19  C   -0.021246
    20  C   -0.064262
    21  C    0.415789
    22  C   -0.123761
    23  C    0.022582
    24  Cl  -0.369858
    25  H   -0.038617
    26  H   -0.059656
    27  H   -0.058830
    28  H   -0.032738
    29  H    0.020620
    30  H    0.049309
    31  H    0.042088
    32  H    0.016542
    33  H    0.025799
    34  H    0.047365
    35  H    0.040824
    36  H    0.017235
 Sum of APT charges =  -0.00000
 APT charges with hydrogens summed into heavy atoms:
               1
     1  C   -0.035012
     2  C    0.480791
     3  O   -0.833754
     4  C    1.210591
     5  O   -0.613853
     6  N   -0.190458
     7  N   -0.203189
     8  C    1.245972
     9  O   -0.629509
    10  O   -0.885697
    11  C    0.507508
    12  C   -0.036280
    13  C    0.005070
    14  C   -0.025911
    15  C    0.403299
    16  C   -0.073257
    17  C    0.043537
    18  Cl  -0.360315
    19  C    0.004553
    20  C   -0.016897
    21  C    0.415789
    22  C   -0.082937
    23  C    0.039817
    24  Cl  -0.369858
 Electronic spatial extent (au):  <R**2>=          17893.3050
 Charge=             -0.0000 electrons
 Dipole moment (field-independent basis, Debye):
    X=              0.6600    Y=             -5.3587    Z=              0.1337  Tot=              5.4009
 Quadrupole moment (field-independent basis, Debye-Ang):
   XX=           -146.9705   YY=           -144.8869   ZZ=           -149.8757
   XY=             -1.5611   XZ=             -9.5170   YZ=             -0.7212
 Traceless Quadrupole moment (field-independent basis, Debye-Ang):
   XX=              0.2739   YY=              2.3575   ZZ=             -2.6313
   XY=             -1.5611   XZ=             -9.5170   YZ=             -0.7212
 Octapole moment (field-independent basis, Debye-Ang**2):
  XXX=             59.4961  YYY=            -22.4149  ZZZ=              1.7177  XYY=              0.7411
  XXY=           -169.1113  XXZ=             -2.3033  XZZ=              0.2128  YZZ=            -11.5411
  YYZ=             -4.6039  XYZ=             35.8736
 Hexadecapole moment (field-independent basis, Debye-Ang**3):
 XXXX=         -21101.1100 YYYY=          -2123.3673 ZZZZ=           -602.3385 XXXY=            -35.9033
 XXXZ=           -654.6709 YYYX=            -40.9701 YYYZ=             10.8078 ZZZX=              1.5773
 ZZZY=             -2.3822 XXYY=          -3831.3564 XXZZ=          -3636.3092 YYZZ=           -436.6456
 XXYZ=            -13.4794 YYXZ=            -44.6166 ZZXY=             -1.0858
 N-N= 2.081138327182D+03 E-N=-8.741905292116D+03  KE= 1.935647013026D+03
  Exact polarizability: 336.984  -8.499 211.160 -24.601  -1.778 126.004
 Approx polarizability: 416.415 -19.320 363.982 -51.592  -2.015 217.068
 Calling FoFJK, ICntrl=    100127 FMM=F ISym2X=0 I1Cent= 0 IOpClX= 0 NMat=1 NMatS=1 NMatT=0.
 ***** Axes restored to original set *****
 -------------------------------------------------------------------
 Center     Atomic                   Forces (Hartrees/Bohr)
 Number     Number              X              Y              Z
 -------------------------------------------------------------------
      1        6           0.004852146   -0.005108105    0.009703378
      2        6           0.011908763   -0.004991817    0.010623028
      3        8           0.003365299   -0.008196695   -0.004735595
      4        6           0.005784513   -0.069129360   -0.017204517
      5        8          -0.027592966    0.029339433   -0.001603120
      6        7           0.001546526    0.042311258   -0.004266255
      7        7           0.009051367   -0.032563494   -0.006301499
      8        6          -0.015126141    0.069412736    0.016465201
      9        8          -0.014845885   -0.028737149    0.001245362
     10        8           0.001689243   -0.013458312    0.011001192
     11        6           0.009852167    0.012179589   -0.007601587
     12        6           0.003151679    0.008032911   -0.008636298
     13        6          -0.000702948    0.008153813   -0.007745563
     14        6          -0.000564717   -0.006755982    0.000236390
     15        6          -0.009333687   -0.010227645    0.005731154
     16        6          -0.006860570    0.000993796    0.002354007
     17        6           0.005871224   -0.003233071    0.000444350
     18       17           0.011006549    0.011695622   -0.006491836
     19        6           0.002359827   -0.007727584    0.008313039
     20        6          -0.003966946    0.005310117   -0.000888506
     21        6          -0.011914427    0.003865803   -0.008424038
     22        6          -0.004503135   -0.004613158   -0.003519619
     23        6           0.003331584    0.005947960    0.000382898
     24       17           0.013902020   -0.004014878    0.009597557
     25        1          -0.003440271    0.007739424   -0.002153874
     26        1          -0.000233123    0.006959732   -0.003519273
     27        1           0.002914748   -0.006509746    0.003821907
     28        1           0.001070550   -0.008907442    0.001610486
     29        1           0.001506305    0.010198374   -0.007932335
     30        1          -0.000968845    0.001257177    0.000056922
     31        1           0.001225277   -0.000907797   -0.000411443
     32        1           0.000454782   -0.000606618    0.000508494
     33        1           0.004836662   -0.008310153    0.009342803
     34        1          -0.000159925   -0.001642259   -0.000113324
     35        1           0.000416457    0.001457957    0.000590359
     36        1           0.000115899    0.000785564   -0.000479847
 -------------------------------------------------------------------
 Cartesian Forces:  Max     0.069412736 RMS     0.013480277
 FormGI is forming the generalized inverse of G from B-inverse, IUseBI=4.

 GradGradGradGradGradGradGradGradGradGradGradGradGradGradGradGradGradGrad
 Berny optimization.
 Internal  Forces:  Max     0.070529487 RMS     0.015066434
 Search for a local minimum.
 Step number   1 out of a maximum of  180
 All quantities printed in internal units (Hartrees-Bohrs-Radians)
 Mixed Optimization -- RFO/linear search
 Second derivative matrix not updated -- analytic derivatives used.
 ITU=  0
     Eigenvalues ---   -0.00647  -0.00611  -0.00534  -0.00169   0.01105
     Eigenvalues ---    0.01115   0.01332   0.01339   0.01717   0.01718
     Eigenvalues ---    0.01788   0.01788   0.02115   0.02116   0.02190
     Eigenvalues ---    0.02193   0.02474   0.02475   0.02640   0.02643
     Eigenvalues ---    0.02794   0.02794   0.02971   0.02986   0.03406
     Eigenvalues ---    0.03977   0.06443   0.06543   0.06955   0.07626
     Eigenvalues ---    0.07696   0.09792   0.10047   0.10218   0.11423
     Eigenvalues ---    0.11426   0.11683   0.11686   0.11738   0.12030
     Eigenvalues ---    0.12034   0.12854   0.12858   0.13062   0.13253
     Eigenvalues ---    0.17293   0.17305   0.18053   0.18056   0.19099
     Eigenvalues ---    0.19143   0.20063   0.20177   0.20368   0.21188
     Eigenvalues ---    0.21943   0.22365   0.24494   0.25583   0.25872
     Eigenvalues ---    0.28130   0.28386   0.28933   0.29086   0.29117
     Eigenvalues ---    0.29733   0.29968   0.31243   0.32041   0.32511
[...]
   141    O   10  px     Ryd( 3p)     0.00098
   142    O   10  py     Val( 2p)     1.76617
   143    O   10  py     Ryd( 3p)     0.00180
   144    O   10  pz     Val( 2p)     1.67475
   145    O   10  pz     Ryd( 3p)     0.00148
   146    O   10  dxy    Ryd( 3d)     0.00031
   147    O   10  dxz    Ryd( 3d)     0.00155
   148    O   10  dyz    Ryd( 3d)     0.00199
   149    O   10  dx2y2  Ryd( 3d)     0.00061
   150    O   10  dz2    Ryd( 3d)     0.00145
 
   151    C   11  S      Cor( 1S)     1.99912
   152    C   11  S      Val( 2S)     1.03204
   153    C   11  S      Ryd( 3S)     0.00121
   154    C   11  S      Ryd( 4S)     0.00005
   155    C   11  px     Val( 2p)     0.71351
   156    C   11  px     Ryd( 3p)     0.00285
   157    C   11  py     Val( 2p)     1.10222
   158    C   11  py     Ryd( 3p)     0.00144
   159    C   11  pz     Val( 2p)     1.25789
   160    C   11  pz     Ryd( 3p)     0.00767
   161    C   11  dxy    Ryd( 3d)     0.00130
   162    C   11  dxz    Ryd( 3d)     0.00107
   163    C   11  dyz    Ryd( 3d)     0.00093
   164    C   11  dx2y2  Ryd( 3d)     0.00171
   165    C   11  dz2    Ryd( 3d)     0.00111
 
   166    C   12  S      Cor( 1S)     1.99901
   167    C   12  S      Val( 2S)     0.88855
   168    C   12  S      Ryd( 3S)     0.00068
   169    C   12  S      Ryd( 4S)     0.00006
   170    C   12  px     Val( 2p)     1.03327
   171    C   12  px     Ryd( 3p)     0.00191
   172    C   12  py     Val( 2p)     1.06513
   173    C   12  py     Ryd( 3p)     0.00442
   174    C   12  pz     Val( 2p)     1.09349
   175    C   12  pz     Ryd( 3p)     0.00446
   176    C   12  dxy    Ryd( 3d)     0.00037
   177    C   12  dxz    Ryd( 3d)     0.00055
   178    C   12  dyz    Ryd( 3d)     0.00077
   179    C   12  dx2y2  Ryd( 3d)     0.00052
   180    C   12  dz2    Ryd( 3d)     0.00059
 
   181    C   13  S      Cor( 1S)     1.99903
   182    C   13  S      Val( 2S)     0.95647
   183    C   13  S      Ryd( 3S)     0.00059
   184    C   13  S      Ryd( 4S)     0.00004
   185    C   13  px     Val( 2p)     0.97500
   186    C   13  px     Ryd( 3p)     0.00081
   187    C   13  py     Val( 2p)     1.10284
   188    C   13  py     Ryd( 3p)     0.00425
   189    C   13  pz     Val( 2p)     1.15223
   190    C   13  pz     Ryd( 3p)     0.00479
   191    C   13  dxy    Ryd( 3d)     0.00050
   192    C   13  dxz    Ryd( 3d)     0.00043
   193    C   13  dyz    Ryd( 3d)     0.00083
   194    C   13  dx2y2  Ryd( 3d)     0.00046
   195    C   13  dz2    Ryd( 3d)     0.00062
 
   196    C   14  S      Cor( 1S)     1.99894
   197    C   14  S      Val( 2S)     0.95982
   198    C   14  S      Ryd( 3S)     0.00097
   199    C   14  S      Ryd( 4S)     0.00005
   200    C   14  px     Val( 2p)     1.00206
   201    C   14  px     Ryd( 3p)     0.00099
   202    C   14  py     Val( 2p)     1.07862
   203    C   14  py     Ryd( 3p)     0.00520
   204    C   14  pz     Val( 2p)     1.18776
   205    C   14  pz     Ryd( 3p)     0.00500
   206    C   14  dxy    Ryd( 3d)     0.00045
   207    C   14  dxz    Ryd( 3d)     0.00042
   208    C   14  dyz    Ryd( 3d)     0.00077
   209    C   14  dx2y2  Ryd( 3d)     0.00040
   210    C   14  dz2    Ryd( 3d)     0.00066
 
   211    C   15  S      Cor( 1S)     1.99856
   212    C   15  S      Val( 2S)     0.93307
   213    C   15  S      Ryd( 3S)     0.00060
   214    C   15  S      Ryd( 4S)     0.00009
   215    C   15  px     Val( 2p)     1.04746
   216    C   15  px     Ryd( 3p)     0.00130
   217    C   15  py     Val( 2p)     0.93267
   218    C   15  py     Ryd( 3p)     0.00693
   219    C   15  pz     Val( 2p)     1.10231
   220    C   15  pz     Ryd( 3p)     0.00768
   221    C   15  dxy    Ryd( 3d)     0.00114
   222    C   15  dxz    Ryd( 3d)     0.00069
   223    C   15  dyz    Ryd( 3d)     0.00103
   224    C   15  dx2y2  Ryd( 3d)     0.00132
   225    C   15  dz2    Ryd( 3d)     0.00097
 
   226    C   16  S      Cor( 1S)     1.99893
   227    C   16  S      Val( 2S)     0.95904
   228    C   16  S      Ryd( 3S)     0.00097
   229    C   16  S      Ryd( 4S)     0.00005
   230    C   16  px     Val( 2p)     1.00744
   231    C   16  px     Ryd( 3p)     0.00102
   232    C   16  py     Val( 2p)     1.11232
   233    C   16  py     Ryd( 3p)     0.00538
   234    C   16  pz     Val( 2p)     1.15086
   235    C   16  pz     Ryd( 3p)     0.00478
   236    C   16  dxy    Ryd( 3d)     0.00045
   237    C   16  dxz    Ryd( 3d)     0.00044
   238    C   16  dyz    Ryd( 3d)     0.00077
   239    C   16  dx2y2  Ryd( 3d)     0.00045
   240    C   16  dz2    Ryd( 3d)     0.00060
 
   241    C   17  S      Cor( 1S)     1.99903
   242    C   17  S      Val( 2S)     0.95327
   243    C   17  S      Ryd( 3S)     0.00058
   244    C   17  S      Ryd( 4S)     0.00005
   245    C   17  px     Val( 2p)     0.98303
   246    C   17  px     Ryd( 3p)     0.00071
   247    C   17  py     Val( 2p)     1.07068
   248    C   17  py     Ryd( 3p)     0.00387
   249    C   17  pz     Val( 2p)     1.18018
   250    C   17  pz     Ryd( 3p)     0.00507
   251    C   17  dxy    Ryd( 3d)     0.00053
   252    C   17  dxz    Ryd( 3d)     0.00036
   253    C   17  dyz    Ryd( 3d)     0.00072
   254    C   17  dx2y2  Ryd( 3d)     0.00044
   255    C   17  dz2    Ryd( 3d)     0.00077
 
   256   Cl   18  S      Cor( 1S)     2.00000
   257   Cl   18  S      Cor( 2S)     1.99979
   258   Cl   18  S      Val( 3S)     1.83537
   259   Cl   18  S      Ryd( 4S)     0.00331
   260   Cl   18  S      Ryd( 5S)     0.00000
   261   Cl   18  px     Cor( 2p)     1.99999
   262   Cl   18  px     Val( 3p)     1.88719
   263   Cl   18  px     Ryd( 4p)     0.00176
   264   Cl   18  py     Cor( 2p)     1.99991
   265   Cl   18  py     Val( 3p)     1.29780
   266   Cl   18  py     Ryd( 4p)     0.00378
   267   Cl   18  pz     Cor( 2p)     1.99999
   268   Cl   18  pz     Val( 3p)     1.95853
   269   Cl   18  pz     Ryd( 4p)     0.00157
   270   Cl   18  dxy    Ryd( 3d)     0.00264
   271   Cl   18  dxz    Ryd( 3d)     0.00014
   272   Cl   18  dyz    Ryd( 3d)     0.00130
   273   Cl   18  dx2y2  Ryd( 3d)     0.00346
   274   Cl   18  dz2    Ryd( 3d)     0.00132
 
   275    C   19  S      Cor( 1S)     1.99903
   276    C   19  S      Val( 2S)     0.95664
   277    C   19  S      Ryd( 3S)     0.00059
   278    C   19  S      Ryd( 4S)     0.00004
   279    C   19  px     Val( 2p)     0.99549
   280    C   19  px     Ryd( 3p)     0.00145
   281    C   19  py     Val( 2p)     1.07973
   282    C   19  py     Ryd( 3p)     0.00363
   283    C   19  pz     Val( 2p)     1.15435
   284    C   19  pz     Ryd( 3p)     0.00481
   285    C   19  dxy    Ryd( 3d)     0.00047
   286    C   19  dxz    Ryd( 3d)     0.00050
   287    C   19  dyz    Ryd( 3d)     0.00076
   288    C   19  dx2y2  Ryd( 3d)     0.00048
   289    C   19  dz2    Ryd( 3d)     0.00063
 
   290    C   20  S      Cor( 1S)     1.99894
   291    C   20  S      Val( 2S)     0.95995
   292    C   20  S      Ryd( 3S)     0.00098
   293    C   20  S      Ryd( 4S)     0.00005
   294    C   20  px     Val( 2p)     1.01389
   295    C   20  px     Ryd( 3p)     0.00166
   296    C   20  py     Val( 2p)     1.06821
   297    C   20  py     Ryd( 3p)     0.00456
   298    C   20  pz     Val( 2p)     1.18620
   299    C   20  pz     Ryd( 3p)     0.00500
   300    C   20  dxy    Ryd( 3d)     0.00041
   301    C   20  dxz    Ryd( 3d)     0.00048
   302    C   20  dyz    Ryd( 3d)     0.00072
   303    C   20  dx2y2  Ryd( 3d)     0.00044
   304    C   20  dz2    Ryd( 3d)     0.00066
 
   305    C   21  S      Cor( 1S)     1.99856
   306    C   21  S      Val( 2S)     0.93335
   307    C   21  S      Ryd( 3S)     0.00060
   308    C   21  S      Ryd( 4S)     0.00009
   309    C   21  px     Val( 2p)     1.02781
   310    C   21  px     Ryd( 3p)     0.00220
   311    C   21  py     Val( 2p)     0.95021
   312    C   21  py     Ryd( 3p)     0.00603
   313    C   21  pz     Val( 2p)     1.10299
   314    C   21  pz     Ryd( 3p)     0.00770
   315    C   21  dxy    Ryd( 3d)     0.00128
   316    C   21  dxz    Ryd( 3d)     0.00074
   317    C   21  dyz    Ryd( 3d)     0.00097
   318    C   21  dx2y2  Ryd( 3d)     0.00119
   319    C   21  dz2    Ryd( 3d)     0.00098
 
   320    C   22  S      Cor( 1S)     1.99893
   321    C   22  S      Val( 2S)     0.95932
   322    C   22  S      Ryd( 3S)     0.00098
   323    C   22  S      Ryd( 4S)     0.00005
   324    C   22  px     Val( 2p)     1.02420
   325    C   22  px     Ryd( 3p)     0.00172
   326    C   22  py     Val( 2p)     1.09222
   327    C   22  py     Ryd( 3p)     0.00467
   328    C   22  pz     Val( 2p)     1.15344
   329    C   22  pz     Ryd( 3p)     0.00480
   330    C   22  dxy    Ryd( 3d)     0.00045
   331    C   22  dxz    Ryd( 3d)     0.00049
   332    C   22  dyz    Ryd( 3d)     0.00071
   333    C   22  dx2y2  Ryd( 3d)     0.00044
   334    C   22  dz2    Ryd( 3d)     0.00060
 
   335    C   23  S      Cor( 1S)     1.99903
   336    C   23  S      Val( 2S)     0.95353
   337    C   23  S      Ryd( 3S)     0.00058
   338    C   23  S      Ryd( 4S)     0.00005
   339    C   23  px     Val( 2p)     0.99616
   340    C   23  px     Ryd( 3p)     0.00125
   341    C   23  py     Val( 2p)     1.05797
   342    C   23  py     Ryd( 3p)     0.00335
   343    C   23  pz     Val( 2p)     1.17869
   344    C   23  pz     Ryd( 3p)     0.00506
   345    C   23  dxy    Ryd( 3d)     0.00046
   346    C   23  dxz    Ryd( 3d)     0.00041
   347    C   23  dyz    Ryd( 3d)     0.00068
   348    C   23  dx2y2  Ryd( 3d)     0.00050
   349    C   23  dz2    Ryd( 3d)     0.00076
 
   350   Cl   24  S      Cor( 1S)     2.00000
   351   Cl   24  S      Cor( 2S)     1.99979
   352   Cl   24  S      Val( 3S)     1.83545
   353   Cl   24  S      Ryd( 4S)     0.00331
   354   Cl   24  S      Ryd( 5S)     0.00000
   355   Cl   24  px     Cor( 2p)     1.99997
   356   Cl   24  px     Val( 3p)     1.79184
   357   Cl   24  px     Ryd( 4p)     0.00208
   358   Cl   24  py     Cor( 2p)     1.99992
   359   Cl   24  py     Val( 3p)     1.38810
   360   Cl   24  py     Ryd( 4p)     0.00347
   361   Cl   24  pz     Cor( 2p)     1.99999
   362   Cl   24  pz     Val( 3p)     1.96151
   363   Cl   24  pz     Ryd( 4p)     0.00156
   364   Cl   24  dxy    Ryd( 3d)     0.00327
   365   Cl   24  dxz    Ryd( 3d)     0.00031
   366   Cl   24  dyz    Ryd( 3d)     0.00108
   367   Cl   24  dx2y2  Ryd( 3d)     0.00287
   368   Cl   24  dz2    Ryd( 3d)     0.00134
 
   369    H   25  S      Val( 1S)     0.75484
   370    H   25  S      Ryd( 2S)     0.00115
 
   371    H   26  S      Val( 1S)     0.75362
   372    H   26  S      Ryd( 2S)     0.00211
 
   373    H   27  S      Val( 1S)     0.75425
   374    H   27  S      Ryd( 2S)     0.00218
 
   375    H   28  S      Val( 1S)     0.75541
   376    H   28  S      Ryd( 2S)     0.00111
 
   377    H   29  S      Val( 1S)     0.74012
   378    H   29  S      Ryd( 2S)     0.00132
 
   379    H   30  S      Val( 1S)     0.74192
   380    H   30  S      Ryd( 2S)     0.00100
 
   381    H   31  S      Val( 1S)     0.74262
   382    H   31  S      Ryd( 2S)     0.00102
 
   383    H   32  S      Val( 1S)     0.75526
   384    H   32  S      Ryd( 2S)     0.00101
 
   385    H   33  S      Val( 1S)     0.74040
   386    H   33  S      Ryd( 2S)     0.00138
 
   387    H   34  S      Val( 1S)     0.74130
   388    H   34  S      Ryd( 2S)     0.00100
 
   389    H   35  S      Val( 1S)     0.74203
   390    H   35  S      Ryd( 2S)     0.00101
 
   391    H   36  S      Val( 1S)     0.75454
   392    H   36  S      Ryd( 2S)     0.00100

 WARNING:  1 low occupancy (<1.9990e) core orbital  found on  C   14
           1 low occupancy (<1.9990e) core orbital  found on  C   15
           1 low occupancy (<1.9990e) core orbital  found on  C   16
           1 low occupancy (<1.9990e) core orbital  found on  C   20
           1 low occupancy (<1.9990e) core orbital  found on  C   21
           1 low occupancy (<1.9990e) core orbital  found on  C   22


 Summary of Natural Population Analysis:                  
                                                          
                                       Natural Population 
                Natural  -----------------------------------------------
    Atom  No    Charge         Core      Valence    Rydberg      Total
 -----------------------------------------------------------------------
      C    1   -0.09429      1.99901     4.08090    0.01438     6.09429
      C    2   -0.12606      1.99912     4.10776    0.01918     6.12606
      O    3   -0.51981      1.99973     6.50773    0.01234     8.51981
      C    4    0.92348      1.99950     3.02644    0.05058     5.07652
      O    5   -0.55042      1.99977     6.52998    0.02067     8.55042
      N    6   -0.21255      1.99938     5.18703    0.02615     7.21255
      N    7   -0.21618      1.99938     5.19035    0.02644     7.21618
      C    8    0.91799      1.99950     3.03218    0.05033     5.08201
      O    9   -0.55921      1.99977     6.53873    0.02071     8.55921
      O   10   -0.52316      1.99973     6.51117    0.01226     8.52316
      C   11   -0.12411      1.99912     4.10566    0.01933     6.12411
      C   12   -0.09379      1.99901     4.08044    0.01434     6.09379
      C   13   -0.19888      1.99903     4.18653    0.01332     6.19888
      C   14   -0.24211      1.99894     4.22826    0.01492     6.24211
      C   15   -0.03581      1.99856     4.01551    0.02175     6.03581
      C   16   -0.24351      1.99893     4.22966    0.01491     6.24351
      C   17   -0.19928      1.99903     4.18716    0.01310     6.19928
     Cl   18    0.00215      9.99967     6.97889    0.01929    16.99785
      C   19   -0.19860      1.99903     4.18622    0.01335     6.19860
      C   20   -0.24212      1.99894     4.22824    0.01495     6.24212
      C   21   -0.03470      1.99856     4.01436    0.02179     6.03470
      C   22   -0.24305      1.99893     4.22919    0.01492     6.24305
      C   23   -0.19849      1.99903     4.18635    0.01311     6.19849
     Cl   24    0.00413      9.99967     6.97690    0.01930    16.99587
      H   25    0.24401      0.00000     0.75484    0.00115     0.75599
      H   26    0.24427      0.00000     0.75362    0.00211     0.75573
      H   27    0.24357      0.00000     0.75425    0.00218     0.75643
      H   28    0.24348      0.00000     0.75541    0.00111     0.75652
      H   29    0.25855      0.00000     0.74012    0.00132     0.74145
      H   30    0.25707      0.00000     0.74192    0.00100     0.74293
      H   31    0.25636      0.00000     0.74262    0.00102     0.74364
      H   32    0.24374      0.00000     0.75526    0.00101     0.75626
      H   33    0.25822      0.00000     0.74040    0.00138     0.74178
      H   34    0.25770      0.00000     0.74130    0.00100     0.74230
      H   35    0.25696      0.00000     0.74203    0.00101     0.74304
      H   36    0.24446      0.00000     0.75454    0.00100     0.75554
 =======================================================================
   * Total *    0.00000     63.98135   123.52195    0.49670   188.00000

                                 Natural Population      
 --------------------------------------------------------
   Core                      63.98135 ( 99.9709% of  64)
   Valence                  123.52195 ( 99.6145% of 124)
   Natural Minimal Basis    187.50330 ( 99.7358% of 188)
   Natural Rydberg Basis      0.49670 (  0.2642% of 188)
 --------------------------------------------------------

    Atom  No          Natural Electron Configuration
 ----------------------------------------------------------------------------
      C    1      [core]2S( 0.89)2p( 3.19)3p( 0.01)
      C    2      [core]2S( 1.03)2p( 3.08)3p( 0.01)3d( 0.01)
      O    3      [core]2S( 1.63)2p( 4.88)3d( 0.01)
      C    4      [core]2S( 0.73)2p( 2.29)3p( 0.03)3d( 0.01)
      O    5      [core]2S( 1.71)2p( 4.82)3d( 0.02)
      N    6      [core]2S( 1.39)2p( 3.80)3S( 0.01)3p( 0.01)3d( 0.01)
      N    7      [core]2S( 1.39)2p( 3.80)3S( 0.01)3p( 0.01)3d( 0.01)
      C    8      [core]2S( 0.73)2p( 2.30)3p( 0.03)3d( 0.01)
      O    9      [core]2S( 1.71)2p( 4.83)3d( 0.02)
      O   10      [core]2S( 1.63)2p( 4.88)3d( 0.01)
      C   11      [core]2S( 1.03)2p( 3.07)3p( 0.01)3d( 0.01)
      C   12      [core]2S( 0.89)2p( 3.19)3p( 0.01)
      C   13      [core]2S( 0.96)2p( 3.23)3p( 0.01)
      C   14      [core]2S( 0.96)2p( 3.27)3p( 0.01)
      C   15      [core]2S( 0.93)2p( 3.08)3p( 0.02)3d( 0.01)
      C   16      [core]2S( 0.96)2p( 3.27)3p( 0.01)
      C   17      [core]2S( 0.95)2p( 3.23)3p( 0.01)
     Cl   18      [core]3S( 1.84)3p( 5.14)3d( 0.01)4p( 0.01)
      C   19      [core]2S( 0.96)2p( 3.23)3p( 0.01)
      C   20      [core]2S( 0.96)2p( 3.27)3p( 0.01)
      C   21      [core]2S( 0.93)2p( 3.08)3p( 0.02)3d( 0.01)
      C   22      [core]2S( 0.96)2p( 3.27)3p( 0.01)
      C   23      [core]2S( 0.95)2p( 3.23)3p( 0.01)
     Cl   24      [core]3S( 1.84)3p( 5.14)3d( 0.01)4p( 0.01)
      H   25            1S( 0.75)
      H   26            1S( 0.75)
      H   27            1S( 0.75)
      H   28            1S( 0.76)
      H   29            1S( 0.74)
      H   30            1S( 0.74)
      H   31            1S( 0.74)
      H   32            1S( 0.76)
      H   33            1S( 0.74)
      H   34            1S( 0.74)
      H   35            1S( 0.74)
      H   36            1S( 0.75)


 NBO analysis skipped by request.
 1\1\GINC-DELLA-R2C3N6\SP\RB3LYP TD-FC\6-31G(d)\C16H12Cl2N2O4\BJS4\22-A
 ug-2020\0\\# TD(NStates=10, Root=1) B3LYP/6-31G* scf=qc volume pop=NPA
  density=current Geom=AllCheck Guess=Read\\Title Card Required\\0,1\C,
 0,-4.4071884814,-1.0211329908,1.1811049672\C,0,-5.8994346993,-0.983203
 8447,0.9895082737\O,0,-6.3802573313,0.381241464,0.7441908721\C,0,-6.39
 8250379,0.7798036795,-0.5246853427\O,0,-6.0833700285,0.1590769133,-1.5
 096127238\N,0,-6.7567467467,2.1807757342,-0.5987097536\N,0,-7.98732981
 24,2.3700588553,-0.5802163774\C,0,-8.3433045841,3.7726954135,-0.659044
 1424\O,0,-8.8434109835,4.3379162644,0.2819513177\O,0,-8.1421532081,4.2
 38986473,-1.8888024997\C,0,-8.5802329959,5.6162709347,-2.137810336\C,0
 ,-7.4919505729,6.6107770292,-1.8348144978\C,0,-7.3867663414,7.19336004
 68,-0.5649004718\C,0,-6.3753688078,8.1098868914,-0.2823674616\C,0,-5.4
 618760194,8.4424879549,-1.2823797091\C,0,-5.5432515536,7.8750565317,-2
 .5536848026\C,0,-6.561046005,6.9611009014,-2.8202018633\Cl,0,-4.186856
 7677,9.6010505804,-0.9360163439\C,0,-3.5508893089,-1.2440643376,0.0945
 775258\C,0,-2.1683203718,-1.2712520111,0.2698361088\C,0,-1.6417285849,
 -1.0717748541,1.5457427073\C,0,-2.4720567388,-0.845958463,2.6433129656
 \C,0,-3.8521885374,-0.8225816015,2.4512568306\Cl,0,0.0998031872,-1.109
 6679659,1.7763940533\H,0,-6.4295440084,-1.2758258972,1.896963575\H,0,-
 6.2195404542,-1.610812764,0.156316872\H,0,-9.4755355115,5.7990168399,-
 1.540644523\H,0,-8.8364313712,5.6117142608,-3.1983309575\H,0,-8.095281
 577,6.9185699435,0.210539487\H,0,-6.295412564,8.5622590148,0.700204261
 \H,0,-4.8244807127,8.1468771108,-3.319105025\H,0,-6.629735985,6.516467
 7982,-3.8099770562\H,0,-3.9699495568,-1.3863015083,-0.8968744332\H,0,-
 1.50599267,-1.4457392011,-0.5712082997\H,0,-2.0442934726,-0.6947459753
 ,3.6284881412\H,0,-4.5041364439,-0.6484792207,3.303768662\\Version=ES6
 4L-G16RevA.03\State=1-A\HF=-1947.6738485\RMSD=1.132e-09\Dipole=-0.5046
 999,-0.3295211,-0.1045453\Quadrupole=-7.1547176,1.5697249,5.5849927,-2
 .7135129,2.1470895,-8.3682969\PG=C01 [X(C16H12Cl2N2O4)]\\@


 We make a living by what we get,
 we make a life by what we give.
                   -- Sir Winston Churchill
 Job cpu time:       0 days  0 hours 54 minutes 43.5 seconds.
 Elapsed time:       0 days  0 hours 10 minutes 58.9 seconds.
 File lengths (MBytes):  RWF=   1224 Int=      0 D2E=      0 Chk=    268 Scr=      1
 Normal termination of Gaussian 16 at Sat Aug 22 16:42:02 2020.
