 Entering Gaussian System, Link 0=g16
 Input=azadicarboxylate_4_conf26123.com
 Output=azadicarboxylate_4_conf26123.log
 Initial command:
 /opt/export//g16/l1.exe "/scratch/bjs4/job.28856/Gau-28860.inp" -scrdir="/scratch/bjs4/job.28856/"
 Entering Link 1 = /opt/export//g16/l1.exe PID=     28862.
  
 Copyright (c) 1988,1990,1992,1993,1995,1998,2003,2009,2016,
            Gaussian, Inc.  All Rights Reserved.
  
 This is part of the Gaussian(R) 16 program.  It is based on
 the Gaussian(R) 09 system (copyright 2009, Gaussian, Inc.),
 the Gaussian(R) 03 system (copyright 2003, Gaussian, Inc.),
 the Gaussian(R) 98 system (copyright 1998, Gaussian, Inc.),
 the Gaussian(R) 94 system (copyright 1995, Gaussian, Inc.),
 the Gaussian 92(TM) system (copyright 1992, Gaussian, Inc.),
 the Gaussian 90(TM) system (copyright 1990, Gaussian, Inc.),
 the Gaussian 88(TM) system (copyright 1988, Gaussian, Inc.),
 the Gaussian 86(TM) system (copyright 1986, Carnegie Mellon
 University), and the Gaussian 82(TM) system (copyright 1983,
 Carnegie Mellon University). Gaussian is a federally registered
 trademark of Gaussian, Inc.
  
 This software contains proprietary and confidential information,
 including trade secrets, belonging to Gaussian, Inc.
  
 This software is provided under written license and may be
 used, copied, transmitted, or stored only in accord with that
 written license.
  
 The following legend is applicable only to US Government
 contracts under FAR:
  
                    RESTRICTED RIGHTS LEGEND
  
 Use, reproduction and disclosure by the US Government is
 subject to restrictions as set forth in subparagraphs (a)
 and (c) of the Commercial Computer Software - Restricted
 Rights clause in FAR 52.227-19.
  
 Gaussian, Inc.
 340 Quinnipiac St., Bldg. 40, Wallingford CT 06492
  
  
 ---------------------------------------------------------------
 Warning -- This program may not be used in any manner that
 competes with the business of Gaussian, Inc. or will provide
 assistance to any competitor of Gaussian, Inc.  The licensee
 of this program is prohibited from giving any competitor of
 Gaussian, Inc. access to this program.  By using this program,
 the user acknowledges that Gaussian, Inc. is engaged in the
 business of creating and licensing software in the field of
 computational chemistry and represents and warrants to the
 licensee that it is not a competitor of Gaussian, Inc. and that
 it will not use this program in any manner prohibited above.
 ---------------------------------------------------------------
  

 Cite this work as:
 Gaussian 16, Revision A.03,
 M. J. Frisch, G. W. Trucks, H. B. Schlegel, G. E. Scuseria, 
 M. A. Robb, J. R. Cheeseman, G. Scalmani, V. Barone, 
 G. A. Petersson, H. Nakatsuji, X. Li, M. Caricato, A. V. Marenich, 
 J. Bloino, B. G. Janesko, R. Gomperts, B. Mennucci, H. P. Hratchian, 
 J. V. Ortiz, A. F. Izmaylov, J. L. Sonnenberg, D. Williams-Young, 
 F. Ding, F. Lipparini, F. Egidi, J. Goings, B. Peng, A. Petrone, 
 T. Henderson, D. Ranasinghe, V. G. Zakrzewski, J. Gao, N. Rega, 
 G. Zheng, W. Liang, M. Hada, M. Ehara, K. Toyota, R. Fukuda, 
 J. Hasegawa, M. Ishida, T. Nakajima, Y. Honda, O. Kitao, H. Nakai, 
 T. Vreven, K. Throssell, J. A. Montgomery, Jr., J. E. Peralta, 
 F. Ogliaro, M. J. Bearpark, J. J. Heyd, E. N. Brothers, K. N. Kudin, 
 V. N. Staroverov, T. A. Keith, R. Kobayashi, J. Normand, 
 K. Raghavachari, A. P. Rendell, J. C. Burant, S. S. Iyengar, 
 J. Tomasi, M. Cossi, J. M. Millam, M. Klene, C. Adamo, R. Cammi, 
 J. W. Ochterski, R. L. Martin, K. Morokuma, O. Farkas, 
 J. B. Foresman, and D. J. Fox, Gaussian, Inc., Wallingford CT, 2016.
 
 ******************************************
 Gaussian 16:  ES64L-G16RevA.03 25-Dec-2016
                22-Aug-2020 
 ******************************************
 %nprocshared=5
 Will use up to    5 processors via shared memory.
 %Mem=10GB
 %Chk=azadicarboxylate_4_conf261.chk
 ---------------------------------
 # opt=CalcAll B3LYP/6-31G* scf=qc
 ---------------------------------
 1/10=4,18=20,19=15,26=3,38=1/1,3;
 2/9=110,12=2,17=6,18=5,40=1/2;
 3/5=1,6=6,7=1,11=2,25=1,30=1,71=2,74=-5,140=1/1,2,3;
 4//1;
 5/5=2,8=3,38=5/8;
 8/6=4,10=90,11=11/1;
 11/6=1,8=1,9=11,15=111,16=1/1,2,10;
 10/6=1/2;
 6/7=2,8=2,9=2,10=2,18=1,28=1/1;
 7/10=1,25=1/1,2,3,16;
 1/10=4,18=20,19=15,26=3/3(3);
 2/9=110/2;
 7/8=1,9=1,25=1,44=-1/16;
 99//99;
 2/9=110/2;
 3/5=1,6=6,7=1,11=2,25=1,30=1,71=2,74=-5,140=1/1,2,3;
 4/5=5,16=3,69=1/1;
 5/5=2,8=3,38=5/8;
 8/6=4,10=90,11=11/1;
 11/6=1,8=1,9=11,15=111,16=1/1,2,10;
 10/6=1/2;
 7/10=1,25=1/1,2,3,16;
 1/10=4,18=20,19=15,26=3/3(-8);
 2/9=110/2;
 6/7=2,8=2,9=2,10=2,18=1,19=2,28=1/1;
 7/8=1,9=1,25=1,44=-1/16;
 99//99;
 -------------------
 Title Card Required
 -------------------
 Symbolic Z-matrix:
 Charge =  0 Multiplicity = 1
 C                    -3.02679  -0.60034   0.42933 
 C                    -3.15662   0.01485  -0.94516 
 O1                   -3.74694   1.31968  -0.86218 
 C2                   -5.0001    1.3961   -0.3376 
 O3                   -5.64075   0.42951   0.06066 
 N4                   -5.3965    2.7153   -0.3106 
 N5                   -6.637     2.8452   -0.4364 
 C6                   -7.0368    4.1615   -0.3722 
 O7                   -6.38476   5.14408  -0.71049 
 O8                   -8.28794   4.22093   0.16027 
 C                    -8.86003   5.52544   0.32713 
 C                    -10.14051   5.6539   -0.46587 
 C                    -10.63701   4.59302  -1.23749 
 C                    -11.82854   4.73026  -1.95307 
 C                    -12.54752   5.92198  -1.89177 
 C                    -12.08245   6.97329  -1.10553 
 C                    -10.88944   6.83873  -0.39244 
 C                    -3.45068   0.07926   1.58104 
 C                    -3.33189  -0.51258   2.84067 
 C                    -2.80569  -1.79673   2.96296 
 C                    -2.409    -2.49531   1.82521 
 C                    -2.52393  -1.90368   0.56548 
 H                    -3.82465  -0.61182  -1.54639 
 H                    -2.18115   0.02558  -1.44388 
 H                    -8.16722   6.3273    0.05048 
 H                    -9.09476   5.64869   1.39072 
 H                    -10.09533   3.65069  -1.29229 
 H                    -12.19515   3.9058   -2.55928 
 H                    -13.4718   6.02971  -2.45382 
 H                    -12.648    7.89997  -1.04856 
 H                    -10.54598   7.67092   0.21916 
 H                    -3.8721    1.07962   1.50667 
 H                    -3.65021   0.03026   3.72705 
 H                    -2.7082   -2.25384   3.94422 
 H                    -2.00801  -3.5014    1.91835 
 H                    -2.21202  -2.46845  -0.31076 
 

 GradGradGradGradGradGradGradGradGradGradGradGradGradGradGradGradGradGrad
 Berny optimization.
 Initialization pass.
                           ----------------------------
                           !    Initial Parameters    !
                           ! (Angstroms and Degrees)  !
 --------------------------                            --------------------------
 ! Name  Definition              Value          Derivative Info.                !
 --------------------------------------------------------------------------------
 ! R1    R(1,2)                  1.5115         calculate D2E/DX2 analytically  !
 ! R2    R(1,18)                 1.4028         calculate D2E/DX2 analytically  !
 ! R3    R(1,22)                 1.4036         calculate D2E/DX2 analytically  !
 ! R4    R(2,3)                  1.4346         calculate D2E/DX2 analytically  !
 ! R5    R(2,23)                 1.0957         calculate D2E/DX2 analytically  !
 ! R6    R(2,24)                 1.0956         calculate D2E/DX2 analytically  !
 ! R7    R(3,4)                  1.3607         calculate D2E/DX2 analytically  !
 ! R8    R(4,5)                  1.2261         calculate D2E/DX2 analytically  !
 ! R9    R(4,6)                  1.3777         calculate D2E/DX2 analytically  !
 ! R10   R(6,7)                  1.2536         calculate D2E/DX2 analytically  !
 ! R11   R(7,8)                  1.3772         calculate D2E/DX2 analytically  !
 ! R12   R(8,9)                  1.2268         calculate D2E/DX2 analytically  !
 ! R13   R(8,10)                 1.361          calculate D2E/DX2 analytically  !
 ! R14   R(10,11)                1.4342         calculate D2E/DX2 analytically  !
 ! R15   R(11,12)                1.5116         calculate D2E/DX2 analytically  !
 ! R16   R(11,25)                1.0952         calculate D2E/DX2 analytically  !
 ! R17   R(11,26)                1.0961         calculate D2E/DX2 analytically  !
 ! R18   R(12,13)                1.4026         calculate D2E/DX2 analytically  !
 ! R19   R(12,17)                1.4036         calculate D2E/DX2 analytically  !
 ! R20   R(13,14)                1.3967         calculate D2E/DX2 analytically  !
 ! R21   R(13,27)                1.0883         calculate D2E/DX2 analytically  !
 ! R22   R(14,15)                1.3932         calculate D2E/DX2 analytically  !
 ! R23   R(14,28)                1.087          calculate D2E/DX2 analytically  !
 ! R24   R(15,16)                1.3927         calculate D2E/DX2 analytically  !
 ! R25   R(15,29)                1.0871         calculate D2E/DX2 analytically  !
 ! R26   R(16,17)                1.3964         calculate D2E/DX2 analytically  !
 ! R27   R(16,30)                1.0871         calculate D2E/DX2 analytically  !
 ! R28   R(17,31)                1.0884         calculate D2E/DX2 analytically  !
 ! R29   R(18,19)                1.3968         calculate D2E/DX2 analytically  !
 ! R30   R(18,32)                1.088          calculate D2E/DX2 analytically  !
 ! R31   R(19,20)                1.3932         calculate D2E/DX2 analytically  !
 ! R32   R(19,33)                1.087          calculate D2E/DX2 analytically  !
 ! R33   R(20,21)                1.3928         calculate D2E/DX2 analytically  !
 ! R34   R(20,34)                1.0869         calculate D2E/DX2 analytically  !
 ! R35   R(21,22)                1.3965         calculate D2E/DX2 analytically  !
 ! R36   R(21,35)                1.0871         calculate D2E/DX2 analytically  !
 ! R37   R(22,36)                1.0881         calculate D2E/DX2 analytically  !
 ! A1    A(2,1,18)             121.5638         calculate D2E/DX2 analytically  !
 ! A2    A(2,1,22)             119.7967         calculate D2E/DX2 analytically  !
 ! A3    A(18,1,22)            118.5847         calculate D2E/DX2 analytically  !
 ! A4    A(1,2,3)              110.6681         calculate D2E/DX2 analytically  !
 ! A5    A(1,2,23)             108.5775         calculate D2E/DX2 analytically  !
 ! A6    A(1,2,24)             109.9653         calculate D2E/DX2 analytically  !
 ! A7    A(3,2,23)             107.5227         calculate D2E/DX2 analytically  !
 ! A8    A(3,2,24)             112.5691         calculate D2E/DX2 analytically  !
 ! A9    A(23,2,24)            107.3774         calculate D2E/DX2 analytically  !
 ! A10   A(2,3,4)              116.8959         calculate D2E/DX2 analytically  !
 ! A11   A(3,4,5)              124.2061         calculate D2E/DX2 analytically  !
 ! A12   A(3,4,6)              109.0454         calculate D2E/DX2 analytically  !
 ! A13   A(5,4,6)              126.7373         calculate D2E/DX2 analytically  !
 ! A14   A(4,6,7)              112.4552         calculate D2E/DX2 analytically  !
 ! A15   A(6,7,8)              112.4347         calculate D2E/DX2 analytically  !
 ! A16   A(7,8,9)              126.7534         calculate D2E/DX2 analytically  !
 ! A17   A(7,8,10)             109.077          calculate D2E/DX2 analytically  !
 ! A18   A(9,8,10)             124.1586         calculate D2E/DX2 analytically  !
 ! A19   A(8,10,11)            116.8672         calculate D2E/DX2 analytically  !
 ! A20   A(10,11,12)           110.7423         calculate D2E/DX2 analytically  !
 ! A21   A(10,11,25)           112.5959         calculate D2E/DX2 analytically  !
 ! A22   A(10,11,26)           107.4928         calculate D2E/DX2 analytically  !
 ! A23   A(12,11,25)           109.9451         calculate D2E/DX2 analytically  !
 ! A24   A(12,11,26)           108.5465         calculate D2E/DX2 analytically  !
 ! A25   A(25,11,26)           107.3518         calculate D2E/DX2 analytically  !
 ! A26   A(11,12,13)           121.6126         calculate D2E/DX2 analytically  !
 ! A27   A(11,12,17)           119.7542         calculate D2E/DX2 analytically  !
 ! A28   A(13,12,17)           118.5787         calculate D2E/DX2 analytically  !
 ! A29   A(12,13,14)           120.6323         calculate D2E/DX2 analytically  !
 ! A30   A(12,13,27)           120.4254         calculate D2E/DX2 analytically  !
 ! A31   A(14,13,27)           118.9413         calculate D2E/DX2 analytically  !
 ! A32   A(13,14,15)           120.1189         calculate D2E/DX2 analytically  !
 ! A33   A(13,14,28)           119.929          calculate D2E/DX2 analytically  !
 ! A34   A(15,14,28)           119.952          calculate D2E/DX2 analytically  !
 ! A35   A(14,15,16)           119.882          calculate D2E/DX2 analytically  !
 ! A36   A(14,15,29)           120.0531         calculate D2E/DX2 analytically  !
 ! A37   A(16,15,29)           120.0646         calculate D2E/DX2 analytically  !
 ! A38   A(15,16,17)           120.0556         calculate D2E/DX2 analytically  !
 ! A39   A(15,16,30)           119.9547         calculate D2E/DX2 analytically  !
 ! A40   A(17,16,30)           119.9896         calculate D2E/DX2 analytically  !
 ! A41   A(12,17,16)           120.6967         calculate D2E/DX2 analytically  !
 ! A42   A(12,17,31)           120.428          calculate D2E/DX2 analytically  !
 ! A43   A(16,17,31)           118.8747         calculate D2E/DX2 analytically  !
 ! A44   A(1,18,19)            120.6236         calculate D2E/DX2 analytically  !
 ! A45   A(1,18,32)            120.419          calculate D2E/DX2 analytically  !
 ! A46   A(19,18,32)           118.9563         calculate D2E/DX2 analytically  !
 ! A47   A(18,19,20)           120.1217         calculate D2E/DX2 analytically  !
 ! A48   A(18,19,33)           119.9228         calculate D2E/DX2 analytically  !
 ! A49   A(20,19,33)           119.9554         calculate D2E/DX2 analytically  !
 ! A50   A(19,20,21)           119.8808         calculate D2E/DX2 analytically  !
 ! A51   A(19,20,34)           120.0522         calculate D2E/DX2 analytically  !
 ! A52   A(21,20,34)           120.0667         calculate D2E/DX2 analytically  !
 ! A53   A(20,21,22)           120.0635         calculate D2E/DX2 analytically  !
 ! A54   A(20,21,35)           119.9527         calculate D2E/DX2 analytically  !
 ! A55   A(22,21,35)           119.9837         calculate D2E/DX2 analytically  !
 ! A56   A(1,22,21)            120.6893         calculate D2E/DX2 analytically  !
 ! A57   A(1,22,36)            120.4331         calculate D2E/DX2 analytically  !
 ! A58   A(21,22,36)           118.8769         calculate D2E/DX2 analytically  !
 ! D1    D(18,1,2,3)            -0.0003         calculate D2E/DX2 analytically  !
 ! D2    D(18,1,2,23)         -117.7929         calculate D2E/DX2 analytically  !
 ! D3    D(18,1,2,24)          124.9922         calculate D2E/DX2 analytically  !
 ! D4    D(22,1,2,3)           177.2713         calculate D2E/DX2 analytically  !
 ! D5    D(22,1,2,23)           59.4788         calculate D2E/DX2 analytically  !
 ! D6    D(22,1,2,24)          -57.7362         calculate D2E/DX2 analytically  !
 ! D7    D(2,1,18,19)          179.4497         calculate D2E/DX2 analytically  !
 ! D8    D(2,1,18,32)           -0.9247         calculate D2E/DX2 analytically  !
 ! D9    D(22,1,18,19)           2.146          calculate D2E/DX2 analytically  !
 ! D10   D(22,1,18,32)        -178.2284         calculate D2E/DX2 analytically  !
 ! D11   D(2,1,22,21)         -179.335          calculate D2E/DX2 analytically  !
 ! D12   D(2,1,22,36)            0.9776         calculate D2E/DX2 analytically  !
 ! D13   D(18,1,22,21)          -1.9824         calculate D2E/DX2 analytically  !
 ! D14   D(18,1,22,36)         178.3302         calculate D2E/DX2 analytically  !
 ! D15   D(1,2,3,4)            -60.7054         calculate D2E/DX2 analytically  !
 ! D16   D(23,2,3,4)            57.7305         calculate D2E/DX2 analytically  !
 ! D17   D(24,2,3,4)           175.7908         calculate D2E/DX2 analytically  !
 ! D18   D(2,3,4,5)             -0.0004         calculate D2E/DX2 analytically  !
 ! D19   D(2,3,4,6)            178.8513         calculate D2E/DX2 analytically  !
 ! D20   D(3,4,6,7)            149.6469         calculate D2E/DX2 analytically  !
 ! D21   D(5,4,6,7)            -31.5382         calculate D2E/DX2 analytically  !
 ! D22   D(4,6,7,8)            178.3141         calculate D2E/DX2 analytically  !
 ! D23   D(6,7,8,9)             29.6471         calculate D2E/DX2 analytically  !
 ! D24   D(6,7,8,10)          -149.1785         calculate D2E/DX2 analytically  !
 ! D25   D(7,8,10,11)          178.8631         calculate D2E/DX2 analytically  !
 ! D26   D(9,8,10,11)            0.0002         calculate D2E/DX2 analytically  !
 ! D27   D(8,10,11,12)         119.9997         calculate D2E/DX2 analytically  !
 ! D28   D(8,10,11,25)          -3.5528         calculate D2E/DX2 analytically  !
 ! D29   D(8,10,11,26)        -121.578          calculate D2E/DX2 analytically  !
 ! D30   D(10,11,12,13)          0.0002         calculate D2E/DX2 analytically  !
 ! D31   D(10,11,12,17)        177.2764         calculate D2E/DX2 analytically  !
 ! D32   D(25,11,12,13)        125.0652         calculate D2E/DX2 analytically  !
 ! D33   D(25,11,12,17)        -57.6587         calculate D2E/DX2 analytically  !
 ! D34   D(26,11,12,13)       -117.7802         calculate D2E/DX2 analytically  !
 ! D35   D(26,11,12,17)         59.496          calculate D2E/DX2 analytically  !
 ! D36   D(11,12,13,14)        179.4391         calculate D2E/DX2 analytically  !
 ! D37   D(11,12,13,27)         -0.9228         calculate D2E/DX2 analytically  !
 ! D38   D(17,12,13,14)          2.1319         calculate D2E/DX2 analytically  !
 ! D39   D(17,12,13,27)       -178.23           calculate D2E/DX2 analytically  !
 ! D40   D(11,12,17,16)       -179.3176         calculate D2E/DX2 analytically  !
 ! D41   D(11,12,17,31)          0.9739         calculate D2E/DX2 analytically  !
 ! D42   D(13,12,17,16)         -1.959          calculate D2E/DX2 analytically  !
 ! D43   D(13,12,17,31)        178.3325         calculate D2E/DX2 analytically  !
 ! D44   D(12,13,14,15)         -0.8839         calculate D2E/DX2 analytically  !
 ! D45   D(12,13,14,28)        179.0846         calculate D2E/DX2 analytically  !
 ! D46   D(27,13,14,15)        179.4727         calculate D2E/DX2 analytically  !
 ! D47   D(27,13,14,28)         -0.5588         calculate D2E/DX2 analytically  !
 ! D48   D(13,14,15,16)         -0.5828         calculate D2E/DX2 analytically  !
 ! D49   D(13,14,15,29)        179.6398         calculate D2E/DX2 analytically  !
 ! D50   D(28,14,15,16)        179.4487         calculate D2E/DX2 analytically  !
 ! D51   D(28,14,15,29)         -0.3287         calculate D2E/DX2 analytically  !
 ! D52   D(14,15,16,17)          0.7557         calculate D2E/DX2 analytically  !
 ! D53   D(14,15,16,30)       -179.3551         calculate D2E/DX2 analytically  !
 ! D54   D(29,15,16,17)       -179.467          calculate D2E/DX2 analytically  !
 ! D55   D(29,15,16,30)          0.4223         calculate D2E/DX2 analytically  !
 ! D56   D(15,16,17,12)          0.5346         calculate D2E/DX2 analytically  !
 ! D57   D(15,16,17,31)       -179.7524         calculate D2E/DX2 analytically  !
 ! D58   D(30,16,17,12)       -179.3546         calculate D2E/DX2 analytically  !
 ! D59   D(30,16,17,31)          0.3584         calculate D2E/DX2 analytically  !
 ! D60   D(1,18,19,20)          -0.886          calculate D2E/DX2 analytically  !
 ! D61   D(1,18,19,33)         179.0819         calculate D2E/DX2 analytically  !
 ! D62   D(32,18,19,20)        179.4829         calculate D2E/DX2 analytically  !
 ! D63   D(32,18,19,33)         -0.5491         calculate D2E/DX2 analytically  !
 ! D64   D(18,19,20,21)         -0.5833         calculate D2E/DX2 analytically  !
 ! D65   D(18,19,20,34)        179.6308         calculate D2E/DX2 analytically  !
 ! D66   D(33,19,20,21)        179.4487         calculate D2E/DX2 analytically  !
 ! D67   D(33,19,20,34)         -0.3372         calculate D2E/DX2 analytically  !
 ! D68   D(19,20,21,22)          0.7471         calculate D2E/DX2 analytically  !
 ! D69   D(19,20,21,35)       -179.3561         calculate D2E/DX2 analytically  !
 ! D70   D(34,20,21,22)       -179.467          calculate D2E/DX2 analytically  !
 ! D71   D(34,20,21,35)          0.4298         calculate D2E/DX2 analytically  !
 ! D72   D(20,21,22,1)           0.5554         calculate D2E/DX2 analytically  !
 ! D73   D(20,21,22,36)       -179.7524         calculate D2E/DX2 analytically  !
 ! D74   D(35,21,22,1)        -179.3414         calculate D2E/DX2 analytically  !
 ! D75   D(35,21,22,36)          0.3508         calculate D2E/DX2 analytically  !
 --------------------------------------------------------------------------------
 Trust Radius=3.00D-01 FncErr=1.00D-07 GrdErr=1.00D-06 EigMax=2.50D+02 EigMin=1.00D-04
 Number of steps in this run=    180 maximum allowed number of steps=    216.
 GradGradGradGradGradGradGradGradGradGradGradGradGradGradGradGradGradGrad

                          Input orientation:                          
 ---------------------------------------------------------------------
 Center     Atomic      Atomic             Coordinates (Angstroms)
 Number     Number       Type             X           Y           Z
 ---------------------------------------------------------------------
      1          6           0       -3.026790   -0.600340    0.429330
      2          6           0       -3.156620    0.014850   -0.945160
      3          8           0       -3.746940    1.319680   -0.862180
      4          6           0       -5.000100    1.396100   -0.337600
      5          8           0       -5.640750    0.429510    0.060660
      6          7           0       -5.396500    2.715300   -0.310600
      7          7           0       -6.637000    2.845200   -0.436400
      8          6           0       -7.036800    4.161500   -0.372200
      9          8           0       -6.384760    5.144080   -0.710490
     10          8           0       -8.287940    4.220930    0.160270
     11          6           0       -8.860030    5.525440    0.327130
     12          6           0      -10.140510    5.653900   -0.465870
     13          6           0      -10.637010    4.593020   -1.237490
     14          6           0      -11.828540    4.730260   -1.953070
     15          6           0      -12.547520    5.921980   -1.891770
     16          6           0      -12.082450    6.973290   -1.105530
     17          6           0      -10.889440    6.838730   -0.392440
     18          6           0       -3.450680    0.079260    1.581040
     19          6           0       -3.331890   -0.512580    2.840670
     20          6           0       -2.805690   -1.796730    2.962960
     21          6           0       -2.409000   -2.495310    1.825210
     22          6           0       -2.523930   -1.903680    0.565480
     23          1           0       -3.824650   -0.611820   -1.546390
     24          1           0       -2.181150    0.025580   -1.443880
     25          1           0       -8.167220    6.327300    0.050480
     26          1           0       -9.094760    5.648690    1.390720
     27          1           0      -10.095330    3.650690   -1.292290
     28          1           0      -12.195150    3.905800   -2.559280
     29          1           0      -13.471800    6.029710   -2.453820
     30          1           0      -12.648000    7.899970   -1.048560
     31          1           0      -10.545980    7.670920    0.219160
     32          1           0       -3.872100    1.079620    1.506670
     33          1           0       -3.650210    0.030260    3.727050
     34          1           0       -2.708200   -2.253840    3.944220
     35          1           0       -2.008010   -3.501400    1.918350
     36          1           0       -2.212020   -2.468450   -0.310760
 ---------------------------------------------------------------------
                    Distance matrix (angstroms):
                    1          2          3          4          5
     1  C    0.000000
     2  C    1.511469   0.000000
     3  O    2.423446   1.434554   0.000000
     4  C    2.909967   2.382310   1.360674   0.000000
     5  O    2.833601   2.711922   2.287040   1.226108   0.000000
     6  N    4.142039   3.565411   2.230032   1.377734   2.328589
     7  N    5.065062   4.514727   3.295595   2.188400   2.659914
     8  C    6.276763   5.707783   4.374837   3.434644   4.008001
     9  O    6.750816   6.065060   4.648348   4.012940   4.834811
    10  O    7.141200   6.726331   5.484828   4.363190   4.625192
    11  C    8.459451   8.032074   6.726557   5.691430   6.033512
    12  C    9.514300   8.989067   7.734356   6.676011   6.915152
    13  C    9.362944   8.775040   7.637321   6.542542   6.631940
    14  C   10.562288   9.922357   8.839364   7.768781   7.800019
    15  C   11.771681  11.134597   9.984560   8.936587   9.037847
    16  C   11.904648  11.318836  10.074882   9.047345   9.256163
    17  C   10.855245  10.327988   9.038577   8.019324   8.296514
    18  C    1.402845   2.544073   2.756036   2.795702   2.688984
    19  C    2.432149   3.826410   4.152173   4.065389   3.734545
    20  C    2.810608   4.321849   5.022913   5.089528   4.627856
    21  C    2.433322   3.812452   4.854513   5.151176   4.702384
    22  C    1.403603   2.522516   3.731490   4.223212   3.925963
    23  H    2.130770   1.095654   2.050579   2.621946   2.639166
    24  H    2.148441   1.095618   2.113000   3.323952   3.794158
    25  H    8.634798   8.120618   6.741519   5.873499   6.416158
    26  H    8.763270   8.512226   7.239825   6.151248   6.398366
    27  H    8.426119   7.841271   6.776478   5.652962   5.661251
    28  H   10.644055   9.971956   8.996689   7.937456   7.868217
    29  H   12.703084  12.035678  10.922024   9.885263   9.950387
    30  H   12.923123  12.339858  11.070855  10.064600  10.302412
    31  H   11.180167  10.703910   9.366669   8.392862   8.747824
    32  H    2.167366   2.767150   2.384270   2.184920   2.375229
    33  H    3.414860   4.698235   4.767913   4.495453   4.190950
    34  H    3.897437   5.408703   6.078693   6.075265   5.557180
    35  H    3.416320   4.677928   5.830784   6.166638   5.665674
    36  H    2.168275   2.731577   4.124315   4.765381   4.504699
                    6          7          8          9         10
     6  N    0.000000
     7  N    1.253611   0.000000
     8  C    2.187664   1.377174   0.000000
     9  O    2.652460   2.328862   1.226809   0.000000
    10  O    3.293792   2.230303   1.361032   2.287471   0.000000
    11  C    4.505511   3.564902   2.381924   2.710914   1.434181
    12  C    5.582572   4.490462   3.445148   3.798080   2.424349
    13  C    5.643395   4.438096   3.727794   4.320072   2.758680
    14  C    6.937500   5.727637   5.077737   5.599106   4.154693
    15  C    7.994997   6.820478   5.981339   6.322987   5.024785
    16  C    7.966450   6.865988   5.822587   5.997144   4.855517
    17  C    6.868898   5.833820   4.691567   4.823395   3.731778
    18  C    3.783282   4.676871   5.774088   6.285884   6.524653
    19  C    4.961081   5.739131   6.774652   7.343606   7.358878
    20  C    6.147106   6.912460   8.032813   8.630111   8.609435
    21  C    6.374739   7.177180   8.399897   8.977568   9.079749
    22  C    5.509460   6.361837   7.617851   8.136647   8.420146
    23  H    3.881703   4.592644   5.872071   6.354784   6.796258
    24  H    4.342510   5.368414   6.467741   6.663876   7.580709
    25  H    4.566597   3.834533   2.479354   2.270737   2.112681
    26  H    5.017608   4.151928   3.091087   3.466095   2.050235
    27  H    4.890570   3.652589   3.234517   4.041910   2.387836
    28  H    7.259166   6.043552   5.608679   6.221896   4.770907
    29  H    8.988280   7.805484   7.016593   7.351848   6.080917
    30  H    8.944811   7.877662   6.776370   6.851087   5.831529
    31  H    7.166307   6.244794   4.998008   4.956301   4.123669
    32  H    2.881270   3.812803   4.800361   5.267741   5.583929
    33  H    5.153793   5.846291   6.733497   7.302101   7.196678
    34  H    7.072680   7.786238   8.861425   9.482228   9.347429
    35  H    7.422765   8.200715   9.447507  10.040471  10.107559
    36  H    6.083763   6.916004   8.199909   8.690348   9.049115
                   11         12         13         14         15
    11  C    0.000000
    12  C    1.511615   0.000000
    13  C    2.544622   1.402632   0.000000
    14  C    3.826705   2.431937   1.396651   0.000000
    15  C    4.321845   2.810472   2.417492   1.393157   0.000000
    16  C    3.812188   2.433328   2.787902   2.411219   1.392737
    17  C    2.522106   1.403606   2.412684   2.786238   2.416123
    18  C    7.777804   8.945405   8.942118  10.213240  11.355628
    19  C    8.563638   9.762991   9.801190  11.075214  12.195384
    20  C    9.859858  11.003106  10.945422  12.172952  13.343543
    21  C   10.401561  11.464507  11.283825  12.458411  13.691468
    22  C    9.767026  10.779285  10.548928  11.701625  12.951887
    23  H    8.156659   8.961967   8.578696   9.631483  10.904049
    24  H    8.831329   9.797239   9.612787  10.745484  11.934394
    25  H    1.095217   2.148013   3.281228   4.468782   4.808705
    26  H    1.096135   2.130856   3.224975   4.415654   4.771895
    27  H    2.768244   2.167455   1.088304   2.146187   3.395787
    28  H    4.698683   3.414640   2.155737   1.087027   2.152839
    29  H    5.408918   3.897521   3.402877   2.153979   1.087106
    30  H    4.677567   3.416411   3.875009   3.396574   2.152567
    31  H    2.730782   2.168419   3.406403   3.874406   3.394257
    32  H    6.784989   8.006742   8.101753   9.412859  10.500512
    33  H    8.300523   9.556668   9.709831  11.010851  12.060084
    34  H   10.556777  11.714114  11.687414  12.912640  14.061118
    35  H   11.444038  12.475639  12.244942  13.386222  14.642349
    36  H   10.416584  11.351545  11.031937  12.124193  13.406024
                   16         17         18         19         20
    16  C    0.000000
    17  C    1.396380   0.000000
    18  C   11.368938  10.243057   0.000000
    19  C   12.173046  11.027752   1.396801   0.000000
    20  C   13.398662  12.295401   2.417655   1.393156   0.000000
    21  C   13.849883  12.804692   2.788033   2.411245   1.392786
    22  C   13.151356  12.137920   2.412940   2.786476   2.416348
    23  H   11.221386  10.332161   3.224634   4.415762   4.772476
    24  H   12.100450  11.106703   3.280965   4.468913   4.809481
    25  H    4.133121   2.805035   7.976614   8.828903  10.160138
    26  H    4.112435   2.795842   7.931608   8.560039   9.872113
    27  H    3.875977   3.406456   8.072330   8.953117  10.045914
    28  H    3.396408   3.873261  10.404346  11.280023  12.295363
    29  H    2.153723   3.401821  12.333321  13.177669  14.295474
    30  H    1.087119   2.156214  12.355930  13.141043  14.387124
    31  H    2.145281   1.088375  10.480043  11.219852  12.533033
    32  H   10.438811   9.274537   1.088047   2.146272   3.395792
    33  H   11.944127  10.757877   2.155823   1.087048   2.152891
    34  H   14.089587  12.977447   3.402830   2.153787   1.086888
    35  H   14.844437  13.825261   3.875074   3.396524   2.152534
    36  H   13.682233  12.725089   3.406466   3.874409   3.394244
                   21         22         23         24         25
    21  C    0.000000
    22  C    1.396479   0.000000
    23  H    4.113306   2.796564   0.000000
    24  H    4.134459   2.806612   1.765752   0.000000
    25  H   10.683876   9.993047   8.340221   8.819173   0.000000
    26  H   10.545753  10.044656   8.694519   9.351595   1.765527
    27  H   10.323361   9.572274   7.586500   8.706242   3.561584
    28  H   12.488663  11.706694   9.565569  10.797241   5.375754
    29  H   14.607245  13.853184  11.747376  12.827639   5.873555
    30  H   14.871366  14.184973  12.269878  13.104093   4.874276
    31  H   13.120292  12.495847  10.811902  11.453703   2.737201
    32  H    3.875855   3.406388   3.490615   3.560345   6.935899
    33  H    3.396484   3.873520   5.315248   5.375563   8.577486
    34  H    2.153609   3.401831   5.838620   5.874109  10.890274
    35  H    1.087053   2.156186   4.863566   4.875875  11.748538
    36  H    2.145202   1.088140   2.752169   2.739544  10.628270
                   26         27         28         29         30
    26  H    0.000000
    27  H    3.491660   0.000000
    28  H    5.315316   2.465682   0.000000
    29  H    5.838163   4.290622   2.480313   0.000000
    30  H    4.862496   4.963054   4.294269   2.480176   0.000000
    31  H    2.751001   4.318543   4.961413   4.289384   2.465373
    32  H    6.940175   7.291994   9.684648  11.504048  11.404508
    33  H    8.165067   8.935371  11.293970  13.063697  12.872413
    34  H   10.476569  10.809912  13.047563  15.013567  15.060788
    35  H   11.585533  11.263452  13.367633  15.536293  15.874608
    36  H   10.777528  10.027654  12.056110  14.268640  14.729500
                   31         32         33         34         35
    31  H    0.000000
    32  H    9.468030   0.000000
    33  H   10.873666   2.465863   0.000000
    34  H   13.183616   4.290486   2.480254   0.000000
    35  H   14.163506   4.962868   4.294280   2.480085   0.000000
    36  H   13.135544   4.318300   4.961436   4.289185   2.465266
                   36
    36  H    0.000000
 Stoichiometry    C16H14N2O4
 Framework group  C1[X(C16H14N2O4)]
 Deg. of freedom   102
 Full point group                 C1      NOp   1
 Largest Abelian subgroup         C1      NOp   1
 Largest concise Abelian subgroup C1      NOp   1
                         Standard orientation:                         
 ---------------------------------------------------------------------
 Center     Atomic      Atomic             Coordinates (Angstroms)
 Number     Number       Type             X           Y           Z
 ---------------------------------------------------------------------
      1          6           0        4.745360   -0.517614    0.054392
      2          6           0        3.977412   -1.790725   -0.217601
      3          8           0        2.720621   -1.499696   -0.845075
      4          6           0        1.849548   -0.721807   -0.146823
      5          8           0        2.075121   -0.264371    0.968170
      6          7           0        0.715846   -0.524816   -0.904494
      7          7           0       -0.311424   -0.380634   -0.200600
      8          6           0       -1.438276   -0.146829   -0.957005
      9          8           0       -1.653558   -0.547049   -2.096539
     10          8           0       -2.295369    0.637204   -0.247716
     11          6           0       -3.521522    1.006267   -0.893638
     12          6           0       -4.712163    0.507619   -0.107061
     13          6           0       -4.555568   -0.212828    1.086174
     14          6           0       -5.670339   -0.653862    1.802698
     15          6           0       -6.954277   -0.364758    1.345743
     16          6           0       -7.125061    0.375860    0.178681
     17          6           0       -6.011415    0.814335   -0.540629
     18          6           0        4.228332    0.739875   -0.291120
     19          6           0        4.949950    1.904764   -0.020281
     20          6           0        6.187441    1.828769    0.615112
     21          6           0        6.699311    0.589297    0.991344
     22          6           0        5.980666   -0.576507    0.718207
     23          1           0        3.763053   -2.280190    0.738920
     24          1           0        4.592208   -2.479746   -0.807224
     25          1           0       -3.578328    0.645636   -1.926217
     26          1           0       -3.559641    2.101225   -0.927219
     27          1           0       -3.561471   -0.442020    1.465184
     28          1           0       -5.535713   -1.224151    2.718272
     29          1           0       -7.821237   -0.713586    1.901170
     30          1           0       -8.126365    0.611093   -0.173293
     31          1           0       -6.167051    1.395219   -1.447773
     32          1           0        3.260016    0.821861   -0.780497
     33          1           0        4.545200    2.872229   -0.306395
     34          1           0        6.750730    2.735457    0.819923
     35          1           0        7.659960    0.529497    1.496580
     36          1           0        6.396773   -1.534208    1.024334
 ---------------------------------------------------------------------
 Rotational constants (GHZ):           0.9490174           0.0820150           0.0816888
 Standard basis: 6-31G(d) (6D, 7F)
 There are   358 symmetry adapted cartesian basis functions of A   symmetry.
 There are   358 symmetry adapted basis functions of A   symmetry.
   358 basis functions,   672 primitive gaussians,   358 cartesian basis functions
    78 alpha electrons       78 beta electrons
       nuclear repulsion energy      1584.1556161210 Hartrees.
 NAtoms=   36 NActive=   36 NUniq=   36 SFac= 1.00D+00 NAtFMM=   60 NAOKFM=F Big=F
 Integral buffers will be    131072 words long.
 Raffenetti 2 integral format.
 Two-electron integral symmetry is turned on.
 One-electron integrals computed using PRISM.
 NBasis=   358 RedAO= T EigKep=  4.64D-04  NBF=   358
 NBsUse=   358 1.00D-06 EigRej= -1.00D+00 NBFU=   358
 ExpMin= 1.61D-01 ExpMax= 5.48D+03 ExpMxC= 8.25D+02 IAcc=3 IRadAn=         5 AccDes= 0.00D+00
 Harris functional with IExCor=  402 and IRadAn=       5 diagonalized for initial guess.
 HarFok:  IExCor=  402 AccDes= 0.00D+00 IRadAn=         5 IDoV= 1 UseB2=F ITyADJ=14
 ICtDFT=  3500011 ScaDFX=  1.000000  1.000000  1.000000  1.000000
 FoFCou: FMM=F IPFlag=           0 FMFlag=      100000 FMFlg1=           0
         NFxFlg=           0 DoJE=T BraDBF=F KetDBF=T FulRan=T
         wScrn=  0.000000 ICntrl=       500 IOpCl=  0 I1Cent=   200000004 NGrid=           0
         NMat0=    1 NMatS0=      1 NMatT0=    0 NMatD0=    1 NMtDS0=    0 NMtDT0=    0
 Petite list used in FoFCou.
 Gradient too large for Newton-Raphson -- use scaled steepest descent instead.
     Minimum is close to point  2 DX=  2.34D-02 DF= -2.27D-03 DXR=  7.25D-02 DFR=  5.28D-03 which will be used.
 Gradient too large for Newton-Raphson -- use scaled steepest descent instead.
     Minimum is close to point  3 DX= -2.69D-02 DF= -2.20D-04 DXR=  5.68D-02 DFR=  3.19D-03 which will be used.
 Gradient too large for Newton-Raphson -- use scaled steepest descent instead.
     Accept linear search using points  1 and  2.
 Gradient too large for Newton-Raphson -- use scaled steepest descent instead.
 Gradient too large for Newton-Raphson -- use scaled steepest descent instead.
     Accept linear search using points  1 and  2.
 Gradient too large for Newton-Raphson -- use scaled steepest descent instead.
     Minimum is close to point  2 DX=  2.93D-02 DF= -5.18D-07 DXR=  4.66D-02 DFR=  2.18D-03 which will be used.
 Gradient too large for Newton-Raphson -- use scaled steepest descent instead.
     Accept linear search using points  1 and  2.
 LinEq1:  Iter=  0 NonCon=     1 RMS=4.47D-05 Max=2.19D-03 NDo=     1
 AX will form     1 AO Fock derivatives at one time.
 LinEq1:  Iter=  1 NonCon=     1 RMS=4.02D-05 Max=2.25D-03 NDo=     1
 LinEq1:  Iter=  2 NonCon=     1 RMS=1.23D-05 Max=7.91D-04 NDo=     1
 LinEq1:  Iter=  3 NonCon=     1 RMS=1.04D-05 Max=4.81D-04 NDo=     1
 LinEq1:  Iter=  4 NonCon=     1 RMS=4.49D-06 Max=3.16D-04 NDo=     1
 LinEq1:  Iter=  5 NonCon=     1 RMS=3.35D-06 Max=1.94D-04 NDo=     1
 LinEq1:  Iter=  6 NonCon=     1 RMS=1.99D-06 Max=8.55D-05 NDo=     1
 LinEq1:  Iter=  7 NonCon=     1 RMS=1.64D-06 Max=6.13D-05 NDo=     1
 LinEq1:  Iter=  8 NonCon=     1 RMS=1.44D-06 Max=5.97D-05 NDo=     1
 LinEq1:  Iter=  9 NonCon=     1 RMS=1.00D-06 Max=3.33D-05 NDo=     1
 LinEq1:  Iter= 10 NonCon=     1 RMS=5.42D-07 Max=2.73D-05 NDo=     1
 LinEq1:  Iter= 11 NonCon=     1 RMS=3.68D-07 Max=1.44D-05 NDo=     1
 LinEq1:  Iter= 12 NonCon=     1 RMS=2.75D-07 Max=1.30D-05 NDo=     1
 LinEq1:  Iter= 13 NonCon=     1 RMS=1.85D-07 Max=6.54D-06 NDo=     1
 LinEq1:  Iter= 14 NonCon=     1 RMS=9.37D-08 Max=4.37D-06 NDo=     1
 LinEq1:  Iter= 15 NonCon=     1 RMS=7.04D-08 Max=3.64D-06 NDo=     1
 LinEq1:  Iter= 16 NonCon=     1 RMS=3.92D-08 Max=1.69D-06 NDo=     1
 LinEq1:  Iter= 17 NonCon=     1 RMS=1.96D-08 Max=7.73D-07 NDo=     1
 LinEq1:  Iter= 18 NonCon=     1 RMS=8.50D-09 Max=2.62D-07 NDo=     1
 LinEq1:  Iter= 19 NonCon=     1 RMS=5.07D-09 Max=2.31D-07 NDo=     1
 LinEq1:  Iter= 20 NonCon=     0 RMS=2.50D-09 Max=8.27D-08 NDo=     1
 Linear equations converged to 2.090D-08 2.090D-07 after    20 iterations.
     Accept linear search using points  1 and  2.
     Minimum is close to point  2 DX= -9.24D-04 DF= -3.27D-11 DXR=  9.25D-04 DFR=  8.57D-07 which will be used.
 LinEq1:  Iter=  0 NonCon=     1 RMS=2.00D-07 Max=1.54D-05 NDo=     1
 LinEq1:  Iter=  1 NonCon=     1 RMS=1.57D-07 Max=8.45D-06 NDo=     1
 LinEq1:  Iter=  2 NonCon=     1 RMS=1.31D-07 Max=5.34D-06 NDo=     1
 LinEq1:  Iter=  3 NonCon=     1 RMS=6.93D-08 Max=2.73D-06 NDo=     1
 LinEq1:  Iter=  4 NonCon=     1 RMS=5.02D-08 Max=3.18D-06 NDo=     1
 LinEq1:  Iter=  5 NonCon=     1 RMS=2.87D-08 Max=1.40D-06 NDo=     1
 LinEq1:  Iter=  6 NonCon=     1 RMS=2.48D-08 Max=1.02D-06 NDo=     1
 LinEq1:  Iter=  7 NonCon=     1 RMS=1.99D-08 Max=8.52D-07 NDo=     1
 LinEq1:  Iter=  8 NonCon=     1 RMS=1.45D-08 Max=6.41D-07 NDo=     1
 LinEq1:  Iter=  9 NonCon=     1 RMS=9.46D-09 Max=6.02D-07 NDo=     1
 LinEq1:  Iter= 10 NonCon=     1 RMS=6.18D-09 Max=4.03D-07 NDo=     1
 LinEq1:  Iter= 11 NonCon=     1 RMS=3.37D-09 Max=1.97D-07 NDo=     1
 LinEq1:  Iter= 12 NonCon=     1 RMS=1.93D-09 Max=7.96D-08 NDo=     1
 LinEq1:  Iter= 13 NonCon=     1 RMS=1.33D-09 Max=3.86D-08 NDo=     1
 LinEq1:  Iter= 14 NonCon=     1 RMS=1.11D-09 Max=3.59D-08 NDo=     1
 LinEq1:  Iter= 15 NonCon=     1 RMS=5.06D-10 Max=1.49D-08 NDo=     1
 LinEq1:  Iter= 16 NonCon=     1 RMS=4.23D-10 Max=1.33D-08 NDo=     1
 LinEq1:  Iter= 17 NonCon=     1 RMS=1.88D-10 Max=6.61D-09 NDo=     1
 LinEq1:  Iter= 18 NonCon=     1 RMS=9.14D-11 Max=2.92D-09 NDo=     1
 LinEq1:  Iter= 19 NonCon=     0 RMS=4.63D-11 Max=1.41D-09 NDo=     1
 Linear equations converged to 2.176D-10 2.176D-09 after    19 iterations.
 SCF Done:  E(RB3LYP) =  -1028.44769873     a.u. after   10 cycles
            Convg  =    0.4282D-09                    58 Fock formations.
              S**2 =  0.0000                  -V/T =  2.0092
 DoSCS=F DFT=T ScalE2(SS,OS)=  1.000000  1.000000
 Range of M.O.s used for correlation:     1   358
 NBasis=   358 NAE=    78 NBE=    78 NFC=     0 NFV=     0
 NROrb=    358 NOA=    78 NOB=    78 NVA=   280 NVB=   280

 **** Warning!!: The smallest alpha delta epsilon is  0.99452369D-01

 Symmetrizing basis deriv contribution to polar:
 IMax=3 JMax=2 DiffMx= 0.00D+00
 G2DrvN: will do    37 centers at a time, making    1 passes.
 Calling FoFCou, ICntrl=  3107 FMM=F I1Cent=   0 AccDes= 0.00D+00.
 End of G2Drv F.D. properties file   721 does not exist.
 End of G2Drv F.D. properties file   722 does not exist.
 End of G2Drv F.D. properties file   788 does not exist.
          IDoAtm=111111111111111111111111111111111111
          Differentiating once with respect to electric field.
                with respect to dipole field.
          Differentiating once with respect to nuclear coordinates.
 CalDSu exits because no D1Ps are significant.
          There are   111 degrees of freedom in the 1st order CPHF.  IDoFFX=6 NUNeed=     3.
    108 vectors produced by pass  0 Test12= 2.18D-14 1.00D-09 XBig12= 2.63D+02 5.99D+00.
 AX will form   108 AO Fock derivatives at one time.
    108 vectors produced by pass  1 Test12= 2.18D-14 1.00D-09 XBig12= 5.70D+01 1.62D+00.
    108 vectors produced by pass  2 Test12= 2.18D-14 1.00D-09 XBig12= 1.13D+00 2.94D-01.
    108 vectors produced by pass  3 Test12= 2.18D-14 1.00D-09 XBig12= 1.12D-02 1.19D-02.
    108 vectors produced by pass  4 Test12= 2.18D-14 1.00D-09 XBig12= 2.53D-05 5.30D-04.
     94 vectors produced by pass  5 Test12= 2.18D-14 1.00D-09 XBig12= 3.31D-08 1.71D-05.
     22 vectors produced by pass  6 Test12= 2.18D-14 1.00D-09 XBig12= 3.36D-11 3.43D-07.
      3 vectors produced by pass  7 Test12= 2.18D-14 1.00D-09 XBig12= 3.02D-14 1.28D-08.
 InvSVY:  IOpt=1 It=  1 EMax= 2.13D-14
 Solved reduced A of dimension   659 with   111 vectors.
 Isotropic polarizability for W=    0.000000      190.57 Bohr**3.
 End of Minotr F.D. properties file   721 does not exist.
 End of Minotr F.D. properties file   722 does not exist.
 End of Minotr F.D. properties file   788 does not exist.

 **********************************************************************

            Population analysis using the SCF density.

 **********************************************************************

 Orbital symmetries:
       Occupied  (A) (A) (A) (A) (A) (A) (A) (A) (A) (A) (A) (A)
                 (A) (A) (A) (A) (A) (A) (A) (A) (A) (A) (A) (A)
                 (A) (A) (A) (A) (A) (A) (A) (A) (A) (A) (A) (A)
                 (A) (A) (A) (A) (A) (A) (A) (A) (A) (A) (A) (A)
                 (A) (A) (A) (A) (A) (A) (A) (A) (A) (A) (A) (A)
                 (A) (A) (A) (A) (A) (A) (A) (A) (A) (A) (A) (A)
                 (A) (A) (A) (A) (A) (A)
       Virtual   (A) (A) (A) (A) (A) (A) (A) (A) (A) (A) (A) (A)
                 (A) (A) (A) (A) (A) (A) (A) (A) (A) (A) (A) (A)
                 (A) (A) (A) (A) (A) (A) (A) (A) (A) (A) (A) (A)
                 (A) (A) (A) (A) (A) (A) (A) (A) (A) (A) (A) (A)
                 (A) (A) (A) (A) (A) (A) (A) (A) (A) (A) (A) (A)
                 (A) (A) (A) (A) (A) (A) (A) (A) (A) (A) (A) (A)
                 (A) (A) (A) (A) (A) (A) (A) (A) (A) (A) (A) (A)
                 (A) (A) (A) (A) (A) (A) (A) (A) (A) (A) (A) (A)
                 (A) (A) (A) (A) (A) (A) (A) (A) (A) (A) (A) (A)
                 (A) (A) (A) (A) (A) (A) (A) (A) (A) (A) (A) (A)
                 (A) (A) (A) (A) (A) (A) (A) (A) (A) (A) (A) (A)
                 (A) (A) (A) (A) (A) (A) (A) (A) (A) (A) (A) (A)
                 (A) (A) (A) (A) (A) (A) (A) (A) (A) (A) (A) (A)
                 (A) (A) (A) (A) (A) (A) (A) (A) (A) (A) (A) (A)
                 (A) (A) (A) (A) (A) (A) (A) (A) (A) (A) (A) (A)
                 (A) (A) (A) (A) (A) (A) (A) (A) (A) (A) (A) (A)
                 (A) (A) (A) (A) (A) (A) (A) (A) (A) (A) (A) (A)
                 (A) (A) (A) (A) (A) (A) (A) (A) (A) (A) (A) (A)
                 (A) (A) (A) (A) (A) (A) (A) (A) (A) (A) (A) (A)
                 (A) (A) (A) (A) (A) (A) (A) (A) (A) (A) (A) (A)
                 (A) (A) (A) (A) (A) (A) (A) (A) (A) (A) (A) (A)
                 (A) (A) (A) (A) (A) (A) (A) (A) (A) (A) (A) (A)
                 (A) (A) (A) (A) (A) (A) (A) (A) (A) (A) (A) (A)
                 (A) (A) (A) (A)
 The electronic state is 1-A.
 Alpha  occ. eigenvalues --  -19.22040 -19.21855 -19.16379 -19.16164 -14.43734
 Alpha  occ. eigenvalues --  -14.43677 -10.36158 -10.35941 -10.26606 -10.26033
 Alpha  occ. eigenvalues --  -10.20700 -10.20475 -10.19615 -10.19428 -10.19391
 Alpha  occ. eigenvalues --  -10.19234 -10.19175 -10.19146 -10.19119 -10.19078
 Alpha  occ. eigenvalues --  -10.18979 -10.18829  -1.14821  -1.12883  -1.07888
 Alpha  occ. eigenvalues --   -1.03742  -1.02716  -0.86344  -0.85835  -0.84416
 Alpha  occ. eigenvalues --   -0.78764  -0.77170  -0.74698  -0.74550  -0.72398
 Alpha  occ. eigenvalues --   -0.69840  -0.64179  -0.61280  -0.60897  -0.60005
 Alpha  occ. eigenvalues --   -0.58387  -0.56473  -0.54824  -0.53337  -0.52402
 Alpha  occ. eigenvalues --   -0.51205  -0.50792  -0.49453  -0.47981  -0.47647
 Alpha  occ. eigenvalues --   -0.46926  -0.46250  -0.45721  -0.44799  -0.44229
 Alpha  occ. eigenvalues --   -0.43977  -0.43104  -0.42217  -0.42169  -0.41127
 Alpha  occ. eigenvalues --   -0.38805  -0.38486  -0.37811  -0.35811  -0.35587
 Alpha  occ. eigenvalues --   -0.35454  -0.35116  -0.34524  -0.34346  -0.32601
 Alpha  occ. eigenvalues --   -0.31917  -0.31831  -0.29811  -0.27412  -0.25286
 Alpha  occ. eigenvalues --   -0.24865  -0.24654  -0.24117
 Alpha virt. eigenvalues --   -0.14172  -0.00737  -0.00452  -0.00132   0.00008
 Alpha virt. eigenvalues --    0.00306   0.03739   0.09285   0.09310   0.09598
 Alpha virt. eigenvalues --    0.11007   0.11377   0.11773   0.13397   0.13435
 Alpha virt. eigenvalues --    0.14251   0.14534   0.15381   0.15536   0.18145
 Alpha virt. eigenvalues --    0.18286   0.18718   0.19136   0.19577   0.19951
 Alpha virt. eigenvalues --    0.22208   0.23107   0.23715   0.24697   0.28333
 Alpha virt. eigenvalues --    0.29103   0.30073   0.30224   0.30602   0.30726
 Alpha virt. eigenvalues --    0.32413   0.32857   0.33505   0.34475   0.35274
 Alpha virt. eigenvalues --    0.40475   0.40899   0.45559   0.46230   0.47652
 Alpha virt. eigenvalues --    0.49404   0.50436   0.51898   0.52482   0.52961
 Alpha virt. eigenvalues --    0.53092   0.53684   0.54595   0.55448   0.55837
 Alpha virt. eigenvalues --    0.56488   0.57234   0.57811   0.58598   0.59051
 Alpha virt. eigenvalues --    0.59324   0.59605   0.59892   0.60421   0.60885
 Alpha virt. eigenvalues --    0.61055   0.61102   0.61530   0.61776   0.62261
 Alpha virt. eigenvalues --    0.63018   0.63367   0.64034   0.65065   0.66080
 Alpha virt. eigenvalues --    0.66681   0.66839   0.66944   0.67939   0.68746
 Alpha virt. eigenvalues --    0.70259   0.72161   0.72625   0.74355   0.75220
 Alpha virt. eigenvalues --    0.75996   0.78549   0.79283   0.81726   0.82296
 Alpha virt. eigenvalues --    0.82392   0.82945   0.83298   0.83788   0.84023
 Alpha virt. eigenvalues --    0.84519   0.85047   0.85355   0.86343   0.87078
 Alpha virt. eigenvalues --    0.87676   0.88987   0.90377   0.91521   0.91936
 Alpha virt. eigenvalues --    0.92832   0.93731   0.93970   0.94977   0.96053
 Alpha virt. eigenvalues --    0.96906   0.99492   0.99712   1.01593   1.02225
 Alpha virt. eigenvalues --    1.02920   1.05756   1.06127   1.07836   1.08388
 Alpha virt. eigenvalues --    1.10250   1.11654   1.12588   1.13345   1.13575
 Alpha virt. eigenvalues --    1.14660   1.16499   1.17274   1.18882   1.19492
 Alpha virt. eigenvalues --    1.20758   1.22753   1.24072   1.25749   1.26000
 Alpha virt. eigenvalues --    1.28924   1.30818   1.34178   1.36566   1.37878
 Alpha virt. eigenvalues --    1.40094   1.41378   1.42339   1.43170   1.44292
 Alpha virt. eigenvalues --    1.45034   1.45493   1.47542   1.47896   1.48119
 Alpha virt. eigenvalues --    1.48761   1.49194   1.50115   1.50802   1.51058
 Alpha virt. eigenvalues --    1.53542   1.54252   1.57856   1.60340   1.62431
 Alpha virt. eigenvalues --    1.64317   1.68754   1.69260   1.70887   1.71926
 Alpha virt. eigenvalues --    1.75504   1.77333   1.77942   1.78387   1.79222
 Alpha virt. eigenvalues --    1.79486   1.81100   1.81633   1.82735   1.83425
 Alpha virt. eigenvalues --    1.85299   1.86101   1.87192   1.88094   1.89217
 Alpha virt. eigenvalues --    1.89625   1.90984   1.91128   1.92509   1.94107
 Alpha virt. eigenvalues --    1.96990   1.97871   1.98919   2.01186   2.01820
 Alpha virt. eigenvalues --    2.03419   2.04490   2.05485   2.05807   2.07393
 Alpha virt. eigenvalues --    2.08591   2.09782   2.12703   2.13892   2.14631
 Alpha virt. eigenvalues --    2.15036   2.15494   2.16331   2.16758   2.18496
 Alpha virt. eigenvalues --    2.20883   2.22400   2.24526   2.25032   2.25297
 Alpha virt. eigenvalues --    2.25725   2.29732   2.30563   2.31395   2.33627
 Alpha virt. eigenvalues --    2.34555   2.36778   2.37757   2.39275   2.39472
 Alpha virt. eigenvalues --    2.41454   2.44841   2.49220   2.50864   2.57330
 Alpha virt. eigenvalues --    2.58136   2.58681   2.59027   2.62592   2.62842
 Alpha virt. eigenvalues --    2.64885   2.65315   2.66528   2.67721   2.70677
 Alpha virt. eigenvalues --    2.71336   2.72281   2.73042   2.73949   2.74333
 Alpha virt. eigenvalues --    2.76131   2.77835   2.79707   2.80798   2.82554
 Alpha virt. eigenvalues --    2.84623   2.86999   2.87361   2.92351   2.95933
 Alpha virt. eigenvalues --    3.04991   3.05212   3.08656   3.11248   3.20069
 Alpha virt. eigenvalues --    3.24971   3.40479   3.40702   3.78067   3.91224
 Alpha virt. eigenvalues --    4.01698   4.02935   4.08706   4.09469   4.11146
 Alpha virt. eigenvalues --    4.11631   4.12690   4.19311   4.23413   4.24841
 Alpha virt. eigenvalues --    4.27484   4.28510   4.32661   4.33694   4.35345
 Alpha virt. eigenvalues --    4.37590   4.43891   4.46625   4.69440   4.70246
          Condensed to atoms (all electrons):
               1          2          3          4          5          6
     1  C    4.760495   0.324581  -0.032041  -0.003591  -0.005651  -0.000261
     2  C    0.324581   4.991246   0.206376  -0.025301   0.005989   0.004504
     3  O   -0.032041   0.206376   8.225901   0.270611  -0.078031  -0.090415
     4  C   -0.003591  -0.025301   0.270611   4.323745   0.503496   0.221455
     5  O   -0.005651   0.005989  -0.078031   0.503496   8.074494  -0.073019
     6  N   -0.000261   0.004504  -0.090415   0.221455  -0.073019   6.951116
     7  N   -0.000007  -0.000139   0.002374  -0.053623  -0.000545   0.247434
     8  C    0.000000   0.000003  -0.000188   0.006261   0.000029  -0.052295
     9  O   -0.000000   0.000000   0.000005   0.000172  -0.000005  -0.000531
    10  O    0.000000  -0.000000   0.000000  -0.000179   0.000007   0.002097
    11  C   -0.000000   0.000000  -0.000000   0.000001   0.000000  -0.000151
    12  C   -0.000000  -0.000000  -0.000000   0.000000  -0.000000  -0.000002
    13  C    0.000000  -0.000000  -0.000000  -0.000000  -0.000000   0.000002
    14  C   -0.000000   0.000000  -0.000000  -0.000000   0.000000   0.000000
    15  C   -0.000000   0.000000   0.000000  -0.000000   0.000000  -0.000000
    16  C    0.000000  -0.000000  -0.000000  -0.000000   0.000000  -0.000000
    17  C   -0.000000   0.000000   0.000000   0.000000  -0.000000   0.000000
    18  C    0.555700  -0.062589  -0.002379   0.009394  -0.007250  -0.002687
    19  C   -0.020230   0.006404   0.000751  -0.000365  -0.000892  -0.000021
    20  C   -0.036517   0.000442  -0.000013  -0.000015  -0.000018   0.000000
    21  C   -0.014760   0.004969  -0.000060  -0.000032   0.000053  -0.000000
    22  C    0.525695  -0.058999   0.002081   0.000354  -0.001311  -0.000007
    23  H   -0.042078   0.358922  -0.033802  -0.006097   0.009137   0.000017
    24  H   -0.034241   0.368364  -0.023197   0.003976   0.000194  -0.000058
    25  H    0.000000  -0.000000  -0.000000   0.000000   0.000000   0.000001
    26  H    0.000000  -0.000000   0.000000  -0.000000   0.000000   0.000017
    27  H   -0.000000   0.000000   0.000000  -0.000001   0.000000   0.000006
    28  H    0.000000  -0.000000   0.000000   0.000000  -0.000000   0.000000
    29  H    0.000000   0.000000  -0.000000   0.000000  -0.000000  -0.000000
    30  H    0.000000   0.000000   0.000000   0.000000  -0.000000   0.000000
    31  H    0.000000   0.000000   0.000000   0.000000  -0.000000   0.000000
    32  H   -0.049026  -0.013122   0.000409   0.007614  -0.011067   0.001667
    33  H    0.003951  -0.000202   0.000007   0.000042  -0.000003  -0.000003
    34  H    0.000847   0.000011   0.000000  -0.000000   0.000000   0.000000
    35  H    0.003702  -0.000156   0.000000   0.000000  -0.000000   0.000000
    36  H   -0.056271  -0.007305   0.000055   0.000001  -0.000017  -0.000000
               7          8          9         10         11         12
     1  C   -0.000007   0.000000  -0.000000   0.000000  -0.000000  -0.000000
     2  C   -0.000139   0.000003   0.000000  -0.000000   0.000000  -0.000000
     3  O    0.002374  -0.000188   0.000005   0.000000  -0.000000  -0.000000
     4  C   -0.053623   0.006261   0.000172  -0.000179   0.000001   0.000000
     5  O   -0.000545   0.000029  -0.000005   0.000007   0.000000  -0.000000
     6  N    0.247434  -0.052295  -0.000531   0.002097  -0.000151  -0.000002
     7  N    6.916591   0.244633  -0.074417  -0.088116   0.003460  -0.000110
     8  C    0.244633   4.242946   0.541378   0.285421  -0.019602  -0.001508
     9  O   -0.074417   0.541378   8.028264  -0.076440  -0.009313  -0.000382
    10  O   -0.088116   0.285421  -0.076440   8.213514   0.192050  -0.029775
    11  C    0.003460  -0.019602  -0.009313   0.192050   5.033317   0.340408
    12  C   -0.000110  -0.001508  -0.000382  -0.029775   0.340408   4.735220
    13  C   -0.000306   0.000977   0.000121  -0.004492  -0.062441   0.555578
    14  C   -0.000001  -0.000006   0.000001   0.000335   0.006342  -0.020425
    15  C    0.000000  -0.000001  -0.000000  -0.000003   0.000381  -0.035958
    16  C   -0.000000  -0.000000   0.000000  -0.000063   0.005077  -0.012245
    17  C    0.000001   0.000042  -0.000037   0.002158  -0.063383   0.514615
    18  C    0.000035   0.000003   0.000000  -0.000000  -0.000000  -0.000000
    19  C    0.000002  -0.000000   0.000000   0.000000   0.000000   0.000000
    20  C    0.000000  -0.000000   0.000000   0.000000   0.000000   0.000000
    21  C   -0.000000  -0.000000  -0.000000  -0.000000  -0.000000   0.000000
    22  C    0.000000   0.000000   0.000000   0.000000   0.000000   0.000000
    23  H    0.000042   0.000000   0.000000   0.000000  -0.000000   0.000000
    24  H    0.000001  -0.000000   0.000000  -0.000000  -0.000000  -0.000000
    25  H    0.000619  -0.008643   0.022270  -0.026730   0.348710  -0.033040
    26  H   -0.000145   0.002901   0.000568  -0.032696   0.364379  -0.041505
    27  H    0.000674   0.000365  -0.000047   0.011284  -0.014874  -0.040611
    28  H   -0.000000   0.000000  -0.000000   0.000002  -0.000191   0.003786
    29  H    0.000000  -0.000000  -0.000000   0.000000   0.000010   0.000783
    30  H    0.000000   0.000000   0.000000   0.000000  -0.000155   0.003532
    31  H   -0.000000  -0.000003  -0.000003   0.000053  -0.007357  -0.054725
    32  H    0.000257  -0.000009  -0.000000   0.000000   0.000000   0.000000
    33  H   -0.000000   0.000000   0.000000   0.000000  -0.000000   0.000000
    34  H   -0.000000  -0.000000   0.000000   0.000000  -0.000000   0.000000
    35  H   -0.000000   0.000000  -0.000000   0.000000   0.000000   0.000000
    36  H    0.000000   0.000000  -0.000000   0.000000   0.000000   0.000000
              13         14         15         16         17         18
     1  C    0.000000  -0.000000  -0.000000   0.000000  -0.000000   0.555700
     2  C   -0.000000   0.000000   0.000000  -0.000000   0.000000  -0.062589
     3  O   -0.000000  -0.000000   0.000000  -0.000000   0.000000  -0.002379
     4  C   -0.000000  -0.000000  -0.000000  -0.000000   0.000000   0.009394
     5  O   -0.000000   0.000000   0.000000   0.000000  -0.000000  -0.007250
     6  N    0.000002   0.000000  -0.000000  -0.000000   0.000000  -0.002687
     7  N   -0.000306  -0.000001   0.000000  -0.000000   0.000001   0.000035
     8  C    0.000977  -0.000006  -0.000001  -0.000000   0.000042   0.000003
     9  O    0.000121   0.000001  -0.000000   0.000000  -0.000037   0.000000
    10  O   -0.004492   0.000335  -0.000003  -0.000063   0.002158  -0.000000
    11  C   -0.062441   0.006342   0.000381   0.005077  -0.063383  -0.000000
    12  C    0.555578  -0.020425  -0.035958  -0.012245   0.514615  -0.000000
    13  C    4.943978   0.518975  -0.033856  -0.045855  -0.031031   0.000000
    14  C    0.518975   4.868743   0.551174  -0.026564  -0.046344   0.000000
    15  C   -0.033856   0.551174   4.847458   0.551372  -0.036120  -0.000000
    16  C   -0.045855  -0.026564   0.551372   4.848148   0.530304   0.000000
    17  C   -0.031031  -0.046344  -0.036120   0.530304   4.979772   0.000000
    18  C    0.000000   0.000000  -0.000000   0.000000   0.000000   4.902448
    19  C   -0.000000  -0.000000   0.000000  -0.000000  -0.000000   0.525887
    20  C   -0.000000  -0.000000   0.000000   0.000000  -0.000000  -0.033114
    21  C    0.000000  -0.000000   0.000000   0.000000   0.000000  -0.044825
    22  C   -0.000000   0.000000   0.000000   0.000000  -0.000000  -0.028885
    23  H    0.000000  -0.000000  -0.000000   0.000000   0.000000   0.002033
    24  H   -0.000000   0.000000   0.000000  -0.000000   0.000000   0.000248
    25  H    0.002354  -0.000055   0.000018  -0.000095  -0.002031   0.000000
    26  H    0.000287  -0.000094   0.000028  -0.000140  -0.001191   0.000000
    27  H    0.356650  -0.045035   0.004714   0.000297   0.006093  -0.000000
    28  H   -0.040073   0.358363  -0.043248   0.004534   0.000943   0.000000
    29  H    0.004696  -0.043195   0.358684  -0.043158   0.004852   0.000000
    30  H    0.000787   0.004662  -0.042508   0.358488  -0.040444   0.000000
    31  H    0.005569   0.000424   0.004945  -0.042901   0.359771  -0.000000
    32  H   -0.000000  -0.000000   0.000000   0.000000  -0.000000   0.348160
    33  H    0.000000   0.000000  -0.000000   0.000000   0.000000  -0.039264
    34  H   -0.000000   0.000000   0.000000   0.000000   0.000000   0.004845
    35  H    0.000000   0.000000   0.000000   0.000000   0.000000   0.000807
    36  H   -0.000000   0.000000   0.000000   0.000000   0.000000   0.005130
              19         20         21         22         23         24
     1  C   -0.020230  -0.036517  -0.014760   0.525695  -0.042078  -0.034241
     2  C    0.006404   0.000442   0.004969  -0.058999   0.358922   0.368364
     3  O    0.000751  -0.000013  -0.000060   0.002081  -0.033802  -0.023197
     4  C   -0.000365  -0.000015  -0.000032   0.000354  -0.006097   0.003976
     5  O   -0.000892  -0.000018   0.000053  -0.001311   0.009137   0.000194
     6  N   -0.000021   0.000000  -0.000000  -0.000007   0.000017  -0.000058
     7  N    0.000002   0.000000  -0.000000   0.000000   0.000042   0.000001
     8  C   -0.000000  -0.000000  -0.000000   0.000000   0.000000  -0.000000
     9  O    0.000000   0.000000  -0.000000   0.000000   0.000000   0.000000
    10  O    0.000000   0.000000  -0.000000   0.000000   0.000000  -0.000000
    11  C    0.000000   0.000000  -0.000000   0.000000  -0.000000  -0.000000
    12  C    0.000000   0.000000   0.000000   0.000000   0.000000  -0.000000
    13  C   -0.000000  -0.000000   0.000000  -0.000000   0.000000  -0.000000
    14  C   -0.000000  -0.000000  -0.000000   0.000000  -0.000000   0.000000
    15  C    0.000000   0.000000   0.000000   0.000000  -0.000000   0.000000
    16  C   -0.000000   0.000000   0.000000   0.000000   0.000000  -0.000000
    17  C   -0.000000  -0.000000   0.000000  -0.000000   0.000000   0.000000
    18  C    0.525887  -0.033114  -0.044825  -0.028885   0.002033   0.000248
    19  C    4.874327   0.549191  -0.027162  -0.045252  -0.000013  -0.000099
    20  C    0.549191   4.845920   0.554002  -0.036706   0.000016   0.000019
    21  C   -0.027162   0.554002   4.846761   0.532295  -0.000095  -0.000147
    22  C   -0.045252  -0.036706   0.532295   4.960790  -0.002323  -0.001473
    23  H   -0.000013   0.000016  -0.000095  -0.002323   0.569651  -0.039357
    24  H   -0.000099   0.000019  -0.000147  -0.001473  -0.039357   0.536555
    25  H   -0.000000  -0.000000   0.000000   0.000000   0.000000  -0.000000
    26  H   -0.000000  -0.000000   0.000000  -0.000000  -0.000000   0.000000
    27  H   -0.000000   0.000000  -0.000000   0.000000  -0.000000   0.000000
    28  H   -0.000000  -0.000000   0.000000  -0.000000   0.000000  -0.000000
    29  H    0.000000   0.000000   0.000000   0.000000  -0.000000   0.000000
    30  H    0.000000   0.000000   0.000000   0.000000   0.000000   0.000000
    31  H   -0.000000  -0.000000   0.000000   0.000000  -0.000000   0.000000
    32  H   -0.039007   0.004836   0.000457   0.005594   0.000433  -0.000130
    33  H    0.356804  -0.043090   0.004466   0.001014   0.000003   0.000003
    34  H   -0.042954   0.358198  -0.043439   0.004806  -0.000000  -0.000000
    35  H    0.004684  -0.042621   0.357843  -0.040720   0.000001   0.000002
    36  H    0.000496   0.004974  -0.042205   0.360100   0.002090   0.002032
              25         26         27         28         29         30
     1  C    0.000000   0.000000  -0.000000   0.000000   0.000000   0.000000
     2  C   -0.000000  -0.000000   0.000000  -0.000000   0.000000   0.000000
     3  O   -0.000000   0.000000   0.000000   0.000000  -0.000000   0.000000
     4  C    0.000000  -0.000000  -0.000001   0.000000   0.000000   0.000000
     5  O    0.000000   0.000000   0.000000  -0.000000  -0.000000  -0.000000
     6  N    0.000001   0.000017   0.000006   0.000000  -0.000000   0.000000
     7  N    0.000619  -0.000145   0.000674  -0.000000   0.000000   0.000000
     8  C   -0.008643   0.002901   0.000365   0.000000  -0.000000   0.000000
     9  O    0.022270   0.000568  -0.000047  -0.000000  -0.000000   0.000000
    10  O   -0.026730  -0.032696   0.011284   0.000002   0.000000   0.000000
    11  C    0.348710   0.364379  -0.014874  -0.000191   0.000010  -0.000155
    12  C   -0.033040  -0.041505  -0.040611   0.003786   0.000783   0.003532
    13  C    0.002354   0.000287   0.356650  -0.040073   0.004696   0.000787
    14  C   -0.000055  -0.000094  -0.045035   0.358363  -0.043195   0.004662
    15  C    0.000018   0.000028   0.004714  -0.043248   0.358684  -0.042508
    16  C   -0.000095  -0.000140   0.000297   0.004534  -0.043158   0.358488
    17  C   -0.002031  -0.001191   0.006093   0.000943   0.004852  -0.040444
    18  C    0.000000   0.000000  -0.000000   0.000000   0.000000   0.000000
    19  C   -0.000000  -0.000000  -0.000000  -0.000000   0.000000   0.000000
    20  C   -0.000000  -0.000000   0.000000  -0.000000   0.000000   0.000000
    21  C    0.000000   0.000000  -0.000000   0.000000   0.000000   0.000000
    22  C    0.000000  -0.000000   0.000000  -0.000000   0.000000   0.000000
    23  H    0.000000  -0.000000  -0.000000   0.000000  -0.000000   0.000000
    24  H   -0.000000   0.000000   0.000000  -0.000000   0.000000   0.000000
    25  H    0.527821  -0.036681   0.000304   0.000002  -0.000000   0.000001
    26  H   -0.036681   0.565183   0.000286   0.000003  -0.000000   0.000001
    27  H    0.000304   0.000286   0.577336  -0.005187  -0.000175   0.000016
    28  H    0.000002   0.000003  -0.005187   0.592636  -0.005673  -0.000190
    29  H   -0.000000  -0.000000  -0.000175  -0.005673   0.598414  -0.005622
    30  H    0.000001   0.000001   0.000016  -0.000190  -0.005622   0.593910
    31  H    0.002194   0.002153  -0.000145   0.000018  -0.000189  -0.005695
    32  H   -0.000000   0.000000   0.000000  -0.000000   0.000000  -0.000000
    33  H    0.000000  -0.000000  -0.000000   0.000000   0.000000   0.000000
    34  H   -0.000000  -0.000000   0.000000   0.000000   0.000000   0.000000
    35  H    0.000000  -0.000000  -0.000000   0.000000   0.000000   0.000000
    36  H   -0.000000  -0.000000   0.000000  -0.000000   0.000000   0.000000
              31         32         33         34         35         36
     1  C    0.000000  -0.049026   0.003951   0.000847   0.003702  -0.056271
     2  C    0.000000  -0.013122  -0.000202   0.000011  -0.000156  -0.007305
     3  O    0.000000   0.000409   0.000007   0.000000   0.000000   0.000055
     4  C    0.000000   0.007614   0.000042  -0.000000   0.000000   0.000001
     5  O   -0.000000  -0.011067  -0.000003   0.000000  -0.000000  -0.000017
     6  N    0.000000   0.001667  -0.000003   0.000000   0.000000  -0.000000
     7  N   -0.000000   0.000257  -0.000000  -0.000000  -0.000000   0.000000
     8  C   -0.000003  -0.000009   0.000000  -0.000000   0.000000   0.000000
     9  O   -0.000003  -0.000000   0.000000   0.000000  -0.000000  -0.000000
    10  O    0.000053   0.000000   0.000000   0.000000   0.000000   0.000000
    11  C   -0.007357   0.000000  -0.000000  -0.000000   0.000000   0.000000
    12  C   -0.054725   0.000000   0.000000   0.000000   0.000000   0.000000
    13  C    0.005569  -0.000000   0.000000  -0.000000   0.000000  -0.000000
    14  C    0.000424  -0.000000   0.000000   0.000000   0.000000   0.000000
    15  C    0.004945   0.000000  -0.000000   0.000000   0.000000   0.000000
    16  C   -0.042901   0.000000   0.000000   0.000000   0.000000   0.000000
    17  C    0.359771  -0.000000   0.000000   0.000000   0.000000   0.000000
    18  C   -0.000000   0.348160  -0.039264   0.004845   0.000807   0.005130
    19  C   -0.000000  -0.039007   0.356804  -0.042954   0.004684   0.000496
    20  C   -0.000000   0.004836  -0.043090   0.358198  -0.042621   0.004974
    21  C    0.000000   0.000457   0.004466  -0.043439   0.357843  -0.042205
    22  C    0.000000   0.005594   0.001014   0.004806  -0.040720   0.360100
    23  H   -0.000000   0.000433   0.000003  -0.000000   0.000001   0.002090
    24  H    0.000000  -0.000130   0.000003  -0.000000   0.000002   0.002032
    25  H    0.002194  -0.000000   0.000000  -0.000000   0.000000  -0.000000
    26  H    0.002153   0.000000  -0.000000  -0.000000  -0.000000  -0.000000
    27  H   -0.000145   0.000000  -0.000000   0.000000  -0.000000   0.000000
    28  H    0.000018  -0.000000   0.000000   0.000000   0.000000  -0.000000
    29  H   -0.000189   0.000000   0.000000   0.000000   0.000000   0.000000
    30  H   -0.005695  -0.000000   0.000000   0.000000   0.000000   0.000000
    31  H    0.610828  -0.000000  -0.000000   0.000000   0.000000   0.000000
    32  H   -0.000000   0.608084  -0.005610  -0.000187   0.000017  -0.000167
    33  H   -0.000000  -0.005610   0.594936  -0.005674  -0.000191   0.000018
    34  H    0.000000  -0.000187  -0.005674   0.600003  -0.005647  -0.000193
    35  H    0.000000   0.000017  -0.000191  -0.005647   0.596909  -0.005769
    36  H    0.000000  -0.000167   0.000018  -0.000193  -0.005769   0.615407
 Mulliken charges:
               1
     1  C    0.119703
     2  C   -0.103999
     3  O   -0.448444
     4  C    0.742080
     5  O   -0.415591
     6  N   -0.208866
     7  N   -0.198714
     8  C    0.757295
     9  O   -0.431605
    10  O   -0.448427
    11  C   -0.116667
    12  C    0.116362
    13  C   -0.171920
    14  C   -0.127299
    15  C   -0.127081
    16  C   -0.127200
    17  C   -0.177971
    18  C   -0.133698
    19  C   -0.142550
    20  C   -0.125505
    21  C   -0.128124
    22  C   -0.177052
    23  H    0.181419
    24  H    0.187309
    25  H    0.202983
    26  H    0.176646
    27  H    0.148048
    28  H    0.134272
    29  H    0.130573
    30  H    0.133217
    31  H    0.125063
    32  H    0.140799
    33  H    0.132793
    34  H    0.129385
    35  H    0.131139
    36  H    0.121623
 Sum of Mulliken charges =   0.00000
 Mulliken charges with hydrogens summed into heavy atoms:
               1
     1  C    0.119703
     2  C    0.264730
     3  O   -0.448444
     4  C    0.742080
     5  O   -0.415591
     6  N   -0.208866
     7  N   -0.198714
     8  C    0.757295
     9  O   -0.431605
    10  O   -0.448427
    11  C    0.262963
    12  C    0.116362
    13  C   -0.023872
    14  C    0.006973
    15  C    0.003493
    16  C    0.006017
    17  C   -0.052908
    18  C    0.007102
    19  C   -0.009757
    20  C    0.003880
    21  C    0.003015
    22  C   -0.055428
 APT charges:
               1
     1  C   -0.014961
     2  C    0.578612
     3  O   -0.872110
     4  C    1.281229
     5  O   -0.651895
     6  N   -0.224484
     7  N   -0.250448
     8  C    1.403619
     9  O   -0.690608
    10  O   -0.961820
    11  C    0.548155
    12  C    0.048654
    13  C   -0.075576
    14  C    0.016517
    15  C   -0.036739
    16  C   -0.005832
    17  C   -0.056301
    18  C   -0.029142
    19  C    0.018184
    20  C   -0.036944
    21  C   -0.019191
    22  C   -0.018085
    23  H   -0.049279
    24  H   -0.029934
    25  H    0.011056
    26  H   -0.058079
    27  H    0.052384
    28  H    0.013853
    29  H    0.011347
    30  H    0.009542
    31  H    0.019368
    32  H    0.017381
    33  H    0.017035
    34  H    0.010798
    35  H    0.010792
    36  H    0.012898
 Sum of APT charges =   0.00000
 APT charges with hydrogens summed into heavy atoms:
               1
     1  C   -0.014961
     2  C    0.499400
     3  O   -0.872110
     4  C    1.281229
     5  O   -0.651895
     6  N   -0.224484
     7  N   -0.250448
     8  C    1.403619
     9  O   -0.690608
    10  O   -0.961820
    11  C    0.501133
    12  C    0.048654
    13  C   -0.023192
    14  C    0.030370
    15  C   -0.025392
    16  C    0.003709
    17  C   -0.036933
    18  C   -0.011761
    19  C    0.035220
    20  C   -0.026146
    21  C   -0.008399
    22  C   -0.005187
 Electronic spatial extent (au):  <R**2>=          12660.9535
 Charge=              0.0000 electrons
 Dipole moment (field-independent basis, Debye):
    X=              0.0486    Y=              0.0890    Z=              0.3048  Tot=              0.3212
 Quadrupole moment (field-independent basis, Debye-Ang):
   XX=            -95.8927   YY=           -115.5756   ZZ=           -131.5559
   XY=             -7.8937   XZ=              1.4565   YZ=             -7.8723
 Traceless Quadrupole moment (field-independent basis, Debye-Ang):
   XX=             18.4487   YY=             -1.2342   ZZ=            -17.2145
   XY=             -7.8937   XZ=              1.4565   YZ=             -7.8723
 Octapole moment (field-independent basis, Debye-Ang**2):
  XXX=            -17.4081  YYY=             -5.6073  ZZZ=              5.1605  XYY=             39.6317
  XXY=            -10.2810  XXZ=             23.5478  XZZ=            -18.4639  YZZ=             -1.3867
  YYZ=             -3.5969  XYZ=             24.1665
 Hexadecapole moment (field-independent basis, Debye-Ang**3):
 XXXX=         -14035.5836 YYYY=           -792.3045 ZZZZ=           -796.8285 XXXY=           -144.0442
 XXXZ=            256.3801 YYYX=            -30.5399 YYYZ=             -1.2025 ZZZX=            -26.6569
 ZZZY=            -26.2344 XXYY=          -2605.3711 XXZZ=          -2717.1658 YYZZ=           -268.4709
 XXYZ=           -118.8162 YYXZ=             28.0462 ZZXY=             -5.4953
 N-N= 1.584155616121D+03 E-N=-5.563675987501D+03  KE= 1.019053199558D+03
  Exact polarizability: 281.805  -4.727 151.026  18.200 -18.244 138.865
 Approx polarizability: 353.675 -12.418 253.061  33.320 -26.104 249.903
 Calling FoFJK, ICntrl=    100127 FMM=F ISym2X=0 I1Cent= 0 IOpClX= 0 NMat=1 NMatS=1 NMatT=0.
 ***** Axes restored to original set *****
 -------------------------------------------------------------------
 Center     Atomic                   Forces (Hartrees/Bohr)
 Number     Number              X              Y              Z
 -------------------------------------------------------------------
      1        6           0.001357557   -0.006139860    0.010984058
      2        6          -0.015488965   -0.015872290    0.010841565
      3        8          -0.001385595    0.016070070   -0.002578613
      4        6           0.005401520   -0.076529716   -0.014391731
      5        8           0.005388022    0.026591295   -0.012940319
      6        7          -0.012567165    0.039576329    0.006436123
      7        7           0.011842162   -0.040725084   -0.006818150
      8        6          -0.006895852    0.078489443    0.009279867
      9        8          -0.012590465   -0.025633831    0.001077891
     10        8           0.016086625   -0.005497970   -0.005476220
     11        6          -0.009557458    0.010118108    0.001806978
     12        6          -0.008429183   -0.005806839   -0.003744570
     13        6           0.001588498   -0.000921725   -0.001801658
     14        6           0.000548884    0.001389783    0.000755658
     15        6          -0.003362905   -0.001292233   -0.002640900
     16        6           0.002681045    0.000726651    0.001951028
     17        6           0.000796113    0.000475574   -0.001079289
     18        6           0.009116504   -0.000684976    0.005486327
     19        6           0.000941419    0.001256680   -0.002443492
     20        6          -0.000208031   -0.001228800    0.003274687
     21        6           0.000389334    0.000243359   -0.002188950
     22        6           0.000849975    0.002455697    0.000840900
     23        1          -0.000205941   -0.000781275   -0.001829198
     24        1          -0.003573148    0.015565439   -0.001187906
     25        1           0.004196403   -0.006622187   -0.000839121
     26        1           0.003223915   -0.003996445    0.001465025
     27        1           0.000211321    0.003029108    0.001373999
     28        1           0.000552685   -0.000214025    0.000490268
     29        1          -0.000028805    0.000030209    0.000285101
     30        1           0.000720569    0.000007678    0.000512481
     31        1           0.001492454   -0.000483162    0.000192876
     32        1           0.007579495   -0.004952010    0.005723277
     33        1          -0.000278002    0.000267160   -0.000747278
     34        1          -0.000320703   -0.000181247   -0.000075722
     35        1          -0.000028040    0.000208692   -0.000761388
     36        1          -0.000044241    0.001062399   -0.001233601
 -------------------------------------------------------------------
 Cartesian Forces:  Max     0.078489443 RMS     0.013630237
 FormGI is forming the generalized inverse of G from B-inverse, IUseBI=4.

 GradGradGradGradGradGradGradGradGradGradGradGradGradGradGradGradGradGrad
 Berny optimization.
 Internal  Forces:  Max     0.061089999 RMS     0.010282520
 Search for a local minimum.
 Step number   1 out of a maximum of  180
 All quantities printed in internal units (Hartrees-Bohrs-Radians)
 Mixed Optimization -- RFO/linear search
 Second derivative matrix not updated -- analytic derivatives used.
 ITU=  0
     Eigenvalues ---   -0.00470  -0.00243  -0.00142  -0.00003   0.00038
     Eigenvalues ---    0.01117   0.01458   0.01496   0.01657   0.01707
     Eigenvalues ---    0.01735   0.01749   0.01757   0.02092   0.02135
     Eigenvalues ---    0.02313   0.02362   0.02393   0.02455   0.02669
     Eigenvalues ---    0.02671   0.02761   0.02767   0.02811   0.02858
     Eigenvalues ---    0.03848   0.06142   0.06486   0.07037   0.07126
     Eigenvalues ---    0.07784   0.09812   0.10113   0.10541   0.11121
     Eigenvalues ---    0.11126   0.11535   0.11627   0.11665   0.12047
     Eigenvalues ---    0.12149   0.12547   0.12555   0.12996   0.13014
     Eigenvalues ---    0.13227   0.14109   0.18679   0.18956   0.19124
     Eigenvalues ---    0.19146   0.19380   0.19457   0.19875   0.21161
     Eigenvalues ---    0.21630   0.21859   0.23903   0.24701   0.25411
     Eigenvalues ---    0.25722   0.26558   0.28168   0.29106   0.29224
     Eigenvalues ---    0.30618   0.31258   0.32666   0.32811   0.33188
     Eigenvalues ---    0.33647   0.34050   0.34879   0.35467   0.35517
     Eigenvalues ---    0.35855   0.35875   0.35934   0.35944   0.36140
     Eigenvalues ---    0.36164   0.36166   0.36556   0.37474   0.40467
     Eigenvalues ---    0.41505   0.41603   0.43112   0.44982   0.47222
     Eigenvalues ---    0.47303   0.47391   0.47435   0.47786   0.50291
     Eigenvalues ---    0.51184   0.51372   0.51831   0.78435   0.78946
     Eigenvalues ---    0.79820   0.90180
 RFO step:  Lambda=-3.64030597D-02 EMin=-4.69994515D-03
 Linear search not attempted -- first point.
 Maximum step size (   0.300) exceeded in Quadratic search.
    -- Step size scaled by   0.952
[...]
    97    N    7  py     Val( 2p)     1.27231
    98    N    7  py     Ryd( 3p)     0.00463
    99    N    7  pz     Val( 2p)     1.40369
   100    N    7  pz     Ryd( 3p)     0.00433
   101    N    7  dxy    Ryd( 3d)     0.00142
   102    N    7  dxz    Ryd( 3d)     0.00105
   103    N    7  dyz    Ryd( 3d)     0.00178
   104    N    7  dx2y2  Ryd( 3d)     0.00208
   105    N    7  dz2    Ryd( 3d)     0.00138
 
   106    C    8  S      Cor( 1S)     1.99950
   107    C    8  S      Val( 2S)     0.73082
   108    C    8  S      Ryd( 3S)     0.00399
   109    C    8  S      Ryd( 4S)     0.00047
   110    C    8  px     Val( 2p)     0.80062
   111    C    8  px     Ryd( 3p)     0.00999
   112    C    8  py     Val( 2p)     0.75105
   113    C    8  py     Ryd( 3p)     0.00954
   114    C    8  pz     Val( 2p)     0.74612
   115    C    8  pz     Ryd( 3p)     0.01398
   116    C    8  dxy    Ryd( 3d)     0.00196
   117    C    8  dxz    Ryd( 3d)     0.00262
   118    C    8  dyz    Ryd( 3d)     0.00175
   119    C    8  dx2y2  Ryd( 3d)     0.00269
   120    C    8  dz2    Ryd( 3d)     0.00330
 
   121    O    9  S      Cor( 1S)     1.99977
   122    O    9  S      Val( 2S)     1.70716
   123    O    9  S      Ryd( 3S)     0.00090
   124    O    9  S      Ryd( 4S)     0.00013
   125    O    9  px     Val( 2p)     1.69681
   126    O    9  px     Ryd( 3p)     0.00103
   127    O    9  py     Val( 2p)     1.56375
   128    O    9  py     Ryd( 3p)     0.00069
   129    O    9  pz     Val( 2p)     1.56405
   130    O    9  pz     Ryd( 3p)     0.00091
   131    O    9  dxy    Ryd( 3d)     0.00300
   132    O    9  dxz    Ryd( 3d)     0.00394
   133    O    9  dyz    Ryd( 3d)     0.00332
   134    O    9  dx2y2  Ryd( 3d)     0.00292
   135    O    9  dz2    Ryd( 3d)     0.00388
 
   136    O   10  S      Cor( 1S)     1.99973
   137    O   10  S      Val( 2S)     1.63041
   138    O   10  S      Ryd( 3S)     0.00201
   139    O   10  S      Ryd( 4S)     0.00010
   140    O   10  px     Val( 2p)     1.53108
   141    O   10  px     Ryd( 3p)     0.00115
   142    O   10  py     Val( 2p)     1.69580
   143    O   10  py     Ryd( 3p)     0.00174
   144    O   10  pz     Val( 2p)     1.65429
   145    O   10  pz     Ryd( 3p)     0.00139
   146    O   10  dxy    Ryd( 3d)     0.00087
   147    O   10  dxz    Ryd( 3d)     0.00112
   148    O   10  dyz    Ryd( 3d)     0.00095
   149    O   10  dx2y2  Ryd( 3d)     0.00123
   150    O   10  dz2    Ryd( 3d)     0.00171
 
   151    C   11  S      Cor( 1S)     1.99912
   152    C   11  S      Val( 2S)     1.03260
   153    C   11  S      Ryd( 3S)     0.00119
   154    C   11  S      Ryd( 4S)     0.00005
   155    C   11  px     Val( 2p)     0.73018
   156    C   11  px     Ryd( 3p)     0.00325
   157    C   11  py     Val( 2p)     1.15017
   158    C   11  py     Ryd( 3p)     0.00324
   159    C   11  pz     Val( 2p)     1.19278
   160    C   11  pz     Ryd( 3p)     0.00525
   161    C   11  dxy    Ryd( 3d)     0.00145
   162    C   11  dxz    Ryd( 3d)     0.00089
   163    C   11  dyz    Ryd( 3d)     0.00061
   164    C   11  dx2y2  Ryd( 3d)     0.00159
   165    C   11  dz2    Ryd( 3d)     0.00155
 
   166    C   12  S      Cor( 1S)     1.99901
   167    C   12  S      Val( 2S)     0.88890
   168    C   12  S      Ryd( 3S)     0.00071
   169    C   12  S      Ryd( 4S)     0.00006
   170    C   12  px     Val( 2p)     1.03468
   171    C   12  px     Ryd( 3p)     0.00219
   172    C   12  py     Val( 2p)     1.07293
   173    C   12  py     Ryd( 3p)     0.00457
   174    C   12  pz     Val( 2p)     1.08142
   175    C   12  pz     Ryd( 3p)     0.00418
   176    C   12  dxy    Ryd( 3d)     0.00048
   177    C   12  dxz    Ryd( 3d)     0.00046
   178    C   12  dyz    Ryd( 3d)     0.00069
   179    C   12  dx2y2  Ryd( 3d)     0.00053
   180    C   12  dz2    Ryd( 3d)     0.00064
 
   181    C   13  S      Cor( 1S)     1.99903
   182    C   13  S      Val( 2S)     0.95397
   183    C   13  S      Ryd( 3S)     0.00061
   184    C   13  S      Ryd( 4S)     0.00005
   185    C   13  px     Val( 2p)     1.01134
   186    C   13  px     Ryd( 3p)     0.00124
   187    C   13  py     Val( 2p)     1.06175
   188    C   13  py     Ryd( 3p)     0.00377
   189    C   13  pz     Val( 2p)     1.17345
   190    C   13  pz     Ryd( 3p)     0.00470
   191    C   13  dxy    Ryd( 3d)     0.00053
   192    C   13  dxz    Ryd( 3d)     0.00045
   193    C   13  dyz    Ryd( 3d)     0.00060
   194    C   13  dx2y2  Ryd( 3d)     0.00043
   195    C   13  dz2    Ryd( 3d)     0.00075
 
   196    C   14  S      Cor( 1S)     1.99910
   197    C   14  S      Val( 2S)     0.96143
   198    C   14  S      Ryd( 3S)     0.00058
   199    C   14  S      Ryd( 4S)     0.00003
   200    C   14  px     Val( 2p)     1.00565
   201    C   14  px     Ryd( 3p)     0.00115
   202    C   14  py     Val( 2p)     1.17026
   203    C   14  py     Ryd( 3p)     0.00503
   204    C   14  pz     Val( 2p)     1.08043
   205    C   14  pz     Ryd( 3p)     0.00428
   206    C   14  dxy    Ryd( 3d)     0.00039
   207    C   14  dxz    Ryd( 3d)     0.00043
   208    C   14  dyz    Ryd( 3d)     0.00076
   209    C   14  dx2y2  Ryd( 3d)     0.00063
   210    C   14  dz2    Ryd( 3d)     0.00055
 
   211    C   15  S      Cor( 1S)     1.99910
   212    C   15  S      Val( 2S)     0.96499
   213    C   15  S      Ryd( 3S)     0.00053
   214    C   15  S      Ryd( 4S)     0.00003
   215    C   15  px     Val( 2p)     1.00891
   216    C   15  px     Ryd( 3p)     0.00121
   217    C   15  py     Val( 2p)     1.14933
   218    C   15  py     Ryd( 3p)     0.00481
   219    C   15  pz     Val( 2p)     1.08731
   220    C   15  pz     Ryd( 3p)     0.00410
   221    C   15  dxy    Ryd( 3d)     0.00051
   222    C   15  dxz    Ryd( 3d)     0.00048
   223    C   15  dyz    Ryd( 3d)     0.00076
   224    C   15  dx2y2  Ryd( 3d)     0.00051
   225    C   15  dz2    Ryd( 3d)     0.00054
 
   226    C   16  S      Cor( 1S)     1.99910
   227    C   16  S      Val( 2S)     0.96244
   228    C   16  S      Ryd( 3S)     0.00058
   229    C   16  S      Ryd( 4S)     0.00003
   230    C   16  px     Val( 2p)     1.01805
   231    C   16  px     Ryd( 3p)     0.00123
   232    C   16  py     Val( 2p)     1.06154
   233    C   16  py     Ryd( 3p)     0.00449
   234    C   16  pz     Val( 2p)     1.17348
   235    C   16  pz     Ryd( 3p)     0.00475
   236    C   16  dxy    Ryd( 3d)     0.00050
   237    C   16  dxz    Ryd( 3d)     0.00049
   238    C   16  dyz    Ryd( 3d)     0.00061
   239    C   16  dx2y2  Ryd( 3d)     0.00042
   240    C   16  dz2    Ryd( 3d)     0.00074
 
   241    C   17  S      Cor( 1S)     1.99903
   242    C   17  S      Val( 2S)     0.95736
   243    C   17  S      Ryd( 3S)     0.00063
   244    C   17  S      Ryd( 4S)     0.00004
   245    C   17  px     Val( 2p)     0.98663
   246    C   17  px     Ryd( 3p)     0.00111
   247    C   17  py     Val( 2p)     1.18382
   248    C   17  py     Ryd( 3p)     0.00503
   249    C   17  pz     Val( 2p)     1.07174
   250    C   17  pz     Ryd( 3p)     0.00375
   251    C   17  dxy    Ryd( 3d)     0.00039
   252    C   17  dxz    Ryd( 3d)     0.00044
   253    C   17  dyz    Ryd( 3d)     0.00073
   254    C   17  dx2y2  Ryd( 3d)     0.00065
   255    C   17  dz2    Ryd( 3d)     0.00057
 
   256    C   18  S      Cor( 1S)     1.99903
   257    C   18  S      Val( 2S)     0.95755
   258    C   18  S      Ryd( 3S)     0.00062
   259    C   18  S      Ryd( 4S)     0.00004
   260    C   18  px     Val( 2p)     0.99597
   261    C   18  px     Ryd( 3p)     0.00137
   262    C   18  py     Val( 2p)     1.12008
   263    C   18  py     Ryd( 3p)     0.00404
   264    C   18  pz     Val( 2p)     1.12554
   265    C   18  pz     Ryd( 3p)     0.00451
   266    C   18  dxy    Ryd( 3d)     0.00043
   267    C   18  dxz    Ryd( 3d)     0.00046
   268    C   18  dyz    Ryd( 3d)     0.00084
   269    C   18  dx2y2  Ryd( 3d)     0.00050
   270    C   18  dz2    Ryd( 3d)     0.00057
 
   271    C   19  S      Cor( 1S)     1.99910
   272    C   19  S      Val( 2S)     0.96256
   273    C   19  S      Ryd( 3S)     0.00058
   274    C   19  S      Ryd( 4S)     0.00003
   275    C   19  px     Val( 2p)     1.01249
   276    C   19  px     Ryd( 3p)     0.00134
   277    C   19  py     Val( 2p)     1.05425
   278    C   19  py     Ryd( 3p)     0.00394
   279    C   19  pz     Val( 2p)     1.18657
   280    C   19  pz     Ryd( 3p)     0.00521
   281    C   19  dxy    Ryd( 3d)     0.00045
   282    C   19  dxz    Ryd( 3d)     0.00046
   283    C   19  dyz    Ryd( 3d)     0.00060
   284    C   19  dx2y2  Ryd( 3d)     0.00044
   285    C   19  dz2    Ryd( 3d)     0.00082
 
   286    C   20  S      Cor( 1S)     1.99910
   287    C   20  S      Val( 2S)     0.96530
   288    C   20  S      Ryd( 3S)     0.00053
   289    C   20  S      Ryd( 4S)     0.00003
   290    C   20  px     Val( 2p)     1.02257
   291    C   20  px     Ryd( 3p)     0.00143
   292    C   20  py     Val( 2p)     1.15171
   293    C   20  py     Ryd( 3p)     0.00435
   294    C   20  pz     Val( 2p)     1.06955
   295    C   20  pz     Ryd( 3p)     0.00433
   296    C   20  dxy    Ryd( 3d)     0.00055
   297    C   20  dxz    Ryd( 3d)     0.00054
   298    C   20  dyz    Ryd( 3d)     0.00064
   299    C   20  dx2y2  Ryd( 3d)     0.00046
   300    C   20  dz2    Ryd( 3d)     0.00060
 
   301    C   21  S      Cor( 1S)     1.99910
   302    C   21  S      Val( 2S)     0.96173
   303    C   21  S      Ryd( 3S)     0.00058
   304    C   21  S      Ryd( 4S)     0.00003
   305    C   21  px     Val( 2p)     1.01295
   306    C   21  px     Ryd( 3p)     0.00134
   307    C   21  py     Val( 2p)     1.11261
   308    C   21  py     Ryd( 3p)     0.00421
   309    C   21  pz     Val( 2p)     1.13023
   310    C   21  pz     Ryd( 3p)     0.00492
   311    C   21  dxy    Ryd( 3d)     0.00042
   312    C   21  dxz    Ryd( 3d)     0.00046
   313    C   21  dyz    Ryd( 3d)     0.00084
   314    C   21  dx2y2  Ryd( 3d)     0.00048
   315    C   21  dz2    Ryd( 3d)     0.00057
 
   316    C   22  S      Cor( 1S)     1.99903
   317    C   22  S      Val( 2S)     0.95426
   318    C   22  S      Ryd( 3S)     0.00061
   319    C   22  S      Ryd( 4S)     0.00005
   320    C   22  px     Val( 2p)     1.00689
   321    C   22  px     Ryd( 3p)     0.00132
   322    C   22  py     Val( 2p)     1.05558
   323    C   22  py     Ryd( 3p)     0.00337
   324    C   22  pz     Val( 2p)     1.18278
   325    C   22  pz     Ryd( 3p)     0.00504
   326    C   22  dxy    Ryd( 3d)     0.00047
   327    C   22  dxz    Ryd( 3d)     0.00042
   328    C   22  dyz    Ryd( 3d)     0.00061
   329    C   22  dx2y2  Ryd( 3d)     0.00046
   330    C   22  dz2    Ryd( 3d)     0.00082
 
   331    H   23  S      Val( 1S)     0.75493
   332    H   23  S      Ryd( 2S)     0.00214
 
   333    H   24  S      Val( 1S)     0.75805
   334    H   24  S      Ryd( 2S)     0.00118
 
   335    H   25  S      Val( 1S)     0.75571
   336    H   25  S      Ryd( 2S)     0.00221
 
   337    H   26  S      Val( 1S)     0.75848
   338    H   26  S      Ryd( 2S)     0.00115
 
   339    H   27  S      Val( 1S)     0.76295
   340    H   27  S      Ryd( 2S)     0.00106
 
   341    H   28  S      Val( 1S)     0.76011
   342    H   28  S      Ryd( 2S)     0.00085
 
   343    H   29  S      Val( 1S)     0.76060
   344    H   29  S      Ryd( 2S)     0.00082
 
   345    H   30  S      Val( 1S)     0.75855
   346    H   30  S      Ryd( 2S)     0.00083
 
   347    H   31  S      Val( 1S)     0.74652
   348    H   31  S      Ryd( 2S)     0.00136
 
   349    H   32  S      Val( 1S)     0.74685
   350    H   32  S      Ryd( 2S)     0.00140
 
   351    H   33  S      Val( 1S)     0.75810
   352    H   33  S      Ryd( 2S)     0.00083
 
   353    H   34  S      Val( 1S)     0.76010
   354    H   34  S      Ryd( 2S)     0.00082
 
   355    H   35  S      Val( 1S)     0.75954
   356    H   35  S      Ryd( 2S)     0.00085
 
   357    H   36  S      Val( 1S)     0.76206
   358    H   36  S      Ryd( 2S)     0.00106


 Summary of Natural Population Analysis:                  
                                                          
                                       Natural Population 
                Natural  -----------------------------------------------
    Atom  No    Charge         Core      Valence    Rydberg      Total
 -----------------------------------------------------------------------
      C    1   -0.09164      1.99901     4.07809    0.01454     6.09164
      C    2   -0.12588      1.99912     4.10777    0.01899     6.12588
      O    3   -0.52173      1.99973     6.50967    0.01232     8.52173
      C    4    0.92496      1.99951     3.02507    0.05047     5.07504
      O    5   -0.54509      1.99977     6.52462    0.02070     8.54509
      N    6   -0.21794      1.99938     5.19223    0.02633     7.21794
      N    7   -0.22279      1.99938     5.19689    0.02652     7.22279
      C    8    0.92158      1.99950     3.02862    0.05029     5.07842
      O    9   -0.55226      1.99977     6.53178    0.02072     8.55226
      O   10   -0.52358      1.99973     6.51158    0.01227     8.52358
      C   11   -0.12392      1.99912     4.10574    0.01907     6.12392
      C   12   -0.09146      1.99901     4.07794    0.01451     6.09146
      C   13   -0.21268      1.99903     4.20050    0.01314     6.21268
      C   14   -0.23070      1.99910     4.21778    0.01383     6.23070
      C   15   -0.22311      1.99910     4.21054    0.01347     6.22311
      C   16   -0.22846      1.99910     4.21551    0.01384     6.22846
      C   17   -0.21194      1.99903     4.19956    0.01335     6.21194
      C   18   -0.21155      1.99903     4.19914    0.01338     6.21155
      C   19   -0.22884      1.99910     4.21587    0.01386     6.22884
      C   20   -0.22169      1.99910     4.20912    0.01347     6.22169
      C   21   -0.23046      1.99910     4.21753    0.01383     6.23046
      C   22   -0.21170      1.99903     4.19951    0.01316     6.21170
      H   23    0.24293      0.00000     0.75493    0.00214     0.75707
      H   24    0.24077      0.00000     0.75805    0.00118     0.75923
      H   25    0.24208      0.00000     0.75571    0.00221     0.75792
      H   26    0.24037      0.00000     0.75848    0.00115     0.75963
      H   27    0.23599      0.00000     0.76295    0.00106     0.76401
      H   28    0.23904      0.00000     0.76011    0.00085     0.76096
      H   29    0.23857      0.00000     0.76060    0.00082     0.76143
      H   30    0.24062      0.00000     0.75855    0.00083     0.75938
      H   31    0.25212      0.00000     0.74652    0.00136     0.74788
      H   32    0.25175      0.00000     0.74685    0.00140     0.74825
      H   33    0.24107      0.00000     0.75810    0.00083     0.75893
      H   34    0.23908      0.00000     0.76010    0.00082     0.76092
      H   35    0.23962      0.00000     0.75954    0.00085     0.76038
      H   36    0.23688      0.00000     0.76206    0.00106     0.76312
 =======================================================================
   * Total *    0.00000     43.98375   111.57760    0.43865   156.00000

                                 Natural Population      
 --------------------------------------------------------
   Core                      43.98375 ( 99.9631% of  44)
   Valence                  111.57760 ( 99.6229% of 112)
   Natural Minimal Basis    155.56135 ( 99.7188% of 156)
   Natural Rydberg Basis      0.43865 (  0.2812% of 156)
 --------------------------------------------------------

    Atom  No          Natural Electron Configuration
 ----------------------------------------------------------------------------
      C    1      [core]2S( 0.89)2p( 3.19)3p( 0.01)
      C    2      [core]2S( 1.03)2p( 3.08)3p( 0.01)3d( 0.01)
      O    3      [core]2S( 1.63)2p( 4.88)3d( 0.01)
      C    4      [core]2S( 0.73)2p( 2.29)3p( 0.03)3d( 0.01)
      O    5      [core]2S( 1.71)2p( 4.82)3d( 0.02)
      N    6      [core]2S( 1.39)2p( 3.80)3S( 0.01)3p( 0.01)3d( 0.01)
      N    7      [core]2S( 1.39)2p( 3.80)3S( 0.01)3p( 0.01)3d( 0.01)
      C    8      [core]2S( 0.73)2p( 2.30)3p( 0.03)3d( 0.01)
      O    9      [core]2S( 1.71)2p( 4.82)3d( 0.02)
      O   10      [core]2S( 1.63)2p( 4.88)3d( 0.01)
      C   11      [core]2S( 1.03)2p( 3.07)3p( 0.01)3d( 0.01)
      C   12      [core]2S( 0.89)2p( 3.19)3p( 0.01)
      C   13      [core]2S( 0.95)2p( 3.25)3p( 0.01)
      C   14      [core]2S( 0.96)2p( 3.26)3p( 0.01)
      C   15      [core]2S( 0.96)2p( 3.25)3p( 0.01)
      C   16      [core]2S( 0.96)2p( 3.25)3p( 0.01)
      C   17      [core]2S( 0.96)2p( 3.24)3p( 0.01)
      C   18      [core]2S( 0.96)2p( 3.24)3p( 0.01)
      C   19      [core]2S( 0.96)2p( 3.25)3p( 0.01)
      C   20      [core]2S( 0.97)2p( 3.24)3p( 0.01)
      C   21      [core]2S( 0.96)2p( 3.26)3p( 0.01)
      C   22      [core]2S( 0.95)2p( 3.25)3p( 0.01)
      H   23            1S( 0.75)
      H   24            1S( 0.76)
      H   25            1S( 0.76)
      H   26            1S( 0.76)
      H   27            1S( 0.76)
      H   28            1S( 0.76)
      H   29            1S( 0.76)
      H   30            1S( 0.76)
      H   31            1S( 0.75)
      H   32            1S( 0.75)
      H   33            1S( 0.76)
      H   34            1S( 0.76)
      H   35            1S( 0.76)
      H   36            1S( 0.76)


 NBO analysis skipped by request.
 1\1\GINC-DELLA-R1C3N13\SP\RB3LYP TD-FC\6-31G(d)\C16H14N2O4\BJS4\22-Aug
 -2020\0\\# TD(NStates=10, Root=1) B3LYP/6-31G* scf=qc volume pop=NPA d
 ensity=current Geom=AllCheck Guess=Read\\Title Card Required\\0,1\C,0,
 -3.9225203199,-0.5163924765,1.2214599844\C,0,-5.1240711187,-0.54935887
 83,2.127398468\O,0,-6.1418031848,0.4251271578,1.7138056177\C,0,-6.0452
 578704,1.6408623822,2.2459055204\O,0,-5.2387835689,2.0480467364,3.0442
 820795\N,0,-7.0179647712,2.5216882044,1.6313239412\N,0,-8.1359009022,2
 .4685496629,2.1761585213\C,0,-9.0770955475,3.4266188901,1.6303101032\O
 ,0,-9.4006971435,4.4077298609,2.2523184314\O,0,-9.5631452319,2.9841101
 185,0.473545111\C,0,-10.6310561651,3.7884176136,-0.1331129268\C,0,-10.
 0807043838,4.8251147352,-1.0754286372\C,0,-9.8896944025,4.5162782355,-
 2.427964594\C,0,-9.3732887165,5.4687036112,-3.3062178238\C,0,-9.042920
 4329,6.7417287252,-2.8374831255\C,0,-9.2299945326,7.0578901072,-1.4901
 264713\C,0,-9.7464642156,6.1050807509,-0.6122720887\C,0,-2.832176106,0
 .3150709588,1.5122519018\C,0,-1.7259125562,0.3472904877,0.6632930087\C
 ,0,-1.6981631614,-0.4499149413,-0.4829091173\C,0,-2.7806858564,-1.2805
 443471,-0.779600466\C,0,-3.8864741381,-1.3124668763,0.069607971\H,0,-4
 .8596788121,-0.3412762188,3.1653662285\H,0,-5.6504755134,-1.5029963647
 ,2.0639297706\H,0,-11.2120204686,4.2380621331,0.6742415361\H,0,-11.236
 6467239,3.0484662151,-0.6589843282\H,0,-10.1481454718,3.525075106,-2.7
 937736791\H,0,-9.2312975411,5.2187371858,-4.3541080023\H,0,-8.64243881
 5,7.4859239764,-3.5207161261\H,0,-8.9747596132,8.0479161406,-1.1222426
 028\H,0,-9.8836917758,6.3443135116,0.4381758\H,0,-2.8612809268,0.94114
 02125,2.3992111635\H,0,-0.8847192476,0.9938409167,0.8978564754\H,0,-0.
 8344592718,-0.4257751247,-1.142044423\H,0,-2.7624127346,-1.9045479717,
 -1.6689991658\H,0,-4.7286687578,-1.9610904367,-0.1608380559\\Version=E
 S64L-G16RevA.03\State=1-A\HF=-1028.4822518\RMSD=8.964e-09\Dipole=0.097
 476,-0.8093096,-1.3677065\Quadrupole=3.7465194,3.0150829,-6.7616023,-3
 .84636,1.6309812,-5.4301987\PG=C01 [X(C16H14N2O4)]\\@


 Democracy is the recurrent suspicion that more than half of the people
 are right more than half of the time.
 -- E. B. White
 Job cpu time:       0 days  0 hours 56 minutes  9.0 seconds.
 Elapsed time:       0 days  0 hours 11 minutes 14.3 seconds.
 File lengths (MBytes):  RWF=   1047 Int=      0 D2E=      0 Chk=    268 Scr=      1
 Normal termination of Gaussian 16 at Sat Aug 22 19:03:57 2020.
