 Entering Gaussian System, Link 0=g16
 Input=azadicarboxylate_3_conf26123.com
 Output=azadicarboxylate_3_conf26123.log
 Initial command:
 /opt/export//g16/l1.exe "/scratch/bjs4/job.76777/Gau-76780.inp" -scrdir="/scratch/bjs4/job.76777/"
 Entering Link 1 = /opt/export//g16/l1.exe PID=     76781.
  
 Copyright (c) 1988,1990,1992,1993,1995,1998,2003,2009,2016,
            Gaussian, Inc.  All Rights Reserved.
  
 This is part of the Gaussian(R) 16 program.  It is based on
 the Gaussian(R) 09 system (copyright 2009, Gaussian, Inc.),
 the Gaussian(R) 03 system (copyright 2003, Gaussian, Inc.),
 the Gaussian(R) 98 system (copyright 1998, Gaussian, Inc.),
 the Gaussian(R) 94 system (copyright 1995, Gaussian, Inc.),
 the Gaussian 92(TM) system (copyright 1992, Gaussian, Inc.),
 the Gaussian 90(TM) system (copyright 1990, Gaussian, Inc.),
 the Gaussian 88(TM) system (copyright 1988, Gaussian, Inc.),
 the Gaussian 86(TM) system (copyright 1986, Carnegie Mellon
 University), and the Gaussian 82(TM) system (copyright 1983,
 Carnegie Mellon University). Gaussian is a federally registered
 trademark of Gaussian, Inc.
  
 This software contains proprietary and confidential information,
 including trade secrets, belonging to Gaussian, Inc.
  
 This software is provided under written license and may be
 used, copied, transmitted, or stored only in accord with that
 written license.
  
 The following legend is applicable only to US Government
 contracts under FAR:
  
                    RESTRICTED RIGHTS LEGEND
  
 Use, reproduction and disclosure by the US Government is
 subject to restrictions as set forth in subparagraphs (a)
 and (c) of the Commercial Computer Software - Restricted
 Rights clause in FAR 52.227-19.
  
 Gaussian, Inc.
 340 Quinnipiac St., Bldg. 40, Wallingford CT 06492
  
  
 ---------------------------------------------------------------
 Warning -- This program may not be used in any manner that
 competes with the business of Gaussian, Inc. or will provide
 assistance to any competitor of Gaussian, Inc.  The licensee
 of this program is prohibited from giving any competitor of
 Gaussian, Inc. access to this program.  By using this program,
 the user acknowledges that Gaussian, Inc. is engaged in the
 business of creating and licensing software in the field of
 computational chemistry and represents and warrants to the
 licensee that it is not a competitor of Gaussian, Inc. and that
 it will not use this program in any manner prohibited above.
 ---------------------------------------------------------------
  

 Cite this work as:
 Gaussian 16, Revision A.03,
 M. J. Frisch, G. W. Trucks, H. B. Schlegel, G. E. Scuseria, 
 M. A. Robb, J. R. Cheeseman, G. Scalmani, V. Barone, 
 G. A. Petersson, H. Nakatsuji, X. Li, M. Caricato, A. V. Marenich, 
 J. Bloino, B. G. Janesko, R. Gomperts, B. Mennucci, H. P. Hratchian, 
 J. V. Ortiz, A. F. Izmaylov, J. L. Sonnenberg, D. Williams-Young, 
 F. Ding, F. Lipparini, F. Egidi, J. Goings, B. Peng, A. Petrone, 
 T. Henderson, D. Ranasinghe, V. G. Zakrzewski, J. Gao, N. Rega, 
 G. Zheng, W. Liang, M. Hada, M. Ehara, K. Toyota, R. Fukuda, 
 J. Hasegawa, M. Ishida, T. Nakajima, Y. Honda, O. Kitao, H. Nakai, 
 T. Vreven, K. Throssell, J. A. Montgomery, Jr., J. E. Peralta, 
 F. Ogliaro, M. J. Bearpark, J. J. Heyd, E. N. Brothers, K. N. Kudin, 
 V. N. Staroverov, T. A. Keith, R. Kobayashi, J. Normand, 
 K. Raghavachari, A. P. Rendell, J. C. Burant, S. S. Iyengar, 
 J. Tomasi, M. Cossi, J. M. Millam, M. Klene, C. Adamo, R. Cammi, 
 J. W. Ochterski, R. L. Martin, K. Morokuma, O. Farkas, 
 J. B. Foresman, and D. J. Fox, Gaussian, Inc., Wallingford CT, 2016.
 
 ******************************************
 Gaussian 16:  ES64L-G16RevA.03 25-Dec-2016
                22-Aug-2020 
 ******************************************
 %nprocshared=5
 Will use up to    5 processors via shared memory.
 %Mem=10GB
 %Chk=azadicarboxylate_3_conf261.chk
 ---------------------------------
 # opt=CalcAll B3LYP/6-31G* scf=qc
 ---------------------------------
 1/10=4,18=20,19=15,26=3,38=1/1,3;
 2/9=110,12=2,17=6,18=5,40=1/2;
 3/5=1,6=6,7=1,11=2,25=1,30=1,71=2,74=-5,140=1/1,2,3;
 4//1;
 5/5=2,8=3,38=5/8;
 8/6=4,10=90,11=11/1;
 11/6=1,8=1,9=11,15=111,16=1/1,2,10;
 10/6=1/2;
 6/7=2,8=2,9=2,10=2,18=1,28=1/1;
 7/10=1,25=1/1,2,3,16;
 1/10=4,18=20,19=15,26=3/3(3);
 2/9=110/2;
 7/8=1,9=1,25=1,44=-1/16;
 99//99;
 2/9=110/2;
 3/5=1,6=6,7=1,11=2,25=1,30=1,71=2,74=-5,140=1/1,2,3;
 4/5=5,16=3,69=1/1;
 5/5=2,8=3,38=5/8;
 8/6=4,10=90,11=11/1;
 11/6=1,8=1,9=11,15=111,16=1/1,2,10;
 10/6=1/2;
 7/10=1,25=1/1,2,3,16;
 1/10=4,18=20,19=15,26=3/3(-8);
 2/9=110/2;
 6/7=2,8=2,9=2,10=2,18=1,19=2,28=1/1;
 7/8=1,9=1,25=1,44=-1/16;
 99//99;
 -------------------
 Title Card Required
 -------------------
 Symbolic Z-matrix:
 Charge =  0 Multiplicity = 1
 C                    -5.84607  -1.32065   1.61659 
 C                    -5.77285  -0.7987    0.19836 
 O1                   -6.00409   0.61625   0.16883 
 C2                   -5.0041    1.3932   -0.331 
 O3                   -3.93618   0.95738  -0.74807 
 N4                   -5.404     2.7122   -0.3088 
 N5                   -6.6449    2.8402   -0.4308 
 C6                   -7.0458    4.1568   -0.3655 
 O7                   -6.49846   5.05974   0.25758 
 O8                   -8.18479   4.31423  -1.09426 
 C                    -8.76148   5.62718  -1.11936 
 C                    -8.82417   6.15307  -2.53634 
 C                    -9.83185   7.04028  -2.9457 
 C                    -9.87273   7.51439  -4.25991 
 C                    -8.89536   7.11986  -5.16981 
 C                    -7.86716   6.26928  -4.77212 
 C                    -7.82864   5.79245  -3.45873 
 Cl                   -8.95883   7.68458  -6.79366 
 C                    -7.00684  -1.17605   2.39244 
 C                    -7.05447  -1.66575   3.70087 
 C                    -5.94828  -2.32007   4.23701 
 C                    -4.80109  -2.50462   3.46977 
 C                    -4.75258  -2.01202   2.16271 
 Cl                   -5.9982   -2.90214   5.85525 
 H                    -6.56437  -1.27597  -0.39037 
 H                    -4.81461  -1.0783   -0.25333 
 H                    -8.22141   6.33602  -0.48248 
 H                    -9.78248   5.5474   -0.73001 
 H                    -10.60016   7.36311  -2.24536 
 H                    -10.66994   8.18675  -4.56564 
 H                    -7.09661   5.97041  -5.47792 
 H                    -7.01715   5.1293   -3.1642 
 H                    -7.88218  -0.67217   1.98649 
 H                    -7.95465  -1.53022   4.29475 
 H                    -3.94135  -3.02605   3.88251 
 H                    -3.84857  -2.16648   1.57635 
 

 GradGradGradGradGradGradGradGradGradGradGradGradGradGradGradGradGradGrad
 Berny optimization.
 Initialization pass.
                           ----------------------------
                           !    Initial Parameters    !
                           ! (Angstroms and Degrees)  !
 --------------------------                            --------------------------
 ! Name  Definition              Value          Derivative Info.                !
 --------------------------------------------------------------------------------
 ! R1    R(1,2)                  1.513          calculate D2E/DX2 analytically  !
 ! R2    R(1,19)                 1.4037         calculate D2E/DX2 analytically  !
 ! R3    R(1,23)                 1.4043         calculate D2E/DX2 analytically  !
 ! R4    R(2,3)                  1.434          calculate D2E/DX2 analytically  !
 ! R5    R(2,25)                 1.0959         calculate D2E/DX2 analytically  !
 ! R6    R(2,26)                 1.0956         calculate D2E/DX2 analytically  !
 ! R7    R(3,4)                  1.3614         calculate D2E/DX2 analytically  !
 ! R8    R(4,5)                  1.2265         calculate D2E/DX2 analytically  !
 ! R9    R(4,6)                  1.3785         calculate D2E/DX2 analytically  !
 ! R10   R(6,7)                  1.2534         calculate D2E/DX2 analytically  !
 ! R11   R(7,8)                  1.3778         calculate D2E/DX2 analytically  !
 ! R12   R(8,9)                  1.226          calculate D2E/DX2 analytically  !
 ! R13   R(8,10)                 1.3613         calculate D2E/DX2 analytically  !
 ! R14   R(10,11)                1.4342         calculate D2E/DX2 analytically  !
 ! R15   R(11,12)                1.5127         calculate D2E/DX2 analytically  !
 ! R16   R(11,27)                1.0953         calculate D2E/DX2 analytically  !
 ! R17   R(11,28)                1.0956         calculate D2E/DX2 analytically  !
 ! R18   R(12,13)                1.4036         calculate D2E/DX2 analytically  !
 ! R19   R(12,17)                1.4043         calculate D2E/DX2 analytically  !
 ! R20   R(13,14)                1.3977         calculate D2E/DX2 analytically  !
 ! R21   R(13,29)                1.0886         calculate D2E/DX2 analytically  !
 ! R22   R(14,15)                1.3924         calculate D2E/DX2 analytically  !
 ! R23   R(14,30)                1.0868         calculate D2E/DX2 analytically  !
 ! R24   R(15,16)                1.3924         calculate D2E/DX2 analytically  !
 ! R25   R(15,18)                1.7204         calculate D2E/DX2 analytically  !
 ! R26   R(16,17)                1.3978         calculate D2E/DX2 analytically  !
 ! R27   R(16,31)                1.0868         calculate D2E/DX2 analytically  !
 ! R28   R(17,32)                1.0886         calculate D2E/DX2 analytically  !
 ! R29   R(19,20)                1.3979         calculate D2E/DX2 analytically  !
 ! R30   R(19,33)                1.0885         calculate D2E/DX2 analytically  !
 ! R31   R(20,21)                1.3926         calculate D2E/DX2 analytically  !
 ! R32   R(20,34)                1.0869         calculate D2E/DX2 analytically  !
 ! R33   R(21,22)                1.3924         calculate D2E/DX2 analytically  !
 ! R34   R(21,24)                1.7205         calculate D2E/DX2 analytically  !
 ! R35   R(22,23)                1.3976         calculate D2E/DX2 analytically  !
 ! R36   R(22,35)                1.0869         calculate D2E/DX2 analytically  !
 ! R37   R(23,36)                1.0885         calculate D2E/DX2 analytically  !
 ! A1    A(2,1,19)             121.5066         calculate D2E/DX2 analytically  !
 ! A2    A(2,1,23)             119.782          calculate D2E/DX2 analytically  !
 ! A3    A(19,1,23)            118.6664         calculate D2E/DX2 analytically  !
 ! A4    A(1,2,3)              110.6028         calculate D2E/DX2 analytically  !
 ! A5    A(1,2,25)             108.5652         calculate D2E/DX2 analytically  !
 ! A6    A(1,2,26)             109.9212         calculate D2E/DX2 analytically  !
 ! A7    A(3,2,25)             107.5896         calculate D2E/DX2 analytically  !
 ! A8    A(3,2,26)             112.6028         calculate D2E/DX2 analytically  !
 ! A9    A(25,2,26)            107.4026         calculate D2E/DX2 analytically  !
 ! A10   A(2,3,4)              116.886          calculate D2E/DX2 analytically  !
 ! A11   A(3,4,5)              124.1666         calculate D2E/DX2 analytically  !
 ! A12   A(3,4,6)              109.0911         calculate D2E/DX2 analytically  !
 ! A13   A(5,4,6)              126.7319         calculate D2E/DX2 analytically  !
 ! A14   A(4,6,7)              112.5413         calculate D2E/DX2 analytically  !
 ! A15   A(6,7,8)              112.397          calculate D2E/DX2 analytically  !
 ! A16   A(7,8,9)              126.7227         calculate D2E/DX2 analytically  !
 ! A17   A(7,8,10)             109.1826         calculate D2E/DX2 analytically  !
 ! A18   A(9,8,10)             124.0851         calculate D2E/DX2 analytically  !
 ! A19   A(8,10,11)            116.85           calculate D2E/DX2 analytically  !
 ! A20   A(10,11,12)           110.567          calculate D2E/DX2 analytically  !
 ! A21   A(10,11,27)           112.581          calculate D2E/DX2 analytically  !
 ! A22   A(10,11,28)           107.5671         calculate D2E/DX2 analytically  !
 ! A23   A(12,11,27)           109.8834         calculate D2E/DX2 analytically  !
 ! A24   A(12,11,28)           108.637          calculate D2E/DX2 analytically  !
 ! A25   A(27,11,28)           107.4562         calculate D2E/DX2 analytically  !
 ! A26   A(11,12,13)           121.5124         calculate D2E/DX2 analytically  !
 ! A27   A(11,12,17)           119.7769         calculate D2E/DX2 analytically  !
 ! A28   A(13,12,17)           118.6667         calculate D2E/DX2 analytically  !
 ! A29   A(12,13,14)           120.6391         calculate D2E/DX2 analytically  !
 ! A30   A(12,13,29)           120.4325         calculate D2E/DX2 analytically  !
 ! A31   A(14,13,29)           118.9261         calculate D2E/DX2 analytically  !
 ! A32   A(13,14,15)           119.8538         calculate D2E/DX2 analytically  !
 ! A33   A(13,14,30)           119.7241         calculate D2E/DX2 analytically  !
 ! A34   A(15,14,30)           120.4219         calculate D2E/DX2 analytically  !
 ! A35   A(14,15,16)           120.3157         calculate D2E/DX2 analytically  !
 ! A36   A(14,15,18)           119.8604         calculate D2E/DX2 analytically  !
 ! A37   A(16,15,18)           119.8239         calculate D2E/DX2 analytically  !
 ! A38   A(15,16,17)           119.808          calculate D2E/DX2 analytically  !
 ! A39   A(15,16,31)           120.4            calculate D2E/DX2 analytically  !
 ! A40   A(17,16,31)           119.7914         calculate D2E/DX2 analytically  !
 ! A41   A(12,17,16)           120.667          calculate D2E/DX2 analytically  !
 ! A42   A(12,17,32)           120.4775         calculate D2E/DX2 analytically  !
 ! A43   A(16,17,32)           118.8537         calculate D2E/DX2 analytically  !
 ! A44   A(1,19,20)            120.6276         calculate D2E/DX2 analytically  !
 ! A45   A(1,19,33)            120.4344         calculate D2E/DX2 analytically  !
 ! A46   A(20,19,33)           118.9358         calculate D2E/DX2 analytically  !
 ! A47   A(19,20,21)           119.8613         calculate D2E/DX2 analytically  !
 ! A48   A(19,20,34)           119.7334         calculate D2E/DX2 analytically  !
 ! A49   A(21,20,34)           120.405          calculate D2E/DX2 analytically  !
 ! A50   A(20,21,22)           120.3047         calculate D2E/DX2 analytically  !
 ! A51   A(20,21,24)           119.8707         calculate D2E/DX2 analytically  !
 ! A52   A(22,21,24)           119.8246         calculate D2E/DX2 analytically  !
 ! A53   A(21,22,23)           119.8143         calculate D2E/DX2 analytically  !
 ! A54   A(21,22,35)           120.4001         calculate D2E/DX2 analytically  !
 ! A55   A(23,22,35)           119.7851         calculate D2E/DX2 analytically  !
 ! A56   A(1,23,22)            120.6766         calculate D2E/DX2 analytically  !
 ! A57   A(1,23,36)            120.4684         calculate D2E/DX2 analytically  !
 ! A58   A(22,23,36)           118.8533         calculate D2E/DX2 analytically  !
 ! D1    D(19,1,2,3)            59.2942         calculate D2E/DX2 analytically  !
 ! D2    D(19,1,2,25)          -58.5345         calculate D2E/DX2 analytically  !
 ! D3    D(19,1,2,26)         -175.7477         calculate D2E/DX2 analytically  !
 ! D4    D(23,1,2,3)          -123.1774         calculate D2E/DX2 analytically  !
 ! D5    D(23,1,2,25)          118.994          calculate D2E/DX2 analytically  !
 ! D6    D(23,1,2,26)            1.7807         calculate D2E/DX2 analytically  !
 ! D7    D(2,1,19,20)          179.9785         calculate D2E/DX2 analytically  !
 ! D8    D(2,1,19,33)           -0.5614         calculate D2E/DX2 analytically  !
 ! D9    D(23,1,19,20)           2.4233         calculate D2E/DX2 analytically  !
 ! D10   D(23,1,19,33)        -178.1166         calculate D2E/DX2 analytically  !
 ! D11   D(2,1,23,22)         -179.8655         calculate D2E/DX2 analytically  !
 ! D12   D(2,1,23,36)            0.6178         calculate D2E/DX2 analytically  !
 ! D13   D(19,1,23,22)          -2.2671         calculate D2E/DX2 analytically  !
 ! D14   D(19,1,23,36)         178.2162         calculate D2E/DX2 analytically  !
 ! D15   D(1,2,3,4)            120.0002         calculate D2E/DX2 analytically  !
 ! D16   D(25,2,3,4)          -121.5754         calculate D2E/DX2 analytically  !
 ! D17   D(26,2,3,4)            -3.4217         calculate D2E/DX2 analytically  !
 ! D18   D(2,3,4,5)             -0.08           calculate D2E/DX2 analytically  !
 ! D19   D(2,3,4,6)            178.8166         calculate D2E/DX2 analytically  !
 ! D20   D(3,4,6,7)            -29.6472         calculate D2E/DX2 analytically  !
 ! D21   D(5,4,6,7)            149.2136         calculate D2E/DX2 analytically  !
 ! D22   D(4,6,7,8)            178.0638         calculate D2E/DX2 analytically  !
 ! D23   D(6,7,8,9)            -29.6471         calculate D2E/DX2 analytically  !
 ! D24   D(6,7,8,10)           151.4486         calculate D2E/DX2 analytically  !
 ! D25   D(7,8,10,11)          178.9395         calculate D2E/DX2 analytically  !
 ! D26   D(9,8,10,11)            0.0            calculate D2E/DX2 analytically  !
 ! D27   D(8,10,11,12)         120.0001         calculate D2E/DX2 analytically  !
 ! D28   D(8,10,11,27)          -3.3301         calculate D2E/DX2 analytically  !
 ! D29   D(8,10,11,28)        -121.5225         calculate D2E/DX2 analytically  !
 ! D30   D(10,11,12,13)        149.6479         calculate D2E/DX2 analytically  !
 ! D31   D(10,11,12,17)        -32.7956         calculate D2E/DX2 analytically  !
 ! D32   D(27,11,12,13)        -85.474          calculate D2E/DX2 analytically  !
 ! D33   D(27,11,12,17)         92.0825         calculate D2E/DX2 analytically  !
 ! D34   D(28,11,12,13)         31.8241         calculate D2E/DX2 analytically  !
 ! D35   D(28,11,12,17)       -150.6194         calculate D2E/DX2 analytically  !
 ! D36   D(11,12,13,14)       -179.9701         calculate D2E/DX2 analytically  !
 ! D37   D(11,12,13,29)         -0.5273         calculate D2E/DX2 analytically  !
 ! D38   D(17,12,13,14)          2.4471         calculate D2E/DX2 analytically  !
 ! D39   D(17,12,13,29)       -178.1102         calculate D2E/DX2 analytically  !
 ! D40   D(11,12,17,16)       -179.8986         calculate D2E/DX2 analytically  !
 ! D41   D(11,12,17,32)          0.5955         calculate D2E/DX2 analytically  !
 ! D42   D(13,12,17,16)         -2.2727         calculate D2E/DX2 analytically  !
 ! D43   D(13,12,17,32)        178.2214         calculate D2E/DX2 analytically  !
 ! D44   D(12,13,14,15)         -0.9086         calculate D2E/DX2 analytically  !
 ! D45   D(12,13,14,30)        178.8985         calculate D2E/DX2 analytically  !
 ! D46   D(29,13,14,15)        179.6404         calculate D2E/DX2 analytically  !
 ! D47   D(29,13,14,30)         -0.5525         calculate D2E/DX2 analytically  !
 ! D48   D(13,14,15,16)         -0.8574         calculate D2E/DX2 analytically  !
 ! D49   D(13,14,15,18)        179.0856         calculate D2E/DX2 analytically  !
 ! D50   D(30,14,15,16)        179.3369         calculate D2E/DX2 analytically  !
 ! D51   D(30,14,15,18)         -0.7201         calculate D2E/DX2 analytically  !
 ! D52   D(14,15,16,17)          1.0305         calculate D2E/DX2 analytically  !
 ! D53   D(14,15,16,31)       -179.2316         calculate D2E/DX2 analytically  !
 ! D54   D(18,15,16,17)       -178.9126         calculate D2E/DX2 analytically  !
 ! D55   D(18,15,16,31)          0.8254         calculate D2E/DX2 analytically  !
 ! D56   D(15,16,17,12)          0.5588         calculate D2E/DX2 analytically  !
 ! D57   D(15,16,17,32)       -179.9274         calculate D2E/DX2 analytically  !
 ! D58   D(31,16,17,12)       -179.1807         calculate D2E/DX2 analytically  !
 ! D59   D(31,16,17,32)          0.3331         calculate D2E/DX2 analytically  !
 ! D60   D(1,19,20,21)          -0.8872         calculate D2E/DX2 analytically  !
 ! D61   D(1,19,20,34)         178.9148         calculate D2E/DX2 analytically  !
 ! D62   D(33,19,20,21)        179.6447         calculate D2E/DX2 analytically  !
 ! D63   D(33,19,20,34)         -0.5533         calculate D2E/DX2 analytically  !
 ! D64   D(19,20,21,22)         -0.8582         calculate D2E/DX2 analytically  !
 ! D65   D(19,20,21,24)        179.0885         calculate D2E/DX2 analytically  !
 ! D66   D(34,20,21,22)        179.3411         calculate D2E/DX2 analytically  !
 ! D67   D(34,20,21,24)         -0.7122         calculate D2E/DX2 analytically  !
 ! D68   D(20,21,22,23)          1.0139         calculate D2E/DX2 analytically  !
 ! D69   D(20,21,22,35)       -179.2324         calculate D2E/DX2 analytically  !
 ! D70   D(24,21,22,23)       -178.9329         calculate D2E/DX2 analytically  !
 ! D71   D(24,21,22,35)          0.8208         calculate D2E/DX2 analytically  !
 ! D72   D(21,22,23,1)           0.5729         calculate D2E/DX2 analytically  !
 ! D73   D(21,22,23,36)       -179.9027         calculate D2E/DX2 analytically  !
 ! D74   D(35,22,23,1)        -179.1823         calculate D2E/DX2 analytically  !
 ! D75   D(35,22,23,36)          0.3421         calculate D2E/DX2 analytically  !
 --------------------------------------------------------------------------------
 Trust Radius=3.00D-01 FncErr=1.00D-07 GrdErr=1.00D-06 EigMax=2.50D+02 EigMin=1.00D-04
 Number of steps in this run=    180 maximum allowed number of steps=    216.
 GradGradGradGradGradGradGradGradGradGradGradGradGradGradGradGradGradGrad

                          Input orientation:                          
 ---------------------------------------------------------------------
 Center     Atomic      Atomic             Coordinates (Angstroms)
 Number     Number       Type             X           Y           Z
 ---------------------------------------------------------------------
      1          6           0       -5.846070   -1.320650    1.616590
      2          6           0       -5.772850   -0.798700    0.198360
      3          8           0       -6.004090    0.616250    0.168830
      4          6           0       -5.004100    1.393200   -0.331000
      5          8           0       -3.936180    0.957380   -0.748070
      6          7           0       -5.404000    2.712200   -0.308800
      7          7           0       -6.644900    2.840200   -0.430800
      8          6           0       -7.045800    4.156800   -0.365500
      9          8           0       -6.498460    5.059740    0.257580
     10          8           0       -8.184790    4.314230   -1.094260
     11          6           0       -8.761480    5.627180   -1.119360
     12          6           0       -8.824170    6.153070   -2.536340
     13          6           0       -9.831850    7.040280   -2.945700
     14          6           0       -9.872730    7.514390   -4.259910
     15          6           0       -8.895360    7.119860   -5.169810
     16          6           0       -7.867160    6.269280   -4.772120
     17          6           0       -7.828640    5.792450   -3.458730
     18         17           0       -8.958830    7.684580   -6.793660
     19          6           0       -7.006840   -1.176050    2.392440
     20          6           0       -7.054470   -1.665750    3.700870
     21          6           0       -5.948280   -2.320070    4.237010
     22          6           0       -4.801090   -2.504620    3.469770
     23          6           0       -4.752580   -2.012020    2.162710
     24         17           0       -5.998200   -2.902140    5.855250
     25          1           0       -6.564370   -1.275970   -0.390370
     26          1           0       -4.814610   -1.078300   -0.253330
     27          1           0       -8.221410    6.336020   -0.482480
     28          1           0       -9.782480    5.547400   -0.730010
     29          1           0      -10.600160    7.363110   -2.245360
     30          1           0      -10.669940    8.186750   -4.565640
     31          1           0       -7.096610    5.970410   -5.477920
     32          1           0       -7.017150    5.129300   -3.164200
     33          1           0       -7.882180   -0.672170    1.986490
     34          1           0       -7.954650   -1.530220    4.294750
     35          1           0       -3.941350   -3.026050    3.882510
     36          1           0       -3.848570   -2.166480    1.576350
 ---------------------------------------------------------------------
                    Distance matrix (angstroms):
                    1          2          3          4          5
     1  C    0.000000
     2  C    1.513000   0.000000
     3  O    2.423337   1.434025   0.000000
     4  C    3.444852   2.382357   1.361419   0.000000
     5  O    3.798515   2.711624   2.287647   1.226515   0.000000
     6  N    4.490705   3.566466   2.231870   1.378468   2.329559
     7  N    4.705593   3.794457   2.390847   2.189976   3.314036
     8  C    5.947310   5.147360   3.729097   3.436163   4.477989
     9  O    6.556058   5.903502   4.471787   4.002881   4.940240
    10  O    6.676091   5.799170   4.475031   4.385404   5.425770
    11  C    8.016070   7.208344   5.862768   5.715418   6.725207
    12  C    9.053861   8.069464   6.776959   6.489439   7.354288
    13  C   10.325022   9.370710   8.100630   7.876125   8.751581
    14  C   11.349237  10.285556   9.064461   8.752649   9.516829
    15  C   11.251471  10.063345   8.897048   8.446930   9.062086
    16  C   10.124597   8.890902   7.735681   7.190050   7.737045
    17  C    8.960226   7.813056   6.578846   6.092136   6.773243
    18  Cl  12.708885  11.445735  10.352200   9.848214  10.345598
    19  C    1.403652   2.545410   3.026927   4.246073   4.882958
    20  C    2.433834   3.829086   4.334297   5.460510   6.033043
    21  C    2.806401   4.319263   5.017487   5.962094   6.296130
    22  C    2.434758   3.815312   4.699281   5.447941   5.524825
    23  C    1.404265   2.524236   3.528404   4.228165   4.237509
    24  Cl   4.526643   6.039507   6.686888   7.596570   7.921594
    25  H    2.132097   1.095853   2.051125   3.092319   3.467446
    26  H    2.149243   1.095639   2.112956   2.479970   2.271651
    27  H    8.286913   7.573851   6.168994   5.899619   6.882115
    28  H    8.256632   7.563861   6.276973   6.344250   7.432889
    29  H   10.626557   9.792335   8.513066   8.403600   9.363967
    30  H   12.323974  11.287847  10.074613   9.807458  10.591561
    31  H   10.249657   8.932712   7.857889   7.198627   7.582234
    32  H    8.113522   6.927934   5.701140   5.102728   5.721449
    33  H    2.168662   2.768157   2.913955   4.233185   5.069928
    34  H    3.415051   4.698487   5.043336   6.216888   6.911316
    35  H    3.416247   4.678508   5.595772   6.197812   6.108192
    36  H    2.169575   2.733593   3.790906   4.200542   3.894754
                    6          7          8          9         10
     6  N    0.000000
     7  N    1.253436   0.000000
     8  C    2.187599   1.377832   0.000000
     9  O    2.651334   2.328448   1.226014   0.000000
    10  O    3.303973   2.232533   1.361313   2.286256   0.000000
    11  C    4.519600   3.566691   2.381991   2.709098   1.434238
    12  C    5.338453   4.489724   3.443870   3.796088   2.422753
    13  C    6.729887   5.841408   4.768015   5.029417   3.684018
    14  C    7.657796   6.850476   5.867825   6.149693   4.807443
    15  C    7.432798   6.770397   5.939865   6.280588   4.998658
    16  C    6.216205   5.665648   4.955351   5.351094   4.177291
    17  C    5.028805   4.391512   3.585563   4.014624   2.811173
    18  Cl   8.911498   8.325159   7.578005   7.916009   6.666450
    19  C    4.998428   4.922596   6.003919   6.610685   6.609676
    20  C    6.161814   6.127155   7.101938   7.576121   7.747971
    21  C    6.803262   6.993005   8.021066   8.402390   8.799906
    22  C    6.469645   6.868856   8.007655   8.391589   8.875613
    23  C    5.371309   5.818179   7.050180   7.529104   7.899959
    24  Cl   8.358792   8.538566   9.466986   9.745548  10.254407
    25  H    4.154349   4.117156   5.454116   6.369098   5.862726
    26  H    3.836450   4.328522   5.691842   6.385289   6.414410
    27  H    4.593477   3.835207   2.478859   2.268289   2.112641
    28  H    5.233246   4.154861   3.091287   3.463803   2.050853
    29  H    7.237493   6.276418   5.142740   5.328618   4.056441
    30  H    8.707555   7.866603   6.856826   7.102316   5.763928
    31  H    6.340399   5.956146   5.424813   5.838070   4.810774
    32  H    4.074056   3.584693   2.962988   3.461568   2.512444
    33  H    4.781599   4.439695   5.436022   6.144803   5.869138
    34  H    6.759927   6.568625   7.408518   7.864274   7.953112
    35  H    7.254925   7.767027   8.903737   9.222740   9.831314
    36  H    5.456617   6.075768   7.346899   7.808926   8.242243
                   11         12         13         14         15
    11  C    0.000000
    12  C    1.512720   0.000000
    13  C    2.545204   1.403615   0.000000
    14  C    3.828772   2.433796   1.397712   0.000000
    15  C    4.318815   2.806228   2.414542   1.392417   0.000000
    16  C    3.815070   2.434766   2.791103   2.415568   1.392422
    17  C    2.523917   1.404254   2.415187   2.790210   2.414064
    18  Cl   6.039000   4.526415   3.998010   2.698901   1.720414
    19  C    7.854644   9.017292  10.197279  11.313303  11.383157
    20  C    8.907038  10.157193  11.299809  12.473635  12.620015
    21  C    9.988172  11.222438  12.421336  13.576287  13.648656
    22  C   10.142533  11.278924  12.552765  13.632683  13.565987
    23  C    9.230419  10.262924  11.568879  12.578492  12.422548
    24  Cl  11.359146  12.664980  13.820467  15.027726  15.178471
    25  H    7.280948   8.056210   9.293339  10.158199   9.938135
    26  H    7.828873   8.577961   9.916294  10.745770  10.393946
    27  H    1.095329   2.148286   3.026046   4.287702   4.799966
    28  H    1.095627   2.132609   2.672155   4.041954   4.792853
    29  H    2.768045   2.168642   1.088575   2.147196   3.393806
    30  H    4.697921   3.414788   2.154297   1.086776   2.156945
    31  H    4.678316   3.416244   3.877924   3.402097   2.156773
    32  H    2.733485   2.169708   3.409123   3.878604   3.393004
    33  H    7.078226   8.241798   9.360000  10.488068  10.628024
    34  H    9.010657  10.317597  11.375477  12.596278  12.856388
    35  H   11.096429  12.218830  13.514934  14.580163  14.471565
    36  H    9.599202  10.530229  11.874890  12.809047  12.538615
                   16         17         18         19         20
    16  C    0.000000
    17  C    1.397800   0.000000
    18  Cl   2.698415   3.997405   0.000000
    19  C   10.368414   9.136276  12.911447   0.000000
    20  C   11.636869  10.367447  14.184161   1.397878   0.000000
    21  C   12.594580  11.339010  15.193160   2.414906   1.392565
    22  C   12.422192  11.225486  15.048076   2.791249   2.415540
    23  C   11.241548  10.098143  13.853994   2.415225   2.790078
    24  Cl  14.161531  12.872320  16.758249   3.998474   2.699207
    25  H    8.822006   7.808699  11.270626   2.819538   4.138885
    26  H    9.150107   8.158809  11.693526   3.437372   4.582332
    27  H    4.304760   3.050869   6.495644   8.134589   9.104421
    28  H    4.530807   3.365034   6.481804   7.915722   8.894058
    29  H    3.879468   3.408895   4.846064  10.360424  11.377604
    30  H    3.402191   3.876971   2.853795  12.226823  13.359587
    31  H    1.086841   2.155149   2.852615  10.631205  11.939971
    32  H    2.146504   1.088592   4.844849   8.404391   9.659362
    33  H    9.688280   8.452491  12.169038   1.088536   2.147418
    34  H   11.960267  10.665544  14.452465   2.154661   1.086916
    35  H   13.293523  12.114899  15.933402   3.878149   3.402194
    36  H   11.296645  10.224361  13.900187   3.409050   3.878416
                   21         22         23         24         25
    21  C    0.000000
    22  C    1.392394   0.000000
    23  C    2.413983   1.397646   0.000000
    24  Cl   1.720465   2.698446   3.997341   0.000000
    25  H    4.783551   4.418079   3.215987   6.478638   0.000000
    26  H    4.794826   3.986984   2.590932   6.483982   1.766214
    27  H   10.117737  10.270140   9.419107  11.421606   7.790806
    28  H   10.063273  10.357964   9.529562  11.361389   7.551819
    29  H   12.546915  12.793124  11.896148  13.862658   9.714026
    30  H   14.497379  14.605362  13.575741  15.918027  11.127967
    31  H   12.823049  12.536216  11.295702  14.435006   8.869976
    32  H   10.555260  10.353609   9.192535  12.119933   6.994757
    33  H    3.394169   3.879576   3.408907   4.846592   2.784001
    34  H    2.157016   3.402203   3.876981   2.853948   4.893656
    35  H    2.156814   1.086921   2.155009   2.852663   5.310416
    36  H    3.392858   2.146316   1.088536   4.844697   3.469375
                   26         27         28         29         30
    26  H    0.000000
    27  H    8.162778   0.000000
    28  H    8.294990   1.766390   0.000000
    29  H   10.425842   3.133865   2.502337   0.000000
    30  H   11.778033   5.108101   4.739811   2.463118   0.000000
    31  H    9.065770   5.133543   5.471333   4.966278   4.302686
    32  H    7.201295   3.177741   3.707713   4.321127   4.965371
    33  H    3.819911   7.438119   7.047947   9.479541  11.365847
    34  H    5.545188   9.207107   8.870281  11.351788  13.427539
    35  H    4.654190  11.181252  11.353334  13.777706  15.568303
    36  H    2.337755   9.780236  10.001726  12.288308  13.836347
                   31         32         33         34         35
    31  H    0.000000
    32  H    2.463144   0.000000
    33  H   10.022894   7.806083   0.000000
    34  H   12.349120  10.043109   2.463649   0.000000
    35  H   13.360749  11.208318   4.966466   4.302793   0.000000
    36  H   11.248176   9.259650   4.321017   4.965322   2.462893
                   36
    36  H    0.000000
 Stoichiometry    C16H12Cl2N2O4
 Framework group  C1[X(C16H12Cl2N2O4)]
 Deg. of freedom   102
 Full point group                 C1      NOp   1
 Largest Abelian subgroup         C1      NOp   1
 Largest concise Abelian subgroup C1      NOp   1
                         Standard orientation:                         
 ---------------------------------------------------------------------
 Center     Atomic      Atomic             Coordinates (Angstroms)
 Number     Number       Type             X           Y           Z
 ---------------------------------------------------------------------
      1          6           0        4.364156    0.789748   -0.724485
      2          6           0        3.082546    1.561961   -0.948838
      3          8           0        1.993190    0.946182   -0.248448
      4          6           0        1.357978    1.702193    0.688789
      5          8           0        1.661759    2.858545    0.962479
      6          7           0        0.329368    0.967746    1.238991
      7          7           0       -0.148855    0.133412    0.435069
      8          6           0       -1.147850   -0.628141    1.001166
      9          8           0       -1.251965   -0.939905    2.182298
     10          8           0       -2.018141   -1.017943    0.029661
     11          6           0       -3.117034   -1.844260    0.437916
     12          6           0       -4.434265   -1.169286    0.125447
     13          6           0       -5.585917   -1.912528   -0.176915
     14          6           0       -6.793579   -1.269870   -0.463520
     15          6           0       -6.863565    0.120416   -0.431406
     16          6           0       -5.740678    0.873155   -0.097718
     17          6           0       -4.532188    0.230271    0.185294
     18         17           0       -8.343867    0.912466   -0.807155
     19          6           0        4.480155   -0.560822   -1.088826
     20          6           0        5.673310   -1.256580   -0.873499
     21          6           0        6.765402   -0.602194   -0.309274
     22          6           0        6.680264    0.746777    0.025074
     23          6           0        5.486146    1.441318   -0.187312
     24         17           0        8.226415   -1.464278   -0.022480
     25          1           0        2.843983    1.538957   -2.018161
     26          1           0        3.224763    2.611220   -0.667321
     27          1           0       -3.074991   -2.104999    1.500928
     28          1           0       -3.058224   -2.778073   -0.132113
     29          1           0       -5.549736   -3.000244   -0.200626
     30          1           0       -7.671706   -1.859452   -0.713258
     31          1           0       -5.797022    1.957883   -0.060098
     32          1           0       -3.664436    0.833843    0.445561
     33          1           0        3.637865   -1.085560   -1.536162
     34          1           0        5.741433   -2.306843   -1.144964
     35          1           0        7.535692    1.262170    0.454038
     36          1           0        5.437431    2.495837    0.078257
 ---------------------------------------------------------------------
 Rotational constants (GHZ):           0.6092687           0.0482682           0.0465231
 Standard basis: 6-31G(d) (6D, 7F)
 There are   392 symmetry adapted cartesian basis functions of A   symmetry.
 There are   392 symmetry adapted basis functions of A   symmetry.
   392 basis functions,   768 primitive gaussians,   392 cartesian basis functions
    94 alpha electrons       94 beta electrons
       nuclear repulsion energy      2003.3131934032 Hartrees.
 NAtoms=   36 NActive=   36 NUniq=   36 SFac= 1.00D+00 NAtFMM=   60 NAOKFM=F Big=F
 Integral buffers will be    131072 words long.
 Raffenetti 2 integral format.
 Two-electron integral symmetry is turned on.
 One-electron integrals computed using PRISM.
 NBasis=   392 RedAO= T EigKep=  4.55D-04  NBF=   392
 NBsUse=   392 1.00D-06 EigRej= -1.00D+00 NBFU=   392
 ExpMin= 1.43D-01 ExpMax= 2.52D+04 ExpMxC= 3.78D+03 IAcc=3 IRadAn=         5 AccDes= 0.00D+00
 Harris functional with IExCor=  402 and IRadAn=       5 diagonalized for initial guess.
 HarFok:  IExCor=  402 AccDes= 0.00D+00 IRadAn=         5 IDoV= 1 UseB2=F ITyADJ=14
 ICtDFT=  3500011 ScaDFX=  1.000000  1.000000  1.000000  1.000000
 FoFCou: FMM=F IPFlag=           0 FMFlag=      100000 FMFlg1=           0
         NFxFlg=           0 DoJE=T BraDBF=F KetDBF=T FulRan=T
         wScrn=  0.000000 ICntrl=       500 IOpCl=  0 I1Cent=   200000004 NGrid=           0
         NMat0=    1 NMatS0=      1 NMatT0=    0 NMatD0=    1 NMtDS0=    0 NMtDT0=    0
 Petite list used in FoFCou.
 Gradient too large for Newton-Raphson -- use scaled steepest descent instead.
 Gradient too large for Newton-Raphson -- use scaled steepest descent instead.
 Gradient too large for Newton-Raphson -- use scaled steepest descent instead.
     Minimum is close to point  2 DX=  2.11D-02 DF= -2.51D-05 DXR=  5.02D-02 DFR=  2.52D-03 which will be used.
 Gradient too large for Newton-Raphson -- use scaled steepest descent instead.
 Gradient too large for Newton-Raphson -- use scaled steepest descent instead.
     Accept linear search using points  1 and  2.
 Gradient too large for Newton-Raphson -- use scaled steepest descent instead.
     Minimum is close to point  3 DX=  6.30D-02 DF= -2.31D-06 DXR=  6.54D-02 DFR=  4.30D-03 which will be used.
 LinEq1:  Iter=  0 NonCon=     1 RMS=5.86D-05 Max=2.94D-03 NDo=     1
 AX will form     1 AO Fock derivatives at one time.
 LinEq1:  Iter=  1 NonCon=     1 RMS=7.39D-05 Max=4.13D-03 NDo=     1
 LinEq1:  Iter=  2 NonCon=     1 RMS=1.60D-05 Max=1.08D-03 NDo=     1
 LinEq1:  Iter=  3 NonCon=     1 RMS=1.72D-05 Max=1.16D-03 NDo=     1
 LinEq1:  Iter=  4 NonCon=     1 RMS=9.92D-06 Max=7.39D-04 NDo=     1
 LinEq1:  Iter=  5 NonCon=     1 RMS=5.79D-06 Max=3.62D-04 NDo=     1
 LinEq1:  Iter=  6 NonCon=     1 RMS=3.25D-06 Max=1.56D-04 NDo=     1
 LinEq1:  Iter=  7 NonCon=     1 RMS=2.53D-06 Max=9.61D-05 NDo=     1
 LinEq1:  Iter=  8 NonCon=     1 RMS=2.02D-06 Max=8.53D-05 NDo=     1
 LinEq1:  Iter=  9 NonCon=     1 RMS=1.40D-06 Max=6.20D-05 NDo=     1
 LinEq1:  Iter= 10 NonCon=     1 RMS=8.36D-07 Max=4.50D-05 NDo=     1
 LinEq1:  Iter= 11 NonCon=     1 RMS=4.98D-07 Max=2.10D-05 NDo=     1
 LinEq1:  Iter= 12 NonCon=     1 RMS=3.25D-07 Max=1.60D-05 NDo=     1
 LinEq1:  Iter= 13 NonCon=     1 RMS=1.76D-07 Max=8.26D-06 NDo=     1
 LinEq1:  Iter= 14 NonCon=     1 RMS=1.13D-07 Max=5.90D-06 NDo=     1
 LinEq1:  Iter= 15 NonCon=     1 RMS=6.92D-08 Max=2.66D-06 NDo=     1
 LinEq1:  Iter= 16 NonCon=     1 RMS=4.74D-08 Max=1.36D-06 NDo=     1
 LinEq1:  Iter= 17 NonCon=     1 RMS=1.88D-08 Max=5.02D-07 NDo=     1
 LinEq1:  Iter= 18 NonCon=     1 RMS=7.57D-09 Max=2.87D-07 NDo=     1
 LinEq1:  Iter= 19 NonCon=     0 RMS=4.87D-09 Max=1.37D-07 NDo=     1
 Linear equations converged to 2.367D-08 2.367D-07 after    19 iterations.
     Minimum is close to point  2 DX=  6.37D-04 DF= -1.66D-11 DXR=  6.37D-04 DFR=  4.04D-07 which will be used.
 LinEq1:  Iter=  0 NonCon=     1 RMS=1.06D-07 Max=6.58D-06 NDo=     1
 LinEq1:  Iter=  1 NonCon=     1 RMS=9.18D-08 Max=3.33D-06 NDo=     1
 LinEq1:  Iter=  2 NonCon=     1 RMS=5.39D-08 Max=3.07D-06 NDo=     1
 LinEq1:  Iter=  3 NonCon=     1 RMS=4.30D-08 Max=3.30D-06 NDo=     1
 LinEq1:  Iter=  4 NonCon=     1 RMS=3.98D-08 Max=3.43D-06 NDo=     1
 LinEq1:  Iter=  5 NonCon=     1 RMS=2.63D-08 Max=1.29D-06 NDo=     1
 LinEq1:  Iter=  6 NonCon=     1 RMS=1.75D-08 Max=7.25D-07 NDo=     1
 LinEq1:  Iter=  7 NonCon=     1 RMS=1.15D-08 Max=4.13D-07 NDo=     1
 LinEq1:  Iter=  8 NonCon=     1 RMS=7.33D-09 Max=2.67D-07 NDo=     1
 LinEq1:  Iter=  9 NonCon=     1 RMS=4.98D-09 Max=2.02D-07 NDo=     1
 LinEq1:  Iter= 10 NonCon=     1 RMS=1.77D-09 Max=5.53D-08 NDo=     1
 LinEq1:  Iter= 11 NonCon=     1 RMS=1.18D-09 Max=5.01D-08 NDo=     1
 LinEq1:  Iter= 12 NonCon=     1 RMS=9.33D-10 Max=6.10D-08 NDo=     1
 LinEq1:  Iter= 13 NonCon=     1 RMS=8.11D-10 Max=4.01D-08 NDo=     1
 LinEq1:  Iter= 14 NonCon=     1 RMS=3.75D-10 Max=1.80D-08 NDo=     1
 LinEq1:  Iter= 15 NonCon=     1 RMS=2.57D-10 Max=1.23D-08 NDo=     1
 LinEq1:  Iter= 16 NonCon=     1 RMS=1.58D-10 Max=4.88D-09 NDo=     1
 LinEq1:  Iter= 17 NonCon=     1 RMS=6.87D-11 Max=1.90D-09 NDo=     1
 LinEq1:  Iter= 18 NonCon=     1 RMS=3.72D-11 Max=1.24D-09 NDo=     1
 LinEq1:  Iter= 19 NonCon=     0 RMS=1.72D-11 Max=5.99D-10 NDo=     1
 Linear equations converged to 9.266D-11 9.266D-10 after    19 iterations.
 SCF Done:  E(RB3LYP) =  -1947.64834617     a.u. after    9 cycles
            Convg  =    0.2324D-09                    58 Fock formations.
              S**2 =  0.0000                  -V/T =  2.0063
 DoSCS=F DFT=T ScalE2(SS,OS)=  1.000000  1.000000
 Range of M.O.s used for correlation:     1   392
 NBasis=   392 NAE=    94 NBE=    94 NFC=     0 NFV=     0
 NROrb=    392 NOA=    94 NOB=    94 NVA=   298 NVB=   298

 **** Warning!!: The smallest alpha delta epsilon is  0.99033507D-01

 Symmetrizing basis deriv contribution to polar:
 IMax=3 JMax=2 DiffMx= 0.00D+00
 G2DrvN: will do    37 centers at a time, making    1 passes.
 Calling FoFCou, ICntrl=  3107 FMM=F I1Cent=   0 AccDes= 0.00D+00.
 End of G2Drv F.D. properties file   721 does not exist.
 End of G2Drv F.D. properties file   722 does not exist.
 End of G2Drv F.D. properties file   788 does not exist.
          IDoAtm=111111111111111111111111111111111111
          Differentiating once with respect to electric field.
                with respect to dipole field.
          Differentiating once with respect to nuclear coordinates.
 CalDSu exits because no D1Ps are significant.
          There are   111 degrees of freedom in the 1st order CPHF.  IDoFFX=6 NUNeed=     3.
    108 vectors produced by pass  0 Test12= 2.80D-14 1.00D-09 XBig12= 2.89D+02 6.87D+00.
 AX will form   108 AO Fock derivatives at one time.
    108 vectors produced by pass  1 Test12= 2.80D-14 1.00D-09 XBig12= 6.08D+01 1.23D+00.
    108 vectors produced by pass  2 Test12= 2.80D-14 1.00D-09 XBig12= 1.10D+00 1.89D-01.
    108 vectors produced by pass  3 Test12= 2.80D-14 1.00D-09 XBig12= 8.54D-03 1.04D-02.
    108 vectors produced by pass  4 Test12= 2.80D-14 1.00D-09 XBig12= 2.33D-05 3.86D-04.
    101 vectors produced by pass  5 Test12= 2.80D-14 1.00D-09 XBig12= 3.21D-08 1.81D-05.
     34 vectors produced by pass  6 Test12= 2.80D-14 1.00D-09 XBig12= 3.44D-11 5.88D-07.
      3 vectors produced by pass  7 Test12= 2.80D-14 1.00D-09 XBig12= 3.40D-14 1.54D-08.
 InvSVY:  IOpt=1 It=  1 EMax= 1.07D-14
 Solved reduced A of dimension   678 with   111 vectors.
 Isotropic polarizability for W=    0.000000      214.63 Bohr**3.
 End of Minotr F.D. properties file   721 does not exist.
 End of Minotr F.D. properties file   722 does not exist.
 End of Minotr F.D. properties file   788 does not exist.

 **********************************************************************

            Population analysis using the SCF density.

 **********************************************************************

 Orbital symmetries:
       Occupied  (A) (A) (A) (A) (A) (A) (A) (A) (A) (A) (A) (A)
                 (A) (A) (A) (A) (A) (A) (A) (A) (A) (A) (A) (A)
                 (A) (A) (A) (A) (A) (A) (A) (A) (A) (A) (A) (A)
                 (A) (A) (A) (A) (A) (A) (A) (A) (A) (A) (A) (A)
                 (A) (A) (A) (A) (A) (A) (A) (A) (A) (A) (A) (A)
                 (A) (A) (A) (A) (A) (A) (A) (A) (A) (A) (A) (A)
                 (A) (A) (A) (A) (A) (A) (A) (A) (A) (A) (A) (A)
                 (A) (A) (A) (A) (A) (A) (A) (A) (A) (A)
       Virtual   (A) (A) (A) (A) (A) (A) (A) (A) (A) (A) (A) (A)
                 (A) (A) (A) (A) (A) (A) (A) (A) (A) (A) (A) (A)
                 (A) (A) (A) (A) (A) (A) (A) (A) (A) (A) (A) (A)
                 (A) (A) (A) (A) (A) (A) (A) (A) (A) (A) (A) (A)
                 (A) (A) (A) (A) (A) (A) (A) (A) (A) (A) (A) (A)
                 (A) (A) (A) (A) (A) (A) (A) (A) (A) (A) (A) (A)
                 (A) (A) (A) (A) (A) (A) (A) (A) (A) (A) (A) (A)
                 (A) (A) (A) (A) (A) (A) (A) (A) (A) (A) (A) (A)
                 (A) (A) (A) (A) (A) (A) (A) (A) (A) (A) (A) (A)
                 (A) (A) (A) (A) (A) (A) (A) (A) (A) (A) (A) (A)
                 (A) (A) (A) (A) (A) (A) (A) (A) (A) (A) (A) (A)
                 (A) (A) (A) (A) (A) (A) (A) (A) (A) (A) (A) (A)
                 (A) (A) (A) (A) (A) (A) (A) (A) (A) (A) (A) (A)
                 (A) (A) (A) (A) (A) (A) (A) (A) (A) (A) (A) (A)
                 (A) (A) (A) (A) (A) (A) (A) (A) (A) (A) (A) (A)
                 (A) (A) (A) (A) (A) (A) (A) (A) (A) (A) (A) (A)
                 (A) (A) (A) (A) (A) (A) (A) (A) (A) (A) (A) (A)
                 (A) (A) (A) (A) (A) (A) (A) (A) (A) (A) (A) (A)
                 (A) (A) (A) (A) (A) (A) (A) (A) (A) (A) (A) (A)
                 (A) (A) (A) (A) (A) (A) (A) (A) (A) (A) (A) (A)
                 (A) (A) (A) (A) (A) (A) (A) (A) (A) (A) (A) (A)
                 (A) (A) (A) (A) (A) (A) (A) (A) (A) (A) (A) (A)
                 (A) (A) (A) (A) (A) (A) (A) (A) (A) (A) (A) (A)
                 (A) (A) (A) (A) (A) (A) (A) (A) (A) (A) (A) (A)
                 (A) (A) (A) (A) (A) (A) (A) (A) (A) (A)
 The electronic state is 1-A.
 Alpha  occ. eigenvalues -- -101.55595-101.55455 -19.22726 -19.21753 -19.17503
 Alpha  occ. eigenvalues --  -19.17062 -14.44162 -14.44106 -10.36753 -10.36717
 Alpha  occ. eigenvalues --  -10.26850 -10.26301 -10.25995 -10.25780 -10.21965
 Alpha  occ. eigenvalues --  -10.21689 -10.21381 -10.21286 -10.21260 -10.21241
 Alpha  occ. eigenvalues --  -10.21204 -10.21169 -10.21121 -10.21046  -9.47287
 Alpha  occ. eigenvalues --   -9.47148  -7.23675  -7.23535  -7.22715  -7.22674
 Alpha  occ. eigenvalues --   -7.22574  -7.22536  -1.15596  -1.13363  -1.07868
 Alpha  occ. eigenvalues --   -1.04350  -1.03855  -0.90424  -0.90322  -0.86226
 Alpha  occ. eigenvalues --   -0.85323  -0.84322  -0.78334  -0.77034  -0.76666
 Alpha  occ. eigenvalues --   -0.76618  -0.71622  -0.69714  -0.64466  -0.63415
 Alpha  occ. eigenvalues --   -0.62955  -0.60524  -0.59618  -0.57818  -0.57051
 Alpha  occ. eigenvalues --   -0.53511  -0.52863  -0.52626  -0.50864  -0.50346
 Alpha  occ. eigenvalues --   -0.49232  -0.48474  -0.48297  -0.47786  -0.47413
 Alpha  occ. eigenvalues --   -0.45871  -0.45274  -0.44818  -0.44292  -0.43968
 Alpha  occ. eigenvalues --   -0.43901  -0.42420  -0.40588  -0.40351  -0.39702
 Alpha  occ. eigenvalues --   -0.38822  -0.38512  -0.37767  -0.37437  -0.36923
 Alpha  occ. eigenvalues --   -0.36288  -0.33965  -0.33860  -0.32622  -0.32230
 Alpha  occ. eigenvalues --   -0.32069  -0.31909  -0.31792  -0.31529  -0.27812
 Alpha  occ. eigenvalues --   -0.27049  -0.26994  -0.25187  -0.24785
 Alpha virt. eigenvalues --   -0.14882  -0.02797  -0.02275  -0.02160  -0.02146
 Alpha virt. eigenvalues --    0.00430   0.03178   0.03357   0.03448   0.09905
 Alpha virt. eigenvalues --    0.10216   0.10363   0.11015   0.11590   0.11986
 Alpha virt. eigenvalues --    0.12323   0.12464   0.13055   0.14173   0.16162
 Alpha virt. eigenvalues --    0.16445   0.16591   0.17119   0.19080   0.19158
 Alpha virt. eigenvalues --    0.21093   0.21364   0.22019   0.22462   0.25852
 Alpha virt. eigenvalues --    0.26939   0.27387   0.27437   0.28146   0.28970
 Alpha virt. eigenvalues --    0.29883   0.30441   0.31925   0.32336   0.33283
 Alpha virt. eigenvalues --    0.37326   0.39221   0.39328   0.40705   0.41031
 Alpha virt. eigenvalues --    0.41317   0.41835   0.42676   0.43701   0.43808
 Alpha virt. eigenvalues --    0.45249   0.46193   0.47285   0.47503   0.49818
 Alpha virt. eigenvalues --    0.50512   0.52197   0.52899   0.53480   0.53841
 Alpha virt. eigenvalues --    0.53992   0.54658   0.55039   0.56431   0.57019
 Alpha virt. eigenvalues --    0.57250   0.57275   0.57649   0.57675   0.57754
 Alpha virt. eigenvalues --    0.58248   0.58658   0.59589   0.59768   0.60401
 Alpha virt. eigenvalues --    0.61216   0.61324   0.62027   0.62499   0.63004
 Alpha virt. eigenvalues --    0.63767   0.63928   0.64621   0.65402   0.67204
 Alpha virt. eigenvalues --    0.67538   0.70011   0.70315   0.72252   0.73150
 Alpha virt. eigenvalues --    0.73633   0.74656   0.74735   0.75430   0.75744
 Alpha virt. eigenvalues --    0.77489   0.79572   0.79603   0.80449   0.80813
 Alpha virt. eigenvalues --    0.82234   0.82576   0.83164   0.84166   0.84414
 Alpha virt. eigenvalues --    0.84870   0.85218   0.85401   0.85735   0.86483
 Alpha virt. eigenvalues --    0.86615   0.86647   0.88538   0.89575   0.89808
 Alpha virt. eigenvalues --    0.91046   0.91812   0.91910   0.92636   0.92833
 Alpha virt. eigenvalues --    0.93528   0.95293   0.96733   0.97385   0.98412
 Alpha virt. eigenvalues --    1.00164   1.00851   1.01815   1.03164   1.03407
 Alpha virt. eigenvalues --    1.04853   1.05292   1.07951   1.08669   1.09705
 Alpha virt. eigenvalues --    1.10650   1.11572   1.11861   1.13323   1.13975
 Alpha virt. eigenvalues --    1.14859   1.15299   1.16393   1.17318   1.18975
 Alpha virt. eigenvalues --    1.20113   1.22917   1.23598   1.24897   1.26400
 Alpha virt. eigenvalues --    1.29336   1.32534   1.33561   1.35354   1.35777
 Alpha virt. eigenvalues --    1.38859   1.39883   1.41119   1.41567   1.42423
 Alpha virt. eigenvalues --    1.42850   1.43488   1.43789   1.45065   1.45364
 Alpha virt. eigenvalues --    1.45869   1.48962   1.49171   1.49434   1.51544
 Alpha virt. eigenvalues --    1.53937   1.54921   1.55061   1.56355   1.57424
 Alpha virt. eigenvalues --    1.59032   1.62086   1.65935   1.67293   1.68139
 Alpha virt. eigenvalues --    1.69678   1.72826   1.74946   1.76539   1.77303
 Alpha virt. eigenvalues --    1.77547   1.78393   1.78884   1.79205   1.80466
 Alpha virt. eigenvalues --    1.81892   1.82211   1.83274   1.84361   1.85684
 Alpha virt. eigenvalues --    1.87477   1.88519   1.89576   1.93338   1.93709
 Alpha virt. eigenvalues --    1.94921   1.95273   1.95629   1.98093   1.99080
 Alpha virt. eigenvalues --    2.00287   2.02421   2.03354   2.04093   2.05219
 Alpha virt. eigenvalues --    2.05633   2.06753   2.07868   2.10068   2.11008
 Alpha virt. eigenvalues --    2.11613   2.11982   2.12571   2.13004   2.14544
 Alpha virt. eigenvalues --    2.16666   2.19735   2.21920   2.22247   2.23332
 Alpha virt. eigenvalues --    2.26141   2.27403   2.28550   2.28640   2.28913
 Alpha virt. eigenvalues --    2.31186   2.32211   2.33117   2.35786   2.36070
 Alpha virt. eigenvalues --    2.40197   2.41691   2.45387   2.47777   2.52663
 Alpha virt. eigenvalues --    2.55242   2.56006   2.57389   2.58678   2.59247
 Alpha virt. eigenvalues --    2.62080   2.62753   2.63302   2.65148   2.66699
 Alpha virt. eigenvalues --    2.68434   2.69270   2.70157   2.71898   2.73478
 Alpha virt. eigenvalues --    2.73671   2.74792   2.75745   2.76662   2.77815
 Alpha virt. eigenvalues --    2.82678   2.84362   2.86208   2.86556   2.91851
 Alpha virt. eigenvalues --    2.94054   3.03066   3.04322   3.06092   3.09056
 Alpha virt. eigenvalues --    3.18055   3.22803   3.35897   3.35927   3.76529
 Alpha virt. eigenvalues --    3.89554   3.95837   3.99581   4.04596   4.04683
 Alpha virt. eigenvalues --    4.08217   4.08679   4.09370   4.09626   4.16966
 Alpha virt. eigenvalues --    4.21203   4.25310   4.28906   4.30439   4.30946
 Alpha virt. eigenvalues --    4.31119   4.32845   4.36863   4.40353   4.43461
 Alpha virt. eigenvalues --    4.45526   4.67807   4.67872
          Condensed to atoms (all electrons):
               1          2          3          4          5          6
     1  C    4.696646   0.352725  -0.045927  -0.000325   0.000114  -0.000285
     2  C    0.352725   5.031932   0.188222  -0.014869  -0.011688   0.004144
     3  O   -0.045927   0.188222   8.256908   0.274902  -0.078493  -0.102256
     4  C   -0.000325  -0.014869   0.274902   4.222428   0.557383   0.237509
     5  O    0.000114  -0.011688  -0.078493   0.557383   8.012313  -0.060049
     6  N   -0.000285   0.004144  -0.102256   0.237509  -0.060049   6.954437
     7  N    0.000044   0.000244  -0.007219  -0.051595   0.000542   0.220583
     8  C   -0.000000   0.000017   0.000174   0.004269  -0.000170  -0.051879
     9  O   -0.000000   0.000000  -0.000006   0.000412  -0.000000   0.001337
    10  O    0.000000  -0.000000  -0.000000  -0.000171   0.000000   0.001904
    11  C    0.000000   0.000000   0.000000   0.000004  -0.000000  -0.000060
    12  C   -0.000000  -0.000000   0.000000   0.000000  -0.000000   0.000017
    13  C   -0.000000  -0.000000  -0.000000   0.000000  -0.000000  -0.000000
    14  C    0.000000   0.000000  -0.000000  -0.000000   0.000000  -0.000000
    15  C    0.000000  -0.000000   0.000000  -0.000000  -0.000000   0.000000
    16  C    0.000000   0.000000   0.000000  -0.000000   0.000000  -0.000000
    17  C    0.000000   0.000000  -0.000000   0.000000   0.000000  -0.000032
    18  Cl  -0.000000  -0.000000   0.000000  -0.000000  -0.000000  -0.000000
    19  C    0.527337  -0.061380   0.002893  -0.000022   0.000025  -0.000026
    20  C   -0.020651   0.005276   0.000084   0.000002   0.000000  -0.000000
    21  C   -0.030958   0.000395   0.000003  -0.000001   0.000000   0.000000
    22  C   -0.025230   0.006772  -0.000073  -0.000008  -0.000000  -0.000000
    23  C    0.551180  -0.046359  -0.000110   0.000345  -0.000066  -0.000008
    24  Cl   0.000598   0.000007  -0.000000  -0.000000   0.000000  -0.000000
    25  H   -0.035079   0.363070  -0.038130   0.002712   0.000546  -0.000176
    26  H   -0.031904   0.345747  -0.026322  -0.009578   0.022176   0.000601
    27  H    0.000000   0.000000   0.000000   0.000000  -0.000000   0.000007
    28  H    0.000000   0.000000  -0.000000  -0.000000   0.000000  -0.000004
    29  H    0.000000  -0.000000   0.000000  -0.000000  -0.000000   0.000000
    30  H    0.000000   0.000000   0.000000   0.000000  -0.000000  -0.000000
    31  H   -0.000000   0.000000  -0.000000   0.000000   0.000000  -0.000000
    32  H    0.000000  -0.000000   0.000000  -0.000002  -0.000000   0.000117
    33  H   -0.043574  -0.007999   0.002420   0.000016   0.000002   0.000001
    34  H    0.003539  -0.000154   0.000001  -0.000000  -0.000000   0.000000
    35  H    0.003694  -0.000162   0.000001   0.000000  -0.000000   0.000000
    36  H   -0.039456  -0.009248   0.000044   0.000030   0.000015   0.000000
               7          8          9         10         11         12
     1  C    0.000044  -0.000000  -0.000000   0.000000   0.000000  -0.000000
     2  C    0.000244   0.000017   0.000000  -0.000000   0.000000  -0.000000
     3  O   -0.007219   0.000174  -0.000006  -0.000000   0.000000   0.000000
     4  C   -0.051595   0.004269   0.000412  -0.000171   0.000004   0.000000
     5  O    0.000542  -0.000170  -0.000000   0.000000  -0.000000  -0.000000
     6  N    0.220583  -0.051879   0.001337   0.001904  -0.000060   0.000017
     7  N    6.968460   0.239558  -0.078305  -0.087401   0.003469  -0.000069
     8  C    0.239558   4.242026   0.540865   0.282326  -0.016608  -0.001990
     9  O   -0.078305   0.540865   8.026270  -0.077392  -0.008931  -0.000507
    10  O   -0.087401   0.282326  -0.077392   8.227978   0.187919  -0.037482
    11  C    0.003469  -0.016608  -0.008931   0.187919   5.034192   0.338297
    12  C   -0.000069  -0.001990  -0.000507  -0.037482   0.338297   4.725575
    13  C    0.000003   0.000003  -0.000019   0.001411  -0.055535   0.526843
    14  C   -0.000000   0.000001   0.000000  -0.000060   0.005620  -0.016593
    15  C    0.000000  -0.000001  -0.000000  -0.000003   0.000432  -0.031874
    16  C   -0.000001   0.000012  -0.000000   0.000376   0.006070  -0.019824
    17  C   -0.000319   0.001325   0.000216   0.001386  -0.060209   0.537981
    18  Cl   0.000000  -0.000000  -0.000000   0.000000   0.000008   0.000681
    19  C   -0.000015   0.000000   0.000000   0.000000   0.000000   0.000000
    20  C   -0.000000   0.000000  -0.000000   0.000000   0.000000   0.000000
    21  C    0.000000   0.000000  -0.000000  -0.000000   0.000000  -0.000000
    22  C    0.000000   0.000000  -0.000000   0.000000  -0.000000  -0.000000
    23  C   -0.000001  -0.000000  -0.000000  -0.000000   0.000000   0.000000
    24  Cl  -0.000000  -0.000000  -0.000000  -0.000000   0.000000   0.000000
    25  H    0.000083  -0.000002   0.000000  -0.000000  -0.000000   0.000000
    26  H   -0.000106   0.000003  -0.000000  -0.000000   0.000000   0.000000
    27  H    0.000572  -0.007563   0.022140  -0.028648   0.345629  -0.027330
    28  H   -0.000090   0.001509   0.000581  -0.031484   0.368220  -0.044034
    29  H   -0.000000  -0.000002  -0.000000   0.000052  -0.007999  -0.047391
    30  H    0.000000   0.000000  -0.000000   0.000000  -0.000141   0.003422
    31  H   -0.000000   0.000000  -0.000000   0.000002  -0.000178   0.003584
    32  H    0.000290   0.001371  -0.000291   0.007131  -0.011544  -0.043977
    33  H    0.000025  -0.000001   0.000000  -0.000000  -0.000000   0.000000
    34  H   -0.000000  -0.000000   0.000000   0.000000  -0.000000   0.000000
    35  H   -0.000000  -0.000000   0.000000  -0.000000  -0.000000   0.000000
    36  H   -0.000000   0.000000   0.000000  -0.000000   0.000000   0.000000
              13         14         15         16         17         18
     1  C   -0.000000   0.000000   0.000000   0.000000   0.000000  -0.000000
     2  C   -0.000000   0.000000  -0.000000   0.000000   0.000000  -0.000000
     3  O   -0.000000  -0.000000   0.000000   0.000000  -0.000000   0.000000
     4  C    0.000000  -0.000000  -0.000000  -0.000000   0.000000  -0.000000
     5  O   -0.000000   0.000000  -0.000000   0.000000   0.000000  -0.000000
     6  N   -0.000000  -0.000000   0.000000  -0.000000  -0.000032  -0.000000
     7  N    0.000003  -0.000000   0.000000  -0.000001  -0.000319   0.000000
     8  C    0.000003   0.000001  -0.000001   0.000012   0.001325  -0.000000
     9  O   -0.000019   0.000000  -0.000000  -0.000000   0.000216  -0.000000
    10  O    0.001411  -0.000060  -0.000003   0.000376   0.001386   0.000000
    11  C   -0.055535   0.005620   0.000432   0.006070  -0.060209   0.000008
    12  C    0.526843  -0.016593  -0.031874  -0.019824   0.537981   0.000681
    13  C    4.971435   0.508561  -0.031551  -0.042451  -0.034723   0.004617
    14  C    0.508561   4.927236   0.533255  -0.034839  -0.042596  -0.071563
    15  C   -0.031551   0.533255   4.932043   0.529848  -0.030240   0.238406
    16  C   -0.042451  -0.034839   0.529848   4.931331   0.510626  -0.071431
    17  C   -0.034723  -0.042596  -0.030240   0.510626   4.939573   0.004552
    18  Cl   0.004617  -0.071563   0.238406  -0.071431   0.004552  16.902312
    19  C    0.000000  -0.000000   0.000000  -0.000000  -0.000000   0.000000
    20  C   -0.000000  -0.000000   0.000000   0.000000   0.000000   0.000000
    21  C   -0.000000   0.000000   0.000000   0.000000   0.000000   0.000000
    22  C   -0.000000   0.000000   0.000000   0.000000   0.000000   0.000000
    23  C    0.000000  -0.000000   0.000000  -0.000000  -0.000000   0.000000
    24  Cl   0.000000   0.000000   0.000000   0.000000  -0.000000   0.000000
    25  H    0.000000  -0.000000   0.000000  -0.000000  -0.000000   0.000000
    26  H    0.000000  -0.000000  -0.000000  -0.000000  -0.000000  -0.000000
    27  H   -0.000215  -0.000202   0.000025  -0.000071  -0.002545  -0.000000
    28  H   -0.003106   0.000050   0.000005  -0.000098   0.004784  -0.000000
    29  H    0.359052  -0.041672   0.004614   0.000465   0.005429  -0.000172
    30  H   -0.035289   0.360211  -0.042756   0.004377   0.000694  -0.000364
    31  H    0.000795   0.004274  -0.043432   0.360376  -0.035410  -0.000381
    32  H    0.005617   0.000413   0.004578  -0.040794   0.357411  -0.000170
    33  H   -0.000000  -0.000000   0.000000  -0.000000  -0.000000  -0.000000
    34  H    0.000000  -0.000000  -0.000000  -0.000000  -0.000000   0.000000
    35  H    0.000000   0.000000   0.000000   0.000000  -0.000000   0.000000
    36  H   -0.000000  -0.000000   0.000000  -0.000000  -0.000000   0.000000
              19         20         21         22         23         24
     1  C    0.527337  -0.020651  -0.030958  -0.025230   0.551180   0.000598
     2  C   -0.061380   0.005276   0.000395   0.006772  -0.046359   0.000007
     3  O    0.002893   0.000084   0.000003  -0.000073  -0.000110  -0.000000
     4  C   -0.000022   0.000002  -0.000001  -0.000008   0.000345  -0.000000
     5  O    0.000025   0.000000   0.000000  -0.000000  -0.000066   0.000000
     6  N   -0.000026  -0.000000   0.000000  -0.000000  -0.000008  -0.000000
     7  N   -0.000015  -0.000000   0.000000   0.000000  -0.000001  -0.000000
     8  C    0.000000   0.000000   0.000000   0.000000  -0.000000  -0.000000
     9  O    0.000000  -0.000000  -0.000000  -0.000000  -0.000000  -0.000000
    10  O    0.000000   0.000000  -0.000000   0.000000  -0.000000  -0.000000
    11  C    0.000000   0.000000   0.000000  -0.000000   0.000000   0.000000
    12  C    0.000000   0.000000  -0.000000  -0.000000   0.000000   0.000000
    13  C    0.000000  -0.000000  -0.000000  -0.000000   0.000000   0.000000
    14  C   -0.000000  -0.000000   0.000000   0.000000  -0.000000   0.000000
    15  C    0.000000   0.000000   0.000000   0.000000   0.000000   0.000000
    16  C   -0.000000   0.000000   0.000000   0.000000  -0.000000   0.000000
    17  C   -0.000000   0.000000   0.000000   0.000000  -0.000000  -0.000000
    18  Cl   0.000000   0.000000   0.000000   0.000000   0.000000   0.000000
    19  C    4.956926   0.510928  -0.030169  -0.042124  -0.040687   0.004546
    20  C    0.510928   4.935408   0.528445  -0.035359  -0.042022  -0.071385
    21  C   -0.030169   0.528445   4.928086   0.534315  -0.031113   0.239974
    22  C   -0.042124  -0.035359   0.534315   4.940027   0.503402  -0.071974
    23  C   -0.040687  -0.042022  -0.031113   0.503402   4.948476   0.004607
    24  Cl   0.004546  -0.071385   0.239974  -0.071974   0.004607  16.898951
    25  H   -0.006950  -0.000040   0.000021  -0.000308   0.002725  -0.000000
    26  H    0.005621  -0.000115  -0.000004   0.000125  -0.004892  -0.000000
    27  H    0.000000   0.000000  -0.000000   0.000000   0.000000   0.000000
    28  H   -0.000000   0.000000   0.000000   0.000000  -0.000000  -0.000000
    29  H    0.000000   0.000000  -0.000000   0.000000  -0.000000   0.000000
    30  H   -0.000000   0.000000   0.000000   0.000000   0.000000   0.000000
    31  H   -0.000000   0.000000   0.000000   0.000000  -0.000000   0.000000
    32  H   -0.000000  -0.000000  -0.000000  -0.000000   0.000000   0.000000
    33  H    0.360897  -0.041497   0.004556   0.000458   0.005092  -0.000167
    34  H   -0.035328   0.360226  -0.043173   0.004352   0.000712  -0.000383
    35  H    0.000685   0.004325  -0.043361   0.359401  -0.034290  -0.000488
    36  H    0.005526   0.000431   0.004469  -0.041918   0.356567  -0.000167
              25         26         27         28         29         30
     1  C   -0.035079  -0.031904   0.000000   0.000000   0.000000   0.000000
     2  C    0.363070   0.345747   0.000000   0.000000  -0.000000   0.000000
     3  O   -0.038130  -0.026322   0.000000  -0.000000   0.000000   0.000000
     4  C    0.002712  -0.009578   0.000000  -0.000000  -0.000000   0.000000
     5  O    0.000546   0.022176  -0.000000   0.000000  -0.000000  -0.000000
     6  N   -0.000176   0.000601   0.000007  -0.000004   0.000000  -0.000000
     7  N    0.000083  -0.000106   0.000572  -0.000090  -0.000000   0.000000
     8  C   -0.000002   0.000003  -0.007563   0.001509  -0.000002   0.000000
     9  O    0.000000  -0.000000   0.022140   0.000581  -0.000000  -0.000000
    10  O   -0.000000  -0.000000  -0.028648  -0.031484   0.000052   0.000000
    11  C   -0.000000   0.000000   0.345629   0.368220  -0.007999  -0.000141
    12  C    0.000000   0.000000  -0.027330  -0.044034  -0.047391   0.003422
    13  C    0.000000   0.000000  -0.000215  -0.003106   0.359052  -0.035289
    14  C   -0.000000  -0.000000  -0.000202   0.000050  -0.041672   0.360211
    15  C    0.000000  -0.000000   0.000025   0.000005   0.004614  -0.042756
    16  C   -0.000000  -0.000000  -0.000071  -0.000098   0.000465   0.004377
    17  C   -0.000000  -0.000000  -0.002545   0.004784   0.005429   0.000694
    18  Cl   0.000000  -0.000000  -0.000000  -0.000000  -0.000172  -0.000364
    19  C   -0.006950   0.005621   0.000000  -0.000000   0.000000  -0.000000
    20  C   -0.000040  -0.000115   0.000000   0.000000   0.000000   0.000000
    21  C    0.000021  -0.000004  -0.000000   0.000000  -0.000000   0.000000
    22  C   -0.000308   0.000125   0.000000   0.000000   0.000000   0.000000
    23  C    0.002725  -0.004892   0.000000  -0.000000  -0.000000   0.000000
    24  Cl  -0.000000  -0.000000   0.000000  -0.000000   0.000000   0.000000
    25  H    0.572006  -0.035429  -0.000000  -0.000000   0.000000  -0.000000
    26  H   -0.035429   0.534757   0.000000  -0.000000   0.000000   0.000000
    27  H   -0.000000   0.000000   0.522629  -0.035343   0.000477   0.000003
    28  H   -0.000000  -0.000000  -0.035343   0.562612   0.005119  -0.000003
    29  H    0.000000   0.000000   0.000477   0.005119   0.590504  -0.005634
    30  H   -0.000000   0.000000   0.000003  -0.000003  -0.005634   0.558907
    31  H   -0.000000   0.000000   0.000002   0.000003   0.000016  -0.000172
    32  H    0.000000  -0.000000   0.000509   0.000192  -0.000162   0.000015
    33  H    0.001977   0.000121  -0.000000  -0.000000   0.000000   0.000000
    34  H   -0.000000   0.000002  -0.000000  -0.000000  -0.000000   0.000000
    35  H    0.000004  -0.000006  -0.000000  -0.000000   0.000000   0.000000
    36  H    0.000133   0.006802   0.000000  -0.000000   0.000000   0.000000
              31         32         33         34         35         36
     1  C   -0.000000   0.000000  -0.043574   0.003539   0.003694  -0.039456
     2  C    0.000000  -0.000000  -0.007999  -0.000154  -0.000162  -0.009248
     3  O   -0.000000   0.000000   0.002420   0.000001   0.000001   0.000044
     4  C    0.000000  -0.000002   0.000016  -0.000000   0.000000   0.000030
     5  O    0.000000  -0.000000   0.000002  -0.000000  -0.000000   0.000015
     6  N   -0.000000   0.000117   0.000001   0.000000   0.000000   0.000000
     7  N   -0.000000   0.000290   0.000025  -0.000000  -0.000000  -0.000000
     8  C    0.000000   0.001371  -0.000001  -0.000000  -0.000000   0.000000
     9  O   -0.000000  -0.000291   0.000000   0.000000   0.000000   0.000000
    10  O    0.000002   0.007131  -0.000000   0.000000  -0.000000  -0.000000
    11  C   -0.000178  -0.011544  -0.000000  -0.000000  -0.000000   0.000000
    12  C    0.003584  -0.043977   0.000000   0.000000   0.000000   0.000000
    13  C    0.000795   0.005617  -0.000000   0.000000   0.000000  -0.000000
    14  C    0.004274   0.000413  -0.000000  -0.000000   0.000000  -0.000000
    15  C   -0.043432   0.004578   0.000000  -0.000000   0.000000   0.000000
    16  C    0.360376  -0.040794  -0.000000  -0.000000   0.000000  -0.000000
    17  C   -0.035410   0.357411  -0.000000  -0.000000  -0.000000  -0.000000
    18  Cl  -0.000381  -0.000170  -0.000000   0.000000   0.000000   0.000000
    19  C   -0.000000  -0.000000   0.360897  -0.035328   0.000685   0.005526
    20  C    0.000000  -0.000000  -0.041497   0.360226   0.004325   0.000431
    21  C    0.000000  -0.000000   0.004556  -0.043173  -0.043361   0.004469
    22  C    0.000000  -0.000000   0.000458   0.004352   0.359401  -0.041918
    23  C   -0.000000   0.000000   0.005092   0.000712  -0.034290   0.356567
    24  Cl   0.000000   0.000000  -0.000167  -0.000383  -0.000488  -0.000167
    25  H   -0.000000   0.000000   0.001977  -0.000000   0.000004   0.000133
    26  H    0.000000  -0.000000   0.000121   0.000002  -0.000006   0.006802
    27  H    0.000002   0.000509  -0.000000  -0.000000  -0.000000   0.000000
    28  H    0.000003   0.000192  -0.000000  -0.000000  -0.000000  -0.000000
    29  H    0.000016  -0.000162   0.000000  -0.000000   0.000000   0.000000
    30  H   -0.000172   0.000015   0.000000   0.000000   0.000000   0.000000
    31  H    0.557884  -0.005425  -0.000000   0.000000   0.000000  -0.000000
    32  H   -0.005425   0.582087   0.000000  -0.000000  -0.000000   0.000000
    33  H   -0.000000   0.000000   0.573805  -0.005535   0.000015  -0.000167
    34  H    0.000000  -0.000000  -0.005535   0.558793  -0.000172   0.000015
    35  H    0.000000  -0.000000   0.000015  -0.000172   0.558241  -0.005527
    36  H   -0.000000   0.000000  -0.000167   0.000015  -0.005527   0.574260
 Mulliken charges:
               1
     1  C    0.137513
     2  C   -0.146692
     3  O   -0.427116
     4  C    0.776558
     5  O   -0.442652
     6  N   -0.205882
     7  N   -0.208750
     8  C    0.764756
     9  O   -0.426370
    10  O   -0.447845
    11  C   -0.128653
    12  C    0.134670
    13  C   -0.175449
    14  C   -0.132096
    15  C   -0.063349
    16  C   -0.133972
    17  C   -0.157902
    18  Cl  -0.006494
    19  C   -0.158682
    20  C   -0.134055
    21  C   -0.061485
    22  C   -0.131859
    23  C   -0.173557
    24  Cl  -0.004117
    25  H    0.172839
    26  H    0.192403
    27  H    0.209925
    28  H    0.171088
    29  H    0.137305
    30  H    0.156730
    31  H    0.158062
    32  H    0.142633
    33  H    0.149556
    34  H    0.157107
    35  H    0.157640
    36  H    0.148193
 Sum of Mulliken charges =  -0.00000
 Mulliken charges with hydrogens summed into heavy atoms:
               1
     1  C    0.137513
     2  C    0.218550
     3  O   -0.427116
     4  C    0.776558
     5  O   -0.442652
     6  N   -0.205882
     7  N   -0.208750
     8  C    0.764756
     9  O   -0.426370
    10  O   -0.447845
    11  C    0.252360
    12  C    0.134670
    13  C   -0.038144
    14  C    0.024634
    15  C   -0.063349
    16  C    0.024091
    17  C   -0.015269
    18  Cl  -0.006494
    19  C   -0.009126
    20  C    0.023052
    21  C   -0.061485
    22  C    0.025781
    23  C   -0.025365
    24  Cl  -0.004117
 APT charges:
               1
     1  C   -0.057392
     2  C    0.654465
     3  O   -0.961488
     4  C    1.306920
     5  O   -0.659057
     6  N   -0.227078
     7  N   -0.223303
     8  C    1.364427
     9  O   -0.681983
    10  O   -0.967300
    11  C    0.574577
    12  C    0.006443
    13  C   -0.008168
    14  C   -0.107544
    15  C    0.431795
    16  C   -0.095654
    17  C   -0.027800
    18  Cl  -0.362712
    19  C   -0.003024
    20  C   -0.121499
    21  C    0.456088
    22  C   -0.114361
    23  C   -0.007511
    24  Cl  -0.363406
    25  H   -0.071444
    26  H    0.015318
    27  H    0.000111
    28  H   -0.047212
    29  H    0.024717
    30  H    0.042735
    31  H    0.045133
    32  H    0.031564
    33  H    0.034635
    34  H    0.043952
    35  H    0.043354
    36  H    0.031704
 Sum of APT charges =  -0.00000
 APT charges with hydrogens summed into heavy atoms:
               1
     1  C   -0.057392
     2  C    0.598339
     3  O   -0.961488
     4  C    1.306920
     5  O   -0.659057
     6  N   -0.227078
     7  N   -0.223303
     8  C    1.364427
     9  O   -0.681983
    10  O   -0.967300
    11  C    0.527476
    12  C    0.006443
    13  C    0.016549
    14  C   -0.064809
    15  C    0.431795
    16  C   -0.050521
    17  C    0.003764
    18  Cl  -0.362712
    19  C    0.031611
    20  C   -0.077547
    21  C    0.456088
    22  C   -0.071008
    23  C    0.024193
    24  Cl  -0.363406
 Electronic spatial extent (au):  <R**2>=          20539.6090
 Charge=             -0.0000 electrons
 Dipole moment (field-independent basis, Debye):
    X=             -0.0248    Y=             -1.6335    Z=             -2.4810  Tot=              2.9706
 Quadrupole moment (field-independent basis, Debye-Ang):
   XX=           -159.2890   YY=           -141.1695   ZZ=           -157.4559
   XY=             15.5685   XZ=             -3.5918   YZ=             -1.0108
 Traceless Quadrupole moment (field-independent basis, Debye-Ang):
   XX=             -6.6508   YY=             11.4686   ZZ=             -4.8178
   XY=             15.5685   XZ=             -3.5918   YZ=             -1.0108
 Octapole moment (field-independent basis, Debye-Ang**2):
  XXX=             14.6758  YYY=            -32.4325  ZZZ=             -9.1044  XYY=            -27.0264
  XXY=             -2.7812  XXZ=             18.3062  XZZ=             16.3286  YZZ=              2.6095
  YYZ=            -13.9873  XYZ=             -4.1180
 Hexadecapole moment (field-independent basis, Debye-Ang**3):
 XXXX=         -26733.2285 YYYY=          -1636.4595 ZZZZ=           -704.7279 XXXY=            822.6715
 XXXZ=            107.6504 YYYX=             12.6876 YYYZ=            -30.0336 ZZZX=             31.7060
 ZZZY=              1.4976 XXYY=          -4114.9785 XXZZ=          -4404.8851 YYZZ=           -398.1424
 XXYZ=             82.4302 YYXZ=            -17.7864 ZZXY=            -27.2609
 N-N= 2.003313193403D+03 E-N=-8.585874155201D+03  KE= 1.935509121227D+03
  Exact polarizability: 315.160  -7.380 212.632  30.785  10.224 116.106
 Approx polarizability: 392.029  -4.639 372.955  58.022  30.478 198.308
 Calling FoFJK, ICntrl=    100127 FMM=F ISym2X=0 I1Cent= 0 IOpClX= 0 NMat=1 NMatS=1 NMatT=0.
 ***** Axes restored to original set *****
 -------------------------------------------------------------------
 Center     Atomic                   Forces (Hartrees/Bohr)
 Number     Number              X              Y              Z
 -------------------------------------------------------------------
      1        6           0.003445354   -0.003347644    0.001118756
      2        6          -0.001021269   -0.018615157    0.007061095
      3        8           0.012948150   -0.002964522   -0.002943069
      4        6           0.010378536   -0.073671846   -0.004698479
      5        8          -0.022657842    0.026840260    0.008842567
      6        7          -0.001432874    0.044441605   -0.004112601
      7        7           0.011745060   -0.035093151   -0.006140058
      8        6          -0.009421310    0.077211384    0.007518538
      9        8          -0.010115010   -0.023466176   -0.008299535
     10        8           0.011578225   -0.008084294    0.010812616
     11        6          -0.011330480    0.013431394   -0.005433059
     12        6           0.006937611   -0.001096200   -0.006086985
     13        6           0.002829558   -0.004208426   -0.001050606
     14        6          -0.003617098    0.002159076    0.005830906
     15        6           0.000604799   -0.004812147    0.013686227
     16        6           0.004423964   -0.004237211    0.003619602
     17        6          -0.003660129    0.003151814   -0.002916758
     18       17          -0.000636136    0.005859564   -0.016088800
     19        6           0.003105094   -0.000748324    0.002675947
     20        6          -0.005851182    0.004565313   -0.004793763
     21        6           0.001724460    0.004688508   -0.013903330
     22        6           0.005154582   -0.001501344   -0.003787735
     23        6          -0.004344526    0.002800748    0.003272782
     24       17          -0.000727724   -0.005943440    0.015643081
     25        1          -0.001825562    0.005685260   -0.003052873
     26        1          -0.001625465    0.007356076    0.000097343
     27        1           0.004292137   -0.007229833    0.001730748
     28        1           0.001251127   -0.004086927    0.002298710
     29        1           0.000169607   -0.001401276   -0.000294973
     30        1           0.001290829   -0.000643803   -0.000654693
     31        1          -0.001272480    0.000995317   -0.000015176
     32        1          -0.002875794    0.000869364   -0.000620313
     33        1           0.001870474    0.000204403   -0.000191339
     34        1           0.001416419   -0.000940481    0.000189343
     35        1          -0.001538538    0.000394154    0.000566987
     36        1          -0.001212568    0.001437962    0.000118896
 -------------------------------------------------------------------
 Cartesian Forces:  Max     0.077211384 RMS     0.013613682
 FormGI is forming the generalized inverse of G from B-inverse, IUseBI=4.

 GradGradGradGradGradGradGradGradGradGradGradGradGradGradGradGradGradGrad
 Berny optimization.
 Internal  Forces:  Max     0.051119620 RMS     0.008015718
 Search for a local minimum.
 Step number   1 out of a maximum of  180
 All quantities printed in internal units (Hartrees-Bohrs-Radians)
 Mixed Optimization -- RFO/linear search
 Second derivative matrix not updated -- analytic derivatives used.
 ITU=  0
     Eigenvalues ---   -0.00581  -0.00247  -0.00232  -0.00135  -0.00070
     Eigenvalues ---   -0.00030   0.01445   0.01521   0.01585   0.01708
     Eigenvalues ---    0.01714   0.01736   0.01774   0.01776   0.02022
     Eigenvalues ---    0.02027   0.02216   0.02240   0.02521   0.02523
     Eigenvalues ---    0.02671   0.02674   0.02740   0.02763   0.03052
     Eigenvalues ---    0.03103   0.06028   0.06148   0.06975   0.07218
     Eigenvalues ---    0.07253   0.09831   0.10514   0.10634   0.11389
     Eigenvalues ---    0.11411   0.11666   0.11672   0.11778   0.11989
     Eigenvalues ---    0.12012   0.12862   0.12887   0.13863   0.14001
     Eigenvalues ---    0.17393   0.17431   0.17537   0.17993   0.18566
     Eigenvalues ---    0.18828   0.19353   0.19585   0.20416   0.20486
     Eigenvalues ---    0.20628   0.21801   0.21995   0.23959   0.24375
     Eigenvalues ---    0.25075   0.26671   0.28854   0.28912   0.29451
     Eigenvalues ---    0.29453   0.29802   0.30728   0.31560   0.32430
     Eigenvalues ---    0.32697   0.32903   0.33391   0.33984   0.34298
     Eigenvalues ---    0.35573   0.35619   0.35849   0.35993   0.36123
     Eigenvalues ---    0.36155   0.36286   0.36332   0.36379   0.37242
     Eigenvalues ---    0.41412   0.41434   0.42315   0.42670   0.46832
[...]
   142    O   10  py     Val( 2p)     1.71797
   143    O   10  py     Ryd( 3p)     0.00155
   144    O   10  pz     Val( 2p)     1.73062
   145    O   10  pz     Ryd( 3p)     0.00142
   146    O   10  dxy    Ryd( 3d)     0.00092
   147    O   10  dxz    Ryd( 3d)     0.00102
   148    O   10  dyz    Ryd( 3d)     0.00145
   149    O   10  dx2y2  Ryd( 3d)     0.00130
   150    O   10  dz2    Ryd( 3d)     0.00127
 
   151    C   11  S      Cor( 1S)     1.99914
   152    C   11  S      Val( 2S)     1.03281
   153    C   11  S      Ryd( 3S)     0.00200
   154    C   11  S      Ryd( 4S)     0.00004
   155    C   11  px     Val( 2p)     0.82562
   156    C   11  px     Ryd( 3p)     0.00281
   157    C   11  py     Val( 2p)     1.17721
   158    C   11  py     Ryd( 3p)     0.00418
   159    C   11  pz     Val( 2p)     1.07134
   160    C   11  pz     Ryd( 3p)     0.00292
   161    C   11  dxy    Ryd( 3d)     0.00115
   162    C   11  dxz    Ryd( 3d)     0.00157
   163    C   11  dyz    Ryd( 3d)     0.00054
   164    C   11  dx2y2  Ryd( 3d)     0.00137
   165    C   11  dz2    Ryd( 3d)     0.00151
 
   166    C   12  S      Cor( 1S)     1.99901
   167    C   12  S      Val( 2S)     0.88491
   168    C   12  S      Ryd( 3S)     0.00070
   169    C   12  S      Ryd( 4S)     0.00006
   170    C   12  px     Val( 2p)     1.05652
   171    C   12  px     Ryd( 3p)     0.00447
   172    C   12  py     Val( 2p)     1.07648
   173    C   12  py     Ryd( 3p)     0.00419
   174    C   12  pz     Val( 2p)     1.05146
   175    C   12  pz     Ryd( 3p)     0.00294
   176    C   12  dxy    Ryd( 3d)     0.00066
   177    C   12  dxz    Ryd( 3d)     0.00048
   178    C   12  dyz    Ryd( 3d)     0.00049
   179    C   12  dx2y2  Ryd( 3d)     0.00060
   180    C   12  dz2    Ryd( 3d)     0.00056
 
   181    C   13  S      Cor( 1S)     1.99903
   182    C   13  S      Val( 2S)     0.95344
   183    C   13  S      Ryd( 3S)     0.00056
   184    C   13  S      Ryd( 4S)     0.00005
   185    C   13  px     Val( 2p)     1.02962
   186    C   13  px     Ryd( 3p)     0.00264
   187    C   13  py     Val( 2p)     1.17781
   188    C   13  py     Ryd( 3p)     0.00487
   189    C   13  pz     Val( 2p)     1.02455
   190    C   13  pz     Ryd( 3p)     0.00202
   191    C   13  dxy    Ryd( 3d)     0.00050
   192    C   13  dxz    Ryd( 3d)     0.00042
   193    C   13  dyz    Ryd( 3d)     0.00058
   194    C   13  dx2y2  Ryd( 3d)     0.00078
   195    C   13  dz2    Ryd( 3d)     0.00054
 
   196    C   14  S      Cor( 1S)     1.99894
   197    C   14  S      Val( 2S)     0.95934
   198    C   14  S      Ryd( 3S)     0.00097
   199    C   14  S      Ryd( 4S)     0.00005
   200    C   14  px     Val( 2p)     1.11642
   201    C   14  px     Ryd( 3p)     0.00390
   202    C   14  py     Val( 2p)     1.06280
   203    C   14  py     Ryd( 3p)     0.00460
   204    C   14  pz     Val( 2p)     1.08953
   205    C   14  pz     Ryd( 3p)     0.00270
   206    C   14  dxy    Ryd( 3d)     0.00049
   207    C   14  dxz    Ryd( 3d)     0.00067
   208    C   14  dyz    Ryd( 3d)     0.00054
   209    C   14  dx2y2  Ryd( 3d)     0.00060
   210    C   14  dz2    Ryd( 3d)     0.00040
 
   211    C   15  S      Cor( 1S)     1.99856
   212    C   15  S      Val( 2S)     0.93304
   213    C   15  S      Ryd( 3S)     0.00059
   214    C   15  S      Ryd( 4S)     0.00009
   215    C   15  px     Val( 2p)     1.00565
   216    C   15  px     Ryd( 3p)     0.00504
   217    C   15  py     Val( 2p)     1.01791
   218    C   15  py     Ryd( 3p)     0.00710
   219    C   15  pz     Val( 2p)     1.05833
   220    C   15  pz     Ryd( 3p)     0.00380
   221    C   15  dxy    Ryd( 3d)     0.00153
   222    C   15  dxz    Ryd( 3d)     0.00076
   223    C   15  dyz    Ryd( 3d)     0.00100
   224    C   15  dx2y2  Ryd( 3d)     0.00098
   225    C   15  dz2    Ryd( 3d)     0.00089
 
   226    C   16  S      Cor( 1S)     1.99894
   227    C   16  S      Val( 2S)     0.95963
   228    C   16  S      Ryd( 3S)     0.00098
   229    C   16  S      Ryd( 4S)     0.00005
   230    C   16  px     Val( 2p)     1.03568
   231    C   16  px     Ryd( 3p)     0.00342
   232    C   16  py     Val( 2p)     1.19196
   233    C   16  py     Ryd( 3p)     0.00529
   234    C   16  pz     Val( 2p)     1.04007
   235    C   16  pz     Ryd( 3p)     0.00246
   236    C   16  dxy    Ryd( 3d)     0.00051
   237    C   16  dxz    Ryd( 3d)     0.00042
   238    C   16  dyz    Ryd( 3d)     0.00055
   239    C   16  dx2y2  Ryd( 3d)     0.00073
   240    C   16  dz2    Ryd( 3d)     0.00050
 
   241    C   17  S      Cor( 1S)     1.99903
   242    C   17  S      Val( 2S)     0.95350
   243    C   17  S      Ryd( 3S)     0.00058
   244    C   17  S      Ryd( 4S)     0.00005
   245    C   17  px     Val( 2p)     1.09548
   246    C   17  px     Ryd( 3p)     0.00357
   247    C   17  py     Val( 2p)     1.06011
   248    C   17  py     Ryd( 3p)     0.00361
   249    C   17  pz     Val( 2p)     1.07361
   250    C   17  pz     Ryd( 3p)     0.00246
   251    C   17  dxy    Ryd( 3d)     0.00058
   252    C   17  dxz    Ryd( 3d)     0.00068
   253    C   17  dyz    Ryd( 3d)     0.00060
   254    C   17  dx2y2  Ryd( 3d)     0.00060
   255    C   17  dz2    Ryd( 3d)     0.00037
 
   256   Cl   18  S      Cor( 1S)     2.00000
   257   Cl   18  S      Cor( 2S)     1.99979
   258   Cl   18  S      Val( 3S)     1.83534
   259   Cl   18  S      Ryd( 4S)     0.00332
   260   Cl   18  S      Ryd( 5S)     0.00000
   261   Cl   18  px     Cor( 2p)     1.99995
   262   Cl   18  px     Val( 3p)     1.63151
   263   Cl   18  px     Ryd( 4p)     0.00264
   264   Cl   18  py     Cor( 2p)     1.99995
   265   Cl   18  py     Val( 3p)     1.63307
   266   Cl   18  py     Ryd( 4p)     0.00266
   267   Cl   18  pz     Cor( 2p)     1.99998
   268   Cl   18  pz     Val( 3p)     1.87618
   269   Cl   18  pz     Ryd( 4p)     0.00181
   270   Cl   18  dxy    Ryd( 3d)     0.00345
   271   Cl   18  dxz    Ryd( 3d)     0.00120
   272   Cl   18  dyz    Ryd( 3d)     0.00161
   273   Cl   18  dx2y2  Ryd( 3d)     0.00145
   274   Cl   18  dz2    Ryd( 3d)     0.00118
 
   275    C   19  S      Cor( 1S)     1.99903
   276    C   19  S      Val( 2S)     0.95352
   277    C   19  S      Ryd( 3S)     0.00058
   278    C   19  S      Ryd( 4S)     0.00005
   279    C   19  px     Val( 2p)     1.02093
   280    C   19  px     Ryd( 3p)     0.00228
   281    C   19  py     Val( 2p)     1.18564
   282    C   19  py     Ryd( 3p)     0.00517
   283    C   19  pz     Val( 2p)     1.02640
   284    C   19  pz     Ryd( 3p)     0.00222
   285    C   19  dxy    Ryd( 3d)     0.00048
   286    C   19  dxz    Ryd( 3d)     0.00040
   287    C   19  dyz    Ryd( 3d)     0.00057
   288    C   19  dx2y2  Ryd( 3d)     0.00079
   289    C   19  dz2    Ryd( 3d)     0.00059
 
   290    C   20  S      Cor( 1S)     1.99893
   291    C   20  S      Val( 2S)     0.95927
   292    C   20  S      Ryd( 3S)     0.00097
   293    C   20  S      Ryd( 4S)     0.00005
   294    C   20  px     Val( 2p)     1.09752
   295    C   20  px     Ryd( 3p)     0.00337
   296    C   20  py     Val( 2p)     1.06642
   297    C   20  py     Ryd( 3p)     0.00471
   298    C   20  pz     Val( 2p)     1.10626
   299    C   20  pz     Ryd( 3p)     0.00311
   300    C   20  dxy    Ryd( 3d)     0.00049
   301    C   20  dxz    Ryd( 3d)     0.00066
   302    C   20  dyz    Ryd( 3d)     0.00055
   303    C   20  dx2y2  Ryd( 3d)     0.00056
   304    C   20  dz2    Ryd( 3d)     0.00044
 
   305    C   21  S      Cor( 1S)     1.99856
   306    C   21  S      Val( 2S)     0.93330
   307    C   21  S      Ryd( 3S)     0.00060
   308    C   21  S      Ryd( 4S)     0.00009
   309    C   21  px     Val( 2p)     1.01434
   310    C   21  px     Ryd( 3p)     0.00434
   311    C   21  py     Val( 2p)     1.01936
   312    C   21  py     Ryd( 3p)     0.00729
   313    C   21  pz     Val( 2p)     1.04772
   314    C   21  pz     Ryd( 3p)     0.00429
   315    C   21  dxy    Ryd( 3d)     0.00141
   316    C   21  dxz    Ryd( 3d)     0.00079
   317    C   21  dyz    Ryd( 3d)     0.00115
   318    C   21  dx2y2  Ryd( 3d)     0.00092
   319    C   21  dz2    Ryd( 3d)     0.00088
 
   320    C   22  S      Cor( 1S)     1.99894
   321    C   22  S      Val( 2S)     0.95993
   322    C   22  S      Ryd( 3S)     0.00098
   323    C   22  S      Ryd( 4S)     0.00005
   324    C   22  px     Val( 2p)     1.02928
   325    C   22  px     Ryd( 3p)     0.00295
   326    C   22  py     Val( 2p)     1.20000
   327    C   22  py     Ryd( 3p)     0.00549
   328    C   22  pz     Val( 2p)     1.03927
   329    C   22  pz     Ryd( 3p)     0.00278
   330    C   22  dxy    Ryd( 3d)     0.00049
   331    C   22  dxz    Ryd( 3d)     0.00040
   332    C   22  dyz    Ryd( 3d)     0.00054
   333    C   22  dx2y2  Ryd( 3d)     0.00073
   334    C   22  dz2    Ryd( 3d)     0.00054
 
   335    C   23  S      Cor( 1S)     1.99903
   336    C   23  S      Val( 2S)     0.95670
   337    C   23  S      Ryd( 3S)     0.00059
   338    C   23  S      Ryd( 4S)     0.00004
   339    C   23  px     Val( 2p)     1.07638
   340    C   23  px     Ryd( 3p)     0.00305
   341    C   23  py     Val( 2p)     1.06256
   342    C   23  py     Ryd( 3p)     0.00393
   343    C   23  pz     Val( 2p)     1.09060
   344    C   23  pz     Ryd( 3p)     0.00292
   345    C   23  dxy    Ryd( 3d)     0.00058
   346    C   23  dxz    Ryd( 3d)     0.00066
   347    C   23  dyz    Ryd( 3d)     0.00062
   348    C   23  dx2y2  Ryd( 3d)     0.00056
   349    C   23  dz2    Ryd( 3d)     0.00042
 
   350   Cl   24  S      Cor( 1S)     2.00000
   351   Cl   24  S      Cor( 2S)     1.99979
   352   Cl   24  S      Val( 3S)     1.83545
   353   Cl   24  S      Ryd( 4S)     0.00331
   354   Cl   24  S      Ryd( 5S)     0.00000
   355   Cl   24  px     Cor( 2p)     1.99996
   356   Cl   24  px     Val( 3p)     1.68407
   357   Cl   24  px     Ryd( 4p)     0.00246
   358   Cl   24  py     Cor( 2p)     1.99995
   359   Cl   24  py     Val( 3p)     1.63707
   360   Cl   24  py     Ryd( 4p)     0.00264
   361   Cl   24  pz     Cor( 2p)     1.99997
   362   Cl   24  pz     Val( 3p)     1.82101
   363   Cl   24  pz     Ryd( 4p)     0.00200
   364   Cl   24  dxy    Ryd( 3d)     0.00302
   365   Cl   24  dxz    Ryd( 3d)     0.00134
   366   Cl   24  dyz    Ryd( 3d)     0.00206
   367   Cl   24  dx2y2  Ryd( 3d)     0.00133
   368   Cl   24  dz2    Ryd( 3d)     0.00112
 
   369    H   25  S      Val( 1S)     0.75505
   370    H   25  S      Ryd( 2S)     0.00116
 
   371    H   26  S      Val( 1S)     0.75359
   372    H   26  S      Ryd( 2S)     0.00211
 
   373    H   27  S      Val( 1S)     0.75897
   374    H   27  S      Ryd( 2S)     0.00177
 
   375    H   28  S      Val( 1S)     0.75898
   376    H   28  S      Ryd( 2S)     0.00189
 
   377    H   29  S      Val( 1S)     0.75439
   378    H   29  S      Ryd( 2S)     0.00096
 
   379    H   30  S      Val( 1S)     0.74178
   380    H   30  S      Ryd( 2S)     0.00101
 
   381    H   31  S      Val( 1S)     0.74152
   382    H   31  S      Ryd( 2S)     0.00101
 
   383    H   32  S      Val( 1S)     0.75277
   384    H   32  S      Ryd( 2S)     0.00099
 
   385    H   33  S      Val( 1S)     0.75454
   386    H   33  S      Ryd( 2S)     0.00100
 
   387    H   34  S      Val( 1S)     0.74221
   388    H   34  S      Ryd( 2S)     0.00101
 
   389    H   35  S      Val( 1S)     0.74143
   390    H   35  S      Ryd( 2S)     0.00100
 
   391    H   36  S      Val( 1S)     0.74019
   392    H   36  S      Ryd( 2S)     0.00139

 WARNING:  1 low occupancy (<1.9990e) core orbital  found on  C   14
           1 low occupancy (<1.9990e) core orbital  found on  C   15
           1 low occupancy (<1.9990e) core orbital  found on  C   16
           1 low occupancy (<1.9990e) core orbital  found on  C   20
           1 low occupancy (<1.9990e) core orbital  found on  C   21
           1 low occupancy (<1.9990e) core orbital  found on  C   22


 Summary of Natural Population Analysis:                  
                                                          
                                       Natural Population 
                Natural  -----------------------------------------------
    Atom  No    Charge         Core      Valence    Rydberg      Total
 -----------------------------------------------------------------------
      C    1   -0.09403      1.99901     4.08064    0.01439     6.09403
      C    2   -0.12592      1.99912     4.10760    0.01920     6.12592
      O    3   -0.52098      1.99973     6.50891    0.01233     8.52098
      C    4    0.92296      1.99950     3.02695    0.05059     5.07704
      O    5   -0.55253      1.99977     6.53208    0.02068     8.55253
      N    6   -0.21842      1.99938     5.19280    0.02623     7.21842
      N    7   -0.21775      1.99939     5.19202    0.02634     7.21775
      C    8    0.91634      1.99951     3.03401    0.05013     5.08366
      O    9   -0.54610      1.99978     6.52557    0.02075     8.54610
      O   10   -0.52479      1.99972     6.51278    0.01229     8.52479
      C   11   -0.12420      1.99914     4.10697    0.01809     6.12420
      C   12   -0.08354      1.99901     4.06938    0.01515     6.08354
      C   13   -0.19742      1.99903     4.18542    0.01298     6.19742
      C   14   -0.24194      1.99894     4.22809    0.01492     6.24194
      C   15   -0.03527      1.99856     4.01493    0.02179     6.03527
      C   16   -0.24119      1.99894     4.22734    0.01491     6.24119
      C   17   -0.19482      1.99903     4.18270    0.01310     6.19482
     Cl   18    0.00491      9.99967     6.97610    0.01933    16.99509
      C   19   -0.19865      1.99903     4.18650    0.01311     6.19865
      C   20   -0.24332      1.99893     4.22946    0.01492     6.24332
      C   21   -0.03505      1.99856     4.01472    0.02177     6.03505
      C   22   -0.24236      1.99894     4.22848    0.01494     6.24236
      C   23   -0.19864      1.99903     4.18624    0.01336     6.19864
     Cl   24    0.00343      9.99967     6.97760    0.01930    16.99657
      H   25    0.24379      0.00000     0.75505    0.00116     0.75621
      H   26    0.24430      0.00000     0.75359    0.00211     0.75570
      H   27    0.23925      0.00000     0.75897    0.00177     0.76075
      H   28    0.23914      0.00000     0.75898    0.00189     0.76086
      H   29    0.24465      0.00000     0.75439    0.00096     0.75535
      H   30    0.25721      0.00000     0.74178    0.00101     0.74279
      H   31    0.25747      0.00000     0.74152    0.00101     0.74253
      H   32    0.24624      0.00000     0.75277    0.00099     0.75376
      H   33    0.24446      0.00000     0.75454    0.00100     0.75554
      H   34    0.25678      0.00000     0.74221    0.00101     0.74322
      H   35    0.25757      0.00000     0.74143    0.00100     0.74243
      H   36    0.25842      0.00000     0.74019    0.00139     0.74158
 =======================================================================
   * Total *   -0.00000     63.98137   123.52272    0.49591   188.00000

                                 Natural Population      
 --------------------------------------------------------
   Core                      63.98137 ( 99.9709% of  64)
   Valence                  123.52272 ( 99.6151% of 124)
   Natural Minimal Basis    187.50409 ( 99.7362% of 188)
   Natural Rydberg Basis      0.49591 (  0.2638% of 188)
 --------------------------------------------------------

    Atom  No          Natural Electron Configuration
 ----------------------------------------------------------------------------
      C    1      [core]2S( 0.89)2p( 3.19)3p( 0.01)
      C    2      [core]2S( 1.03)2p( 3.08)3p( 0.01)3d( 0.01)
      O    3      [core]2S( 1.63)2p( 4.88)3d( 0.01)
      C    4      [core]2S( 0.73)2p( 2.30)3p( 0.03)3d( 0.01)
      O    5      [core]2S( 1.71)2p( 4.82)3d( 0.02)
      N    6      [core]2S( 1.39)2p( 3.80)3S( 0.01)3p( 0.01)3d( 0.01)
      N    7      [core]2S( 1.40)2p( 3.80)3S( 0.01)3p( 0.01)3d( 0.01)
      C    8      [core]2S( 0.73)2p( 2.30)3p( 0.03)3d( 0.01)
      O    9      [core]2S( 1.71)2p( 4.82)3d( 0.02)
      O   10      [core]2S( 1.63)2p( 4.88)3d( 0.01)
      C   11      [core]2S( 1.03)2p( 3.07)3p( 0.01)3d( 0.01)
      C   12      [core]2S( 0.88)2p( 3.18)3p( 0.01)
      C   13      [core]2S( 0.95)2p( 3.23)3p( 0.01)
      C   14      [core]2S( 0.96)2p( 3.27)3p( 0.01)
      C   15      [core]2S( 0.93)2p( 3.08)3p( 0.02)3d( 0.01)
      C   16      [core]2S( 0.96)2p( 3.27)3p( 0.01)
      C   17      [core]2S( 0.95)2p( 3.23)3p( 0.01)
     Cl   18      [core]3S( 1.84)3p( 5.14)3d( 0.01)4p( 0.01)
      C   19      [core]2S( 0.95)2p( 3.23)3p( 0.01)
      C   20      [core]2S( 0.96)2p( 3.27)3p( 0.01)
      C   21      [core]2S( 0.93)2p( 3.08)3p( 0.02)3d( 0.01)
      C   22      [core]2S( 0.96)2p( 3.27)3p( 0.01)
      C   23      [core]2S( 0.96)2p( 3.23)3p( 0.01)
     Cl   24      [core]3S( 1.84)3p( 5.14)3d( 0.01)4p( 0.01)
      H   25            1S( 0.76)
      H   26            1S( 0.75)
      H   27            1S( 0.76)
      H   28            1S( 0.76)
      H   29            1S( 0.75)
      H   30            1S( 0.74)
      H   31            1S( 0.74)
      H   32            1S( 0.75)
      H   33            1S( 0.75)
      H   34            1S( 0.74)
      H   35            1S( 0.74)
      H   36            1S( 0.74)


 NBO analysis skipped by request.
 1\1\GINC-DELLA-R2C1N6\SP\RB3LYP TD-FC\6-31G(d)\C16H12Cl2N2O4\BJS4\22-A
 ug-2020\0\\# TD(NStates=10, Root=1) B3LYP/6-31G* scf=qc volume pop=NPA
  density=current Geom=AllCheck Guess=Read\\Title Card Required\\0,1\C,
 0,-6.1396553553,-1.497736746,1.8952238017\C,0,-7.3150704009,-1.4628099
 272,0.9559318017\O,0,-7.8372510572,-0.1015073398,0.7921315934\C,0,-7.2
 844895197,0.6284702361,-0.1729897887\O,0,-6.4156520509,0.3119127418,-0
 .9470850554\N,0,-7.7933250884,1.9837212832,-0.1253355217\N,0,-8.898597
 8015,2.1093542771,-0.6850490109\C,0,-9.402934125,3.468059638,-0.633634
 9306\O,0,-10.3462466912,3.7601334573,0.0570051041\O,0,-8.7560897942,4.
 2420614828,-1.5025193577\C,0,-9.2652013937,5.6106613053,-1.6112665117\
 C,0,-8.5072233529,6.3027937294,-2.7065981291\C,0,-9.0314142563,6.37314
 98974,-4.0019700381\C,0,-8.328609216,7.0038817116,-5.0276274033\C,0,-7
 .0842540547,7.5664958342,-4.7470276109\C,0,-6.5373597969,7.5085304168,
 -3.4648415456\C,0,-7.2555515863,6.8766196018,-2.4520713789\Cl,0,-6.190
 8467195,8.3680764024,-6.0297594953\C,0,-6.3409144359,-1.6300171128,3.2
 746305603\C,0,-5.2635348399,-1.6543545371,4.1582828796\C,0,-3.97002782
 63,-1.5447799624,3.6484239503\C,0,-3.7416029304,-1.4110393207,2.279151
 0349\C,0,-4.8301879367,-1.3875485398,1.4087954138\Cl,0,-2.6031631763,-
 1.5801001366,4.752198823\H,0,-8.1681515756,-2.0113703473,1.3577630909\
 H,0,-7.0593638343,-1.8496923514,-0.0317380053\H,0,-9.1254947165,6.0949
 738129,-0.6409506804\H,0,-10.3374152634,5.5592462753,-1.8169142927\H,0
 ,-10.0015550603,5.9317571326,-4.2159355489\H,0,-8.7386923823,7.0603390
 931,-6.0301136472\H,0,-5.5685200885,7.9534627605,-3.2655361902\H,0,-6.
 8338743673,6.8280221846,-1.4513647243\H,0,-7.3513448279,-1.7166722322,
 3.6666047848\H,0,-5.4214620419,-1.7598385894,5.2261572185\H,0,-2.72806
 66836,-1.327789454,1.9019187319\H,0,-4.6632557521,-1.2715766775,0.3422
 50078\\Version=ES64L-G16RevA.03\State=1-A\HF=-1947.6726584\RMSD=5.748e
 -13\Dipole=-0.3858023,-0.1331329,0.0661286\Quadrupole=-4.9648041,9.125
 1662,-4.1603621,1.0654643,2.9581626,-1.8420177\PG=C01 [X(C16H12Cl2N2O4
 )]\\@


 MISERY NO LONGER LOVES COMPANY.  NOWADAYS IT INSISTS ON IT.

                                              -- BAKER'S LAW
 Job cpu time:       0 days  0 hours 53 minutes 33.8 seconds.
 Elapsed time:       0 days  0 hours 10 minutes 52.5 seconds.
 File lengths (MBytes):  RWF=   1224 Int=      0 D2E=      0 Chk=    268 Scr=      1
 Normal termination of Gaussian 16 at Sat Aug 22 17:13:36 2020.
