 Entering Gaussian System, Link 0=g16
 Input=azadicarboxylate_5_conf18123.com
 Output=azadicarboxylate_5_conf18123.log
 Initial command:
 /opt/export//g16/l1.exe "/scratch/bjs4/job.4753/Gau-4756.inp" -scrdir="/scratch/bjs4/job.4753/"
 Entering Link 1 = /opt/export//g16/l1.exe PID=      4759.
  
 Copyright (c) 1988,1990,1992,1993,1995,1998,2003,2009,2016,
            Gaussian, Inc.  All Rights Reserved.
  
 This is part of the Gaussian(R) 16 program.  It is based on
 the Gaussian(R) 09 system (copyright 2009, Gaussian, Inc.),
 the Gaussian(R) 03 system (copyright 2003, Gaussian, Inc.),
 the Gaussian(R) 98 system (copyright 1998, Gaussian, Inc.),
 the Gaussian(R) 94 system (copyright 1995, Gaussian, Inc.),
 the Gaussian 92(TM) system (copyright 1992, Gaussian, Inc.),
 the Gaussian 90(TM) system (copyright 1990, Gaussian, Inc.),
 the Gaussian 88(TM) system (copyright 1988, Gaussian, Inc.),
 the Gaussian 86(TM) system (copyright 1986, Carnegie Mellon
 University), and the Gaussian 82(TM) system (copyright 1983,
 Carnegie Mellon University). Gaussian is a federally registered
 trademark of Gaussian, Inc.
  
 This software contains proprietary and confidential information,
 including trade secrets, belonging to Gaussian, Inc.
  
 This software is provided under written license and may be
 used, copied, transmitted, or stored only in accord with that
 written license.
  
 The following legend is applicable only to US Government
 contracts under FAR:
  
                    RESTRICTED RIGHTS LEGEND
  
 Use, reproduction and disclosure by the US Government is
 subject to restrictions as set forth in subparagraphs (a)
 and (c) of the Commercial Computer Software - Restricted
 Rights clause in FAR 52.227-19.
  
 Gaussian, Inc.
 340 Quinnipiac St., Bldg. 40, Wallingford CT 06492
  
  
 ---------------------------------------------------------------
 Warning -- This program may not be used in any manner that
 competes with the business of Gaussian, Inc. or will provide
 assistance to any competitor of Gaussian, Inc.  The licensee
 of this program is prohibited from giving any competitor of
 Gaussian, Inc. access to this program.  By using this program,
 the user acknowledges that Gaussian, Inc. is engaged in the
 business of creating and licensing software in the field of
 computational chemistry and represents and warrants to the
 licensee that it is not a competitor of Gaussian, Inc. and that
 it will not use this program in any manner prohibited above.
 ---------------------------------------------------------------
  

 Cite this work as:
 Gaussian 16, Revision A.03,
 M. J. Frisch, G. W. Trucks, H. B. Schlegel, G. E. Scuseria, 
 M. A. Robb, J. R. Cheeseman, G. Scalmani, V. Barone, 
 G. A. Petersson, H. Nakatsuji, X. Li, M. Caricato, A. V. Marenich, 
 J. Bloino, B. G. Janesko, R. Gomperts, B. Mennucci, H. P. Hratchian, 
 J. V. Ortiz, A. F. Izmaylov, J. L. Sonnenberg, D. Williams-Young, 
 F. Ding, F. Lipparini, F. Egidi, J. Goings, B. Peng, A. Petrone, 
 T. Henderson, D. Ranasinghe, V. G. Zakrzewski, J. Gao, N. Rega, 
 G. Zheng, W. Liang, M. Hada, M. Ehara, K. Toyota, R. Fukuda, 
 J. Hasegawa, M. Ishida, T. Nakajima, Y. Honda, O. Kitao, H. Nakai, 
 T. Vreven, K. Throssell, J. A. Montgomery, Jr., J. E. Peralta, 
 F. Ogliaro, M. J. Bearpark, J. J. Heyd, E. N. Brothers, K. N. Kudin, 
 V. N. Staroverov, T. A. Keith, R. Kobayashi, J. Normand, 
 K. Raghavachari, A. P. Rendell, J. C. Burant, S. S. Iyengar, 
 J. Tomasi, M. Cossi, J. M. Millam, M. Klene, C. Adamo, R. Cammi, 
 J. W. Ochterski, R. L. Martin, K. Morokuma, O. Farkas, 
 J. B. Foresman, and D. J. Fox, Gaussian, Inc., Wallingford CT, 2016.
 
 ******************************************
 Gaussian 16:  ES64L-G16RevA.03 25-Dec-2016
                22-Aug-2020 
 ******************************************
 %nprocshared=5
 Will use up to    5 processors via shared memory.
 %Mem=10GB
 %Chk=azadicarboxylate_5_conf181.chk
 ---------------------------------
 # opt=CalcAll B3LYP/6-31G* scf=qc
 ---------------------------------
 1/10=4,18=20,19=15,26=3,38=1/1,3;
 2/9=110,12=2,17=6,18=5,40=1/2;
 3/5=1,6=6,7=1,11=2,25=1,30=1,71=2,74=-5,140=1/1,2,3;
 4//1;
 5/5=2,8=3,38=5/8;
 8/6=4,10=90,11=11/1;
 11/6=1,8=1,9=11,15=111,16=1/1,2,10;
 10/6=1/2;
 6/7=2,8=2,9=2,10=2,18=1,28=1/1;
 7/10=1,25=1/1,2,3,16;
 1/10=4,18=20,19=15,26=3/3(3);
 2/9=110/2;
 7/8=1,9=1,25=1,44=-1/16;
 99//99;
 2/9=110/2;
 3/5=1,6=6,7=1,11=2,25=1,30=1,71=2,74=-5,140=1/1,2,3;
 4/5=5,16=3,69=1/1;
 5/5=2,8=3,38=5/8;
 8/6=4,10=90,11=11/1;
 11/6=1,8=1,9=11,15=111,16=1/1,2,10;
 10/6=1/2;
 7/10=1,25=1/1,2,3,16;
 1/10=4,18=20,19=15,26=3/3(-8);
 2/9=110/2;
 6/7=2,8=2,9=2,10=2,18=1,19=2,28=1/1;
 7/8=1,9=1,25=1,44=-1/16;
 99//99;
 -------------------
 Title Card Required
 -------------------
 Symbolic Z-matrix:
 Charge =  0 Multiplicity = 1
 C2                    0.8141    0.1461    0.0473 
 O3                    1.91042  -0.09096   0.55846 
 N4                    0.2028    1.3863    0.0651 
 N5                   -1.0496    1.3066    0.0658 
 C6                   -1.6625    2.5457    0.0392 
 O7                   -1.17293   3.54729  -0.48666 
 N8                   -2.91763   2.60819   0.64913 
 C                    -3.48027   1.42107   1.28152 
 C                    -4.04237   1.75211   2.66216 
 C                    -5.03254   2.91318   2.59524 
 C                    -4.41236   4.12325   1.89663 
 C                    -3.82254   3.75302   0.53553 
 N1                    0.09454  -0.86908  -0.59304 
 C                    -1.19444  -0.56932  -1.2066 
 C                    -1.28161  -1.16465  -2.6098 
 C                    -0.96045  -2.65793  -2.60084 
 C                     0.38192  -2.92613  -1.9203 
 C                     0.45427  -2.2843   -0.53457 
 H                    -2.7345    0.62652   1.37256 
 H                    -4.2773    1.04709   0.62696 
 H                    -3.21799   2.02237   3.33389 
 H                    -4.53114   0.86903   3.08895 
 H                    -5.34727   3.19041   3.60789 
 H                    -5.93264   2.59688   2.05443 
 H                    -3.61864   4.53321   2.53341 
 H                    -5.16757   4.90787   1.77549 
 H                    -3.32227   4.62348   0.10305 
 H                    -4.62474   3.46261  -0.1544 
 H                    -1.37226   0.5091   -1.25651 
 H                    -1.9715   -0.99875  -0.56236 
 H                    -0.56996  -0.64931  -3.26713 
 H                    -2.28239  -1.00069  -3.02433 
 H                    -0.93802  -3.03807  -3.62872 
 H                    -1.75509  -3.20087  -2.0749 
 H                     1.18574  -2.52086  -2.54724 
 H                     0.5472   -4.00643  -1.84097 
 H                     1.45164  -2.43225  -0.11266 
 H                    -0.26006  -2.77068   0.14136 
 

 GradGradGradGradGradGradGradGradGradGradGradGradGradGradGradGradGradGrad
 Berny optimization.
 Initialization pass.
                           ----------------------------
                           !    Initial Parameters    !
                           ! (Angstroms and Degrees)  !
 --------------------------                            --------------------------
 ! Name  Definition              Value          Derivative Info.                !
 --------------------------------------------------------------------------------
 ! R1    R(1,2)                  1.2326         calculate D2E/DX2 analytically  !
 ! R2    R(1,3)                  1.3828         calculate D2E/DX2 analytically  !
 ! R3    R(1,13)                 1.3994         calculate D2E/DX2 analytically  !
 ! R4    R(3,4)                  1.2549         calculate D2E/DX2 analytically  !
 ! R5    R(4,5)                  1.3827         calculate D2E/DX2 analytically  !
 ! R6    R(5,6)                  1.2326         calculate D2E/DX2 analytically  !
 ! R7    R(5,7)                  1.3969         calculate D2E/DX2 analytically  !
 ! R8    R(7,8)                  1.458          calculate D2E/DX2 analytically  !
 ! R9    R(7,12)                 1.4637         calculate D2E/DX2 analytically  !
 ! R10   R(8,9)                  1.527          calculate D2E/DX2 analytically  !
 ! R11   R(8,19)                 1.0935         calculate D2E/DX2 analytically  !
 ! R12   R(8,20)                 1.0971         calculate D2E/DX2 analytically  !
 ! R13   R(9,10)                 1.5274         calculate D2E/DX2 analytically  !
 ! R14   R(9,21)                 1.0972         calculate D2E/DX2 analytically  !
 ! R15   R(9,22)                 1.0958         calculate D2E/DX2 analytically  !
 ! R16   R(10,11)                1.5287         calculate D2E/DX2 analytically  !
 ! R17   R(10,23)                1.0961         calculate D2E/DX2 analytically  !
 ! R18   R(10,24)                1.0967         calculate D2E/DX2 analytically  !
 ! R19   R(11,12)                1.5289         calculate D2E/DX2 analytically  !
 ! R20   R(11,25)                1.0971         calculate D2E/DX2 analytically  !
 ! R21   R(11,26)                1.0957         calculate D2E/DX2 analytically  !
 ! R22   R(12,27)                1.0932         calculate D2E/DX2 analytically  !
 ! R23   R(12,28)                1.0972         calculate D2E/DX2 analytically  !
 ! R24   R(13,14)                1.4587         calculate D2E/DX2 analytically  !
 ! R25   R(13,18)                1.4614         calculate D2E/DX2 analytically  !
 ! R26   R(14,15)                1.5268         calculate D2E/DX2 analytically  !
 ! R27   R(14,29)                1.0941         calculate D2E/DX2 analytically  !
 ! R28   R(14,30)                1.0969         calculate D2E/DX2 analytically  !
 ! R29   R(15,16)                1.5275         calculate D2E/DX2 analytically  !
 ! R30   R(15,31)                1.0973         calculate D2E/DX2 analytically  !
 ! R31   R(15,32)                1.0956         calculate D2E/DX2 analytically  !
 ! R32   R(16,17)                1.5287         calculate D2E/DX2 analytically  !
 ! R33   R(16,33)                1.0962         calculate D2E/DX2 analytically  !
 ! R34   R(16,34)                1.0967         calculate D2E/DX2 analytically  !
 ! R35   R(17,18)                1.5289         calculate D2E/DX2 analytically  !
 ! R36   R(17,35)                1.097          calculate D2E/DX2 analytically  !
 ! R37   R(17,36)                1.0957         calculate D2E/DX2 analytically  !
 ! R38   R(18,37)                1.093          calculate D2E/DX2 analytically  !
 ! R39   R(18,38)                1.0971         calculate D2E/DX2 analytically  !
 ! A1    A(2,1,3)              124.0792         calculate D2E/DX2 analytically  !
 ! A2    A(2,1,13)             120.5011         calculate D2E/DX2 analytically  !
 ! A3    A(3,1,13)             115.4171         calculate D2E/DX2 analytically  !
 ! A4    A(1,3,4)              112.5961         calculate D2E/DX2 analytically  !
 ! A5    A(3,4,5)              112.6722         calculate D2E/DX2 analytically  !
 ! A6    A(4,5,6)              124.0798         calculate D2E/DX2 analytically  !
 ! A7    A(4,5,7)              115.4668         calculate D2E/DX2 analytically  !
 ! A8    A(6,5,7)              120.4506         calculate D2E/DX2 analytically  !
 ! A9    A(5,7,8)              119.9805         calculate D2E/DX2 analytically  !
 ! A10   A(5,7,12)             123.8212         calculate D2E/DX2 analytically  !
 ! A11   A(8,7,12)             115.5898         calculate D2E/DX2 analytically  !
 ! A12   A(7,8,9)              110.9595         calculate D2E/DX2 analytically  !
 ! A13   A(7,8,19)             111.3793         calculate D2E/DX2 analytically  !
 ! A14   A(7,8,20)             107.4053         calculate D2E/DX2 analytically  !
 ! A15   A(9,8,19)             109.4689         calculate D2E/DX2 analytically  !
 ! A16   A(9,8,20)             110.2384         calculate D2E/DX2 analytically  !
 ! A17   A(19,8,20)            107.3048         calculate D2E/DX2 analytically  !
 ! A18   A(8,9,10)             111.3346         calculate D2E/DX2 analytically  !
 ! A19   A(8,9,21)             109.2908         calculate D2E/DX2 analytically  !
 ! A20   A(8,9,22)             109.9755         calculate D2E/DX2 analytically  !
 ! A21   A(10,9,21)            109.0658         calculate D2E/DX2 analytically  !
 ! A22   A(10,9,22)            109.9066         calculate D2E/DX2 analytically  !
 ! A23   A(21,9,22)            107.1679         calculate D2E/DX2 analytically  !
 ! A24   A(9,10,11)            111.0227         calculate D2E/DX2 analytically  !
 ! A25   A(9,10,23)            109.751          calculate D2E/DX2 analytically  !
 ! A26   A(9,10,24)            109.5378         calculate D2E/DX2 analytically  !
 ! A27   A(11,10,23)           109.7851         calculate D2E/DX2 analytically  !
 ! A28   A(11,10,24)           109.6279         calculate D2E/DX2 analytically  !
 ! A29   A(23,10,24)           107.0304         calculate D2E/DX2 analytically  !
 ! A30   A(10,11,12)           111.8182         calculate D2E/DX2 analytically  !
 ! A31   A(10,11,25)           108.9083         calculate D2E/DX2 analytically  !
 ! A32   A(10,11,26)           109.7382         calculate D2E/DX2 analytically  !
 ! A33   A(12,11,25)           109.1544         calculate D2E/DX2 analytically  !
 ! A34   A(12,11,26)           109.9296         calculate D2E/DX2 analytically  !
 ! A35   A(25,11,26)           107.1717         calculate D2E/DX2 analytically  !
 ! A36   A(7,12,11)            111.0271         calculate D2E/DX2 analytically  !
 ! A37   A(7,12,27)            111.7517         calculate D2E/DX2 analytically  !
 ! A38   A(7,12,28)            107.0852         calculate D2E/DX2 analytically  !
 ! A39   A(11,12,27)           109.6288         calculate D2E/DX2 analytically  !
 ! A40   A(11,12,28)           109.9884         calculate D2E/DX2 analytically  !
 ! A41   A(27,12,28)           107.2523         calculate D2E/DX2 analytically  !
 ! A42   A(1,13,14)            119.8513         calculate D2E/DX2 analytically  !
 ! A43   A(1,13,18)            123.892          calculate D2E/DX2 analytically  !
 ! A44   A(14,13,18)           115.6805         calculate D2E/DX2 analytically  !
 ! A45   A(13,14,15)           110.9102         calculate D2E/DX2 analytically  !
 ! A46   A(13,14,29)           111.4292         calculate D2E/DX2 analytically  !
 ! A47   A(13,14,30)           107.3668         calculate D2E/DX2 analytically  !
 ! A48   A(15,14,29)           109.4589         calculate D2E/DX2 analytically  !
 ! A49   A(15,14,30)           110.2845         calculate D2E/DX2 analytically  !
 ! A50   A(29,14,30)           107.3089         calculate D2E/DX2 analytically  !
 ! A51   A(14,15,16)           111.3345         calculate D2E/DX2 analytically  !
 ! A52   A(14,15,31)           109.2932         calculate D2E/DX2 analytically  !
 ! A53   A(14,15,32)           109.9711         calculate D2E/DX2 analytically  !
 ! A54   A(16,15,31)           109.0433         calculate D2E/DX2 analytically  !
 ! A55   A(16,15,32)           109.9131         calculate D2E/DX2 analytically  !
 ! A56   A(31,15,32)           107.1865         calculate D2E/DX2 analytically  !
 ! A57   A(15,16,17)           111.0236         calculate D2E/DX2 analytically  !
 ! A58   A(15,16,33)           109.7452         calculate D2E/DX2 analytically  !
 ! A59   A(15,16,34)           109.5387         calculate D2E/DX2 analytically  !
 ! A60   A(17,16,33)           109.7935         calculate D2E/DX2 analytically  !
 ! A61   A(17,16,34)           109.6266         calculate D2E/DX2 analytically  !
 ! A62   A(33,16,34)           107.0272         calculate D2E/DX2 analytically  !
 ! A63   A(16,17,18)           111.8015         calculate D2E/DX2 analytically  !
 ! A64   A(16,17,35)           108.9164         calculate D2E/DX2 analytically  !
 ! A65   A(16,17,36)           109.7335         calculate D2E/DX2 analytically  !
 ! A66   A(18,17,35)           109.1614         calculate D2E/DX2 analytically  !
 ! A67   A(18,17,36)           109.9459         calculate D2E/DX2 analytically  !
 ! A68   A(35,17,36)           107.1621         calculate D2E/DX2 analytically  !
 ! A69   A(13,18,17)           111.0162         calculate D2E/DX2 analytically  !
 ! A70   A(13,18,37)           111.7864         calculate D2E/DX2 analytically  !
 ! A71   A(13,18,38)           107.0791         calculate D2E/DX2 analytically  !
 ! A72   A(17,18,37)           109.6473         calculate D2E/DX2 analytically  !
 ! A73   A(17,18,38)           109.9675         calculate D2E/DX2 analytically  !
 ! A74   A(37,18,38)           107.2353         calculate D2E/DX2 analytically  !
 ! D1    D(2,1,3,4)           -149.6471         calculate D2E/DX2 analytically  !
 ! D2    D(13,1,3,4)            29.763          calculate D2E/DX2 analytically  !
 ! D3    D(2,1,13,14)         -179.294          calculate D2E/DX2 analytically  !
 ! D4    D(2,1,13,18)            9.7955         calculate D2E/DX2 analytically  !
 ! D5    D(3,1,13,14)            1.2731         calculate D2E/DX2 analytically  !
 ! D6    D(3,1,13,18)         -169.6373         calculate D2E/DX2 analytically  !
 ! D7    D(1,3,4,5)           -178.0064         calculate D2E/DX2 analytically  !
 ! D8    D(3,4,5,6)             29.6472         calculate D2E/DX2 analytically  !
 ! D9    D(3,4,5,7)           -150.9649         calculate D2E/DX2 analytically  !
 ! D10   D(4,5,7,8)              1.2938         calculate D2E/DX2 analytically  !
 ! D11   D(4,5,7,12)          -169.3591         calculate D2E/DX2 analytically  !
 ! D12   D(6,5,7,8)           -179.2943         calculate D2E/DX2 analytically  !
 ! D13   D(6,5,7,12)            10.0528         calculate D2E/DX2 analytically  !
 ! D14   D(5,7,8,9)            133.4702         calculate D2E/DX2 analytically  !
 ! D15   D(5,7,8,19)            11.2455         calculate D2E/DX2 analytically  !
 ! D16   D(5,7,8,20)          -105.9796         calculate D2E/DX2 analytically  !
 ! D17   D(12,7,8,9)           -55.1339         calculate D2E/DX2 analytically  !
 ! D18   D(12,7,8,19)         -177.3586         calculate D2E/DX2 analytically  !
 ! D19   D(12,7,8,20)           65.4163         calculate D2E/DX2 analytically  !
 ! D20   D(5,7,12,11)         -134.8053         calculate D2E/DX2 analytically  !
 ! D21   D(5,7,12,27)          -12.0634         calculate D2E/DX2 analytically  !
 ! D22   D(5,7,12,28)          105.1104         calculate D2E/DX2 analytically  !
 ! D23   D(8,7,12,11)           54.1686         calculate D2E/DX2 analytically  !
 ! D24   D(8,7,12,27)          176.9105         calculate D2E/DX2 analytically  !
 ! D25   D(8,7,12,28)          -65.9157         calculate D2E/DX2 analytically  !
 ! D26   D(7,8,9,10)            53.4586         calculate D2E/DX2 analytically  !
 ! D27   D(7,8,9,21)           -67.0892         calculate D2E/DX2 analytically  !
 ! D28   D(7,8,9,22)           175.5254         calculate D2E/DX2 analytically  !
 ! D29   D(19,8,9,10)          176.7883         calculate D2E/DX2 analytically  !
 ! D30   D(19,8,9,21)           56.2406         calculate D2E/DX2 analytically  !
 ! D31   D(19,8,9,22)          -61.1449         calculate D2E/DX2 analytically  !
 ! D32   D(20,8,9,10)          -65.3986         calculate D2E/DX2 analytically  !
 ! D33   D(20,8,9,21)          174.0536         calculate D2E/DX2 analytically  !
 ! D34   D(20,8,9,22)           56.6682         calculate D2E/DX2 analytically  !
 ! D35   D(8,9,10,11)          -53.1501         calculate D2E/DX2 analytically  !
 ! D36   D(8,9,10,23)         -174.7032         calculate D2E/DX2 analytically  !
 ! D37   D(8,9,10,24)           68.0635         calculate D2E/DX2 analytically  !
 ! D38   D(21,9,10,11)          67.5299         calculate D2E/DX2 analytically  !
 ! D39   D(21,9,10,23)         -54.0232         calculate D2E/DX2 analytically  !
 ! D40   D(21,9,10,24)        -171.2565         calculate D2E/DX2 analytically  !
 ! D41   D(22,9,10,11)        -175.2567         calculate D2E/DX2 analytically  !
 ! D42   D(22,9,10,23)          63.1902         calculate D2E/DX2 analytically  !
 ! D43   D(22,9,10,24)         -54.0431         calculate D2E/DX2 analytically  !
 ! D44   D(9,10,11,12)          52.4208         calculate D2E/DX2 analytically  !
 ! D45   D(9,10,11,25)         -68.2912         calculate D2E/DX2 analytically  !
 ! D46   D(9,10,11,26)         174.6785         calculate D2E/DX2 analytically  !
 ! D47   D(23,10,11,12)        173.954          calculate D2E/DX2 analytically  !
 ! D48   D(23,10,11,25)         53.242          calculate D2E/DX2 analytically  !
 ! D49   D(23,10,11,26)        -63.7883         calculate D2E/DX2 analytically  !
 ! D50   D(24,10,11,12)        -68.7399         calculate D2E/DX2 analytically  !
 ! D51   D(24,10,11,25)        170.5481         calculate D2E/DX2 analytically  !
 ! D52   D(24,10,11,26)         53.5178         calculate D2E/DX2 analytically  !
 ! D53   D(10,11,12,7)         -51.6944         calculate D2E/DX2 analytically  !
 ! D54   D(10,11,12,27)       -175.6547         calculate D2E/DX2 analytically  !
 ! D55   D(10,11,12,28)         66.6488         calculate D2E/DX2 analytically  !
 ! D56   D(25,11,12,7)          68.8743         calculate D2E/DX2 analytically  !
 ! D57   D(25,11,12,27)        -55.0859         calculate D2E/DX2 analytically  !
 ! D58   D(25,11,12,28)       -172.7825         calculate D2E/DX2 analytically  !
 ! D59   D(26,11,12,7)        -173.8425         calculate D2E/DX2 analytically  !
 ! D60   D(26,11,12,27)         62.1972         calculate D2E/DX2 analytically  !
 ! D61   D(26,11,12,28)        -55.4993         calculate D2E/DX2 analytically  !
 ! D62   D(1,13,14,15)         133.2483         calculate D2E/DX2 analytically  !
 ! D63   D(1,13,14,29)          11.036          calculate D2E/DX2 analytically  !
 ! D64   D(1,13,14,30)        -106.1985         calculate D2E/DX2 analytically  !
 ! D65   D(18,13,14,15)        -55.1185         calculate D2E/DX2 analytically  !
 ! D66   D(18,13,14,29)       -177.3308         calculate D2E/DX2 analytically  !
 ! D67   D(18,13,14,30)         65.4348         calculate D2E/DX2 analytically  !
 ! D68   D(1,13,18,17)        -134.5528         calculate D2E/DX2 analytically  !
 ! D69   D(1,13,18,37)         -11.7701         calculate D2E/DX2 analytically  !
 ! D70   D(1,13,18,38)         105.3985         calculate D2E/DX2 analytically  !
 ! D71   D(14,13,18,17)         54.1921         calculate D2E/DX2 analytically  !
 ! D72   D(14,13,18,37)        176.9748         calculate D2E/DX2 analytically  !
 ! D73   D(14,13,18,38)        -65.8566         calculate D2E/DX2 analytically  !
 ! D74   D(13,14,15,16)         53.3819         calculate D2E/DX2 analytically  !
 ! D75   D(13,14,15,31)        -67.1392         calculate D2E/DX2 analytically  !
 ! D76   D(13,14,15,32)        175.4538         calculate D2E/DX2 analytically  !
 ! D77   D(29,14,15,16)        176.7347         calculate D2E/DX2 analytically  !
 ! D78   D(29,14,15,31)         56.2136         calculate D2E/DX2 analytically  !
 ! D79   D(29,14,15,32)        -61.1934         calculate D2E/DX2 analytically  !
 ! D80   D(30,14,15,16)        -65.4258         calculate D2E/DX2 analytically  !
 ! D81   D(30,14,15,31)        174.0531         calculate D2E/DX2 analytically  !
 ! D82   D(30,14,15,32)         56.6461         calculate D2E/DX2 analytically  !
 ! D83   D(14,15,16,17)        -53.1545         calculate D2E/DX2 analytically  !
 ! D84   D(14,15,16,33)       -174.7149         calculate D2E/DX2 analytically  !
 ! D85   D(14,15,16,34)         68.0586         calculate D2E/DX2 analytically  !
 ! D86   D(31,15,16,17)         67.5135         calculate D2E/DX2 analytically  !
 ! D87   D(31,15,16,33)        -54.047          calculate D2E/DX2 analytically  !
 ! D88   D(31,15,16,34)       -171.2734         calculate D2E/DX2 analytically  !
 ! D89   D(32,15,16,17)       -175.26           calculate D2E/DX2 analytically  !
 ! D90   D(32,15,16,33)         63.1796         calculate D2E/DX2 analytically  !
 ! D91   D(32,15,16,34)        -54.0469         calculate D2E/DX2 analytically  !
 ! D92   D(15,16,17,18)         52.434          calculate D2E/DX2 analytically  !
 ! D93   D(15,16,17,35)        -68.2815         calculate D2E/DX2 analytically  !
 ! D94   D(15,16,17,36)        174.6978         calculate D2E/DX2 analytically  !
 ! D95   D(33,16,17,18)        173.9662         calculate D2E/DX2 analytically  !
 ! D96   D(33,16,17,35)         53.2507         calculate D2E/DX2 analytically  !
 ! D97   D(33,16,17,36)        -63.77           calculate D2E/DX2 analytically  !
 ! D98   D(34,16,17,18)        -68.7275         calculate D2E/DX2 analytically  !
 ! D99   D(34,16,17,35)        170.557          calculate D2E/DX2 analytically  !
 ! D100  D(34,16,17,36)         53.5364         calculate D2E/DX2 analytically  !
 ! D101  D(16,17,18,13)        -51.7104         calculate D2E/DX2 analytically  !
 ! D102  D(16,17,18,37)       -175.7203         calculate D2E/DX2 analytically  !
 ! D103  D(16,17,18,38)         66.6052         calculate D2E/DX2 analytically  !
 ! D104  D(35,17,18,13)         68.8624         calculate D2E/DX2 analytically  !
 ! D105  D(35,17,18,37)        -55.1475         calculate D2E/DX2 analytically  !
 ! D106  D(35,17,18,38)       -172.822          calculate D2E/DX2 analytically  !
 ! D107  D(36,17,18,13)       -173.8526         calculate D2E/DX2 analytically  !
 ! D108  D(36,17,18,37)         62.1376         calculate D2E/DX2 analytically  !
 ! D109  D(36,17,18,38)        -55.5369         calculate D2E/DX2 analytically  !
 --------------------------------------------------------------------------------
 Trust Radius=3.00D-01 FncErr=1.00D-07 GrdErr=1.00D-06 EigMax=2.50D+02 EigMin=1.00D-04
 Number of steps in this run=    228 maximum allowed number of steps=    228.
 GradGradGradGradGradGradGradGradGradGradGradGradGradGradGradGradGradGrad

                          Input orientation:                          
 ---------------------------------------------------------------------
 Center     Atomic      Atomic             Coordinates (Angstroms)
 Number     Number       Type             X           Y           Z
 ---------------------------------------------------------------------
      1          6           0        0.814100    0.146100    0.047300
      2          8           0        1.910420   -0.090960    0.558460
      3          7           0        0.202800    1.386300    0.065100
      4          7           0       -1.049600    1.306600    0.065800
      5          6           0       -1.662500    2.545700    0.039200
      6          8           0       -1.172930    3.547290   -0.486660
      7          7           0       -2.917630    2.608190    0.649130
      8          6           0       -3.480270    1.421070    1.281520
      9          6           0       -4.042370    1.752110    2.662160
     10          6           0       -5.032540    2.913180    2.595240
     11          6           0       -4.412360    4.123250    1.896630
     12          6           0       -3.822540    3.753020    0.535530
     13          7           0        0.094540   -0.869080   -0.593040
     14          6           0       -1.194440   -0.569320   -1.206600
     15          6           0       -1.281610   -1.164650   -2.609800
     16          6           0       -0.960450   -2.657930   -2.600840
     17          6           0        0.381920   -2.926130   -1.920300
     18          6           0        0.454270   -2.284300   -0.534570
     19          1           0       -2.734500    0.626520    1.372560
     20          1           0       -4.277300    1.047090    0.626960
     21          1           0       -3.217990    2.022370    3.333890
     22          1           0       -4.531140    0.869030    3.088950
     23          1           0       -5.347270    3.190410    3.607890
     24          1           0       -5.932640    2.596880    2.054430
     25          1           0       -3.618640    4.533210    2.533410
     26          1           0       -5.167570    4.907870    1.775490
     27          1           0       -3.322270    4.623480    0.103050
     28          1           0       -4.624740    3.462610   -0.154400
     29          1           0       -1.372260    0.509100   -1.256510
     30          1           0       -1.971500   -0.998750   -0.562360
     31          1           0       -0.569960   -0.649310   -3.267130
     32          1           0       -2.282390   -1.000690   -3.024330
     33          1           0       -0.938020   -3.038070   -3.628720
     34          1           0       -1.755090   -3.200870   -2.074900
     35          1           0        1.185740   -2.520860   -2.547240
     36          1           0        0.547200   -4.006430   -1.840970
     37          1           0        1.451640   -2.432250   -0.112660
     38          1           0       -0.260060   -2.770680    0.141360
 ---------------------------------------------------------------------
                    Distance matrix (angstroms):
                    1          2          3          4          5
     1  C    0.000000
     2  O    1.232639   0.000000
     3  N    1.382787   2.311205   0.000000
     4  N    2.195559   3.310228   1.254934   0.000000
     5  C    3.448433   4.470723   2.196411   1.382651   0.000000
     6  O    3.975109   4.882232   2.620487   2.311085   1.232635
     7  N    4.511086   5.532061   3.401645   2.350308   1.396879
     8  C    4.646554   5.645227   3.878903   2.720154   2.472335
     9  C    5.744742   6.577094   4.989991   3.987008   3.629530
    10  C    6.952117   7.834413   6.011801   4.984273   4.245651
    11  C    6.823022   7.715427   5.669665   4.753274   3.674295
    12  C    5.894631   6.902430   4.693190   3.727575   2.523834
    13  N    1.399426   2.286666   2.351937   2.544938   3.891997
    14  C    2.473525   3.603390   2.719182   2.271356   3.387395
    15  C    3.629083   4.623823   3.983203   3.649622   4.574820
    16  C    4.245498   4.981205   4.981584   4.778746   5.877112
    17  C    3.673803   4.064327   4.750889   4.889770   6.161186
    18  C    2.524855   2.850584   3.727753   3.939116   5.304604
    19  H    3.818335   4.769991   3.303702   2.238084   2.571047
    20  H    5.202898   6.291878   4.527919   3.286380   3.070582
    21  H    5.529902   6.202400   4.774032   3.986810   3.680816
    22  H    6.192403   6.987035   5.641048   4.631633   4.510132
    23  H    7.740033   8.528803   6.827111   5.879210   5.169983
    24  H    7.453415   8.424726   6.562512   5.428034   4.722062
    25  H    6.713915   7.473545   5.531636   4.806254   3.741358
    26  H    7.838461   8.750280   6.645883   5.731480   4.569471
    27  H    6.095867   7.057931   4.786115   4.020959   2.660091
    28  H    6.373453   7.472907   5.259694   4.180729   3.106939
    29  H    2.571354   3.798707   2.235385   1.577536   2.431223
    30  H    3.072773   4.141210   3.287818   2.561079   3.608390
    31  H    3.678824   4.593384   3.980530   3.894106   4.725839
    32  H    4.509799   5.589602   4.628009   4.048736   4.727194
    33  H    5.169331   5.859313   5.875443   5.704216   6.719896
    34  H    4.722995   5.481066   5.427252   5.039603   6.123811
    35  H    3.739309   4.009358   4.801707   5.145306   6.361774
    36  H    4.569497   4.790255   5.730031   5.866330   7.165767
    37  H    2.660814   2.478411   4.021508   4.501894   5.873748
    38  H    3.109706   3.473594   4.183364   4.153709   5.499197
                    6          7          8          9         10
     6  O    0.000000
     7  N    2.283836   0.000000
     8  C    3.601540   1.457990   0.000000
     9  C    4.622924   2.459716   1.526994   0.000000
    10  C    4.979638   2.890192   2.522260   1.527416   0.000000
    11  C    4.062722   2.466958   2.923855   2.518975   1.528708
    12  C    2.847390   1.463695   2.472173   2.928228   2.532160
    13  N    4.595881   4.765245   4.640908   5.880560   7.124435
    14  C    4.179145   4.063211   3.921404   5.335452   6.427504
    15  C    5.169324   5.247048   5.163567   6.627431   7.602014
    16  C    6.558937   6.490368   6.169315   7.526344   8.638196
    17  C    6.810143   6.936692   6.638246   7.903114   9.154454
    18  C    6.054545   6.058656   5.701627   6.836041   8.180134
    19  H    3.798170   2.117523   1.093513   2.154192   3.464787
    20  H    4.138631   2.070321   1.097072   2.166630   2.815458
    21  H    4.593937   2.764297   2.154664   1.097207   2.152147
    22  H    5.588885   3.403059   2.162378   1.095845   2.161874
    23  H    5.858141   3.872517   3.468177   2.160064   1.096071
    24  H    5.478618   3.326452   2.827373   2.157798   1.096677
    25  H    4.009284   2.783456   3.357349   2.816139   2.151147
    26  H    4.788074   3.408731   3.904966   3.465700   2.160790
    27  H    2.474996   2.126812   3.416019   3.913100   3.472918
    28  H    3.468798   2.071212   2.745827   3.346338   2.833495
    29  H    3.140541   3.228902   3.423009   4.902095   5.832086
    30  H    4.616267   3.920827   3.395852   4.717336   5.885881
    31  H    5.070112   5.608917   5.783303   7.278800   8.183724
    32  H    5.324922   5.188627   5.083324   6.558323   7.379788
    33  H    7.300321   7.355210   7.103339   8.494586   9.535206
    34  H    6.956945   6.520507   5.966920   7.225192   8.362625
    35  H    6.828745   7.304901   7.209013   8.528145   9.728355
    36  H    7.864584   7.871394   7.445013   8.631519   9.934509
    37  H    6.540882   6.713932   6.412141   7.442623   8.828983
    38  H    6.414397   6.021026   5.407447   6.412171   7.816928
                   11         12         13         14         15
    11  C    0.000000
    12  C    1.528905   0.000000
    13  N    7.171748   6.162872   0.000000
    14  C    6.481146   5.350192   1.458692   0.000000
    15  C    7.620459   6.366546   2.459364   1.526757   0.000000
    16  C    8.838966   7.689516   2.888641   2.522092   1.527452
    17  C    9.340655   8.265569   2.464886   2.923839   2.519038
    18  C    8.405446   7.475657   1.461394   2.472049   2.928050
    19  H    3.913692   3.414594   3.755512   3.233247   4.601996
    20  H    3.330625   2.745400   4.926773   3.934304   4.933819
    21  H    2.811749   3.345362   5.895262   5.606038   7.016703
    22  H    3.467807   3.916563   6.162385   5.626204   6.868118
    23  H    2.161633   3.475734   7.983769   7.386534   8.611377
    24  H    2.160083   2.845389   7.439682   6.565796   7.585264
    25  H    1.097063   2.154483   7.262722   6.774971   8.023710
    26  H    1.095740   2.163397   8.165347   7.394473   8.438421
    27  H    2.157650   1.093165   6.505947   5.762640   6.710164
    28  H    2.165242   1.097208   6.420868   5.397272   6.214261
    29  H    5.678607   4.442780   2.119216   1.094121   2.154310
    30  H    6.183794   5.216419   2.070333   1.096940   2.166906
    31  H    8.012851   6.664834   2.764166   2.154567   1.097317
    32  H    7.416696   6.135342   3.402688   2.161911   1.095572
    33  H    9.689429   8.472328   3.871182   3.468017   2.160082
    34  H    8.745105   7.710077   3.324798   2.827248   2.157891
    35  H    9.758632   8.599297   2.781725   3.357243   2.816209
    36  H   10.230278   9.216911   3.406640   3.905056   3.465741
    37  H    9.022102   8.154428   2.125085   3.415985   3.913205
    38  H    8.237041   7.443473   2.069098   2.745186   3.345412
                   16         17         18         19         20
    16  C    0.000000
    17  C    1.528733   0.000000
    18  C    2.531897   1.528865   0.000000
    19  H    5.451860   5.759889   4.719986   0.000000
    20  H    5.928521   6.631994   5.902124   1.764378   0.000000
    21  H    7.888138   8.065576   6.855500   2.455397   3.066069
    22  H    7.587027   7.977091   6.922983   2.496542   2.481438
    23  H    9.591434  10.039749   8.988342   4.289149   3.824212
    24  H    8.602746   9.283091   8.445203   3.817770   2.679491
    25  H    9.227079   9.564610   8.513492   4.170312   4.027582
    26  H    9.700178  10.287238   9.416410   4.940864   4.125206
    27  H    8.118383   8.649369   7.898496   4.234716   3.738600
    28  H    7.541426   8.306687   7.679052   3.734705   2.562416
    29  H    3.465096   3.913894   3.414746   2.963359   3.503734
    30  H    2.816115   3.331273   2.745500   2.639619   3.304036
    31  H    2.151971   2.811394   3.345015   5.276334   5.637914
    32  H    2.161785   3.467672   3.916104   4.710080   4.637347
    33  H    1.096151   2.161821   3.475688   6.455181   6.778653
    34  H    1.096745   2.160138   2.844994   5.243390   5.630875
    35  H    2.151230   1.097007   2.154495   6.374882   7.256075
    36  H    2.160755   1.095746   2.163573   6.523845   7.409760
    37  H    3.472773   2.157726   1.092998   5.393118   6.743411
    38  H    2.832476   2.164889   1.097139   4.379461   5.563218
                   21         22         23         24         25
    21  H    0.000000
    22  H    1.764809   0.000000
    23  H    2.444019   2.514791   0.000000
    24  H    3.055553   2.453548   1.763001   0.000000
    25  H    2.665634   3.816739   2.438397   3.055060   0.000000
    26  H    3.815178   4.294467   2.517866   2.450268   1.764652
    27  H    4.149093   4.947005   4.293975   3.837841   2.450027
    28  H    4.027580   4.153882   3.840699   2.709063   3.063127
    29  H    5.173826   5.384338   6.830265   6.009843   5.966840
    30  H    5.085437   4.834503   6.807046   5.955399   6.549767
    31  H    7.597592   7.641731   9.210431   8.222839   8.354593
    32  H    7.102197   6.776793   8.422894   7.215306   7.956010
    33  H    8.904171   8.561719  10.516842   9.433827  10.123332
    34  H    7.660112   7.136938   9.276116   8.253314   9.193766
    35  H    8.638372   8.714397  10.638818   9.901412   9.932521
    36  H    8.792170   8.594403  10.780972  10.038235  10.460157
    37  H    7.316269   7.546020   9.575070   9.193259   9.012606
    38  H    6.474174   6.338604   8.569197   8.040442   8.387417
                   26         27         28         29         30
    26  H    0.000000
    27  H    2.506604   0.000000
    28  H    2.471420   1.763612   0.000000
    29  H    6.553364   4.751743   4.529514   0.000000
    30  H    7.111158   5.820380   5.206712   1.764807   0.000000
    31  H    8.800471   6.836347   6.560352   2.455238   3.066301
    32  H    8.140861   6.518677   5.800358   2.496596   2.481522
    33  H   10.499169   8.849300   8.241459   4.289331   3.824849
    34  H    9.603238   8.271637   7.505010   3.818403   2.680288
    35  H   10.688151   8.853688   8.676939   4.170133   4.027994
    36  H   11.189375   9.655432   9.240132   4.941248   4.126116
    37  H   10.062625   8.521741   8.466021   4.234896   3.738320
    38  H    9.258194   8.003262   7.615235   3.734700   2.562027
                   31         32         33         34         35
    31  H    0.000000
    32  H    1.764890   0.000000
    33  H    2.443847   2.514664   0.000000
    34  H    3.055553   2.453621   1.763084   0.000000
    35  H    2.665225   3.816603   2.438742   3.055160   0.000000
    36  H    3.814739   4.294344   2.517866   2.450345   1.764502
    37  H    4.149268   4.946733   4.294202   3.837223   2.450660
    38  H    4.026668   4.152623   3.839874   2.707764   3.062894
                   36         37         38
    36  H    0.000000
    37  H    2.506613   0.000000
    38  H    2.471514   1.763229   0.000000
 Stoichiometry    C12H20N4O2
 Framework group  C1[X(C12H20N4O2)]
 Deg. of freedom   108
 Full point group                 C1      NOp   1
 Largest Abelian subgroup         C1      NOp   1
 Largest concise Abelian subgroup C1      NOp   1
                         Standard orientation:                         
 ---------------------------------------------------------------------
 Center     Atomic      Atomic             Coordinates (Angstroms)
 Number     Number       Type             X           Y           Z
 ---------------------------------------------------------------------
      1          6           0        1.826691    1.580474    0.540792
      2          8           0        2.409372    2.442858    1.201229
      3          7           0        0.601716    1.770007   -0.072081
      4          7           0       -0.067956    0.711469   -0.148861
      5          6           0       -1.274248    0.890050   -0.800544
      6          8           0       -1.465174    1.729797   -1.682453
      7          7           0       -2.303065    0.031590   -0.405763
      8          6           0       -2.070448   -0.947573    0.649162
      9          6           0       -3.212233   -0.939809    1.663053
     10          6           0       -4.565438   -1.118036    0.977435
     11          6           0       -4.752629   -0.093136   -0.141264
     12          6           0       -3.575802   -0.095982   -1.117287
     13          7           0        2.388890    0.309179    0.379138
     14          6           0        1.694496   -0.695759   -0.418169
     15          6           0        2.654104   -1.379448   -1.389102
     16          6           0        3.876024   -1.937670   -0.662184
     17          6           0        4.550917   -0.858477    0.184507
     18          6           0        3.557765   -0.164815    1.117198
     19          1           0       -1.124160   -0.761142    1.164481
     20          1           0       -1.993551   -1.932315    0.171736
     21          1           0       -3.208363    0.013620    2.206028
     22          1           0       -3.061324   -1.734000    2.402894
     23          1           0       -5.370406   -1.014381    1.714085
     24          1           0       -4.636635   -2.131432    0.564323
     25          1           0       -4.848951    0.905065    0.303555
     26          1           0       -5.684691   -0.298807   -0.679413
     27          1           0       -3.708853    0.699436   -1.855270
     28          1           0       -3.545080   -1.046216   -1.664989
     29          1           0        0.861804   -0.257623   -0.976525
     30          1           0        1.270366   -1.430043    0.277689
     31          1           0        2.986108   -0.653646   -2.142154
     32          1           0        2.136615   -2.184870   -1.921811
     33          1           0        4.589938   -2.337830   -1.391393
     34          1           0        3.570967   -2.772667   -0.019869
     35          1           0        5.000017   -0.112254   -0.482489
     36          1           0        5.365174   -1.301812    0.768543
     37          1           0        4.059001    0.648143    1.648712
     38          1           0        3.196151   -0.873089    1.873039
 ---------------------------------------------------------------------
 Rotational constants (GHZ):           0.8050289           0.2087362           0.1960590
 Standard basis: 6-31G(d) (6D, 7F)
 There are   310 symmetry adapted cartesian basis functions of A   symmetry.
 There are   310 symmetry adapted basis functions of A   symmetry.
   310 basis functions,   584 primitive gaussians,   310 cartesian basis functions
    68 alpha electrons       68 beta electrons
       nuclear repulsion energy      1393.3701775176 Hartrees.
 NAtoms=   38 NActive=   38 NUniq=   38 SFac= 1.00D+00 NAtFMM=   60 NAOKFM=F Big=F
 Integral buffers will be    131072 words long.
 Raffenetti 2 integral format.
 Two-electron integral symmetry is turned on.
 One-electron integrals computed using PRISM.
 NBasis=   310 RedAO= T EigKep=  1.86D-03  NBF=   310
 NBsUse=   310 1.00D-06 EigRej= -1.00D+00 NBFU=   310
 ExpMin= 1.61D-01 ExpMax= 5.48D+03 ExpMxC= 8.25D+02 IAcc=3 IRadAn=         5 AccDes= 0.00D+00
 Harris functional with IExCor=  402 and IRadAn=       5 diagonalized for initial guess.
 HarFok:  IExCor=  402 AccDes= 0.00D+00 IRadAn=         5 IDoV= 1 UseB2=F ITyADJ=14
 ICtDFT=  3500011 ScaDFX=  1.000000  1.000000  1.000000  1.000000
 FoFCou: FMM=F IPFlag=           0 FMFlag=      100000 FMFlg1=           0
         NFxFlg=           0 DoJE=T BraDBF=F KetDBF=T FulRan=T
         wScrn=  0.000000 ICntrl=       500 IOpCl=  0 I1Cent=   200000004 NGrid=           0
         NMat0=    1 NMatS0=      1 NMatT0=    0 NMatD0=    1 NMtDS0=    0 NMtDT0=    0
 Petite list used in FoFCou.
 Gradient too large for Newton-Raphson -- use scaled steepest descent instead.
     Minimum is close to point  2 DX=  2.98D-02 DF= -3.75D-03 DXR=  9.03D-02 DFR=  8.23D-03 which will be used.
 Gradient too large for Newton-Raphson -- use scaled steepest descent instead.
     Minimum is close to point  3 DX= -3.52D-03 DF= -2.94D-06 DXR=  7.08D-03 DFR=  5.00D-05 which will be used.
 Gradient too large for Newton-Raphson -- use scaled steepest descent instead.
     Accept linear search using points  1 and  2.
 Gradient too large for Newton-Raphson -- use scaled steepest descent instead.
 Gradient too large for Newton-Raphson -- use scaled steepest descent instead.
     Accept linear search using points  1 and  2.
 Gradient too large for Newton-Raphson -- use scaled steepest descent instead.
     Accept linear search using points  1 and  2.
 Gradient too large for Newton-Raphson -- use scaled steepest descent instead.
 LinEq1:  Iter=  0 NonCon=     1 RMS=4.60D-05 Max=1.73D-03 NDo=     1
 AX will form     1 AO Fock derivatives at one time.
 LinEq1:  Iter=  1 NonCon=     1 RMS=8.44D-05 Max=4.81D-03 NDo=     1
 LinEq1:  Iter=  2 NonCon=     1 RMS=1.29D-05 Max=6.98D-04 NDo=     1
 LinEq1:  Iter=  3 NonCon=     1 RMS=1.34D-05 Max=6.04D-04 NDo=     1
 LinEq1:  Iter=  4 NonCon=     1 RMS=6.42D-06 Max=2.37D-04 NDo=     1
 LinEq1:  Iter=  5 NonCon=     1 RMS=5.25D-06 Max=2.64D-04 NDo=     1
 LinEq1:  Iter=  6 NonCon=     1 RMS=3.19D-06 Max=7.61D-05 NDo=     1
 LinEq1:  Iter=  7 NonCon=     1 RMS=1.81D-06 Max=9.45D-05 NDo=     1
 LinEq1:  Iter=  8 NonCon=     1 RMS=1.99D-06 Max=1.14D-04 NDo=     1
 LinEq1:  Iter=  9 NonCon=     1 RMS=1.23D-06 Max=3.98D-05 NDo=     1
 LinEq1:  Iter= 10 NonCon=     1 RMS=5.41D-07 Max=2.99D-05 NDo=     1
 LinEq1:  Iter= 11 NonCon=     1 RMS=2.15D-07 Max=1.15D-05 NDo=     1
 LinEq1:  Iter= 12 NonCon=     1 RMS=1.30D-07 Max=7.18D-06 NDo=     1
 LinEq1:  Iter= 13 NonCon=     1 RMS=5.48D-08 Max=2.04D-06 NDo=     1
 LinEq1:  Iter= 14 NonCon=     1 RMS=3.01D-08 Max=1.32D-06 NDo=     1
 LinEq1:  Iter= 15 NonCon=     1 RMS=1.92D-08 Max=5.01D-07 NDo=     1
 LinEq1:  Iter= 16 NonCon=     0 RMS=6.62D-09 Max=1.77D-07 NDo=     1
 Linear equations converged to 1.814D-08 1.814D-07 after    16 iterations.
     Minimum is close to point  2 DX=  1.10D-03 DF= -2.81D-11 DXR=  1.10D-03 DFR=  1.20D-06 which will be used.
 LinEq1:  Iter=  0 NonCon=     1 RMS=1.56D-07 Max=1.28D-05 NDo=     1
 LinEq1:  Iter=  1 NonCon=     1 RMS=1.82D-07 Max=1.45D-05 NDo=     1
 LinEq1:  Iter=  2 NonCon=     1 RMS=1.11D-07 Max=6.51D-06 NDo=     1
 LinEq1:  Iter=  3 NonCon=     1 RMS=5.60D-08 Max=1.71D-06 NDo=     1
 LinEq1:  Iter=  4 NonCon=     1 RMS=4.82D-08 Max=2.02D-06 NDo=     1
 LinEq1:  Iter=  5 NonCon=     1 RMS=3.19D-08 Max=1.24D-06 NDo=     1
 LinEq1:  Iter=  6 NonCon=     1 RMS=1.89D-08 Max=5.31D-07 NDo=     1
 LinEq1:  Iter=  7 NonCon=     1 RMS=1.12D-08 Max=5.29D-07 NDo=     1
 LinEq1:  Iter=  8 NonCon=     1 RMS=1.18D-08 Max=6.40D-07 NDo=     1
 LinEq1:  Iter=  9 NonCon=     1 RMS=7.37D-09 Max=3.71D-07 NDo=     1
 LinEq1:  Iter= 10 NonCon=     1 RMS=3.93D-09 Max=2.11D-07 NDo=     1
 LinEq1:  Iter= 11 NonCon=     1 RMS=2.60D-09 Max=1.37D-07 NDo=     1
 LinEq1:  Iter= 12 NonCon=     1 RMS=1.31D-09 Max=5.44D-08 NDo=     1
 LinEq1:  Iter= 13 NonCon=     1 RMS=7.06D-10 Max=2.93D-08 NDo=     1
 LinEq1:  Iter= 14 NonCon=     1 RMS=3.29D-10 Max=1.50D-08 NDo=     1
 LinEq1:  Iter= 15 NonCon=     1 RMS=1.36D-10 Max=5.82D-09 NDo=     1
 LinEq1:  Iter= 16 NonCon=     1 RMS=5.43D-11 Max=1.82D-09 NDo=     1
 LinEq1:  Iter= 17 NonCon=     0 RMS=2.46D-11 Max=6.70D-10 NDo=     1
 Linear equations converged to 1.117D-10 1.117D-09 after    17 iterations.
 Restarting incremental Fock formation.
 SCF Done:  E(RB3LYP) =  -838.692949146     a.u. after   10 cycles
            Convg  =    0.4927D-09                    54 Fock formations.
              S**2 =  0.0000                  -V/T =  2.0088
 DoSCS=F DFT=T ScalE2(SS,OS)=  1.000000  1.000000
 Range of M.O.s used for correlation:     1   310
 NBasis=   310 NAE=    68 NBE=    68 NFC=     0 NFV=     0
 NROrb=    310 NOA=    68 NOB=    68 NVA=   242 NVB=   242
 Symmetrizing basis deriv contribution to polar:
 IMax=3 JMax=2 DiffMx= 0.00D+00
 G2DrvN: will do    39 centers at a time, making    1 passes.
 Calling FoFCou, ICntrl=  3107 FMM=F I1Cent=   0 AccDes= 0.00D+00.
 End of G2Drv F.D. properties file   721 does not exist.
 End of G2Drv F.D. properties file   722 does not exist.
 End of G2Drv F.D. properties file   788 does not exist.
          IDoAtm=11111111111111111111111111111111111111
          Differentiating once with respect to electric field.
                with respect to dipole field.
          Differentiating once with respect to nuclear coordinates.
 Keep R1 ints in memory in canonical form, NReq=1176942805.
          There are   117 degrees of freedom in the 1st order CPHF.  IDoFFX=6 NUNeed=     3.
    114 vectors produced by pass  0 Test12= 1.65D-14 1.00D-09 XBig12= 1.80D+02 5.41D+00.
 AX will form   114 AO Fock derivatives at one time.
    114 vectors produced by pass  1 Test12= 1.65D-14 1.00D-09 XBig12= 3.52D+01 1.20D+00.
    114 vectors produced by pass  2 Test12= 1.65D-14 1.00D-09 XBig12= 3.12D-01 1.02D-01.
    114 vectors produced by pass  3 Test12= 1.65D-14 1.00D-09 XBig12= 2.02D-03 5.44D-03.
    114 vectors produced by pass  4 Test12= 1.65D-14 1.00D-09 XBig12= 2.82D-06 1.37D-04.
     69 vectors produced by pass  5 Test12= 1.65D-14 1.00D-09 XBig12= 2.25D-09 3.16D-06.
     10 vectors produced by pass  6 Test12= 1.65D-14 1.00D-09 XBig12= 1.57D-12 9.20D-08.
      3 vectors produced by pass  7 Test12= 1.65D-14 1.00D-09 XBig12= 1.15D-15 2.36D-09.
 InvSVY:  IOpt=1 It=  1 EMax= 8.88D-15
 Solved reduced A of dimension   652 with   117 vectors.
 Isotropic polarizability for W=    0.000000      164.03 Bohr**3.
 End of Minotr F.D. properties file   721 does not exist.
 End of Minotr F.D. properties file   722 does not exist.
 End of Minotr F.D. properties file   788 does not exist.

 **********************************************************************

            Population analysis using the SCF density.

 **********************************************************************

 Orbital symmetries:
       Occupied  (A) (A) (A) (A) (A) (A) (A) (A) (A) (A) (A) (A)
                 (A) (A) (A) (A) (A) (A) (A) (A) (A) (A) (A) (A)
                 (A) (A) (A) (A) (A) (A) (A) (A) (A) (A) (A) (A)
                 (A) (A) (A) (A) (A) (A) (A) (A) (A) (A) (A) (A)
                 (A) (A) (A) (A) (A) (A) (A) (A) (A) (A) (A) (A)
                 (A) (A) (A) (A) (A) (A) (A) (A)
       Virtual   (A) (A) (A) (A) (A) (A) (A) (A) (A) (A) (A) (A)
                 (A) (A) (A) (A) (A) (A) (A) (A) (A) (A) (A) (A)
                 (A) (A) (A) (A) (A) (A) (A) (A) (A) (A) (A) (A)
                 (A) (A) (A) (A) (A) (A) (A) (A) (A) (A) (A) (A)
                 (A) (A) (A) (A) (A) (A) (A) (A) (A) (A) (A) (A)
                 (A) (A) (A) (A) (A) (A) (A) (A) (A) (A) (A) (A)
                 (A) (A) (A) (A) (A) (A) (A) (A) (A) (A) (A) (A)
                 (A) (A) (A) (A) (A) (A) (A) (A) (A) (A) (A) (A)
                 (A) (A) (A) (A) (A) (A) (A) (A) (A) (A) (A) (A)
                 (A) (A) (A) (A) (A) (A) (A) (A) (A) (A) (A) (A)
                 (A) (A) (A) (A) (A) (A) (A) (A) (A) (A) (A) (A)
                 (A) (A) (A) (A) (A) (A) (A) (A) (A) (A) (A) (A)
                 (A) (A) (A) (A) (A) (A) (A) (A) (A) (A) (A) (A)
                 (A) (A) (A) (A) (A) (A) (A) (A) (A) (A) (A) (A)
                 (A) (A) (A) (A) (A) (A) (A) (A) (A) (A) (A) (A)
                 (A) (A) (A) (A) (A) (A) (A) (A) (A) (A) (A) (A)
                 (A) (A) (A) (A) (A) (A) (A) (A) (A) (A) (A) (A)
                 (A) (A) (A) (A) (A) (A) (A) (A) (A) (A) (A) (A)
                 (A) (A) (A) (A) (A) (A) (A) (A) (A) (A) (A) (A)
                 (A) (A) (A) (A) (A) (A) (A) (A) (A) (A) (A) (A)
                 (A) (A)
 The electronic state is 1-A.
 Alpha  occ. eigenvalues --  -19.12106 -19.11941 -14.41000 -14.40504 -14.37880
 Alpha  occ. eigenvalues --  -14.36926 -10.31423 -10.31018 -10.23073 -10.22982
 Alpha  occ. eigenvalues --  -10.22569 -10.21919 -10.19648 -10.19585 -10.19397
 Alpha  occ. eigenvalues --  -10.19060 -10.18846 -10.18676  -1.10269  -1.04239
 Alpha  occ. eigenvalues --   -1.01036  -0.94865  -0.93970  -0.82853  -0.80773
 Alpha  occ. eigenvalues --   -0.79132  -0.77288  -0.77097  -0.69231  -0.66791
 Alpha  occ. eigenvalues --   -0.64916  -0.64478  -0.61167  -0.59019  -0.57415
 Alpha  occ. eigenvalues --   -0.56173  -0.54170  -0.50208  -0.48893  -0.47440
 Alpha  occ. eigenvalues --   -0.47172  -0.46934  -0.46423  -0.45803  -0.44444
 Alpha  occ. eigenvalues --   -0.43927  -0.43787  -0.43343  -0.42649  -0.41311
 Alpha  occ. eigenvalues --   -0.40815  -0.40140  -0.39167  -0.37100  -0.36806
 Alpha  occ. eigenvalues --   -0.36426  -0.35718  -0.34661  -0.33972  -0.33683
 Alpha  occ. eigenvalues --   -0.33418  -0.32986  -0.32495  -0.27754  -0.26796
 Alpha  occ. eigenvalues --   -0.24672  -0.23953  -0.22981
 Alpha virt. eigenvalues --   -0.11759   0.03658   0.05279   0.08313   0.08502
 Alpha virt. eigenvalues --    0.10206   0.10367   0.11724   0.12373   0.13038
 Alpha virt. eigenvalues --    0.13306   0.14007   0.14479   0.15408   0.15782
 Alpha virt. eigenvalues --    0.15933   0.16006   0.16208   0.16334   0.16392
 Alpha virt. eigenvalues --    0.16737   0.18139   0.18624   0.19283   0.19625
 Alpha virt. eigenvalues --    0.20977   0.21798   0.22345   0.23312   0.23679
 Alpha virt. eigenvalues --    0.24943   0.25464   0.25722   0.26244   0.27071
 Alpha virt. eigenvalues --    0.27429   0.29567   0.31010   0.33950   0.37927
 Alpha virt. eigenvalues --    0.40508   0.43182   0.48434   0.49295   0.49538
 Alpha virt. eigenvalues --    0.50816   0.51286   0.52302   0.52899   0.53237
 Alpha virt. eigenvalues --    0.54325   0.54714   0.56146   0.56607   0.57853
 Alpha virt. eigenvalues --    0.58257   0.59354   0.60262   0.61788   0.63042
 Alpha virt. eigenvalues --    0.63343   0.63573   0.64375   0.64464   0.65277
 Alpha virt. eigenvalues --    0.67122   0.68244   0.69846   0.70399   0.71882
 Alpha virt. eigenvalues --    0.72663   0.73253   0.76258   0.76833   0.78018
 Alpha virt. eigenvalues --    0.78274   0.80324   0.80447   0.80565   0.82582
 Alpha virt. eigenvalues --    0.82972   0.83217   0.84468   0.85129   0.85924
 Alpha virt. eigenvalues --    0.86293   0.86851   0.87001   0.87343   0.87541
 Alpha virt. eigenvalues --    0.88675   0.89808   0.90288   0.91256   0.91643
 Alpha virt. eigenvalues --    0.92547   0.93283   0.94175   0.94471   0.94953
 Alpha virt. eigenvalues --    0.95587   0.96470   0.99669   1.00389   1.00860
 Alpha virt. eigenvalues --    1.01845   1.03621   1.05145   1.07726   1.08842
 Alpha virt. eigenvalues --    1.10710   1.13497   1.14416   1.16537   1.17825
 Alpha virt. eigenvalues --    1.18721   1.24257   1.24296   1.27617   1.28315
 Alpha virt. eigenvalues --    1.31318   1.31722   1.35049   1.36695   1.37457
 Alpha virt. eigenvalues --    1.38810   1.41420   1.41815   1.42699   1.45622
 Alpha virt. eigenvalues --    1.47293   1.52407   1.54161   1.54699   1.56543
 Alpha virt. eigenvalues --    1.57652   1.58430   1.60650   1.63087   1.64746
 Alpha virt. eigenvalues --    1.67162   1.69856   1.70167   1.73382   1.74867
 Alpha virt. eigenvalues --    1.76570   1.78039   1.78910   1.80787   1.81877
 Alpha virt. eigenvalues --    1.82507   1.84566   1.86130   1.86200   1.87355
 Alpha virt. eigenvalues --    1.89139   1.90463   1.91191   1.91833   1.92811
 Alpha virt. eigenvalues --    1.93997   1.95077   1.96170   1.97379   1.97690
 Alpha virt. eigenvalues --    1.99381   1.99803   2.00267   2.00639   2.01068
 Alpha virt. eigenvalues --    2.03309   2.04446   2.06947   2.09253   2.10477
 Alpha virt. eigenvalues --    2.14017   2.14831   2.15618   2.16918   2.18303
 Alpha virt. eigenvalues --    2.20011   2.25861   2.28085   2.28855   2.29464
 Alpha virt. eigenvalues --    2.30700   2.31685   2.32922   2.34721   2.35119
 Alpha virt. eigenvalues --    2.35757   2.36391   2.38051   2.39244   2.40423
 Alpha virt. eigenvalues --    2.40929   2.43395   2.45023   2.47151   2.53490
 Alpha virt. eigenvalues --    2.55744   2.56486   2.59102   2.60638   2.61681
 Alpha virt. eigenvalues --    2.62307   2.63922   2.65405   2.68788   2.69646
 Alpha virt. eigenvalues --    2.69826   2.72708   2.73828   2.74557   2.76698
 Alpha virt. eigenvalues --    2.79024   2.82220   2.85738   2.94424   2.94959
 Alpha virt. eigenvalues --    3.08595   3.14021   3.21916   3.25259   3.85452
 Alpha virt. eigenvalues --    4.00132   4.00853   4.09536   4.14983   4.16853
 Alpha virt. eigenvalues --    4.17540   4.18764   4.25810   4.27053   4.39480
 Alpha virt. eigenvalues --    4.42436   4.49811   4.54040   4.54432   4.55374
 Alpha virt. eigenvalues --    4.57992   4.62069
          Condensed to atoms (all electrons):
               1          2          3          4          5          6
     1  C    4.277438   0.590542   0.232759  -0.032861   0.003782   0.000584
     2  O    0.590542   8.065346  -0.069589   0.001864  -0.000209   0.000001
     3  N    0.232759  -0.069589   7.004355   0.172139  -0.052518   0.000676
     4  N   -0.032861   0.001864   0.172139   7.391771   0.162148  -0.085713
     5  C    0.003782  -0.000209  -0.052518   0.162148   4.328107   0.579557
     6  O    0.000584   0.000001   0.000676  -0.085713   0.579557   8.070331
     7  N   -0.000179   0.000001   0.002406  -0.107097   0.307801  -0.102469
     8  C   -0.000025   0.000000   0.000880  -0.009821  -0.030335   0.002644
     9  C    0.000002  -0.000000   0.000033  -0.000068   0.002313  -0.000040
    10  C    0.000000  -0.000000   0.000001  -0.000025   0.000022  -0.000010
    11  C   -0.000000  -0.000000   0.000005  -0.000115   0.001616   0.000071
    12  C    0.000002  -0.000000  -0.000070   0.003668  -0.022159  -0.001670
    13  N    0.278962  -0.110435  -0.110872  -0.006266   0.000520  -0.000009
    14  C   -0.030399   0.002729  -0.007732  -0.107366   0.002664  -0.000265
    15  C    0.000786  -0.000068  -0.000985   0.006309   0.000026   0.000006
    16  C   -0.000021  -0.000007  -0.000031  -0.000124   0.000002  -0.000000
    17  C    0.000909   0.000020  -0.000162   0.000023   0.000000  -0.000000
    18  C   -0.018009  -0.000909   0.004858  -0.001104   0.000023  -0.000000
    19  H    0.000084  -0.000000  -0.000466   0.014558  -0.011905   0.000211
    20  H   -0.000006   0.000000  -0.000083   0.000738  -0.000755  -0.000045
    21  H   -0.000001  -0.000000  -0.000016   0.000062   0.000390  -0.000024
    22  H   -0.000000   0.000000  -0.000001   0.000016  -0.000088   0.000001
    23  H   -0.000000  -0.000000   0.000000  -0.000000   0.000012   0.000000
    24  H   -0.000000   0.000000  -0.000000  -0.000000  -0.000027   0.000000
    25  H   -0.000000   0.000000  -0.000001  -0.000000   0.000522   0.000042
    26  H    0.000000  -0.000000  -0.000000   0.000001  -0.000078  -0.000006
    27  H    0.000000  -0.000000  -0.000004   0.000505  -0.000771   0.014025
    28  H   -0.000000   0.000000  -0.000005  -0.000079  -0.000049   0.000793
    29  H   -0.012422  -0.000114  -0.008339  -0.054849   0.008852   0.000113
    30  H    0.000290  -0.000026   0.002048  -0.003652  -0.000696   0.000004
    31  H    0.000462  -0.000024   0.000211  -0.000160  -0.000021  -0.000000
    32  H   -0.000047   0.000001   0.000011  -0.000033   0.000002   0.000001
    33  H    0.000010   0.000000   0.000000   0.000002   0.000000   0.000000
    34  H   -0.000019   0.000000   0.000001  -0.000007  -0.000000   0.000000
    35  H    0.000568   0.000041   0.000000  -0.000005  -0.000000   0.000000
    36  H   -0.000052  -0.000005   0.000002  -0.000000  -0.000000   0.000000
    37  H   -0.001137   0.014049   0.000483  -0.000031   0.000001  -0.000000
    38  H    0.000549   0.000801  -0.000041  -0.000047  -0.000004   0.000000
               7          8          9         10         11         12
     1  C   -0.000179  -0.000025   0.000002   0.000000  -0.000000   0.000002
     2  O    0.000001   0.000000  -0.000000  -0.000000  -0.000000  -0.000000
     3  N    0.002406   0.000880   0.000033   0.000001   0.000005  -0.000070
     4  N   -0.107097  -0.009821  -0.000068  -0.000025  -0.000115   0.003668
     5  C    0.307801  -0.030335   0.002313   0.000022   0.001616  -0.022159
     6  O   -0.102469   0.002644  -0.000040  -0.000010   0.000071  -0.001670
     7  N    7.040586   0.289226  -0.054127  -0.013684  -0.043217   0.284874
     8  C    0.289226   4.955931   0.365642  -0.041090  -0.014040  -0.043604
     9  C   -0.054127   0.365642   5.044773   0.383647  -0.045502  -0.014526
    10  C   -0.013684  -0.041090   0.383647   5.014229   0.381310  -0.040363
    11  C   -0.043217  -0.014040  -0.045502   0.381310   5.025203   0.374119
    12  C    0.284874  -0.043604  -0.014526  -0.040363   0.374119   4.915762
    13  N    0.000010  -0.000009  -0.000001   0.000000   0.000000   0.000000
    14  C   -0.000198  -0.000249   0.000009   0.000000   0.000000   0.000001
    15  C   -0.000005  -0.000010   0.000000  -0.000000  -0.000000  -0.000000
    16  C   -0.000000   0.000001  -0.000000   0.000000   0.000000   0.000000
    17  C   -0.000000  -0.000000   0.000000  -0.000000   0.000000   0.000000
    18  C   -0.000000   0.000003  -0.000000   0.000000  -0.000000   0.000000
    19  H   -0.027976   0.374773  -0.029095   0.004025   0.000057   0.003517
    20  H   -0.057914   0.366581  -0.050711  -0.007644  -0.001209  -0.002038
    21  H    0.001106  -0.038308   0.369997  -0.042774  -0.003894  -0.000660
    22  H    0.004147  -0.030830   0.363887  -0.034007   0.005174   0.000094
    23  H   -0.000073   0.004872  -0.033218   0.374815  -0.032742   0.004856
    24  H   -0.000961  -0.003667  -0.042336   0.370246  -0.042075  -0.003200
    25  H   -0.000830  -0.000275  -0.004239  -0.042320   0.372783  -0.037634
    26  H    0.003985   0.000099   0.005126  -0.034006   0.366843  -0.032099
    27  H   -0.031367   0.003797  -0.000013   0.003960  -0.027925   0.372189
    28  H   -0.056853  -0.001842  -0.001418  -0.006648  -0.048398   0.375843
    29  H   -0.000454   0.000216  -0.000012   0.000000   0.000001   0.000031
    30  H    0.000000   0.000523  -0.000004   0.000000  -0.000000  -0.000001
    31  H    0.000000  -0.000000   0.000000  -0.000000  -0.000000  -0.000000
    32  H    0.000001   0.000001   0.000000   0.000000   0.000000   0.000000
    33  H    0.000000  -0.000000   0.000000  -0.000000  -0.000000  -0.000000
    34  H    0.000000  -0.000000   0.000000  -0.000000  -0.000000  -0.000000
    35  H    0.000000  -0.000000   0.000000  -0.000000   0.000000  -0.000000
    36  H   -0.000000   0.000000  -0.000000   0.000000  -0.000000  -0.000000
    37  H   -0.000000  -0.000000  -0.000000   0.000000  -0.000000   0.000000
    38  H   -0.000000  -0.000002   0.000000  -0.000000   0.000000  -0.000000
              13         14         15         16         17         18
     1  C    0.278962  -0.030399   0.000786  -0.000021   0.000909  -0.018009
     2  O   -0.110435   0.002729  -0.000068  -0.000007   0.000020  -0.000909
     3  N   -0.110872  -0.007732  -0.000985  -0.000031  -0.000162   0.004858
     4  N   -0.006266  -0.107366   0.006309  -0.000124   0.000023  -0.001104
     5  C    0.000520   0.002664   0.000026   0.000002   0.000000   0.000023
     6  O   -0.000009  -0.000265   0.000006  -0.000000  -0.000000  -0.000000
     7  N    0.000010  -0.000198  -0.000005  -0.000000  -0.000000  -0.000000
     8  C   -0.000009  -0.000249  -0.000010   0.000001  -0.000000   0.000003
     9  C   -0.000001   0.000009   0.000000  -0.000000   0.000000  -0.000000
    10  C    0.000000   0.000000  -0.000000   0.000000  -0.000000   0.000000
    11  C    0.000000   0.000000  -0.000000   0.000000   0.000000  -0.000000
    12  C    0.000000   0.000001  -0.000000   0.000000   0.000000   0.000000
    13  N    7.088313   0.292223  -0.055387  -0.013063  -0.044719   0.278329
    14  C    0.292223   5.002403   0.339778  -0.033160  -0.013408  -0.041678
    15  C   -0.055387   0.339778   5.094534   0.368088  -0.044790  -0.017651
    16  C   -0.013063  -0.033160   0.368088   5.020859   0.382333  -0.039749
    17  C   -0.044719  -0.013408  -0.044790   0.382333   5.027213   0.373342
    18  C    0.278329  -0.041678  -0.017651  -0.039749   0.373342   4.915750
    19  H    0.000267  -0.000667   0.000058  -0.000002   0.000001  -0.000023
    20  H   -0.000004  -0.000070   0.000005  -0.000000   0.000000   0.000000
    21  H    0.000000  -0.000001   0.000000  -0.000000   0.000000  -0.000000
    22  H    0.000000   0.000000   0.000000  -0.000000   0.000000   0.000000
    23  H   -0.000000   0.000000  -0.000000  -0.000000   0.000000  -0.000000
    24  H    0.000000  -0.000000   0.000000  -0.000000   0.000000  -0.000000
    25  H    0.000000  -0.000000   0.000000  -0.000000   0.000000   0.000000
    26  H   -0.000000  -0.000000   0.000000  -0.000000   0.000000   0.000000
    27  H    0.000000   0.000001  -0.000000   0.000000  -0.000000   0.000000
    28  H   -0.000000  -0.000002   0.000000  -0.000000   0.000000   0.000000
    29  H   -0.026614   0.392415  -0.032936   0.003993   0.000158   0.003686
    30  H   -0.056465   0.374051  -0.053240  -0.006365  -0.001239  -0.001344
    31  H    0.000509  -0.037114   0.370000  -0.041984  -0.003970  -0.000560
    32  H    0.004242  -0.030425   0.363178  -0.033696   0.005223   0.000102
    33  H   -0.000120   0.004609  -0.032474   0.372845  -0.033292   0.004805
    34  H   -0.000965  -0.004416  -0.042148   0.369932  -0.042226  -0.003248
    35  H   -0.000559  -0.000596  -0.003960  -0.042301   0.372535  -0.037930
    36  H    0.004156   0.000072   0.005089  -0.034496   0.364840  -0.032108
    37  H   -0.032541   0.003924  -0.000028   0.004018  -0.028109   0.373727
    38  H   -0.056644  -0.003263  -0.001008  -0.006640  -0.048640   0.374932
              19         20         21         22         23         24
     1  C    0.000084  -0.000006  -0.000001  -0.000000  -0.000000  -0.000000
     2  O   -0.000000   0.000000  -0.000000   0.000000  -0.000000   0.000000
     3  N   -0.000466  -0.000083  -0.000016  -0.000001   0.000000  -0.000000
     4  N    0.014558   0.000738   0.000062   0.000016  -0.000000  -0.000000
     5  C   -0.011905  -0.000755   0.000390  -0.000088   0.000012  -0.000027
     6  O    0.000211  -0.000045  -0.000024   0.000001   0.000000   0.000000
     7  N   -0.027976  -0.057914   0.001106   0.004147  -0.000073  -0.000961
     8  C    0.374773   0.366581  -0.038308  -0.030830   0.004872  -0.003667
     9  C   -0.029095  -0.050711   0.369997   0.363887  -0.033218  -0.042336
    10  C    0.004025  -0.007644  -0.042774  -0.034007   0.374815   0.370246
    11  C    0.000057  -0.001209  -0.003894   0.005174  -0.032742  -0.042075
    12  C    0.003517  -0.002038  -0.000660   0.000094   0.004856  -0.003200
    13  N    0.000267  -0.000004   0.000000   0.000000  -0.000000   0.000000
    14  C   -0.000667  -0.000070  -0.000001   0.000000   0.000000  -0.000000
    15  C    0.000058   0.000005   0.000000   0.000000  -0.000000   0.000000
    16  C   -0.000002  -0.000000  -0.000000  -0.000000  -0.000000  -0.000000
    17  C    0.000001   0.000000   0.000000   0.000000   0.000000   0.000000
    18  C   -0.000023   0.000000  -0.000000   0.000000  -0.000000  -0.000000
    19  H    0.523495  -0.033472  -0.004395  -0.001415  -0.000145  -0.000033
    20  H   -0.033472   0.630574   0.006380  -0.001147  -0.000103   0.005563
    21  H   -0.004395   0.006380   0.590680  -0.031719  -0.005147   0.006149
    22  H   -0.001415  -0.001147  -0.031719   0.591670  -0.002478  -0.004310
    23  H   -0.000145  -0.000103  -0.005147  -0.002478   0.588928  -0.035368
    24  H   -0.000033   0.005563   0.006149  -0.004310  -0.035368   0.611027
    25  H   -0.000018   0.000229   0.004992  -0.000012  -0.005081   0.006058
    26  H    0.000010   0.000062   0.000008  -0.000149  -0.002428  -0.004402
    27  H   -0.000146  -0.000163  -0.000035   0.000010  -0.000137  -0.000056
    28  H   -0.000056   0.008444   0.000246   0.000036  -0.000095   0.005141
    29  H   -0.000723   0.000115   0.000001  -0.000000  -0.000000   0.000000
    30  H    0.001345   0.000321   0.000000   0.000001  -0.000000  -0.000000
    31  H    0.000001   0.000000  -0.000000   0.000000   0.000000  -0.000000
    32  H   -0.000002   0.000003   0.000000  -0.000000   0.000000  -0.000000
    33  H    0.000000   0.000000   0.000000  -0.000000   0.000000   0.000000
    34  H   -0.000001  -0.000000  -0.000000   0.000000   0.000000  -0.000000
    35  H   -0.000000   0.000000   0.000000  -0.000000   0.000000  -0.000000
    36  H   -0.000000   0.000000  -0.000000   0.000000   0.000000  -0.000000
    37  H    0.000000  -0.000000  -0.000000   0.000000  -0.000000   0.000000
    38  H   -0.000001  -0.000000  -0.000000  -0.000000   0.000000  -0.000000
              25         26         27         28         29         30
     1  C   -0.000000   0.000000   0.000000  -0.000000  -0.012422   0.000290
     2  O    0.000000  -0.000000  -0.000000   0.000000  -0.000114  -0.000026
     3  N   -0.000001  -0.000000  -0.000004  -0.000005  -0.008339   0.002048
     4  N   -0.000000   0.000001   0.000505  -0.000079  -0.054849  -0.003652
     5  C    0.000522  -0.000078  -0.000771  -0.000049   0.008852  -0.000696
     6  O    0.000042  -0.000006   0.014025   0.000793   0.000113   0.000004
     7  N   -0.000830   0.003985  -0.031367  -0.056853  -0.000454   0.000000
     8  C   -0.000275   0.000099   0.003797  -0.001842   0.000216   0.000523
     9  C   -0.004239   0.005126  -0.000013  -0.001418  -0.000012  -0.000004
    10  C   -0.042320  -0.034006   0.003960  -0.006648   0.000000   0.000000
    11  C    0.372783   0.366843  -0.027925  -0.048398   0.000001  -0.000000
    12  C   -0.037634  -0.032099   0.372189   0.375843   0.000031  -0.000001
    13  N    0.000000  -0.000000   0.000000  -0.000000  -0.026614  -0.056465
    14  C   -0.000000  -0.000000   0.000001  -0.000002   0.392415   0.374051
    15  C    0.000000   0.000000  -0.000000   0.000000  -0.032936  -0.053240
    16  C   -0.000000  -0.000000   0.000000  -0.000000   0.003993  -0.006365
    17  C    0.000000   0.000000  -0.000000   0.000000   0.000158  -0.001239
    18  C    0.000000   0.000000   0.000000   0.000000   0.003686  -0.001344
    19  H   -0.000018   0.000010  -0.000146  -0.000056  -0.000723   0.001345
    20  H    0.000229   0.000062  -0.000163   0.008444   0.000115   0.000321
    21  H    0.004992   0.000008  -0.000035   0.000246   0.000001   0.000000
    22  H   -0.000012  -0.000149   0.000010   0.000036  -0.000000   0.000001
    23  H   -0.005081  -0.002428  -0.000137  -0.000095  -0.000000  -0.000000
    24  H    0.006058  -0.004402  -0.000056   0.005141   0.000000  -0.000000
    25  H    0.583704  -0.031513  -0.004465   0.005980   0.000000  -0.000000
    26  H   -0.031513   0.587112  -0.001183  -0.001640   0.000000   0.000000
    27  H   -0.004465  -0.001183   0.508371  -0.032011   0.000000  -0.000000
    28  H    0.005980  -0.001640  -0.032011   0.606421   0.000006  -0.000000
    29  H    0.000000   0.000000   0.000000   0.000006   0.552925  -0.036881
    30  H   -0.000000   0.000000  -0.000000  -0.000000  -0.036881   0.627021
    31  H   -0.000000  -0.000000   0.000000  -0.000000  -0.004476   0.006246
    32  H   -0.000000  -0.000000  -0.000000  -0.000000  -0.002135  -0.001174
    33  H    0.000000   0.000000  -0.000000   0.000000  -0.000144  -0.000125
    34  H   -0.000000  -0.000000   0.000000  -0.000000   0.000007   0.005480
    35  H   -0.000000  -0.000000  -0.000000  -0.000000  -0.000013   0.000221
    36  H   -0.000000  -0.000000  -0.000000   0.000000   0.000007   0.000071
    37  H   -0.000000   0.000000   0.000000  -0.000000  -0.000141  -0.000167
    38  H   -0.000000  -0.000000  -0.000000  -0.000000  -0.000058   0.008100
              31         32         33         34         35         36
     1  C    0.000462  -0.000047   0.000010  -0.000019   0.000568  -0.000052
     2  O   -0.000024   0.000001   0.000000   0.000000   0.000041  -0.000005
     3  N    0.000211   0.000011   0.000000   0.000001   0.000000   0.000002
     4  N   -0.000160  -0.000033   0.000002  -0.000007  -0.000005  -0.000000
     5  C   -0.000021   0.000002   0.000000  -0.000000  -0.000000  -0.000000
     6  O   -0.000000   0.000001   0.000000   0.000000   0.000000   0.000000
     7  N    0.000000   0.000001   0.000000   0.000000   0.000000  -0.000000
     8  C   -0.000000   0.000001  -0.000000  -0.000000  -0.000000   0.000000
     9  C    0.000000   0.000000   0.000000   0.000000   0.000000  -0.000000
    10  C   -0.000000   0.000000  -0.000000  -0.000000  -0.000000   0.000000
    11  C   -0.000000   0.000000  -0.000000  -0.000000   0.000000  -0.000000
    12  C   -0.000000   0.000000  -0.000000  -0.000000  -0.000000  -0.000000
    13  N    0.000509   0.004242  -0.000120  -0.000965  -0.000559   0.004156
    14  C   -0.037114  -0.030425   0.004609  -0.004416  -0.000596   0.000072
    15  C    0.370000   0.363178  -0.032474  -0.042148  -0.003960   0.005089
    16  C   -0.041984  -0.033696   0.372845   0.369932  -0.042301  -0.034496
    17  C   -0.003970   0.005223  -0.033292  -0.042226   0.372535   0.364840
    18  C   -0.000560   0.000102   0.004805  -0.003248  -0.037930  -0.032108
    19  H    0.000001  -0.000002   0.000000  -0.000001  -0.000000  -0.000000
    20  H    0.000000   0.000003   0.000000  -0.000000   0.000000   0.000000
    21  H   -0.000000   0.000000   0.000000  -0.000000   0.000000  -0.000000
    22  H    0.000000  -0.000000  -0.000000   0.000000  -0.000000   0.000000
    23  H    0.000000   0.000000   0.000000   0.000000   0.000000   0.000000
    24  H   -0.000000  -0.000000   0.000000  -0.000000  -0.000000  -0.000000
    25  H   -0.000000  -0.000000   0.000000  -0.000000  -0.000000  -0.000000
    26  H   -0.000000  -0.000000   0.000000  -0.000000  -0.000000  -0.000000
    27  H    0.000000  -0.000000  -0.000000   0.000000  -0.000000  -0.000000
    28  H   -0.000000  -0.000000   0.000000  -0.000000  -0.000000   0.000000
    29  H   -0.004476  -0.002135  -0.000144   0.000007  -0.000013   0.000007
    30  H    0.006246  -0.001174  -0.000125   0.005480   0.000221   0.000071
    31  H    0.594409  -0.032641  -0.005317   0.006213   0.004946   0.000013
    32  H   -0.032641   0.599307  -0.002551  -0.004419  -0.000012  -0.000150
    33  H   -0.005317  -0.002551   0.596359  -0.036209  -0.005241  -0.002547
    34  H    0.006213  -0.004419  -0.036209   0.616521   0.006113  -0.004375
    35  H    0.004946  -0.000012  -0.005241   0.006113   0.586696  -0.031757
    36  H    0.000013  -0.000150  -0.002547  -0.004375  -0.031757   0.593060
    37  H   -0.000032   0.000010  -0.000139  -0.000056  -0.004572  -0.001135
    38  H    0.000235   0.000038  -0.000124   0.005141   0.006037  -0.001339
              37         38
     1  C   -0.001137   0.000549
     2  O    0.014049   0.000801
     3  N    0.000483  -0.000041
     4  N   -0.000031  -0.000047
     5  C    0.000001  -0.000004
     6  O   -0.000000   0.000000
     7  N   -0.000000  -0.000000
     8  C   -0.000000  -0.000002
     9  C   -0.000000   0.000000
    10  C    0.000000  -0.000000
    11  C   -0.000000   0.000000
    12  C    0.000000  -0.000000
    13  N   -0.032541  -0.056644
    14  C    0.003924  -0.003263
    15  C   -0.000028  -0.001008
    16  C    0.004018  -0.006640
    17  C   -0.028109  -0.048640
    18  C    0.373727   0.374932
    19  H    0.000000  -0.000001
    20  H   -0.000000  -0.000000
    21  H   -0.000000  -0.000000
    22  H    0.000000  -0.000000
    23  H   -0.000000   0.000000
    24  H    0.000000  -0.000000
    25  H   -0.000000  -0.000000
    26  H    0.000000  -0.000000
    27  H    0.000000  -0.000000
    28  H   -0.000000  -0.000000
    29  H   -0.000141  -0.000058
    30  H   -0.000167   0.008100
    31  H   -0.000032   0.000235
    32  H    0.000010   0.000038
    33  H   -0.000139  -0.000124
    34  H   -0.000056   0.005141
    35  H   -0.004572   0.006037
    36  H   -0.001135  -0.001339
    37  H    0.512485  -0.033047
    38  H   -0.033047   0.611516
 Mulliken charges:
               1
     1  C    0.707449
     2  O   -0.494007
     3  N   -0.169951
     4  N   -0.344379
     5  C    0.721252
     6  O   -0.478808
     7  N   -0.436741
     8  C   -0.151081
     9  C   -0.260119
    10  C   -0.269685
    11  C   -0.268066
    12  C   -0.136933
    13  N   -0.432859
    14  C   -0.103869
    15  C   -0.263167
    16  C   -0.270431
    17  C   -0.266042
    18  C   -0.135243
    19  H    0.188140
    20  H    0.136348
    21  H    0.146964
    22  H    0.141121
    23  H    0.143532
    24  H    0.132252
    25  H    0.152078
    26  H    0.144257
    27  H    0.195417
    28  H    0.146187
    29  H    0.217786
    30  H    0.135658
    31  H    0.143052
    32  H    0.135165
    33  H    0.139651
    34  H    0.128680
    35  H    0.149790
    36  H    0.140653
    37  H    0.192438
    38  H    0.143508
 Sum of Mulliken charges =  -0.00000
 Mulliken charges with hydrogens summed into heavy atoms:
               1
     1  C    0.707449
     2  O   -0.494007
     3  N   -0.169951
     4  N   -0.344379
     5  C    0.721252
     6  O   -0.478808
     7  N   -0.436741
     8  C    0.173407
     9  C    0.027966
    10  C    0.006099
    11  C    0.028268
    12  C    0.204672
    13  N   -0.432859
    14  C    0.249575
    15  C    0.015051
    16  C   -0.002100
    17  C    0.024402
    18  C    0.200704
 APT charges:
               1
     1  C    0.982864
     2  O   -0.701472
     3  N   -0.205835
     4  N   -0.053962
     5  C    1.105803
     6  O   -0.734325
     7  N   -0.748882
     8  C    0.291146
     9  C    0.107016
    10  C    0.109269
    11  C    0.111843
    12  C    0.342478
    13  N   -0.749841
    14  C    0.328969
    15  C    0.060954
    16  C    0.115933
    17  C    0.098263
    18  C    0.393283
    19  H    0.008863
    20  H   -0.066321
    21  H   -0.035723
    22  H   -0.054104
    23  H   -0.054541
    24  H   -0.046232
    25  H   -0.031702
    26  H   -0.053369
    27  H    0.024838
    28  H   -0.083742
    29  H   -0.030742
    30  H   -0.085883
    31  H   -0.039200
    32  H   -0.047923
    33  H   -0.060609
    34  H   -0.048329
    35  H   -0.033765
    36  H   -0.051508
    37  H    0.021793
    38  H   -0.085304
 Sum of APT charges =  -0.00000
 APT charges with hydrogens summed into heavy atoms:
               1
     1  C    0.982864
     2  O   -0.701472
     3  N   -0.205835
     4  N   -0.053962
     5  C    1.105803
     6  O   -0.734325
     7  N   -0.748882
     8  C    0.233687
     9  C    0.017189
    10  C    0.008495
    11  C    0.026773
    12  C    0.283573
    13  N   -0.749841
    14  C    0.212344
    15  C   -0.026169
    16  C    0.006995
    17  C    0.012990
    18  C    0.329771
 Electronic spatial extent (au):  <R**2>=           5915.9488
 Charge=             -0.0000 electrons
 Dipole moment (field-independent basis, Debye):
    X=             -1.7153    Y=             -6.5771    Z=              0.7502  Tot=              6.8384
 Quadrupole moment (field-independent basis, Debye-Ang):
   XX=            -92.3281   YY=           -121.4831   ZZ=           -109.7589
   XY=             -4.5597   XZ=             -4.6830   YZ=              0.3727
 Traceless Quadrupole moment (field-independent basis, Debye-Ang):
   XX=             15.5286   YY=            -13.6264   ZZ=             -1.9022
   XY=             -4.5597   XZ=             -4.6830   YZ=              0.3727
[...]
    52    N    4  py     Val( 2p)     1.37742
    53    N    4  py     Ryd( 3p)     0.00407
    54    N    4  pz     Val( 2p)     1.26125
    55    N    4  pz     Ryd( 3p)     0.00445
    56    N    4  dxy    Ryd( 3d)     0.00098
    57    N    4  dxz    Ryd( 3d)     0.00150
    58    N    4  dyz    Ryd( 3d)     0.00203
    59    N    4  dx2y2  Ryd( 3d)     0.00075
    60    N    4  dz2    Ryd( 3d)     0.00225
 
    61    C    5  S      Cor( 1S)     1.99934
    62    C    5  S      Val( 2S)     0.73357
    63    C    5  S      Ryd( 3S)     0.00455
    64    C    5  S      Ryd( 4S)     0.00039
    65    C    5  px     Val( 2p)     0.83231
    66    C    5  px     Ryd( 3p)     0.00838
    67    C    5  py     Val( 2p)     0.77063
    68    C    5  py     Ryd( 3p)     0.01960
    69    C    5  pz     Val( 2p)     0.82197
    70    C    5  pz     Ryd( 3p)     0.00395
    71    C    5  dxy    Ryd( 3d)     0.00317
    72    C    5  dxz    Ryd( 3d)     0.00193
    73    C    5  dyz    Ryd( 3d)     0.00231
    74    C    5  dx2y2  Ryd( 3d)     0.00214
    75    C    5  dz2    Ryd( 3d)     0.00041
 
    76    O    6  S      Cor( 1S)     1.99979
    77    O    6  S      Val( 2S)     1.70350
    78    O    6  S      Ryd( 3S)     0.00078
    79    O    6  S      Ryd( 4S)     0.00009
    80    O    6  px     Val( 2p)     1.73644
    81    O    6  px     Ryd( 3p)     0.00147
    82    O    6  py     Val( 2p)     1.57331
    83    O    6  py     Ryd( 3p)     0.00037
    84    O    6  pz     Val( 2p)     1.53979
    85    O    6  pz     Ryd( 3p)     0.00093
    86    O    6  dxy    Ryd( 3d)     0.00436
    87    O    6  dxz    Ryd( 3d)     0.00023
    88    O    6  dyz    Ryd( 3d)     0.00459
    89    O    6  dx2y2  Ryd( 3d)     0.00436
    90    O    6  dz2    Ryd( 3d)     0.00136
 
    91    N    7  S      Cor( 1S)     1.99928
    92    N    7  S      Val( 2S)     1.20570
    93    N    7  S      Ryd( 3S)     0.00173
    94    N    7  S      Ryd( 4S)     0.00006
    95    N    7  px     Val( 2p)     1.29908
    96    N    7  px     Ryd( 3p)     0.00149
    97    N    7  py     Val( 2p)     1.30281
    98    N    7  py     Ryd( 3p)     0.00159
    99    N    7  pz     Val( 2p)     1.65037
   100    N    7  pz     Ryd( 3p)     0.00491
   101    N    7  dxy    Ryd( 3d)     0.00072
   102    N    7  dxz    Ryd( 3d)     0.00073
   103    N    7  dyz    Ryd( 3d)     0.00045
   104    N    7  dx2y2  Ryd( 3d)     0.00068
   105    N    7  dz2    Ryd( 3d)     0.00053
 
   106    C    8  S      Cor( 1S)     1.99930
   107    C    8  S      Val( 2S)     1.01834
   108    C    8  S      Ryd( 3S)     0.00128
   109    C    8  S      Ryd( 4S)     0.00003
   110    C    8  px     Val( 2p)     1.24302
   111    C    8  px     Ryd( 3p)     0.00629
   112    C    8  py     Val( 2p)     0.85073
   113    C    8  py     Ryd( 3p)     0.00263
   114    C    8  pz     Val( 2p)     1.13382
   115    C    8  pz     Ryd( 3p)     0.00126
   116    C    8  dxy    Ryd( 3d)     0.00068
   117    C    8  dxz    Ryd( 3d)     0.00102
   118    C    8  dyz    Ryd( 3d)     0.00092
   119    C    8  dx2y2  Ryd( 3d)     0.00127
   120    C    8  dz2    Ryd( 3d)     0.00094
 
   121    C    9  S      Cor( 1S)     1.99932
   122    C    9  S      Val( 2S)     1.04165
   123    C    9  S      Ryd( 3S)     0.00066
   124    C    9  S      Ryd( 4S)     0.00002
   125    C    9  px     Val( 2p)     1.10239
   126    C    9  px     Ryd( 3p)     0.00212
   127    C    9  py     Val( 2p)     1.19306
   128    C    9  py     Ryd( 3p)     0.00333
   129    C    9  pz     Val( 2p)     1.12409
   130    C    9  pz     Ryd( 3p)     0.00185
   131    C    9  dxy    Ryd( 3d)     0.00045
   132    C    9  dxz    Ryd( 3d)     0.00109
   133    C    9  dyz    Ryd( 3d)     0.00029
   134    C    9  dx2y2  Ryd( 3d)     0.00095
   135    C    9  dz2    Ryd( 3d)     0.00070
 
   136    C   10  S      Cor( 1S)     1.99933
   137    C   10  S      Val( 2S)     1.03668
   138    C   10  S      Ryd( 3S)     0.00060
   139    C   10  S      Ryd( 4S)     0.00002
   140    C   10  px     Val( 2p)     1.12459
   141    C   10  px     Ryd( 3p)     0.00154
   142    C   10  py     Val( 2p)     1.05030
   143    C   10  py     Ryd( 3p)     0.00168
   144    C   10  pz     Val( 2p)     1.24310
   145    C   10  pz     Ryd( 3p)     0.00416
   146    C   10  dxy    Ryd( 3d)     0.00059
   147    C   10  dxz    Ryd( 3d)     0.00114
   148    C   10  dyz    Ryd( 3d)     0.00049
   149    C   10  dx2y2  Ryd( 3d)     0.00068
   150    C   10  dz2    Ryd( 3d)     0.00065
 
   151    C   11  S      Cor( 1S)     1.99932
   152    C   11  S      Val( 2S)     1.04114
   153    C   11  S      Ryd( 3S)     0.00063
   154    C   11  S      Ryd( 4S)     0.00002
   155    C   11  px     Val( 2p)     1.21087
   156    C   11  px     Ryd( 3p)     0.00384
   157    C   11  py     Val( 2p)     1.08325
   158    C   11  py     Ryd( 3p)     0.00176
   159    C   11  pz     Val( 2p)     1.12592
   160    C   11  pz     Ryd( 3p)     0.00158
   161    C   11  dxy    Ryd( 3d)     0.00084
   162    C   11  dxz    Ryd( 3d)     0.00086
   163    C   11  dyz    Ryd( 3d)     0.00044
   164    C   11  dx2y2  Ryd( 3d)     0.00059
   165    C   11  dz2    Ryd( 3d)     0.00074
 
   166    C   12  S      Cor( 1S)     1.99932
   167    C   12  S      Val( 2S)     1.01813
   168    C   12  S      Ryd( 3S)     0.00118
   169    C   12  S      Ryd( 4S)     0.00003
   170    C   12  px     Val( 2p)     0.95034
   171    C   12  px     Ryd( 3p)     0.00385
   172    C   12  py     Val( 2p)     1.15023
   173    C   12  py     Ryd( 3p)     0.00461
   174    C   12  pz     Val( 2p)     1.12517
   175    C   12  pz     Ryd( 3p)     0.00162
   176    C   12  dxy    Ryd( 3d)     0.00105
   177    C   12  dxz    Ryd( 3d)     0.00147
   178    C   12  dyz    Ryd( 3d)     0.00046
   179    C   12  dx2y2  Ryd( 3d)     0.00090
   180    C   12  dz2    Ryd( 3d)     0.00099
 
   181    N   13  S      Cor( 1S)     1.99927
   182    N   13  S      Val( 2S)     1.20577
   183    N   13  S      Ryd( 3S)     0.00169
   184    N   13  S      Ryd( 4S)     0.00006
   185    N   13  px     Val( 2p)     1.29916
   186    N   13  px     Ryd( 3p)     0.00168
   187    N   13  py     Val( 2p)     1.30120
   188    N   13  py     Ryd( 3p)     0.00155
   189    N   13  pz     Val( 2p)     1.65279
   190    N   13  pz     Ryd( 3p)     0.00484
   191    N   13  dxy    Ryd( 3d)     0.00073
   192    N   13  dxz    Ryd( 3d)     0.00068
   193    N   13  dyz    Ryd( 3d)     0.00044
   194    N   13  dx2y2  Ryd( 3d)     0.00068
   195    N   13  dz2    Ryd( 3d)     0.00055
 
   196    C   14  S      Cor( 1S)     1.99930
   197    C   14  S      Val( 2S)     1.01820
   198    C   14  S      Ryd( 3S)     0.00132
   199    C   14  S      Ryd( 4S)     0.00003
   200    C   14  px     Val( 2p)     1.20707
   201    C   14  px     Ryd( 3p)     0.00563
   202    C   14  py     Val( 2p)     0.85785
   203    C   14  py     Ryd( 3p)     0.00246
   204    C   14  pz     Val( 2p)     1.16296
   205    C   14  pz     Ryd( 3p)     0.00186
   206    C   14  dxy    Ryd( 3d)     0.00070
   207    C   14  dxz    Ryd( 3d)     0.00071
   208    C   14  dyz    Ryd( 3d)     0.00100
   209    C   14  dx2y2  Ryd( 3d)     0.00126
   210    C   14  dz2    Ryd( 3d)     0.00115
 
   211    C   15  S      Cor( 1S)     1.99932
   212    C   15  S      Val( 2S)     1.04084
   213    C   15  S      Ryd( 3S)     0.00066
   214    C   15  S      Ryd( 4S)     0.00002
   215    C   15  px     Val( 2p)     1.05965
   216    C   15  px     Ryd( 3p)     0.00189
   217    C   15  py     Val( 2p)     1.20365
   218    C   15  py     Ryd( 3p)     0.00363
   219    C   15  pz     Val( 2p)     1.15576
   220    C   15  pz     Ryd( 3p)     0.00180
   221    C   15  dxy    Ryd( 3d)     0.00048
   222    C   15  dxz    Ryd( 3d)     0.00089
   223    C   15  dyz    Ryd( 3d)     0.00025
   224    C   15  dx2y2  Ryd( 3d)     0.00095
   225    C   15  dz2    Ryd( 3d)     0.00092
 
   226    C   16  S      Cor( 1S)     1.99933
   227    C   16  S      Val( 2S)     1.03646
   228    C   16  S      Ryd( 3S)     0.00060
   229    C   16  S      Ryd( 4S)     0.00002
   230    C   16  px     Val( 2p)     1.12659
   231    C   16  px     Ryd( 3p)     0.00200
   232    C   16  py     Val( 2p)     1.04847
   233    C   16  py     Ryd( 3p)     0.00157
   234    C   16  pz     Val( 2p)     1.24284
   235    C   16  pz     Ryd( 3p)     0.00381
   236    C   16  dxy    Ryd( 3d)     0.00060
   237    C   16  dxz    Ryd( 3d)     0.00113
   238    C   16  dyz    Ryd( 3d)     0.00047
   239    C   16  dx2y2  Ryd( 3d)     0.00066
   240    C   16  dz2    Ryd( 3d)     0.00067
 
   241    C   17  S      Cor( 1S)     1.99932
   242    C   17  S      Val( 2S)     1.04092
   243    C   17  S      Ryd( 3S)     0.00063
   244    C   17  S      Ryd( 4S)     0.00002
   245    C   17  px     Val( 2p)     1.16696
   246    C   17  px     Ryd( 3p)     0.00345
   247    C   17  py     Val( 2p)     1.09313
   248    C   17  py     Ryd( 3p)     0.00170
   249    C   17  pz     Val( 2p)     1.15974
   250    C   17  pz     Ryd( 3p)     0.00212
   251    C   17  dxy    Ryd( 3d)     0.00083
   252    C   17  dxz    Ryd( 3d)     0.00075
   253    C   17  dyz    Ryd( 3d)     0.00052
   254    C   17  dx2y2  Ryd( 3d)     0.00056
   255    C   17  dz2    Ryd( 3d)     0.00083
 
   256    C   18  S      Cor( 1S)     1.99932
   257    C   18  S      Val( 2S)     1.01799
   258    C   18  S      Ryd( 3S)     0.00122
   259    C   18  S      Ryd( 4S)     0.00003
   260    C   18  px     Val( 2p)     0.91710
   261    C   18  px     Ryd( 3p)     0.00372
   262    C   18  py     Val( 2p)     1.15387
   263    C   18  py     Ryd( 3p)     0.00478
   264    C   18  pz     Val( 2p)     1.15478
   265    C   18  pz     Ryd( 3p)     0.00157
   266    C   18  dxy    Ryd( 3d)     0.00114
   267    C   18  dxz    Ryd( 3d)     0.00119
   268    C   18  dyz    Ryd( 3d)     0.00046
   269    C   18  dx2y2  Ryd( 3d)     0.00088
   270    C   18  dz2    Ryd( 3d)     0.00120
 
   271    H   19  S      Val( 1S)     0.72415
   272    H   19  S      Ryd( 2S)     0.00243
 
   273    H   20  S      Val( 1S)     0.77259
   274    H   20  S      Ryd( 2S)     0.00217
 
   275    H   21  S      Val( 1S)     0.76008
   276    H   21  S      Ryd( 2S)     0.00199
 
   277    H   22  S      Val( 1S)     0.75295
   278    H   22  S      Ryd( 2S)     0.00112
 
   279    H   23  S      Val( 1S)     0.75454
   280    H   23  S      Ryd( 2S)     0.00111
 
   281    H   24  S      Val( 1S)     0.77227
   282    H   24  S      Ryd( 2S)     0.00194
 
   283    H   25  S      Val( 1S)     0.76125
   284    H   25  S      Ryd( 2S)     0.00189
 
   285    H   26  S      Val( 1S)     0.75449
   286    H   26  S      Ryd( 2S)     0.00113
 
   287    H   27  S      Val( 1S)     0.73035
   288    H   27  S      Ryd( 2S)     0.00205
 
   289    H   28  S      Val( 1S)     0.77220
   290    H   28  S      Ryd( 2S)     0.00205
 
   291    H   29  S      Val( 1S)     0.72411
   292    H   29  S      Ryd( 2S)     0.00243
 
   293    H   30  S      Val( 1S)     0.77351
   294    H   30  S      Ryd( 2S)     0.00227
 
   295    H   31  S      Val( 1S)     0.76214
   296    H   31  S      Ryd( 2S)     0.00207
 
   297    H   32  S      Val( 1S)     0.75245
   298    H   32  S      Ryd( 2S)     0.00110
 
   299    H   33  S      Val( 1S)     0.75453
   300    H   33  S      Ryd( 2S)     0.00111
 
   301    H   34  S      Val( 1S)     0.77136
   302    H   34  S      Ryd( 2S)     0.00194
 
   303    H   35  S      Val( 1S)     0.76181
   304    H   35  S      Ryd( 2S)     0.00188
 
   305    H   36  S      Val( 1S)     0.75326
   306    H   36  S      Ryd( 2S)     0.00113
 
   307    H   37  S      Val( 1S)     0.73017
   308    H   37  S      Ryd( 2S)     0.00203
 
   309    H   38  S      Val( 1S)     0.77304
   310    H   38  S      Ryd( 2S)     0.00201


 Summary of Natural Population Analysis:                  
                                                          
                                       Natural Population 
                Natural  -----------------------------------------------
    Atom  No    Charge         Core      Valence    Rydberg      Total
 -----------------------------------------------------------------------
      C    1    0.79711      1.99934     3.15683    0.04672     5.20289
      O    2   -0.57263      1.99979     6.55431    0.01854     8.57263
      N    3   -0.25249      1.99941     5.22704    0.02603     7.25249
      N    4   -0.24923      1.99941     5.22369    0.02612     7.24923
      C    5    0.79534      1.99934     3.15848    0.04684     5.20466
      O    6   -0.57139      1.99979     6.55305    0.01855     8.57139
      N    7   -0.47011      1.99928     5.45795    0.01289     7.47011
      C    8   -0.26153      1.99930     4.24592    0.01631     6.26153
      C    9   -0.47197      1.99932     4.46119    0.01146     6.47197
      C   10   -0.46554      1.99933     4.45466    0.01155     6.46554
      C   11   -0.47181      1.99932     4.46117    0.01132     6.47181
      C   12   -0.25936      1.99932     4.24388    0.01616     6.25936
      N   13   -0.47109      1.99927     5.45891    0.01290     7.47109
      C   14   -0.26151      1.99930     4.24608    0.01613     6.26151
      C   15   -0.47070      1.99932     4.45990    0.01148     6.47070
      C   16   -0.46524      1.99933     4.45437    0.01154     6.46524
      C   17   -0.47147      1.99932     4.46074    0.01140     6.47147
      C   18   -0.25926      1.99932     4.24375    0.01620     6.25926
      H   19    0.27342      0.00000     0.72415    0.00243     0.72658
      H   20    0.22524      0.00000     0.77259    0.00217     0.77476
      H   21    0.23794      0.00000     0.76008    0.00199     0.76206
      H   22    0.24593      0.00000     0.75295    0.00112     0.75407
      H   23    0.24435      0.00000     0.75454    0.00111     0.75565
      H   24    0.22579      0.00000     0.77227    0.00194     0.77421
      H   25    0.23686      0.00000     0.76125    0.00189     0.76314
      H   26    0.24438      0.00000     0.75449    0.00113     0.75562
      H   27    0.26759      0.00000     0.73035    0.00205     0.73241
      H   28    0.22575      0.00000     0.77220    0.00205     0.77425
      H   29    0.27345      0.00000     0.72411    0.00243     0.72655
      H   30    0.22422      0.00000     0.77351    0.00227     0.77578
      H   31    0.23579      0.00000     0.76214    0.00207     0.76421
      H   32    0.24646      0.00000     0.75245    0.00110     0.75354
      H   33    0.24436      0.00000     0.75453    0.00111     0.75564
      H   34    0.22670      0.00000     0.77136    0.00194     0.77330
      H   35    0.23631      0.00000     0.76181    0.00188     0.76369
      H   36    0.24561      0.00000     0.75326    0.00113     0.75439
      H   37    0.26780      0.00000     0.73017    0.00203     0.73220
      H   38    0.22495      0.00000     0.77304    0.00201     0.77505
 =======================================================================
   * Total *   -0.00000     35.98882    99.63317    0.37801   136.00000

                                 Natural Population      
 --------------------------------------------------------
   Core                      35.98882 ( 99.9690% of  36)
   Valence                   99.63317 ( 99.6332% of 100)
   Natural Minimal Basis    135.62199 ( 99.7221% of 136)
   Natural Rydberg Basis      0.37801 (  0.2779% of 136)
 --------------------------------------------------------

    Atom  No          Natural Electron Configuration
 ----------------------------------------------------------------------------
      C    1      [core]2S( 0.73)2p( 2.42)3p( 0.03)3d( 0.01)
      O    2      [core]2S( 1.70)2p( 4.85)3d( 0.01)
      N    3      [core]2S( 1.40)2p( 3.83)3S( 0.01)3p( 0.01)3d( 0.01)
      N    4      [core]2S( 1.40)2p( 3.82)3S( 0.01)3p( 0.01)3d( 0.01)
      C    5      [core]2S( 0.73)2p( 2.42)3p( 0.03)3d( 0.01)
      O    6      [core]2S( 1.70)2p( 4.85)3d( 0.01)
      N    7      [core]2S( 1.21)2p( 4.25)3p( 0.01)
      C    8      [core]2S( 1.02)2p( 3.23)3p( 0.01)
      C    9      [core]2S( 1.04)2p( 3.42)3p( 0.01)
      C   10      [core]2S( 1.04)2p( 3.42)3p( 0.01)
      C   11      [core]2S( 1.04)2p( 3.42)3p( 0.01)
      C   12      [core]2S( 1.02)2p( 3.23)3p( 0.01)
      N   13      [core]2S( 1.21)2p( 4.25)3p( 0.01)
      C   14      [core]2S( 1.02)2p( 3.23)3p( 0.01)
      C   15      [core]2S( 1.04)2p( 3.42)3p( 0.01)
      C   16      [core]2S( 1.04)2p( 3.42)3p( 0.01)
      C   17      [core]2S( 1.04)2p( 3.42)3p( 0.01)
      C   18      [core]2S( 1.02)2p( 3.23)3p( 0.01)
      H   19            1S( 0.72)
      H   20            1S( 0.77)
      H   21            1S( 0.76)
      H   22            1S( 0.75)
      H   23            1S( 0.75)
      H   24            1S( 0.77)
      H   25            1S( 0.76)
      H   26            1S( 0.75)
      H   27            1S( 0.73)
      H   28            1S( 0.77)
      H   29            1S( 0.72)
      H   30            1S( 0.77)
      H   31            1S( 0.76)
      H   32            1S( 0.75)
      H   33            1S( 0.75)
      H   34            1S( 0.77)
      H   35            1S( 0.76)
      H   36            1S( 0.75)
      H   37            1S( 0.73)
      H   38            1S( 0.77)


 NBO analysis skipped by request.
 1\1\GINC-DELLA-R2C1N1\SP\RB3LYP TD-FC\6-31G(d)\C12H20N4O2\BJS4\22-Aug-
 2020\0\\# TD(NStates=10, Root=1) B3LYP/6-31G* scf=qc volume pop=NPA de
 nsity=current Geom=AllCheck Guess=Read\\Title Card Required\\0,1\C,0,-
 1.268759017,-0.9776573099,0.1453837468\O,0,-1.0769377253,-1.3375602418
 ,1.2962559891\N,0,-1.8906009518,0.3250570795,-0.0886939754\N,0,-3.1160
 00255,0.3108115841,0.1276788137\C,0,-3.7312056756,1.6183188132,-0.1029
 601739\O,0,-3.9009158615,1.9961184648,-1.2514118666\N,0,-4.1547224809,
 2.23221046,1.0276358843\C,0,-3.8703577705,1.7541050617,2.3856834152\C,
 0,-3.069288218,2.8036964422,3.1683379427\C,0,-3.7723451206,4.170027558
 1,3.1371055432\C,0,-4.0691174586,4.6049232832,1.6930934817\C,0,-4.8477
 538102,3.5198041957,0.9375959845\N,0,-0.8584172461,-1.6041601484,-0.98
 31182028\C,0,-1.1475127683,-1.1315604533,-2.3422873291\C,0,0.146003535
 9,-1.0191389258,-3.1598764466\C,0,0.9437694821,-2.3314375922,-3.122158
 9174\C,0,1.200601714,-2.77329525,-1.6731317938\C,0,-0.1101722494,-2.86
 01785872,-0.881558804\H,0,-3.3338862684,0.8059249995,2.3307801155\H,0,
 -4.8297486807,1.5639417903,2.8898602909\H,0,-2.0689004555,2.887645411,
 2.72371268\H,0,-2.9372684692,2.4579201564,4.2008168916\H,0,-3.15987190
 92,4.9248202247,3.6445246273\H,0,-4.7170444465,4.1035916929,3.69721905
 31\H,0,-3.1275814162,4.7982849353,1.1623343427\H,0,-4.6453209106,5.538
 3556919,1.680305412\H,0,-4.9612424589,3.7589523931,-0.1204369833\H,0,-
 5.8511687087,3.4035592584,1.3742167139\H,0,-1.6634280239,-0.1719831243
 ,-2.2874899154\H,0,-1.832739623,-1.8474195594,-2.8215633696\H,0,0.7537
 756762,-0.2025456736,-2.7484103154\H,0,-0.1066744264,-0.747011786,-4.1
 918715453\H,0,1.891990552,-2.2164590972,-3.6606320285\H,0,0.3775045786
 ,-3.1158453074,-3.6461183942\H,0,1.8672584312,-2.0544786555,-1.1786242
 558\H,0,1.7011256352,-3.7491334384,-1.6477770277\H,0,0.0626181326,-3.0
 532405217,0.1779112274\H,0,-0.7356153316,-3.6738638238,-1.2793008109\\
 Version=ES64L-G16RevA.03\State=1-A\HF=-838.7633152\RMSD=3.871e-13\Dipo
 le=0.2426767,0.118553,-0.0073783\Quadrupole=-0.8185547,3.0363057,-2.21
 77509,-5.8591454,-9.1508879,11.2622696\PG=C01 [X(C12H20N4O2)]\\@


 REPARTEE - WHAT YOU THINK OF AFTER YOU BECOME A DEPARTEE.
 Job cpu time:       0 days  0 hours 43 minutes 12.2 seconds.
 Elapsed time:       0 days  0 hours  8 minutes 40.0 seconds.
 File lengths (MBytes):  RWF=    821 Int=      0 D2E=      0 Chk=    268 Scr=      1
 Normal termination of Gaussian 16 at Sat Aug 22 16:37:19 2020.
