 Entering Gaussian System, Link 0=g16
 Input=azadicarboxylate_6_conf24123.com
 Output=azadicarboxylate_6_conf24123.log
 Initial command:
 /opt/export//g16/l1.exe "/scratch/bjs4/job.14769/Gau-14771.inp" -scrdir="/scratch/bjs4/job.14769/"
 Entering Link 1 = /opt/export//g16/l1.exe PID=     14772.
  
 Copyright (c) 1988,1990,1992,1993,1995,1998,2003,2009,2016,
            Gaussian, Inc.  All Rights Reserved.
  
 This is part of the Gaussian(R) 16 program.  It is based on
 the Gaussian(R) 09 system (copyright 2009, Gaussian, Inc.),
 the Gaussian(R) 03 system (copyright 2003, Gaussian, Inc.),
 the Gaussian(R) 98 system (copyright 1998, Gaussian, Inc.),
 the Gaussian(R) 94 system (copyright 1995, Gaussian, Inc.),
 the Gaussian 92(TM) system (copyright 1992, Gaussian, Inc.),
 the Gaussian 90(TM) system (copyright 1990, Gaussian, Inc.),
 the Gaussian 88(TM) system (copyright 1988, Gaussian, Inc.),
 the Gaussian 86(TM) system (copyright 1986, Carnegie Mellon
 University), and the Gaussian 82(TM) system (copyright 1983,
 Carnegie Mellon University). Gaussian is a federally registered
 trademark of Gaussian, Inc.
  
 This software contains proprietary and confidential information,
 including trade secrets, belonging to Gaussian, Inc.
  
 This software is provided under written license and may be
 used, copied, transmitted, or stored only in accord with that
 written license.
  
 The following legend is applicable only to US Government
 contracts under FAR:
  
                    RESTRICTED RIGHTS LEGEND
  
 Use, reproduction and disclosure by the US Government is
 subject to restrictions as set forth in subparagraphs (a)
 and (c) of the Commercial Computer Software - Restricted
 Rights clause in FAR 52.227-19.
  
 Gaussian, Inc.
 340 Quinnipiac St., Bldg. 40, Wallingford CT 06492
  
  
 ---------------------------------------------------------------
 Warning -- This program may not be used in any manner that
 competes with the business of Gaussian, Inc. or will provide
 assistance to any competitor of Gaussian, Inc.  The licensee
 of this program is prohibited from giving any competitor of
 Gaussian, Inc. access to this program.  By using this program,
 the user acknowledges that Gaussian, Inc. is engaged in the
 business of creating and licensing software in the field of
 computational chemistry and represents and warrants to the
 licensee that it is not a competitor of Gaussian, Inc. and that
 it will not use this program in any manner prohibited above.
 ---------------------------------------------------------------
  

 Cite this work as:
 Gaussian 16, Revision A.03,
 M. J. Frisch, G. W. Trucks, H. B. Schlegel, G. E. Scuseria, 
 M. A. Robb, J. R. Cheeseman, G. Scalmani, V. Barone, 
 G. A. Petersson, H. Nakatsuji, X. Li, M. Caricato, A. V. Marenich, 
 J. Bloino, B. G. Janesko, R. Gomperts, B. Mennucci, H. P. Hratchian, 
 J. V. Ortiz, A. F. Izmaylov, J. L. Sonnenberg, D. Williams-Young, 
 F. Ding, F. Lipparini, F. Egidi, J. Goings, B. Peng, A. Petrone, 
 T. Henderson, D. Ranasinghe, V. G. Zakrzewski, J. Gao, N. Rega, 
 G. Zheng, W. Liang, M. Hada, M. Ehara, K. Toyota, R. Fukuda, 
 J. Hasegawa, M. Ishida, T. Nakajima, Y. Honda, O. Kitao, H. Nakai, 
 T. Vreven, K. Throssell, J. A. Montgomery, Jr., J. E. Peralta, 
 F. Ogliaro, M. J. Bearpark, J. J. Heyd, E. N. Brothers, K. N. Kudin, 
 V. N. Staroverov, T. A. Keith, R. Kobayashi, J. Normand, 
 K. Raghavachari, A. P. Rendell, J. C. Burant, S. S. Iyengar, 
 J. Tomasi, M. Cossi, J. M. Millam, M. Klene, C. Adamo, R. Cammi, 
 J. W. Ochterski, R. L. Martin, K. Morokuma, O. Farkas, 
 J. B. Foresman, and D. J. Fox, Gaussian, Inc., Wallingford CT, 2016.
 
 ******************************************
 Gaussian 16:  ES64L-G16RevA.03 25-Dec-2016
                22-Aug-2020 
 ******************************************
 %nprocshared=3
 Will use up to    3 processors via shared memory.
 %Mem=6GB
 %Chk=azadicarboxylate_6_conf241.chk
 ---------------------------------
 # opt=CalcAll B3LYP/6-31G* scf=qc
 ---------------------------------
 1/10=4,18=20,19=15,26=3,38=1/1,3;
 2/9=110,12=2,17=6,18=5,40=1/2;
 3/5=1,6=6,7=1,11=2,25=1,30=1,71=2,74=-5,140=1/1,2,3;
 4//1;
 5/5=2,8=3,38=5/8;
 8/6=4,10=90,11=11/1;
 11/6=1,8=1,9=11,15=111,16=1/1,2,10;
 10/6=1/2;
 6/7=2,8=2,9=2,10=2,18=1,28=1/1;
 7/10=1,25=1/1,2,3,16;
 1/10=4,18=20,19=15,26=3/3(3);
 2/9=110/2;
 7/8=1,9=1,25=1,44=-1/16;
 99//99;
 2/9=110/2;
 3/5=1,6=6,7=1,11=2,25=1,30=1,71=2,74=-5,140=1/1,2,3;
 4/5=5,16=3,69=1/1;
 5/5=2,8=3,38=5/8;
 8/6=4,10=90,11=11/1;
 11/6=1,8=1,9=11,15=111,16=1/1,2,10;
 10/6=1/2;
 7/10=1,25=1/1,2,3,16;
 1/10=4,18=20,19=15,26=3/3(-8);
 2/9=110/2;
 6/7=2,8=2,9=2,10=2,18=1,19=2,28=1/1;
 7/8=1,9=1,25=1,44=-1/16;
 99//99;
 -------------------
 Title Card Required
 -------------------
 Symbolic Z-matrix:
 Charge =  0 Multiplicity = 1
 C2                    0.8051    0.1255    0.0867 
 O3                    1.90048   0.22376  -0.47028 
 N4                    0.1995    1.147     0.7925 
 N5                   -1.0503    1.0879    0.7508 
 C6                   -1.6557    2.1093    1.4564 
 O7                   -1.1633    2.65372   2.44677 
 N8                   -2.9032    2.50753   0.96901 
 C                    -3.54712   1.89704  -0.18281 
 C                    -3.62466   3.58448   1.62083 
 N1                    0.08305  -1.06922   0.0363 
 C                    -1.21217  -1.15981   0.68428 
 C                     0.55606  -2.26483  -0.64232 
 H                    -2.9552    1.09513  -0.62743 
 H                    -3.71493   2.67013  -0.93895 
 H                    -4.51147   1.48765   0.1331 
 H                    -3.08155   3.99377   2.47596 
 H                    -4.58948   3.20205   1.96729 
 H                    -3.79225   4.38543   0.89448 
 H                    -1.50171  -0.22622   1.17237 
 H                    -1.17364  -1.95297   1.43694 
 H                    -1.96492  -1.41126  -0.06875 
 H                     1.53393  -2.1325   -1.10855 
 H                    -0.1681   -2.53586  -1.41671 
 H                     0.62246  -3.07708   0.08796 
 

 GradGradGradGradGradGradGradGradGradGradGradGradGradGradGradGradGradGrad
 Berny optimization.
 Initialization pass.
                           ----------------------------
                           !    Initial Parameters    !
                           ! (Angstroms and Degrees)  !
 --------------------------                            --------------------------
 ! Name  Definition              Value          Derivative Info.                !
 --------------------------------------------------------------------------------
 ! R1    R(1,2)                  1.2328         calculate D2E/DX2 analytically  !
 ! R2    R(1,3)                  1.3814         calculate D2E/DX2 analytically  !
 ! R3    R(1,10)                 1.3969         calculate D2E/DX2 analytically  !
 ! R4    R(3,4)                  1.2519         calculate D2E/DX2 analytically  !
 ! R5    R(4,5)                  1.3812         calculate D2E/DX2 analytically  !
 ! R6    R(5,6)                  1.2328         calculate D2E/DX2 analytically  !
 ! R7    R(5,7)                  1.3973         calculate D2E/DX2 analytically  !
 ! R8    R(7,8)                  1.454          calculate D2E/DX2 analytically  !
 ! R9    R(7,9)                  1.4509         calculate D2E/DX2 analytically  !
 ! R10   R(8,13)                 1.0914         calculate D2E/DX2 analytically  !
 ! R11   R(8,14)                 1.0943         calculate D2E/DX2 analytically  !
 ! R12   R(8,15)                 1.0942         calculate D2E/DX2 analytically  !
 ! R13   R(9,16)                 1.0926         calculate D2E/DX2 analytically  !
 ! R14   R(9,17)                 1.0942         calculate D2E/DX2 analytically  !
 ! R15   R(9,18)                 1.0942         calculate D2E/DX2 analytically  !
 ! R16   R(10,11)                1.4511         calculate D2E/DX2 analytically  !
 ! R17   R(10,12)                1.4539         calculate D2E/DX2 analytically  !
 ! R18   R(11,19)                1.0925         calculate D2E/DX2 analytically  !
 ! R19   R(11,20)                1.0941         calculate D2E/DX2 analytically  !
 ! R20   R(11,21)                1.094          calculate D2E/DX2 analytically  !
 ! R21   R(12,22)                1.0914         calculate D2E/DX2 analytically  !
 ! R22   R(12,23)                1.0943         calculate D2E/DX2 analytically  !
 ! R23   R(12,24)                1.0943         calculate D2E/DX2 analytically  !
 ! A1    A(2,1,3)              124.1543         calculate D2E/DX2 analytically  !
 ! A2    A(2,1,10)             120.7414         calculate D2E/DX2 analytically  !
 ! A3    A(3,1,10)             115.1043         calculate D2E/DX2 analytically  !
 ! A4    A(1,3,4)              112.6888         calculate D2E/DX2 analytically  !
 ! A5    A(3,4,5)              112.6849         calculate D2E/DX2 analytically  !
 ! A6    A(4,5,6)              124.1897         calculate D2E/DX2 analytically  !
 ! A7    A(4,5,7)              115.0813         calculate D2E/DX2 analytically  !
 ! A8    A(6,5,7)              120.729          calculate D2E/DX2 analytically  !
 ! A9    A(5,7,8)              123.5083         calculate D2E/DX2 analytically  !
 ! A10   A(5,7,9)              119.9193         calculate D2E/DX2 analytically  !
 ! A11   A(8,7,9)              116.5724         calculate D2E/DX2 analytically  !
 ! A12   A(7,8,13)             113.0198         calculate D2E/DX2 analytically  !
 ! A13   A(7,8,14)             108.5819         calculate D2E/DX2 analytically  !
 ! A14   A(7,8,15)             108.5832         calculate D2E/DX2 analytically  !
 ! A15   A(13,8,14)            108.7082         calculate D2E/DX2 analytically  !
 ! A16   A(13,8,15)            108.7048         calculate D2E/DX2 analytically  !
 ! A17   A(14,8,15)            109.1864         calculate D2E/DX2 analytically  !
 ! A18   A(7,9,16)             112.4879         calculate D2E/DX2 analytically  !
 ! A19   A(7,9,17)             108.7406         calculate D2E/DX2 analytically  !
 ! A20   A(7,9,18)             108.7401         calculate D2E/DX2 analytically  !
 ! A21   A(16,9,17)            108.7498         calculate D2E/DX2 analytically  !
 ! A22   A(16,9,18)            108.7527         calculate D2E/DX2 analytically  !
 ! A23   A(17,9,18)            109.3294         calculate D2E/DX2 analytically  !
 ! A24   A(1,10,11)            119.9115         calculate D2E/DX2 analytically  !
 ! A25   A(1,10,12)            123.5057         calculate D2E/DX2 analytically  !
 ! A26   A(11,10,12)           116.5828         calculate D2E/DX2 analytically  !
 ! A27   A(10,11,19)           112.5006         calculate D2E/DX2 analytically  !
 ! A28   A(10,11,20)           108.724          calculate D2E/DX2 analytically  !
 ! A29   A(10,11,21)           108.7312         calculate D2E/DX2 analytically  !
 ! A30   A(19,11,20)           108.7519         calculate D2E/DX2 analytically  !
 ! A31   A(19,11,21)           108.7568         calculate D2E/DX2 analytically  !
 ! A32   A(20,11,21)           109.3362         calculate D2E/DX2 analytically  !
 ! A33   A(10,12,22)           113.0289         calculate D2E/DX2 analytically  !
 ! A34   A(10,12,23)           108.5833         calculate D2E/DX2 analytically  !
 ! A35   A(10,12,24)           108.5813         calculate D2E/DX2 analytically  !
 ! A36   A(22,12,23)           108.702          calculate D2E/DX2 analytically  !
 ! A37   A(22,12,24)           108.7066         calculate D2E/DX2 analytically  !
 ! A38   A(23,12,24)           109.1818         calculate D2E/DX2 analytically  !
 ! D1    D(2,1,3,4)            149.7041         calculate D2E/DX2 analytically  !
 ! D2    D(10,1,3,4)           -30.3085         calculate D2E/DX2 analytically  !
 ! D3    D(2,1,10,11)         -179.2353         calculate D2E/DX2 analytically  !
 ! D4    D(2,1,10,12)            0.7663         calculate D2E/DX2 analytically  !
 ! D5    D(3,1,10,11)            0.7768         calculate D2E/DX2 analytically  !
 ! D6    D(3,1,10,12)         -179.2216         calculate D2E/DX2 analytically  !
 ! D7    D(1,3,4,5)           -179.9952         calculate D2E/DX2 analytically  !
 ! D8    D(3,4,5,6)            -29.676          calculate D2E/DX2 analytically  !
 ! D9    D(3,4,5,7)            150.318          calculate D2E/DX2 analytically  !
 ! D10   D(4,5,7,8)              0.7854         calculate D2E/DX2 analytically  !
 ! D11   D(4,5,7,9)           -179.206          calculate D2E/DX2 analytically  !
 ! D12   D(6,5,7,8)           -179.2203         calculate D2E/DX2 analytically  !
 ! D13   D(6,5,7,9)              0.7883         calculate D2E/DX2 analytically  !
 ! D14   D(5,7,8,13)             0.0111         calculate D2E/DX2 analytically  !
 ! D15   D(5,7,8,14)          -120.6865         calculate D2E/DX2 analytically  !
 ! D16   D(5,7,8,15)           120.7053         calculate D2E/DX2 analytically  !
 ! D17   D(9,7,8,13)          -179.9972         calculate D2E/DX2 analytically  !
 ! D18   D(9,7,8,14)            59.3052         calculate D2E/DX2 analytically  !
 ! D19   D(9,7,8,15)           -59.303          calculate D2E/DX2 analytically  !
 ! D20   D(5,7,9,16)            -0.0127         calculate D2E/DX2 analytically  !
 ! D21   D(5,7,9,17)          -120.531          calculate D2E/DX2 analytically  !
 ! D22   D(5,7,9,18)           120.509          calculate D2E/DX2 analytically  !
 ! D23   D(8,7,9,16)           179.9953         calculate D2E/DX2 analytically  !
 ! D24   D(8,7,9,17)            59.477          calculate D2E/DX2 analytically  !
 ! D25   D(8,7,9,18)           -59.4831         calculate D2E/DX2 analytically  !
 ! D26   D(1,10,11,19)          -0.0045         calculate D2E/DX2 analytically  !
 ! D27   D(1,10,11,20)        -120.5222         calculate D2E/DX2 analytically  !
 ! D28   D(1,10,11,21)         120.5243         calculate D2E/DX2 analytically  !
 ! D29   D(12,10,11,19)        179.994          calculate D2E/DX2 analytically  !
 ! D30   D(12,10,11,20)         59.4762         calculate D2E/DX2 analytically  !
 ! D31   D(12,10,11,21)        -59.4772         calculate D2E/DX2 analytically  !
 ! D32   D(1,10,12,22)          -0.0023         calculate D2E/DX2 analytically  !
 ! D33   D(1,10,12,23)        -120.6988         calculate D2E/DX2 analytically  !
 ! D34   D(1,10,12,24)         120.6986         calculate D2E/DX2 analytically  !
 ! D35   D(11,10,12,22)        179.9993         calculate D2E/DX2 analytically  !
 ! D36   D(11,10,12,23)         59.3027         calculate D2E/DX2 analytically  !
 ! D37   D(11,10,12,24)        -59.2998         calculate D2E/DX2 analytically  !
 --------------------------------------------------------------------------------
 Trust Radius=3.00D-01 FncErr=1.00D-07 GrdErr=1.00D-06 EigMax=2.50D+02 EigMin=1.00D-04
 Number of steps in this run=    108 maximum allowed number of steps=    144.
 GradGradGradGradGradGradGradGradGradGradGradGradGradGradGradGradGradGrad

                          Input orientation:                          
 ---------------------------------------------------------------------
 Center     Atomic      Atomic             Coordinates (Angstroms)
 Number     Number       Type             X           Y           Z
 ---------------------------------------------------------------------
      1          6           0        0.805100    0.125500    0.086700
      2          8           0        1.900480    0.223760   -0.470280
      3          7           0        0.199500    1.147000    0.792500
      4          7           0       -1.050300    1.087900    0.750800
      5          6           0       -1.655700    2.109300    1.456400
      6          8           0       -1.163300    2.653720    2.446770
      7          7           0       -2.903200    2.507530    0.969010
      8          6           0       -3.547120    1.897040   -0.182810
      9          6           0       -3.624660    3.584480    1.620830
     10          7           0        0.083050   -1.069220    0.036300
     11          6           0       -1.212170   -1.159810    0.684280
     12          6           0        0.556060   -2.264830   -0.642320
     13          1           0       -2.955200    1.095130   -0.627430
     14          1           0       -3.714930    2.670130   -0.938950
     15          1           0       -4.511470    1.487650    0.133100
     16          1           0       -3.081550    3.993770    2.475960
     17          1           0       -4.589480    3.202050    1.967290
     18          1           0       -3.792250    4.385430    0.894480
     19          1           0       -1.501710   -0.226220    1.172370
     20          1           0       -1.173640   -1.952970    1.436940
     21          1           0       -1.964920   -1.411260   -0.068750
     22          1           0        1.533930   -2.132500   -1.108550
     23          1           0       -0.168100   -2.535860   -1.416710
     24          1           0        0.622460   -3.077080    0.087960
 ---------------------------------------------------------------------
                    Distance matrix (angstroms):
                    1          2          3          4          5
     1  C    0.000000
     2  O    1.232777   0.000000
     3  N    1.381437   2.310913   0.000000
     4  N    2.193115   3.308304   1.251891   0.000000
     5  C    3.444862   4.462485   2.192841   1.381173   0.000000
     6  O    3.979501   4.878589   2.619931   2.311033   1.232754
     7  N    4.494889   5.510218   3.392484   2.344398   1.397280
     8  C    4.706677   5.706036   3.943469   2.785758   2.511878
     9  C    5.825879   6.796643   4.609950   3.690148   2.465765
    10  N    1.396872   2.287241   2.344575   2.539323   3.891391
    11  C    2.465462   3.596646   2.706639   2.254513   3.388210
    12  C    2.511408   2.833751   3.718390   3.970135   5.331934
    13  H    3.948420   4.935748   3.459917   2.351215   2.656989
    14  H    5.287511   6.143062   4.543193   3.529725   3.208218
    15  H    5.488490   6.563123   4.769076   3.538510   3.208270
    16  H    5.981482   6.907527   4.658694   3.942871   2.573670
    17  H    6.488703   7.545299   5.342068   4.298287   3.172093
    18  H    6.319426   7.182565   5.141196   4.290995   3.171966
    19  H    2.573666   3.804692   2.219043   1.452034   2.357762
    20  H    3.171529   4.222068   3.451178   3.119758   4.090819
    21  H    3.171562   4.216140   3.459936   2.784599   3.849161
    22  H    2.656761   2.468544   4.018683   4.528400   5.894538
    23  H    3.207834   3.576347   4.310359   4.313701   5.660850
    24  H    3.207784   3.583366   4.303269   4.537019   5.827622
                    6          7          8          9         10
     6  O    0.000000
     7  N    2.287444   0.000000
     8  C    3.629029   1.453967   0.000000
     9  C    2.758040   1.450929   2.471150   0.000000
    10  N    4.606955   4.751924   4.693063   6.157497   0.000000
    11  C    4.201401   4.048461   3.943117   5.404213   1.451096
    12  C    6.057294   6.110506   5.862457   7.537552   1.453873
    13  H    3.884690   2.132182   1.091383   3.420484   3.788920
    14  H    4.239597   2.079821   1.094338   2.719680   5.418349
    15  H    4.233560   2.079768   1.094244   2.719645   5.258951
    16  H    2.340143   2.124057   3.417907   1.092581   6.449845
    17  H    3.502753   2.079053   2.722590   1.094150   6.618535
    18  H    3.509958   2.079056   2.722632   1.094163   6.745934
    19  H    3.167439   3.078785   3.244757   4.385142   2.124328
    20  H    4.716085   4.806911   4.804121   6.058438   2.078960
    21  H    4.847112   4.161037   3.668953   5.528728   2.078992
    22  H    6.543948   6.747908   6.550668   8.169726   2.132205
    23  H    6.545887   6.213551   5.708843   7.657220   2.079747
    24  H    6.449418   6.662912   6.496198   8.047615   2.079696
                   11         12         13         14         15
    11  C    0.000000
    12  C    2.471351   0.000000
    13  H    3.137434   4.859887   0.000000
    14  H    4.854598   6.533236   1.776192   0.000000
    15  H    4.265938   6.353129   1.776078   1.783823   0.000000
    16  H    5.767503   7.882002   4.248424   3.716827   3.716760
    17  H    5.663758   7.948171   3.720558   3.081235   2.511873
    18  H    6.119696   8.092930   3.720610   2.511911   3.081251
    19  H    1.092545   3.418106   2.664184   4.212465   3.616087
    20  H    1.094114   2.722580   4.089804   5.785850   4.967794
    21  H    1.094036   2.722665   2.752230   4.525210   3.863850
    22  H    3.420735   1.091380   5.549897   7.116498   7.155001
    23  H    2.719881   1.094324   4.644887   6.317483   6.120082
    24  H    2.719814   1.094289   5.542452   7.273096   6.869937
                   16         17         18         19         20
    16  H    0.000000
    17  H    1.777475   0.000000
    18  H    1.777518   1.785185   0.000000
    19  H    4.690795   4.681801   5.156657   0.000000
    20  H    6.331145   6.206727   6.879440   1.777440   0.000000
    21  H    6.077562   5.684752   6.153744   1.777431   1.785126
    22  H    8.466555   8.684144   8.652383   4.248719   3.720576
    23  H    8.141077   7.995228   8.147412   3.717027   3.081264
    24  H    8.331816   8.373988   8.707996   3.716914   2.511841
                   21         22         23         24
    21  H    0.000000
    22  H    3.720662   0.000000
    23  H    2.512028   1.776110   0.000000
    24  H    3.081242   1.776132   1.783798   0.000000
 Stoichiometry    C6H12N4O2
 Framework group  C1[X(C6H12N4O2)]
 Deg. of freedom    66
 Full point group                 C1      NOp   1
 Largest Abelian subgroup         C1      NOp   1
 Largest concise Abelian subgroup C1      NOp   1
                         Standard orientation:                         
 ---------------------------------------------------------------------
 Center     Atomic      Atomic             Coordinates (Angstroms)
 Number     Number       Type             X           Y           Z
 ---------------------------------------------------------------------
      1          6           0       -1.885007   -0.793392   -0.324182
      2          8           0       -2.684116   -1.472515   -0.972222
      3          7           0       -0.576990   -1.161777   -0.075685
      4          7           0        0.189264   -0.177879    0.033998
      5          6           0        1.497026   -0.546287    0.282340
      6          8           0        1.825723   -1.569704    0.885878
      7          7           0        2.463949    0.336464   -0.205721
      8          6           0        2.144365    1.567356   -0.910556
      9          6           0        3.872437    0.042777   -0.018362
     10          7           0       -2.267958    0.435426    0.218595
     11          6           0       -1.307874    1.227830    0.964260
     12          6           0       -3.604523    0.991211    0.082790
     13          1           0        1.070727    1.730700   -1.018886
     14          1           0        2.595389    1.525927   -1.906767
     15          1           0        2.573046    2.407896   -0.356393
     16          1           0        4.036066   -0.895123    0.517645
     17          1           0        4.328691    0.857772    0.551533
     18          1           0        4.351012   -0.024950   -0.999978
     19          1           0       -0.327823    0.748815    1.025090
     20          1           0       -1.689255    1.378570    1.978612
     21          1           0       -1.195194    2.198188    0.471692
     22          1           0       -4.278070    0.348985   -0.487291
     23          1           0       -3.530161    1.958672   -0.423207
     24          1           0       -4.023680    1.139679    1.082656
 ---------------------------------------------------------------------
 Rotational constants (GHZ):           1.9583325           0.5062686           0.4491268
 Standard basis: 6-31G(d) (6D, 7F)
 There are   204 symmetry adapted cartesian basis functions of A   symmetry.
 There are   204 symmetry adapted basis functions of A   symmetry.
   204 basis functions,   384 primitive gaussians,   204 cartesian basis functions
    46 alpha electrons       46 beta electrons
       nuclear repulsion energy       741.8189169806 Hartrees.
 NAtoms=   24 NActive=   24 NUniq=   24 SFac= 1.00D+00 NAtFMM=   60 NAOKFM=F Big=F
 Integral buffers will be    131072 words long.
 Raffenetti 2 integral format.
 Two-electron integral symmetry is turned on.
 One-electron integrals computed using PRISM.
 NBasis=   204 RedAO= T EigKep=  1.94D-03  NBF=   204
 NBsUse=   204 1.00D-06 EigRej= -1.00D+00 NBFU=   204
 ExpMin= 1.61D-01 ExpMax= 5.48D+03 ExpMxC= 8.25D+02 IAcc=3 IRadAn=         5 AccDes= 0.00D+00
 Harris functional with IExCor=  402 and IRadAn=       5 diagonalized for initial guess.
 HarFok:  IExCor=  402 AccDes= 0.00D+00 IRadAn=         5 IDoV= 1 UseB2=F ITyADJ=14
 ICtDFT=  3500011 ScaDFX=  1.000000  1.000000  1.000000  1.000000
 FoFCou: FMM=F IPFlag=           0 FMFlag=      100000 FMFlg1=           0
         NFxFlg=           0 DoJE=T BraDBF=F KetDBF=T FulRan=T
         wScrn=  0.000000 ICntrl=       500 IOpCl=  0 I1Cent=   200000004 NGrid=           0
         NMat0=    1 NMatS0=      1 NMatT0=    0 NMatD0=    1 NMtDS0=    0 NMtDT0=    0
 Petite list used in FoFCou.
 Keep R1 ints in memory in canonical form, NReq=222933844.
 Gradient too large for Newton-Raphson -- use scaled steepest descent instead.
     Minimum is close to point  2 DX=  1.99D-02 DF= -1.20D-03 DXR=  6.21D-02 DFR=  3.87D-03 which will be used.
 Gradient too large for Newton-Raphson -- use scaled steepest descent instead.
     Minimum is close to point  3 DX=  2.36D-03 DF= -7.26D-07 DXR=  4.69D-03 DFR=  2.20D-05 which will be used.
 Gradient too large for Newton-Raphson -- use scaled steepest descent instead.
     Accept linear search using points  1 and  2.
 Gradient too large for Newton-Raphson -- use scaled steepest descent instead.
     Accept linear search using points  2 and  3.
 Gradient too large for Newton-Raphson -- use scaled steepest descent instead.
     Accept linear search using points  1 and  2.
 Gradient too large for Newton-Raphson -- use scaled steepest descent instead.
     Accept linear search using points  1 and  2.
 LinEq1:  Iter=  0 NonCon=     1 RMS=1.18D-04 Max=5.19D-03 NDo=     1
 AX will form     1 AO Fock derivatives at one time.
 LinEq1:  Iter=  1 NonCon=     1 RMS=1.22D-04 Max=3.78D-03 NDo=     1
 LinEq1:  Iter=  2 NonCon=     1 RMS=3.52D-05 Max=1.17D-03 NDo=     1
 LinEq1:  Iter=  3 NonCon=     1 RMS=3.81D-05 Max=1.52D-03 NDo=     1
 LinEq1:  Iter=  4 NonCon=     1 RMS=2.57D-05 Max=5.73D-04 NDo=     1
 LinEq1:  Iter=  5 NonCon=     1 RMS=1.20D-05 Max=5.30D-04 NDo=     1
 LinEq1:  Iter=  6 NonCon=     1 RMS=9.78D-06 Max=3.01D-04 NDo=     1
 LinEq1:  Iter=  7 NonCon=     1 RMS=4.13D-06 Max=9.75D-05 NDo=     1
 LinEq1:  Iter=  8 NonCon=     1 RMS=3.90D-06 Max=1.32D-04 NDo=     1
 LinEq1:  Iter=  9 NonCon=     1 RMS=2.78D-06 Max=6.26D-05 NDo=     1
 LinEq1:  Iter= 10 NonCon=     1 RMS=1.52D-06 Max=4.14D-05 NDo=     1
 LinEq1:  Iter= 11 NonCon=     1 RMS=9.59D-07 Max=1.54D-05 NDo=     1
 LinEq1:  Iter= 12 NonCon=     1 RMS=4.85D-07 Max=1.23D-05 NDo=     1
 LinEq1:  Iter= 13 NonCon=     1 RMS=2.50D-07 Max=4.79D-06 NDo=     1
 LinEq1:  Iter= 14 NonCon=     1 RMS=9.44D-08 Max=2.83D-06 NDo=     1
 LinEq1:  Iter= 15 NonCon=     1 RMS=2.86D-08 Max=5.32D-07 NDo=     1
 LinEq1:  Iter= 16 NonCon=     1 RMS=1.41D-08 Max=2.10D-07 NDo=     1
 LinEq1:  Iter= 17 NonCon=     0 RMS=4.73D-09 Max=9.58D-08 NDo=     1
 Linear equations converged to 1.206D-08 1.206D-07 after    17 iterations.
     Accept linear search using points  1 and  2.
     Minimum is close to point  2 DX= -1.40D-03 DF= -6.99D-11 DXR=  1.40D-03 DFR=  1.97D-06 which will be used.
 LinEq1:  Iter=  0 NonCon=     1 RMS=5.91D-07 Max=3.46D-05 NDo=     1
 LinEq1:  Iter=  1 NonCon=     1 RMS=5.26D-07 Max=2.44D-05 NDo=     1
 LinEq1:  Iter=  2 NonCon=     1 RMS=2.47D-07 Max=1.26D-05 NDo=     1
 LinEq1:  Iter=  3 NonCon=     1 RMS=1.79D-07 Max=4.89D-06 NDo=     1
 LinEq1:  Iter=  4 NonCon=     1 RMS=1.32D-07 Max=3.55D-06 NDo=     1
 LinEq1:  Iter=  5 NonCon=     1 RMS=1.08D-07 Max=4.30D-06 NDo=     1
 LinEq1:  Iter=  6 NonCon=     1 RMS=6.36D-08 Max=1.76D-06 NDo=     1
 LinEq1:  Iter=  7 NonCon=     1 RMS=4.35D-08 Max=2.04D-06 NDo=     1
 LinEq1:  Iter=  8 NonCon=     1 RMS=3.24D-08 Max=1.53D-06 NDo=     1
 LinEq1:  Iter=  9 NonCon=     1 RMS=3.10D-08 Max=8.88D-07 NDo=     1
 LinEq1:  Iter= 10 NonCon=     1 RMS=1.61D-08 Max=3.39D-07 NDo=     1
 LinEq1:  Iter= 11 NonCon=     1 RMS=1.13D-08 Max=2.17D-07 NDo=     1
 LinEq1:  Iter= 12 NonCon=     1 RMS=4.46D-09 Max=1.02D-07 NDo=     1
 LinEq1:  Iter= 13 NonCon=     1 RMS=1.57D-09 Max=1.92D-08 NDo=     1
 LinEq1:  Iter= 14 NonCon=     1 RMS=6.99D-10 Max=1.03D-08 NDo=     1
 LinEq1:  Iter= 15 NonCon=     1 RMS=2.41D-10 Max=5.99D-09 NDo=     1
 LinEq1:  Iter= 16 NonCon=     0 RMS=9.69D-11 Max=1.86D-09 NDo=     1
 Linear equations converged to 2.510D-10 2.510D-09 after    16 iterations.
 SCF Done:  E(RB3LYP) =  -605.200500590     a.u. after    9 cycles
            Convg  =    0.2152D-08                    50 Fock formations.
              S**2 =  0.0000                  -V/T =  2.0085
 DoSCS=F DFT=T ScalE2(SS,OS)=  1.000000  1.000000
 Range of M.O.s used for correlation:     1   204
 NBasis=   204 NAE=    46 NBE=    46 NFC=     0 NFV=     0
 NROrb=    204 NOA=    46 NOB=    46 NVA=   158 NVB=   158
 Symmetrizing basis deriv contribution to polar:
 IMax=3 JMax=2 DiffMx= 0.00D+00
 G2DrvN: will do    25 centers at a time, making    1 passes.
 Calling FoFCou, ICntrl=  3107 FMM=F I1Cent=   0 AccDes= 0.00D+00.
 End of G2Drv F.D. properties file   721 does not exist.
 End of G2Drv F.D. properties file   722 does not exist.
 End of G2Drv F.D. properties file   788 does not exist.
          IDoAtm=111111111111111111111111
          Differentiating once with respect to electric field.
                with respect to dipole field.
          Differentiating once with respect to nuclear coordinates.
 Keep R1 ints in memory in canonical form, NReq=222943279.
          There are    75 degrees of freedom in the 1st order CPHF.  IDoFFX=6 NUNeed=     3.
     72 vectors produced by pass  0 Test12= 9.69D-15 1.33D-09 XBig12= 1.30D+02 5.56D+00.
 AX will form    72 AO Fock derivatives at one time.
     72 vectors produced by pass  1 Test12= 9.69D-15 1.33D-09 XBig12= 2.90D+01 9.98D-01.
     72 vectors produced by pass  2 Test12= 9.69D-15 1.33D-09 XBig12= 3.38D-01 9.65D-02.
     72 vectors produced by pass  3 Test12= 9.69D-15 1.33D-09 XBig12= 1.62D-03 5.56D-03.
     72 vectors produced by pass  4 Test12= 9.69D-15 1.33D-09 XBig12= 2.18D-06 1.23D-04.
     46 vectors produced by pass  5 Test12= 9.69D-15 1.33D-09 XBig12= 1.49D-09 3.45D-06.
      9 vectors produced by pass  6 Test12= 9.69D-15 1.33D-09 XBig12= 9.93D-13 1.09D-07.
      3 vectors produced by pass  7 Test12= 9.69D-15 1.33D-09 XBig12= 7.15D-16 2.90D-09.
 InvSVY:  IOpt=1 It=  1 EMax= 1.07D-14
 Solved reduced A of dimension   418 with    75 vectors.
 Isotropic polarizability for W=    0.000000      104.99 Bohr**3.
 End of Minotr F.D. properties file   721 does not exist.
 End of Minotr F.D. properties file   722 does not exist.
 End of Minotr F.D. properties file   788 does not exist.

 **********************************************************************

            Population analysis using the SCF density.

 **********************************************************************

 Orbital symmetries:
       Occupied  (A) (A) (A) (A) (A) (A) (A) (A) (A) (A) (A) (A)
                 (A) (A) (A) (A) (A) (A) (A) (A) (A) (A) (A) (A)
                 (A) (A) (A) (A) (A) (A) (A) (A) (A) (A) (A) (A)
                 (A) (A) (A) (A) (A) (A) (A) (A) (A) (A)
       Virtual   (A) (A) (A) (A) (A) (A) (A) (A) (A) (A) (A) (A)
                 (A) (A) (A) (A) (A) (A) (A) (A) (A) (A) (A) (A)
                 (A) (A) (A) (A) (A) (A) (A) (A) (A) (A) (A) (A)
                 (A) (A) (A) (A) (A) (A) (A) (A) (A) (A) (A) (A)
                 (A) (A) (A) (A) (A) (A) (A) (A) (A) (A) (A) (A)
                 (A) (A) (A) (A) (A) (A) (A) (A) (A) (A) (A) (A)
                 (A) (A) (A) (A) (A) (A) (A) (A) (A) (A) (A) (A)
                 (A) (A) (A) (A) (A) (A) (A) (A) (A) (A) (A) (A)
                 (A) (A) (A) (A) (A) (A) (A) (A) (A) (A) (A) (A)
                 (A) (A) (A) (A) (A) (A) (A) (A) (A) (A) (A) (A)
                 (A) (A) (A) (A) (A) (A) (A) (A) (A) (A) (A) (A)
                 (A) (A) (A) (A) (A) (A) (A) (A) (A) (A) (A) (A)
                 (A) (A) (A) (A) (A) (A) (A) (A) (A) (A) (A) (A)
                 (A) (A)
 The electronic state is 1-A.
 Alpha  occ. eigenvalues --  -19.12443 -19.12020 -14.41358 -14.40982 -14.38942
 Alpha  occ. eigenvalues --  -14.37609 -10.31899 -10.31249 -10.23670 -10.22894
 Alpha  occ. eigenvalues --  -10.22522 -10.21392  -1.10916  -1.04578  -1.01437
 Alpha  occ. eigenvalues --   -0.94961  -0.93781  -0.82033  -0.73991  -0.73731
 Alpha  occ. eigenvalues --   -0.71164  -0.67689  -0.60434  -0.57694  -0.54288
 Alpha  occ. eigenvalues --   -0.50347  -0.50149  -0.48847  -0.48003  -0.46717
 Alpha  occ. eigenvalues --   -0.45453  -0.43267  -0.42483  -0.42229  -0.41789
 Alpha  occ. eigenvalues --   -0.41065  -0.40157  -0.39939  -0.39048  -0.37092
 Alpha  occ. eigenvalues --   -0.33953  -0.28220  -0.27178  -0.25369  -0.24392
 Alpha  occ. eigenvalues --   -0.23065
 Alpha virt. eigenvalues --   -0.12039   0.03666   0.05555   0.07561   0.08506
 Alpha virt. eigenvalues --    0.12003   0.12756   0.13774   0.14263   0.14667
 Alpha virt. eigenvalues --    0.15241   0.15531   0.15829   0.16796   0.17407
 Alpha virt. eigenvalues --    0.18301   0.19768   0.21079   0.22518   0.25095
 Alpha virt. eigenvalues --    0.26920   0.30885   0.33386   0.36688   0.40086
 Alpha virt. eigenvalues --    0.42116   0.46028   0.47663   0.48886   0.49064
 Alpha virt. eigenvalues --    0.51283   0.51740   0.54768   0.55432   0.59084
 Alpha virt. eigenvalues --    0.59457   0.61662   0.62522   0.64593   0.65552
 Alpha virt. eigenvalues --    0.66468   0.67875   0.68542   0.70060   0.72288
 Alpha virt. eigenvalues --    0.73792   0.77797   0.78438   0.78790   0.79061
 Alpha virt. eigenvalues --    0.80263   0.82036   0.84094   0.84853   0.85618
 Alpha virt. eigenvalues --    0.86323   0.87050   0.87958   0.88642   0.90756
 Alpha virt. eigenvalues --    0.92171   0.92573   0.93833   0.95186   0.96611
 Alpha virt. eigenvalues --    0.96819   0.99830   1.00755   1.02612   1.03466
 Alpha virt. eigenvalues --    1.06123   1.09836   1.11692   1.13321   1.17170
 Alpha virt. eigenvalues --    1.19336   1.26216   1.27125   1.32255   1.36833
 Alpha virt. eigenvalues --    1.37865   1.38950   1.40505   1.42429   1.43477
 Alpha virt. eigenvalues --    1.44263   1.47850   1.50114   1.55679   1.58051
 Alpha virt. eigenvalues --    1.61479   1.67780   1.69954   1.72892   1.78052
 Alpha virt. eigenvalues --    1.78957   1.80314   1.81354   1.84860   1.85775
 Alpha virt. eigenvalues --    1.86152   1.88718   1.89706   1.92824   1.93909
 Alpha virt. eigenvalues --    1.94146   1.97263   2.00172   2.03229   2.04651
 Alpha virt. eigenvalues --    2.05867   2.05915   2.07560   2.08838   2.12722
 Alpha virt. eigenvalues --    2.12902   2.17355   2.19683   2.20777   2.25508
 Alpha virt. eigenvalues --    2.27324   2.32861   2.33690   2.35699   2.36410
 Alpha virt. eigenvalues --    2.37907   2.39647   2.42251   2.43512   2.50037
 Alpha virt. eigenvalues --    2.53103   2.57476   2.59081   2.61681   2.65461
 Alpha virt. eigenvalues --    2.68097   2.69721   2.74778   2.78271   2.82439
 Alpha virt. eigenvalues --    2.93196   2.93965   3.07188   3.12531   3.20972
 Alpha virt. eigenvalues --    3.24310   3.83600   3.95691   3.96760   4.06067
 Alpha virt. eigenvalues --    4.11805   4.16613   4.25478   4.25901   4.33116
 Alpha virt. eigenvalues --    4.37352   4.48798   4.54583
          Condensed to atoms (all electrons):
               1          2          3          4          5          6
     1  C    4.271119   0.595837   0.228992  -0.031673   0.003895   0.000718
     2  O    0.595837   8.062568  -0.070691   0.001899  -0.000218   0.000001
     3  N    0.228992  -0.070691   6.997630   0.184177  -0.056495   0.001310
     4  N   -0.031673   0.001899   0.184177   7.446390   0.165690  -0.087797
     5  C    0.003895  -0.000218  -0.056495   0.165690   4.327038   0.584145
     6  O    0.000718   0.000001   0.001310  -0.087797   0.584145   8.065486
     7  N   -0.000218   0.000001   0.002112  -0.107434   0.307413  -0.099553
     8  C   -0.000009  -0.000000   0.000704  -0.007985  -0.028204   0.002888
     9  C    0.000003  -0.000000  -0.000088   0.003969  -0.030550  -0.008606
    10  N    0.283669  -0.109010  -0.112379  -0.006225   0.000380  -0.000009
    11  C   -0.032440   0.003035  -0.003775  -0.163717   0.006072  -0.000286
    12  C   -0.020870  -0.003605   0.005090  -0.001050   0.000022  -0.000000
    13  H    0.000002   0.000001  -0.000271   0.014828  -0.009340   0.000123
    14  H    0.000003  -0.000000   0.000069  -0.000100   0.001774  -0.000033
    15  H   -0.000002   0.000000  -0.000042   0.000488   0.000011  -0.000025
    16  H   -0.000000  -0.000000  -0.000013   0.000647  -0.001321   0.018486
    17  H   -0.000000   0.000000  -0.000004  -0.000072   0.000697   0.000646
    18  H   -0.000000  -0.000000   0.000016  -0.000109   0.002096   0.000604
    19  H   -0.012205  -0.000169  -0.006958  -0.067536   0.007864  -0.000732
    20  H    0.000050  -0.000074  -0.001122   0.009094  -0.000019   0.000011
    21  H    0.001121  -0.000015   0.001193   0.000715  -0.000518   0.000003
    22  H   -0.000600   0.014557   0.000451  -0.000002   0.000001   0.000000
    23  H    0.000882   0.000487  -0.000067  -0.000045  -0.000002   0.000000
    24  H    0.000980   0.000350  -0.000159   0.000084   0.000001  -0.000000
               7          8          9         10         11         12
     1  C   -0.000218  -0.000009   0.000003   0.283669  -0.032440  -0.020870
     2  O    0.000001  -0.000000  -0.000000  -0.109010   0.003035  -0.003605
     3  N    0.002112   0.000704  -0.000088  -0.112379  -0.003775   0.005090
     4  N   -0.107434  -0.007985   0.003969  -0.006225  -0.163717  -0.001050
     5  C    0.307413  -0.028204  -0.030550   0.000380   0.006072   0.000022
     6  O   -0.099553   0.002888  -0.008606  -0.000009  -0.000286  -0.000000
     7  N    6.969988   0.290466   0.296149   0.000008  -0.000463  -0.000000
     8  C    0.290466   4.994369  -0.053507   0.000022   0.000503   0.000002
     9  C    0.296149  -0.053507   4.981094   0.000000  -0.000005   0.000000
    10  N    0.000008   0.000022   0.000000   7.020237   0.294768   0.290802
    11  C   -0.000463   0.000503  -0.000005   0.294768   5.128874  -0.055194
    12  C   -0.000000   0.000002   0.000000   0.290802  -0.055194   4.967338
    13  H   -0.023812   0.373487   0.003756   0.000060  -0.000660  -0.000020
    14  H   -0.048102   0.374734  -0.001746  -0.000002  -0.000006  -0.000000
    15  H   -0.050403   0.373726  -0.001285  -0.000001  -0.000052   0.000000
    16  H   -0.027738   0.003824   0.370740   0.000000   0.000001   0.000000
    17  H   -0.048338  -0.000930   0.379153  -0.000000   0.000001   0.000000
    18  H   -0.047512  -0.002206   0.378783   0.000000   0.000000  -0.000000
    19  H    0.000326   0.000337   0.000011  -0.021462   0.391652   0.003746
    20  H    0.000003  -0.000008   0.000000  -0.053076   0.347034  -0.004767
    21  H    0.000005  -0.000180  -0.000001  -0.051097   0.375989  -0.000566
    22  H   -0.000000  -0.000000   0.000000  -0.028325   0.004134   0.373000
    23  H   -0.000000  -0.000001  -0.000000  -0.047660  -0.001910   0.379843
    24  H    0.000000  -0.000000   0.000000  -0.047341  -0.000341   0.376245
              13         14         15         16         17         18
     1  C    0.000002   0.000003  -0.000002  -0.000000  -0.000000  -0.000000
     2  O    0.000001  -0.000000   0.000000  -0.000000   0.000000  -0.000000
     3  N   -0.000271   0.000069  -0.000042  -0.000013  -0.000004   0.000016
     4  N    0.014828  -0.000100   0.000488   0.000647  -0.000072  -0.000109
     5  C   -0.009340   0.001774   0.000011  -0.001321   0.000697   0.002096
     6  O    0.000123  -0.000033  -0.000025   0.018486   0.000646   0.000604
     7  N   -0.023812  -0.048102  -0.050403  -0.027738  -0.048338  -0.047512
     8  C    0.373487   0.374734   0.373726   0.003824  -0.000930  -0.002206
     9  C    0.003756  -0.001746  -0.001285   0.370740   0.379153   0.378783
    10  N    0.000060  -0.000002  -0.000001   0.000000  -0.000000   0.000000
    11  C   -0.000660  -0.000006  -0.000052   0.000001   0.000001   0.000000
    12  C   -0.000020  -0.000000   0.000000   0.000000   0.000000  -0.000000
    13  H    0.495007  -0.025318  -0.025227  -0.000167   0.000018  -0.000056
    14  H   -0.025318   0.571449  -0.043330  -0.000080  -0.001891   0.007250
    15  H   -0.025227  -0.043330   0.581714  -0.000080   0.007314  -0.001987
    16  H   -0.000167  -0.000080  -0.000080   0.467891  -0.023915  -0.023515
    17  H    0.000018  -0.001891   0.007314  -0.023915   0.566720  -0.040076
    18  H   -0.000056   0.007250  -0.001987  -0.023515  -0.040076   0.563994
    19  H   -0.001552   0.000032  -0.000080   0.000003  -0.000011   0.000003
    20  H    0.000066  -0.000000   0.000004  -0.000000   0.000000  -0.000000
    21  H    0.001735   0.000005   0.000023  -0.000000  -0.000000   0.000000
    22  H    0.000000  -0.000000  -0.000000   0.000000  -0.000000  -0.000000
    23  H    0.000000   0.000000  -0.000000  -0.000000  -0.000000   0.000000
    24  H    0.000000  -0.000000   0.000000   0.000000   0.000000  -0.000000
              19         20         21         22         23         24
     1  C   -0.012205   0.000050   0.001121  -0.000600   0.000882   0.000980
     2  O   -0.000169  -0.000074  -0.000015   0.014557   0.000487   0.000350
     3  N   -0.006958  -0.001122   0.001193   0.000451  -0.000067  -0.000159
     4  N   -0.067536   0.009094   0.000715  -0.000002  -0.000045   0.000084
     5  C    0.007864  -0.000019  -0.000518   0.000001  -0.000002   0.000001
     6  O   -0.000732   0.000011   0.000003   0.000000   0.000000  -0.000000
     7  N    0.000326   0.000003   0.000005  -0.000000  -0.000000   0.000000
     8  C    0.000337  -0.000008  -0.000180  -0.000000  -0.000001  -0.000000
     9  C    0.000011   0.000000  -0.000001   0.000000  -0.000000   0.000000
    10  N   -0.021462  -0.053076  -0.051097  -0.028325  -0.047660  -0.047341
    11  C    0.391652   0.347034   0.375989   0.004134  -0.001910  -0.000341
    12  C    0.003746  -0.004767  -0.000566   0.373000   0.379843   0.376245
    13  H   -0.001552   0.000066   0.001735   0.000000   0.000000   0.000000
    14  H    0.000032  -0.000000   0.000005  -0.000000   0.000000  -0.000000
    15  H   -0.000080   0.000004   0.000023  -0.000000  -0.000000   0.000000
    16  H    0.000003  -0.000000  -0.000000   0.000000  -0.000000   0.000000
    17  H   -0.000011   0.000000  -0.000000  -0.000000  -0.000000   0.000000
    18  H    0.000003  -0.000000   0.000000  -0.000000   0.000000  -0.000000
    19  H    0.500627  -0.024505  -0.026776  -0.000185   0.000053   0.000008
    20  H   -0.024505   0.622469  -0.041717  -0.000027  -0.001819   0.008085
    21  H   -0.026776  -0.041717   0.584113  -0.000076   0.006938  -0.001906
    22  H   -0.000185  -0.000027  -0.000076   0.480625  -0.025898  -0.024326
    23  H    0.000053  -0.001819   0.006938  -0.025898   0.571950  -0.041193
    24  H    0.000008   0.008085  -0.001906  -0.024326  -0.041193   0.568650
 Mulliken charges:
               1
     1  C    0.710747
     2  O   -0.494953
     3  N   -0.169681
     4  N   -0.354233
     5  C    0.719569
     6  O   -0.477379
     7  N   -0.412897
     8  C   -0.322029
     9  C   -0.317871
    10  N   -0.413360
    11  C   -0.293213
    12  C   -0.310016
    13  H    0.197338
    14  H    0.165291
    15  H    0.159235
    16  H    0.215236
    17  H    0.160688
    18  H    0.162714
    19  H    0.257509
    20  H    0.140318
    21  H    0.151012
    22  H    0.206670
    23  H    0.158440
    24  H    0.160864
 Sum of Mulliken charges =  -0.00000
 Mulliken charges with hydrogens summed into heavy atoms:
               1
     1  C    0.710747
     2  O   -0.494953
     3  N   -0.169681
     4  N   -0.354233
     5  C    0.719569
     6  O   -0.477379
     7  N   -0.412897
     8  C    0.199835
     9  C    0.220766
    10  N   -0.413360
    11  C    0.255626
    12  C    0.215959
 APT charges:
               1
     1  C    0.927765
     2  O   -0.687085
     3  N   -0.179962
     4  N   -0.065075
     5  C    1.053880
     6  O   -0.722869
     7  N   -0.662680
     8  C    0.303307
     9  C    0.291495
    10  N   -0.663279
    11  C    0.232956
    12  C    0.354299
    13  H    0.030067
    14  H   -0.045303
    15  H   -0.044505
    16  H    0.067294
    17  H   -0.046065
    18  H   -0.037722
    19  H    0.057318
    20  H   -0.066879
    21  H   -0.060138
    22  H    0.050566
    23  H   -0.050602
    24  H   -0.036781
 Sum of APT charges =  -0.00000
 APT charges with hydrogens summed into heavy atoms:
               1
     1  C    0.927765
     2  O   -0.687085
     3  N   -0.179962
     4  N   -0.065075
     5  C    1.053880
     6  O   -0.722869
     7  N   -0.662680
     8  C    0.243566
     9  C    0.275002
    10  N   -0.663279
    11  C    0.163257
    12  C    0.317482
 Electronic spatial extent (au):  <R**2>=           2565.8455
 Charge=             -0.0000 electrons
 Dipole moment (field-independent basis, Debye):
    X=              2.0940    Y=              6.2819    Z=              0.1018  Tot=              6.6225
 Quadrupole moment (field-independent basis, Debye-Ang):
   XX=            -62.1746   YY=            -77.6342   ZZ=            -71.9163
   XY=             -2.7543   XZ=             -7.7346   YZ=             -0.5880
 Traceless Quadrupole moment (field-independent basis, Debye-Ang):
   XX=              8.4004   YY=             -7.0591   ZZ=             -1.3413
   XY=             -2.7543   XZ=             -7.7346   YZ=             -0.5880
 Octapole moment (field-independent basis, Debye-Ang**2):
  XXX=             28.6309  YYY=             13.3356  ZZZ=             -1.1235  XYY=              3.4115
  XXY=             30.9528  XXZ=              5.1726  XZZ=              3.2034  YZZ=              3.1754
  YYZ=             -1.8878  XYZ=             10.3347
 Hexadecapole moment (field-independent basis, Debye-Ang**3):
 XXXX=          -2262.1618 YYYY=           -582.8577 ZZZZ=           -239.4569 XXXY=            -59.1869
 XXXZ=            -25.9744 YYYX=             -0.0108 YYYZ=             -3.9207 ZZZX=             -2.3412
 ZZZY=             -2.0684 XXYY=           -531.9616 XXZZ=           -461.1427 YYZZ=           -141.4574
 XXYZ=            -15.0476 YYXZ=            -14.7116 ZZXY=             -0.7276
 N-N= 7.418189169806D+02 E-N=-2.894505809890D+03  KE= 6.001264416941D+02
  Exact polarizability: 140.298   5.442 100.654  -0.681   3.236  74.021
 Approx polarizability: 174.663  22.668 176.394   6.308   9.064 117.928
 Calling FoFJK, ICntrl=    100127 FMM=F ISym2X=0 I1Cent= 0 IOpClX= 0 NMat=1 NMatS=1 NMatT=0.
 ***** Axes restored to original set *****
 -------------------------------------------------------------------
 Center     Atomic                   Forces (Hartrees/Bohr)
 Number     Number              X              Y              Z
 -------------------------------------------------------------------
      1        6           0.020723466   -0.061623777   -0.045189889
      2        8          -0.010898550    0.013736597    0.012808506
      3        7           0.006330218    0.027780446    0.023019178
      4        7           0.020372835    0.059947606   -0.055712836
      5        6          -0.031449457    0.068384865    0.048084042
      6        8          -0.001982400   -0.011241856   -0.008223187
      7        7           0.029756961   -0.022970369    0.001730389
      8        6          -0.003930025    0.003296378    0.000514609
      9        6          -0.000072400    0.000855147   -0.000592975
     10        7           0.000010017    0.031727126    0.012090901
     11        6          -0.003783660   -0.060945993    0.010755480
     12        6           0.001203403    0.001146506    0.004361135
     13        1           0.002197770    0.002987687    0.003885009
     14        1          -0.002825848   -0.000628805   -0.003722486
     15        1          -0.004049251   -0.000635784   -0.002783060
     16        1           0.003498738   -0.005647239   -0.003570710
     17        1          -0.003633062    0.001462416    0.000316675
     18        1          -0.002996963    0.002446515   -0.000332501
     19        1          -0.007139915   -0.042029939    0.001208091
     20        1          -0.001982565   -0.010801039   -0.001089530
     21        1          -0.006862825    0.002445026    0.001311711
     22        1          -0.001307906    0.007253353    0.003232661
     23        1          -0.000825066   -0.002763049   -0.001393322
     24        1          -0.000353515   -0.004181821   -0.000707890
 -------------------------------------------------------------------
 Cartesian Forces:  Max     0.068384865 RMS     0.021109844
 FormGI is forming the generalized inverse of G from B-inverse, IUseBI=4.

 GradGradGradGradGradGradGradGradGradGradGradGradGradGradGradGradGradGrad
 Berny optimization.
 Internal  Forces:  Max     0.245328002 RMS     0.049125894
 Search for a local minimum.
 Step number   1 out of a maximum of  108
 All quantities printed in internal units (Hartrees-Bohrs-Radians)
 Mixed Optimization -- RFO/linear search
 Second derivative matrix not updated -- analytic derivatives used.
 ITU=  0
     Eigenvalues ---   -0.23760  -0.06916  -0.02100  -0.00154   0.00018
     Eigenvalues ---    0.00124   0.00145   0.00495   0.01336   0.02056
     Eigenvalues ---    0.04987   0.05723   0.06268   0.06362   0.06379
     Eigenvalues ---    0.06395   0.06418   0.06568   0.06619   0.06762
     Eigenvalues ---    0.10954   0.12568   0.12830   0.12907   0.13503
     Eigenvalues ---    0.14240   0.15861   0.16396   0.16621   0.18063
     Eigenvalues ---    0.18110   0.18568   0.19058   0.20448   0.20920
     Eigenvalues ---    0.22129   0.23038   0.23651   0.24842   0.28704
     Eigenvalues ---    0.30940   0.31941   0.33267   0.33447   0.33511
     Eigenvalues ---    0.33594   0.33636   0.33717   0.33781   0.33819
     Eigenvalues ---    0.34237   0.35121   0.35198   0.36440   0.36975
     Eigenvalues ---    0.37319   0.37524   0.39774   0.41314   0.44051
     Eigenvalues ---    0.46518   0.49494   0.74960   0.78266   0.78880
     Eigenvalues ---    3.04771
 RFO step:  Lambda=-2.43009674D-01 EMin=-2.37595038D-01
 I=     1 Eig=   -2.38D-01 Dot1= -1.75D-02
 I=     1 Stepn= -6.00D-01 RXN=   6.00D-01 EDone=F
 I=     2 Eig=   -6.92D-02 Dot1= -1.44D-03
 I=     2 Stepn= -3.00D-01 RXN=   6.71D-01 EDone=F
 I=     3 Eig=   -2.10D-02 Dot1= -2.36D-04
 I=     3 Stepn= -1.50D-01 RXN=   6.87D-01 EDone=F
 Mixed    3 eigenvectors in step.  Raw Step.Grad=  1.92D-02.
 RFO eigenvector is Hessian eigenvector with negative curvature.
 Taking step of  6.00D-01 in eigenvector direction(s).  Step.Grad= -1.32D-02.
 Linear search not attempted -- first point.
 Maximum step size (   0.300) exceeded in Quadratic search.
    -- Step size not scaled.
 Iteration  1 RMS(Cart)=  0.28046940 RMS(Int)=  0.02707768
 Iteration  2 RMS(Cart)=  0.16906490 RMS(Int)=  0.00598134
 Iteration  3 RMS(Cart)=  0.01062881 RMS(Int)=  0.00040674
 Iteration  4 RMS(Cart)=  0.00006052 RMS(Int)=  0.00040606
 Iteration  5 RMS(Cart)=  0.00000001 RMS(Int)=  0.00040606
 Variable       Old X    -DE/DX   Delta X   Delta X   Delta X     New X
                                 (Linear)    (Quad)   (Total)
    R1        2.32961  -0.01438   0.00000   0.00826   0.00826   2.33787
    R2        2.61054   0.08962   0.00000   0.04623   0.04623   2.65677
    R3        2.63971   0.07664   0.00000  -0.03788  -0.03788   2.60182
    R4        2.36573  -0.00884   0.00000  -0.02394  -0.02394   2.34179
    R5        2.61004   0.05316   0.00000  -0.00978  -0.00978   2.60026
    R6        2.32957  -0.01236   0.00000  -0.00037  -0.00037   2.32919
    R7        2.64048  -0.01980   0.00000   0.00392   0.00392   2.64439
    R8        2.74760   0.00337   0.00000  -0.00078  -0.00078   2.74682
    R9        2.74186  -0.00094   0.00000  -0.00080  -0.00080   2.74106
   R10        2.06241  -0.00259   0.00000   0.00082   0.00082   2.06323
   R11        2.06800   0.00256   0.00000   0.00014   0.00014   2.06814
   R12        2.06782   0.00300   0.00000  -0.00009  -0.00009   2.06773
   R13        2.06468  -0.00317   0.00000   0.00005   0.00005   2.06473
   R14        2.06764   0.00279   0.00000   0.00019   0.00019   2.06784
   R15        2.06767   0.00247   0.00000   0.00026   0.00026   2.06793
   R16        2.74217   0.03004   0.00000  -0.02569  -0.02569   2.71649
   R17        2.74742  -0.00418   0.00000   0.00247   0.00247   2.74989
   R18        2.06461  -0.03348   0.00000  -0.02138  -0.02138   2.04323
   R19        2.06757   0.00701   0.00000  -0.00456  -0.00456   2.06302
   R20        2.06743   0.00326   0.00000   0.00706   0.00706   2.07449
   R21        2.06241  -0.00167   0.00000   0.00047   0.00047   2.06288
   R22        2.06797   0.00222   0.00000  -0.00085  -0.00085   2.06712
   R23        2.06791   0.00261   0.00000  -0.00067  -0.00067   2.06724
    A1        2.16690  -0.14153   0.00000  -0.11974  -0.12043   2.04647
    A2        2.10733  -0.10380   0.00000  -0.01025  -0.01107   2.09627
    A3        2.00895   0.24533   0.00000   0.13000   0.12925   2.13820
    A4        1.96679   0.16556   0.00000   0.24540   0.24540   2.21219
    A5        1.96672  -0.00274   0.00000  -0.00130  -0.00130   1.96542
    A6        2.16752   0.00199   0.00000   0.00157   0.00156   2.16908
    A7        2.00855  -0.01722   0.00000  -0.00012  -0.00013   2.00842
    A8        2.10712   0.01523   0.00000  -0.00145  -0.00146   2.10566
    A9        2.15563   0.00798   0.00000   0.00056   0.00056   2.15618
   A10        2.09299  -0.00545   0.00000  -0.00029  -0.00029   2.09270
   A11        2.03457  -0.00253   0.00000  -0.00027  -0.00027   2.03430
   A12        1.97257  -0.00891   0.00000   0.00425   0.00425   1.97682
   A13        1.89511   0.00603   0.00000   0.00055   0.00055   1.89566
   A14        1.89513   0.00579   0.00000   0.00065   0.00065   1.89578
   A15        1.89732   0.00024   0.00000  -0.00240  -0.00240   1.89492
   A16        1.89726   0.00116   0.00000  -0.00293  -0.00294   1.89432
   A17        1.90566  -0.00435   0.00000  -0.00021  -0.00021   1.90545
   A18        1.96328  -0.01148   0.00000  -0.00078  -0.00078   1.96251
   A19        1.89788   0.00455   0.00000   0.00060   0.00060   1.89849
   A20        1.89787   0.00500   0.00000   0.00043   0.00043   1.89830
   A21        1.89804   0.00265   0.00000  -0.00029  -0.00029   1.89775
   A22        1.89809   0.00257   0.00000   0.00020   0.00020   1.89830
   A23        1.90816  -0.00325   0.00000  -0.00017  -0.00017   1.90799
   A24        2.09285   0.22633   0.00000  -0.02399  -0.02399   2.06886
   A25        2.15558  -0.12068   0.00000   0.00690   0.00690   2.16248
   A26        2.03475  -0.10565   0.00000   0.01709   0.01709   2.05184
   A27        1.96351   0.03716   0.00000  -0.06723  -0.06772   1.89579
   A28        1.89759  -0.01005   0.00000   0.02292   0.02320   1.92079
   A29        1.89772   0.00265   0.00000  -0.01516  -0.01593   1.88179
   A30        1.89808  -0.01261   0.00000   0.06557   0.06608   1.96415
   A31        1.89816  -0.01257   0.00000   0.00115  -0.00052   1.89764
   A32        1.90828  -0.00539   0.00000  -0.00649  -0.00647   1.90180
   A33        1.97273  -0.01327   0.00000   0.00828   0.00829   1.98101
   A34        1.89514   0.00445   0.00000  -0.00587  -0.00588   1.88926
   A35        1.89510   0.00622   0.00000  -0.00509  -0.00509   1.89001
   A36        1.89721   0.00304   0.00000   0.00070   0.00071   1.89792
   A37        1.89729   0.00278   0.00000   0.00019   0.00019   1.89748
   A38        1.90558  -0.00310   0.00000   0.00170   0.00167   1.90726
    D1        2.61283  -0.07079   0.00000   0.28459   0.28623   2.89905
    D2       -0.52898  -0.09239   0.00000   0.36014   0.35851  -0.17048
    D3       -3.12825  -0.04399   0.00000   0.07664   0.07742  -3.05083
    D4        0.01338  -0.03257   0.00000   0.07764   0.07841   0.09178
    D5        0.01356  -0.02319   0.00000   0.00392   0.00315   0.01671
    D6       -3.12801  -0.01176   0.00000   0.00492   0.00414  -3.12387
    D7       -3.14151  -0.01579   0.00000   0.00648   0.00648  -3.13503
    D8       -0.51794  -0.00403   0.00000  -0.00158  -0.00159  -0.51953
    D9        2.62354  -0.00054   0.00000   0.00509   0.00509   2.62863
   D10        0.01371  -0.00206   0.00000  -0.00217  -0.00217   0.01154
   D11       -3.12773  -0.00168   0.00000  -0.00299  -0.00299  -3.13072
   D12       -3.12798   0.00130   0.00000   0.00425   0.00424  -3.12374
   D13        0.01376   0.00168   0.00000   0.00343   0.00343   0.01718
   D14        0.00019  -0.00005   0.00000   0.00037   0.00037   0.00056
   D15       -2.10638   0.00119   0.00000   0.00028   0.00028  -2.10610
   D16        2.10670  -0.00030   0.00000  -0.00015  -0.00015   2.10655
   D17       -3.14154  -0.00042   0.00000   0.00116   0.00116  -3.14038
   D18        1.03507   0.00082   0.00000   0.00107   0.00107   1.03614
   D19       -1.03503  -0.00067   0.00000   0.00064   0.00064  -1.03439
   D20       -0.00022  -0.00024   0.00000   0.00035   0.00035   0.00013
   D21       -2.10366   0.00066   0.00000   0.00080   0.00080  -2.10286
   D22        2.10328  -0.00093   0.00000   0.00040   0.00040   2.10368
   D23        3.14151   0.00012   0.00000  -0.00041  -0.00041   3.14110
   D24        1.03807   0.00102   0.00000   0.00004   0.00004   1.03811
   D25       -1.03818  -0.00057   0.00000  -0.00036  -0.00036  -1.03853
   D26       -0.00008  -0.00478   0.00000   0.10141   0.10049   0.10041
   D27       -2.10351  -0.00579   0.00000   0.04630   0.04650  -2.05701
   D28        2.10355   0.00495   0.00000   0.04964   0.05035   2.15390
   D29        3.14149  -0.01543   0.00000   0.10047   0.09957  -3.04213
   D30        1.03806  -0.01644   0.00000   0.04537   0.04557   1.08363
   D31       -1.03807  -0.00571   0.00000   0.04871   0.04942  -0.98865
   D32       -0.00004  -0.00569   0.00000  -0.00229  -0.00230  -0.00234
   D33       -2.10659  -0.00407   0.00000  -0.00443  -0.00442  -2.11102
   D34        2.10659  -0.00640   0.00000  -0.00026  -0.00028   2.10631
   D35        3.14158   0.00538   0.00000  -0.00132  -0.00132   3.14026
   D36        1.03503   0.00700   0.00000  -0.00346  -0.00344   1.03159
   D37       -1.03498   0.00467   0.00000   0.00071   0.00070  -1.03427
         Item               Value     Threshold  Converged?
 Maximum Force            0.245328     0.000450     NO 
 RMS     Force            0.049126     0.000300     NO 
 Maximum Displacement     1.247778     0.001800     NO 
 RMS     Displacement     0.439720     0.001200     NO 
 Predicted change in Energy=-5.186236D-02
 GradGradGradGradGradGradGradGradGradGradGradGradGradGradGradGradGradGrad

                          Input orientation:                          
 ---------------------------------------------------------------------
 Center     Atomic      Atomic             Coordinates (Angstroms)
 Number     Number       Type             X           Y           Z
 ---------------------------------------------------------------------
      1          6           0        0.702506   -0.016821    0.231860
      2          8           0        1.880032    0.216384   -0.067445
      3          7           0       -0.047047    1.043688    0.770426
      4          7           0       -1.277948    1.087261    0.907006
      5          6           0       -1.707207    2.271663    1.460449
      6          8           0       -1.043164    2.952468    2.244508
      7          7           0       -2.991388    2.674322    1.077127
      8          6           0       -3.836749    1.910236    0.174712
      9          6           0       -3.542874    3.914842    1.587956
     10          7           0        0.151210   -1.248389   -0.041928
     11          6           0       -1.249090   -1.446534    0.215583
     12          6           0        0.902744   -2.372763   -0.579072
     13          1           0       -3.370085    0.987477   -0.175717
     14          1           0       -4.073127    2.532889   -0.693715
     15          1           0       -4.763813    1.654728    0.696756
     16          1           0       -2.853164    4.433117    2.258387
     17          1           0       -4.463913    3.691886    2.135102
     18          1           0       -3.773342    4.571685    0.743602
     19          1           0       -1.682704   -0.501478    0.512075
     20          1           0       -1.384644   -2.224086    0.969805
     21          1           0       -1.720120   -1.772035   -0.721052
     22          1           0        1.957443   -2.149376   -0.750428
     23          1           0        0.446932   -2.666911   -1.528951
     24          1           0        0.830393   -3.203614    0.128845
 ---------------------------------------------------------------------
                    Distance matrix (angstroms):
                    1          2          3          4          5
     1  C    0.000000
     2  O    1.237148   0.000000
     3  N    1.405902   2.258339   0.000000
     4  N    2.365801   3.417721   1.239221   0.000000
     5  C    3.543065   4.407598   2.177197   1.375998   0.000000
     6  O    3.989334   4.623458   2.609331   2.307169   1.232557
     7  N    4.647750   5.575144   3.379671   2.341704   1.399353
     8  C    4.931698   5.967357   3.932889   2.785858   2.513702
     9  C    5.943082   6.769554   4.597030   3.686298   2.466975
    10  N    1.376825   2.266061   2.439844   2.897970   4.254600
    11  C    2.419312   3.554828   2.820276   2.626598   3.947728
    12  C    2.499634   2.814344   3.794124   4.351507   5.704576
    13  H    4.214348   5.307544   3.455564   2.357813   2.662956
    14  H    5.492211   6.418607   4.535499   3.530606   3.210334
    15  H    5.735054   6.840578   4.756751   3.538005   3.210401
    16  H    6.045788   6.752294   4.645057   3.937295   2.573287
    17  H    6.638427   7.561479   5.327663   4.294492   3.173581
    18  H    6.430356   7.182414   5.131545   4.288927   3.173780
    19  H    2.450029   3.680252   2.264874   1.686384   2.930926
    20  H    3.126144   4.205935   3.536560   3.313661   4.533932
    21  H    3.139735   4.164385   3.598884   3.319889   4.594628
    22  H    2.662246   2.463591   4.065297   4.867306   6.153311
    23  H    3.191982   3.535981   4.393141   4.796134   6.161683
    24  H    3.191021   3.582828   4.384187   4.843785   6.179907
                    6          7          8          9         10
     6  O    0.000000
     7  N    2.288169   0.000000
     8  C    3.629658   1.453553   0.000000
     9  C    2.757857   1.450508   2.470236   0.000000
    10  N    4.929657   5.149356   5.091921   6.554520   0.000000
    11  C    4.848727   4.556239   4.238579   5.990760   1.437503
    12  C    6.333817   6.586374   6.432345   7.999594   1.455178
    13  H    3.890146   2.135058   1.091815   3.421968   4.173310
    14  H    4.241448   2.079915   1.094412   2.719740   5.706831
    15  H    4.233543   2.079842   1.094195   2.719015   5.755971
    16  H    2.338507   2.123168   3.416734   1.092606   6.826216
    17  H    3.501461   2.079201   2.722268   1.094253   7.102474
    18  H    3.511189   2.079105   2.722309   1.094299   7.063457
    19  H    3.916641   3.481040   3.251167   4.911378   2.056219
    20  H    5.342114   5.156311   4.872126   6.536551   2.081931
    21  H    5.619051   4.961820   4.340694   6.402696   2.058468
    22  H    6.633408   7.148353   7.135054   8.514475   2.139212
    23  H    6.930858   6.866036   6.496357   8.303802   2.076269
    24  H    6.773743   7.074983   6.923567   8.480972   2.076863
                   11         12         13         14         15
    11  C    0.000000
    12  C    2.473816   0.000000
    13  H    3.252098   5.450777   0.000000
    14  H    4.963650   6.988409   1.775075   0.000000
    15  H    4.711967   7.068118   1.774517   1.783711   0.000000
    16  H    6.427783   8.275145   4.250236   3.716731   3.716009
    17  H    6.357908   8.540943   3.721582   3.081914   2.511731
    18  H    6.547488   8.475883   3.722138   2.512457   3.080887
    19  H    1.081230   3.372959   2.353146   4.046658   3.765178
    20  H    1.091702   2.766454   3.945672   5.711747   5.151556
    21  H    1.097772   2.694522   3.261085   4.906094   4.797598
    22  H    3.421844   1.091629   6.209082   7.635091   7.857534
    23  H    2.721986   1.093872   5.454851   6.940207   7.126163
    24  H    2.723803   1.093936   5.941550   7.591350   7.431094
                   16         17         18         19         20
    16  H    0.000000
    17  H    1.777396   0.000000
    18  H    1.777780   1.785275   0.000000
    19  H    5.363750   5.287120   5.491935   0.000000
    20  H    6.937964   6.770416   7.206909   1.807134   0.000000
    21  H    6.976013   6.748366   6.826691   1.770964   1.782103
    22  H    8.690462   9.147701   8.958051   4.190484   3.759565
    23  H    8.697411   8.830400   8.681732   3.659267   3.129623
    24  H    8.742037   8.922032   9.056907   3.709995   2.563802
                   21         22         23         24
    21  H    0.000000
    22  H    3.696988   0.000000
    23  H    2.479842   1.776396   0.000000
    24  H    3.045794   1.776169   1.784202   0.000000
 Stoichiometry    C6H12N4O2
 Framework group  C1[X(C6H12N4O2)]
 Deg. of freedom    66
 Full point group                 C1      NOp   1
 Largest Abelian subgroup         C1      NOp   1
 Largest concise Abelian subgroup C1      NOp   1
                         Standard orientation:                         
 ---------------------------------------------------------------------
 Center     Atomic      Atomic             Coordinates (Angstroms)
 Number     Number       Type             X           Y           Z
 ---------------------------------------------------------------------
      1          6           0       -1.885832   -0.754521   -0.190990
      2          8           0       -2.529521   -1.692795   -0.676626
      3          7           0       -0.498512   -0.931579   -0.047621
      4          7           0        0.341315   -0.050434    0.184636
      5          6           0        1.622353   -0.547131    0.259492
      6          8           0        1.904166   -1.686970    0.634384
      7          7           0        2.628654    0.348179   -0.119941
      8          6           0        2.369577    1.711967   -0.550959
      9          6           0        4.017018   -0.071035   -0.093890
     10          7           0       -2.514972    0.433211    0.107542
     11          6           0       -1.716083    1.537773    0.563757
     12          6           0       -3.950178    0.643194   -0.009226
     13          1           0        1.308847    1.970634   -0.549154
     14          1           0        2.757054    1.836817   -1.566839
     15          1           0        2.895742    2.396674    0.121045
     16          1           0        4.134408   -1.104801    0.239778
     17          1           0        4.569690    0.583051    0.587370
     18          1           0        4.432020    0.022722   -1.102094
     19          1           0       -0.673324    1.258995    0.500543
     20          1           0       -2.012732    1.821703    1.575289
     21          1           0       -1.896191    2.384195   -0.111694
     22          1           0       -4.491627   -0.236653   -0.361869
     23          1           0       -4.120117    1.465052   -0.710815
     24          1           0       -4.337449    0.922595    0.974974
 ---------------------------------------------------------------------
 Rotational constants (GHZ):           2.0510689           0.4673664           0.4000061
 Standard basis: 6-31G(d) (6D, 7F)
 There are   204 symmetry adapted cartesian basis functions of A   symmetry.
 There are   204 symmetry adapted basis functions of A   symmetry.
   204 basis functions,   384 primitive gaussians,   204 cartesian basis functions
    46 alpha electrons       46 beta electrons
       nuclear repulsion energy       727.6140868880 Hartrees.
 NAtoms=   24 NActive=   24 NUniq=   24 SFac= 1.00D+00 NAtFMM=   60 NAOKFM=F Big=F
 Integral buffers will be    131072 words long.
 Raffenetti 2 integral format.
 Two-electron integral symmetry is turned on.
 One-electron integrals computed using PRISM.
 NBasis=   204 RedAO= T EigKep=  2.01D-03  NBF=   204
 NBsUse=   204 1.00D-06 EigRej= -1.00D+00 NBFU=   204
 Initial guess from the checkpoint file:  "azadicarboxylate_6_conf241.chk"
 B after Tr=    -0.000000   -0.000000    0.000000
         Rot=    0.999768    0.013711    0.008517   -0.014291 Ang=   2.47 deg.
 ExpMin= 1.61D-01 ExpMax= 5.48D+03 ExpMxC= 8.25D+02 IAcc=2 IRadAn=         4 AccDes= 0.00D+00
 Harris functional with IExCor=  402 and IRadAn=       4 diagonalized for initial guess.
 HarFok:  IExCor=  402 AccDes= 0.00D+00 IRadAn=         4 IDoV= 1 UseB2=F ITyADJ=14
 ICtDFT=  3500011 ScaDFX=  1.000000  1.000000  1.000000  1.000000
 FoFCou: FMM=F IPFlag=           0 FMFlag=      100000 FMFlg1=           0
         NFxFlg=           0 DoJE=T BraDBF=F KetDBF=T FulRan=T
         wScrn=  0.000000 ICntrl=       500 IOpCl=  0 I1Cent=   200000004 NGrid=           0
         NMat0=    1 NMatS0=      1 NMatT0=    0 NMatD0=    1 NMtDS0=    0 NMtDT0=    0
 Petite list used in FoFCou.
 Keep R1 ints in memory in canonical form, NReq=222933844.
 Gradient too large for Newton-Raphson -- use scaled steepest descent instead.
     Minimum is close to point  4 DX=  9.04D-02 DF= -9.10D-04 DXR=  7.00D-02 DFR=  4.94D-03 which will be used.
 Gradient too large for Newton-Raphson -- use scaled steepest descent instead.
 Gradient too large for Newton-Raphson -- use scaled steepest descent instead.
     Accept linear search using points  1 and  2.
 Gradient too large for Newton-Raphson -- use scaled steepest descent instead.
     Accept linear search using points  1 and  2.
 Gradient too large for Newton-Raphson -- use scaled steepest descent instead.
 Gradient too large for Newton-Raphson -- use scaled steepest descent instead.
     Accept linear search using points  1 and  2.
 Gradient too large for Newton-Raphson -- use scaled steepest descent instead.
     Accept linear search using points  2 and  3.
 Gradient too large for Newton-Raphson -- use scaled steepest descent instead.
     Accept linear search using points  1 and  2.
 Gradient too large for Newton-Raphson -- use scaled steepest descent instead.
     Minimum is close to point  3 DX=  1.10D-01 DF= -6.98D-06 DXR=  6.42D-02 DFR=  4.14D-03 which will be used.
 Gradient too large for Newton-Raphson -- use scaled steepest descent instead.
     Accept linear search using points  1 and  2.
 Gradient too large for Newton-Raphson -- use scaled steepest descent instead.
     Accept linear search using points  2 and  3.
 Gradient too large for Newton-Raphson -- use scaled steepest descent instead.
     Accept linear search using points  1 and  2.
 Gradient too large for Newton-Raphson -- use scaled steepest descent instead.
     Accept linear search using points  2 and  3.
 Gradient too large for Newton-Raphson -- use scaled steepest descent instead.
     Accept linear search using points  1 and  2.
 Gradient too large for Newton-Raphson -- use scaled steepest descent instead.
     Accept linear search using points  2 and  3.
 Gradient too large for Newton-Raphson -- use scaled steepest descent instead.
     Accept linear search using points  1 and  2.
 Gradient too large for Newton-Raphson -- use scaled steepest descent instead.
 Gradient too large for Newton-Raphson -- use scaled steepest descent instead.
     Minimum is close to point  3 DX=  3.87D-02 DF= -2.10D-06 DXR=  8.82D-02 DFR=  7.84D-03 which will be used.
 Gradient too large for Newton-Raphson -- use scaled steepest descent instead.
 Gradient too large for Newton-Raphson -- use scaled steepest descent instead.
 LinEq1:  Iter=  0 NonCon=     1 RMS=5.27D-04 Max=4.31D-02 NDo=     1
 AX will form     1 AO Fock derivatives at one time.
 LinEq1:  Iter=  1 NonCon=     1 RMS=5.91D-05 Max=2.30D-03 NDo=     1
 LinEq1:  Iter=  2 NonCon=     1 RMS=6.36D-05 Max=1.74D-03 NDo=     1
 LinEq1:  Iter=  3 NonCon=     1 RMS=3.43D-05 Max=7.92D-04 NDo=     1
 LinEq1:  Iter=  4 NonCon=     1 RMS=3.30D-05 Max=9.55D-04 NDo=     1
 LinEq1:  Iter=  5 NonCon=     1 RMS=2.47D-05 Max=9.62D-04 NDo=     1
 LinEq1:  Iter=  6 NonCon=     1 RMS=1.25D-05 Max=4.69D-04 NDo=     1
 LinEq1:  Iter=  7 NonCon=     1 RMS=1.12D-05 Max=3.01D-04 NDo=     1
 LinEq1:  Iter=  8 NonCon=     1 RMS=8.57D-06 Max=2.66D-04 NDo=     1
 LinEq1:  Iter=  9 NonCon=     1 RMS=7.06D-06 Max=1.55D-04 NDo=     1
 LinEq1:  Iter= 10 NonCon=     1 RMS=2.71D-06 Max=5.37D-05 NDo=     1
 LinEq1:  Iter= 11 NonCon=     1 RMS=1.75D-06 Max=4.25D-05 NDo=     1
 LinEq1:  Iter= 12 NonCon=     1 RMS=9.03D-07 Max=1.50D-05 NDo=     1
 LinEq1:  Iter= 13 NonCon=     1 RMS=4.47D-07 Max=5.51D-06 NDo=     1
 LinEq1:  Iter= 14 NonCon=     1 RMS=1.51D-07 Max=2.28D-06 NDo=     1
 LinEq1:  Iter= 15 NonCon=     1 RMS=6.25D-08 Max=1.02D-06 NDo=     1
 LinEq1:  Iter= 16 NonCon=     1 RMS=2.17D-08 Max=3.21D-07 NDo=     1
 LinEq1:  Iter= 17 NonCon=     1 RMS=1.07D-08 Max=2.42D-07 NDo=     1
 LinEq1:  Iter= 18 NonCon=     0 RMS=4.03D-09 Max=9.75D-08 NDo=     1
 Linear equations converged to 1.206D-08 1.206D-07 after    18 iterations.
     Accept linear search using points  1 and  2.
     Minimum is close to point  2 DX= -8.95D-03 DF= -6.35D-08 DXR=  9.03D-03 DFR=  8.21D-05 which will be used.
 LinEq1:  Iter=  0 NonCon=     1 RMS=1.57D-05 Max=6.50D-04 NDo=     1
 LinEq1:  Iter=  1 NonCon=     1 RMS=1.43D-05 Max=7.14D-04 NDo=     1
 LinEq1:  Iter=  2 NonCon=     1 RMS=1.03D-05 Max=3.20D-04 NDo=     1
 LinEq1:  Iter=  3 NonCon=     1 RMS=8.55D-06 Max=3.73D-04 NDo=     1
 LinEq1:  Iter=  4 NonCon=     1 RMS=6.88D-06 Max=2.38D-04 NDo=     1
 LinEq1:  Iter=  5 NonCon=     1 RMS=4.55D-06 Max=1.12D-04 NDo=     1
 LinEq1:  Iter=  6 NonCon=     1 RMS=4.26D-06 Max=1.25D-04 NDo=     1
 LinEq1:  Iter=  7 NonCon=     1 RMS=2.71D-06 Max=7.90D-05 NDo=     1
 LinEq1:  Iter=  8 NonCon=     1 RMS=2.03D-06 Max=4.42D-05 NDo=     1
 LinEq1:  Iter=  9 NonCon=     1 RMS=7.59D-07 Max=2.64D-05 NDo=     1
 LinEq1:  Iter= 10 NonCon=     1 RMS=5.10D-07 Max=1.52D-05 NDo=     1
 LinEq1:  Iter= 11 NonCon=     1 RMS=2.44D-07 Max=9.52D-06 NDo=     1
 LinEq1:  Iter= 12 NonCon=     1 RMS=1.35D-07 Max=3.90D-06 NDo=     1
 LinEq1:  Iter= 13 NonCon=     1 RMS=5.51D-08 Max=1.52D-06 NDo=     1
 LinEq1:  Iter= 14 NonCon=     1 RMS=1.60D-08 Max=3.03D-07 NDo=     1
 LinEq1:  Iter= 15 NonCon=     0 RMS=6.10D-09 Max=9.30D-08 NDo=     1
 Linear equations converged to 1.045D-08 1.045D-07 after    15 iterations.
     Minimum is close to point  2 DX=  1.39D-04 DF=  0.00D+00 DXR=  1.39D-04 DFR=  0.00D+00 which will be used.
 SCF Done:  E(RB3LYP) =  -605.231866442     a.u. after   23 cycles
            Convg  =    0.2357D-06                    93 Fock formations.
              S**2 =  0.0000                  -V/T =  2.0088
 DoSCS=F DFT=T ScalE2(SS,OS)=  1.000000  1.000000
 Range of M.O.s used for correlation:     1   204
 NBasis=   204 NAE=    46 NBE=    46 NFC=     0 NFV=     0
 NROrb=    204 NOA=    46 NOB=    46 NVA=   158 NVB=   158
 Symmetrizing basis deriv contribution to polar:
 IMax=3 JMax=2 DiffMx= 0.00D+00
 G2DrvN: will do    25 centers at a time, making    1 passes.
 Calling FoFCou, ICntrl=  3107 FMM=F I1Cent=   0 AccDes= 0.00D+00.
 End of G2Drv F.D. properties file   721 does not exist.
 End of G2Drv F.D. properties file   722 does not exist.
 End of G2Drv F.D. properties file   788 does not exist.
          IDoAtm=111111111111111111111111
          Differentiating once with respect to electric field.
                with respect to dipole field.
          Differentiating once with respect to nuclear coordinates.
 Keep R1 ints in memory in canonical form, NReq=222943300.
          There are    75 degrees of freedom in the 1st order CPHF.  IDoFFX=6 NUNeed=     3.
     72 vectors produced by pass  0 Test12= 9.69D-15 1.33D-09 XBig12= 1.39D+02 7.13D+00.
 AX will form    72 AO Fock derivatives at one time.
     72 vectors produced by pass  1 Test12= 9.69D-15 1.33D-09 XBig12= 3.76D+01 1.67D+00.
     72 vectors produced by pass  2 Test12= 9.69D-15 1.33D-09 XBig12= 4.13D-01 1.38D-01.
     72 vectors produced by pass  3 Test12= 9.69D-15 1.33D-09 XBig12= 2.10D-03 7.17D-03.
     72 vectors produced by pass  4 Test12= 9.69D-15 1.33D-09 XBig12= 2.55D-06 1.55D-04.
     48 vectors produced by pass  5 Test12= 9.69D-15 1.33D-09 XBig12= 1.88D-09 4.67D-06.
      9 vectors produced by pass  6 Test12= 9.69D-15 1.33D-09 XBig12= 1.52D-12 1.78D-07.
      3 vectors produced by pass  7 Test12= 9.69D-15 1.33D-09 XBig12= 1.17D-15 5.16D-09.
 InvSVY:  IOpt=1 It=  1 EMax= 7.11D-15
 Solved reduced A of dimension   420 with    75 vectors.
 Isotropic polarizability for W=    0.000000      106.86 Bohr**3.
 End of Minotr F.D. properties file   721 does not exist.
 End of Minotr F.D. properties file   722 does not exist.
 End of Minotr F.D. properties file   788 does not exist.
 Calling FoFJK, ICntrl=    100127 FMM=F ISym2X=0 I1Cent= 0 IOpClX= 0 NMat=1 NMatS=1 NMatT=0.
 ***** Axes restored to original set *****
 -------------------------------------------------------------------
 Center     Atomic                   Forces (Hartrees/Bohr)
 Number     Number              X              Y              Z
 -------------------------------------------------------------------
      1        6           0.029711764   -0.046476989   -0.038221845
      2        8          -0.014677345    0.008899779    0.011802003
      3        7           0.017319306    0.038120163    0.017556909
      4        7           0.003713051   -0.026171304   -0.021494176
      5        6          -0.024070722    0.080634034    0.033222780
      6        8          -0.004255557   -0.013816841   -0.006491914
      7        7           0.028695824   -0.024042859    0.002126937
      8        6          -0.003113847    0.003991284    0.000759316
      9        6          -0.000282801    0.000382717   -0.000741252
     10        7           0.000816901    0.023020847    0.012369561
     11        6          -0.005197873   -0.023440088   -0.013394098
     12        6           0.000515124    0.002765014    0.001946912
     13        1           0.002364624    0.003541017    0.003030218
     14        1          -0.003452799   -0.001011861   -0.003179945
     15        1          -0.004412902   -0.001058915   -0.001999235
     16        1           0.002574383   -0.006501437   -0.002748412
     17        1          -0.003453354    0.001905502    0.000617062
     18        1          -0.002915755    0.002648316   -0.000397651
     19        1          -0.007460098   -0.015676195    0.001152924
     20        1          -0.004391482   -0.003505735    0.003329076
     21        1          -0.004544719   -0.003943981    0.000430350
     22        1          -0.003053569    0.006949239    0.002738239
     23        1          -0.000252907   -0.003165418   -0.001845951
     24        1          -0.000175246   -0.004046286   -0.000567810
[...]
    13  H    0.000004   0.000000   0.000000  -0.000001  -0.000000  -0.000000
    14  H    0.000000  -0.000000   0.000000  -0.000000   0.000000  -0.000000
    15  H    0.000000  -0.000000  -0.000000   0.000000  -0.000000   0.000000
    16  H   -0.000001   0.000000  -0.000000  -0.000000  -0.000000   0.000000
    17  H   -0.000000   0.000000  -0.000000   0.000000   0.000000   0.000000
    18  H   -0.000000  -0.000000   0.000000  -0.000000   0.000000   0.000000
    19  H    0.471949  -0.021872  -0.023944  -0.000194  -0.000061  -0.000014
    20  H   -0.021872   0.573601  -0.044226  -0.000000  -0.001774   0.006216
    21  H   -0.023944  -0.044226   0.576909  -0.000117   0.005883  -0.001590
    22  H   -0.000194  -0.000000  -0.000117   0.483896  -0.024600  -0.022221
    23  H   -0.000061  -0.001774   0.005883  -0.024600   0.565910  -0.042004
    24  H   -0.000014   0.006216  -0.001590  -0.022221  -0.042004   0.568095
 Mulliken charges:
               1
     1  C    0.704225
     2  O   -0.463691
     3  N   -0.277718
     4  N   -0.277726
     5  C    0.704234
     6  O   -0.463693
     7  N   -0.386809
     8  C   -0.322031
     9  C   -0.320153
    10  N   -0.386798
    11  C   -0.322036
    12  C   -0.320154
    13  H    0.219712
    14  H    0.160689
    15  H    0.158813
    16  H    0.203668
    17  H    0.160977
    18  H    0.162314
    19  H    0.219717
    20  H    0.158812
    21  H    0.160689
    22  H    0.203668
    23  H    0.162313
    24  H    0.160979
 Sum of Mulliken charges =  -0.00000
 Mulliken charges with hydrogens summed into heavy atoms:
               1
     1  C    0.704225
     2  O   -0.463691
     3  N   -0.277718
     4  N   -0.277726
     5  C    0.704234
     6  O   -0.463693
     7  N   -0.386809
     8  C    0.217183
     9  C    0.206806
    10  N   -0.386798
    11  C    0.217183
    12  C    0.206806
 Electronic spatial extent (au):  <R**2>=           2861.8427
 Charge=             -0.0000 electrons
 Dipole moment (field-independent basis, Debye):
    X=              0.0001    Y=             -0.0001    Z=              0.0007  Tot=              0.0007
 Quadrupole moment (field-independent basis, Debye-Ang):
   XX=            -46.6829   YY=            -77.3291   ZZ=            -70.9913
   XY=             10.5422   XZ=             -1.1218   YZ=              0.4904
 Traceless Quadrupole moment (field-independent basis, Debye-Ang):
   XX=             18.3182   YY=            -12.3280   ZZ=             -5.9902
   XY=             10.5422   XZ=             -1.1218   YZ=              0.4904
 Octapole moment (field-independent basis, Debye-Ang**2):
  XXX=              0.0008  YYY=             -0.0008  ZZZ=             -0.0006  XYY=              0.0011
  XXY=             -0.0010  XXZ=              0.0022  XZZ=              0.0002  YZZ=              0.0000
  YYZ=              0.0025  XYZ=             -0.0010
 Hexadecapole moment (field-independent basis, Debye-Ang**3):
 XXXX=          -2587.9722 YYYY=           -646.0296 ZZZZ=           -110.8787 XXXY=             -4.1791
 XXXZ=             -3.2775 YYYX=             33.1056 YYYZ=              2.8212 ZZZX=             -2.3651
 ZZZY=             -2.7721 XXYY=           -593.5622 XXZZ=           -502.7572 YYZZ=           -118.9325
 XXYZ=              5.6992 YYXZ=              0.6880 ZZXY=             -0.7752
 N-N= 7.215931254287D+02 E-N=-2.854460708323D+03  KE= 5.997741155997D+02
 Evaluate density.
 Using the total density.
 Monte-Carlo method of calculating molar volume:
 based on  0.001 e/bohr**3 density envelope.
 Number of points per bohr**3 =   20 CutOff= 1.00D-04
 Using the CI density.
 There are       391 points.  Will hold       391 in memory.
 LenV=   805183220 MDV=   805306368.
 Box volume = 7473.244 fraction occupied=0.189
 Integrated density= 6.7884705157378065D+01 error=-2.4115294842621935D+01
 Molar volume = 1414.374 bohr**3/mol (126.217 cm**3/mol)
 Recommended a0 for SCRF calculation =  4.56 angstrom (  8.61 bohr)
 ******************************Gaussian NBO Version 3.1******************************
             N A T U R A L   A T O M I C   O R B I T A L   A N D
          N A T U R A L   B O N D   O R B I T A L   A N A L Y S I S
 ******************************Gaussian NBO Version 3.1******************************
       /RESON  / : Allow strongly delocalized NBO set

 Analyzing the CI density

 Job title: Title Card Required                                             

 Storage needed:    126804 in NPA ( 805303248 available)


 NATURAL POPULATIONS:  Natural atomic orbital occupancies 
                                                          
   NAO  Atom  No  lang   Type(AO)    Occupancy
 --------------------------------------------
     1    C    1  S      Cor( 1S)     1.99935
     2    C    1  S      Val( 2S)     0.73540
     3    C    1  S      Ryd( 3S)     0.00442
     4    C    1  S      Ryd( 4S)     0.00038
     5    C    1  px     Val( 2p)     0.83532
     6    C    1  px     Ryd( 3p)     0.00861
     7    C    1  py     Val( 2p)     0.76704
     8    C    1  py     Ryd( 3p)     0.01945
     9    C    1  pz     Val( 2p)     0.82499
    10    C    1  pz     Ryd( 3p)     0.00357
    11    C    1  dxy    Ryd( 3d)     0.00349
    12    C    1  dxz    Ryd( 3d)     0.00167
    13    C    1  dyz    Ryd( 3d)     0.00259
    14    C    1  dx2y2  Ryd( 3d)     0.00180
    15    C    1  dz2    Ryd( 3d)     0.00041
 
    16    O    2  S      Cor( 1S)     1.99979
    17    O    2  S      Val( 2S)     1.70335
    18    O    2  S      Ryd( 3S)     0.00079
    19    O    2  S      Ryd( 4S)     0.00008
    20    O    2  px     Val( 2p)     1.73135
    21    O    2  px     Ryd( 3p)     0.00156
    22    O    2  py     Val( 2p)     1.57373
    23    O    2  py     Ryd( 3p)     0.00032
    24    O    2  pz     Val( 2p)     1.54198
    25    O    2  pz     Ryd( 3p)     0.00095
    26    O    2  dxy    Ryd( 3d)     0.00447
    27    O    2  dxz    Ryd( 3d)     0.00005
    28    O    2  dyz    Ryd( 3d)     0.00480
    29    O    2  dx2y2  Ryd( 3d)     0.00435
    30    O    2  dz2    Ryd( 3d)     0.00134
 
    31    N    3  S      Cor( 1S)     1.99941
    32    N    3  S      Val( 2S)     1.40063
    33    N    3  S      Ryd( 3S)     0.00616
    34    N    3  S      Ryd( 4S)     0.00004
    35    N    3  px     Val( 2p)     1.13241
    36    N    3  px     Ryd( 3p)     0.00393
    37    N    3  py     Val( 2p)     1.41814
    38    N    3  py     Ryd( 3p)     0.00422
    39    N    3  pz     Val( 2p)     1.26951
    40    N    3  pz     Ryd( 3p)     0.00447
    41    N    3  dxy    Ryd( 3d)     0.00118
    42    N    3  dxz    Ryd( 3d)     0.00137
    43    N    3  dyz    Ryd( 3d)     0.00189
    44    N    3  dx2y2  Ryd( 3d)     0.00076
    45    N    3  dz2    Ryd( 3d)     0.00229
 
    46    N    4  S      Cor( 1S)     1.99941
    47    N    4  S      Val( 2S)     1.40064
    48    N    4  S      Ryd( 3S)     0.00616
    49    N    4  S      Ryd( 4S)     0.00004
    50    N    4  px     Val( 2p)     1.13241
    51    N    4  px     Ryd( 3p)     0.00393
    52    N    4  py     Val( 2p)     1.41815
    53    N    4  py     Ryd( 3p)     0.00422
    54    N    4  pz     Val( 2p)     1.26951
    55    N    4  pz     Ryd( 3p)     0.00447
    56    N    4  dxy    Ryd( 3d)     0.00118
    57    N    4  dxz    Ryd( 3d)     0.00137
    58    N    4  dyz    Ryd( 3d)     0.00189
    59    N    4  dx2y2  Ryd( 3d)     0.00076
    60    N    4  dz2    Ryd( 3d)     0.00229
 
    61    C    5  S      Cor( 1S)     1.99935
    62    C    5  S      Val( 2S)     0.73540
    63    C    5  S      Ryd( 3S)     0.00442
    64    C    5  S      Ryd( 4S)     0.00038
    65    C    5  px     Val( 2p)     0.83532
    66    C    5  px     Ryd( 3p)     0.00861
    67    C    5  py     Val( 2p)     0.76704
    68    C    5  py     Ryd( 3p)     0.01945
    69    C    5  pz     Val( 2p)     0.82499
    70    C    5  pz     Ryd( 3p)     0.00357
    71    C    5  dxy    Ryd( 3d)     0.00349
    72    C    5  dxz    Ryd( 3d)     0.00167
    73    C    5  dyz    Ryd( 3d)     0.00259
    74    C    5  dx2y2  Ryd( 3d)     0.00180
    75    C    5  dz2    Ryd( 3d)     0.00041
 
    76    O    6  S      Cor( 1S)     1.99979
    77    O    6  S      Val( 2S)     1.70335
    78    O    6  S      Ryd( 3S)     0.00079
    79    O    6  S      Ryd( 4S)     0.00008
    80    O    6  px     Val( 2p)     1.73135
    81    O    6  px     Ryd( 3p)     0.00156
    82    O    6  py     Val( 2p)     1.57373
    83    O    6  py     Ryd( 3p)     0.00032
    84    O    6  pz     Val( 2p)     1.54199
    85    O    6  pz     Ryd( 3p)     0.00095
    86    O    6  dxy    Ryd( 3d)     0.00447
    87    O    6  dxz    Ryd( 3d)     0.00005
    88    O    6  dyz    Ryd( 3d)     0.00480
    89    O    6  dx2y2  Ryd( 3d)     0.00435
    90    O    6  dz2    Ryd( 3d)     0.00134
 
    91    N    7  S      Cor( 1S)     1.99930
    92    N    7  S      Val( 2S)     1.20776
    93    N    7  S      Ryd( 3S)     0.00116
    94    N    7  S      Ryd( 4S)     0.00005
    95    N    7  px     Val( 2p)     1.29405
    96    N    7  px     Ryd( 3p)     0.00119
    97    N    7  py     Val( 2p)     1.29363
    98    N    7  py     Ryd( 3p)     0.00128
    99    N    7  pz     Val( 2p)     1.65295
   100    N    7  pz     Ryd( 3p)     0.00407
   101    N    7  dxy    Ryd( 3d)     0.00080
   102    N    7  dxz    Ryd( 3d)     0.00061
   103    N    7  dyz    Ryd( 3d)     0.00050
   104    N    7  dx2y2  Ryd( 3d)     0.00059
   105    N    7  dz2    Ryd( 3d)     0.00050
 
   106    C    8  S      Cor( 1S)     1.99945
   107    C    8  S      Val( 2S)     1.08828
   108    C    8  S      Ryd( 3S)     0.00104
   109    C    8  S      Ryd( 4S)     0.00002
   110    C    8  px     Val( 2p)     1.27471
   111    C    8  px     Ryd( 3p)     0.00320
   112    C    8  py     Val( 2p)     0.85928
   113    C    8  py     Ryd( 3p)     0.00208
   114    C    8  pz     Val( 2p)     1.23895
   115    C    8  pz     Ryd( 3p)     0.00085
   116    C    8  dxy    Ryd( 3d)     0.00051
   117    C    8  dxz    Ryd( 3d)     0.00074
   118    C    8  dyz    Ryd( 3d)     0.00119
   119    C    8  dx2y2  Ryd( 3d)     0.00131
   120    C    8  dz2    Ryd( 3d)     0.00084
 
   121    C    9  S      Cor( 1S)     1.99947
   122    C    9  S      Val( 2S)     1.08839
   123    C    9  S      Ryd( 3S)     0.00094
   124    C    9  S      Ryd( 4S)     0.00002
   125    C    9  px     Val( 2p)     0.92325
   126    C    9  px     Ryd( 3p)     0.00214
   127    C    9  py     Val( 2p)     1.21891
   128    C    9  py     Ryd( 3p)     0.00310
   129    C    9  pz     Val( 2p)     1.22835
   130    C    9  pz     Ryd( 3p)     0.00113
   131    C    9  dxy    Ryd( 3d)     0.00072
   132    C    9  dxz    Ryd( 3d)     0.00142
   133    C    9  dyz    Ryd( 3d)     0.00045
   134    C    9  dx2y2  Ryd( 3d)     0.00114
   135    C    9  dz2    Ryd( 3d)     0.00090
 
   136    N   10  S      Cor( 1S)     1.99930
   137    N   10  S      Val( 2S)     1.20776
   138    N   10  S      Ryd( 3S)     0.00116
   139    N   10  S      Ryd( 4S)     0.00005
   140    N   10  px     Val( 2p)     1.29405
   141    N   10  px     Ryd( 3p)     0.00119
   142    N   10  py     Val( 2p)     1.29363
   143    N   10  py     Ryd( 3p)     0.00128
   144    N   10  pz     Val( 2p)     1.65295
   145    N   10  pz     Ryd( 3p)     0.00407
   146    N   10  dxy    Ryd( 3d)     0.00080
   147    N   10  dxz    Ryd( 3d)     0.00061
   148    N   10  dyz    Ryd( 3d)     0.00050
   149    N   10  dx2y2  Ryd( 3d)     0.00059
   150    N   10  dz2    Ryd( 3d)     0.00050
 
   151    C   11  S      Cor( 1S)     1.99945
   152    C   11  S      Val( 2S)     1.08828
   153    C   11  S      Ryd( 3S)     0.00104
   154    C   11  S      Ryd( 4S)     0.00002
   155    C   11  px     Val( 2p)     1.27470
   156    C   11  px     Ryd( 3p)     0.00320
   157    C   11  py     Val( 2p)     0.85928
   158    C   11  py     Ryd( 3p)     0.00208
   159    C   11  pz     Val( 2p)     1.23895
   160    C   11  pz     Ryd( 3p)     0.00086
   161    C   11  dxy    Ryd( 3d)     0.00051
   162    C   11  dxz    Ryd( 3d)     0.00074
   163    C   11  dyz    Ryd( 3d)     0.00119
   164    C   11  dx2y2  Ryd( 3d)     0.00131
   165    C   11  dz2    Ryd( 3d)     0.00084
 
   166    C   12  S      Cor( 1S)     1.99947
   167    C   12  S      Val( 2S)     1.08839
   168    C   12  S      Ryd( 3S)     0.00094
   169    C   12  S      Ryd( 4S)     0.00002
   170    C   12  px     Val( 2p)     0.92324
   171    C   12  px     Ryd( 3p)     0.00214
   172    C   12  py     Val( 2p)     1.21892
   173    C   12  py     Ryd( 3p)     0.00310
   174    C   12  pz     Val( 2p)     1.22836
   175    C   12  pz     Ryd( 3p)     0.00113
   176    C   12  dxy    Ryd( 3d)     0.00072
   177    C   12  dxz    Ryd( 3d)     0.00142
   178    C   12  dyz    Ryd( 3d)     0.00045
   179    C   12  dx2y2  Ryd( 3d)     0.00114
   180    C   12  dz2    Ryd( 3d)     0.00090
 
   181    H   13  S      Val( 1S)     0.73208
   182    H   13  S      Ryd( 2S)     0.00190
 
   183    H   14  S      Val( 1S)     0.77511
   184    H   14  S      Ryd( 2S)     0.00155
 
   185    H   15  S      Val( 1S)     0.77316
   186    H   15  S      Ryd( 2S)     0.00135
 
   187    H   16  S      Val( 1S)     0.73793
   188    H   16  S      Ryd( 2S)     0.00171
 
   189    H   17  S      Val( 1S)     0.77339
   190    H   17  S      Ryd( 2S)     0.00128
 
   191    H   18  S      Val( 1S)     0.77424
   192    H   18  S      Ryd( 2S)     0.00127
 
   193    H   19  S      Val( 1S)     0.73208
   194    H   19  S      Ryd( 2S)     0.00190
 
   195    H   20  S      Val( 1S)     0.77316
   196    H   20  S      Ryd( 2S)     0.00135
 
   197    H   21  S      Val( 1S)     0.77511
   198    H   21  S      Ryd( 2S)     0.00155
 
   199    H   22  S      Val( 1S)     0.73793
   200    H   22  S      Ryd( 2S)     0.00171
 
   201    H   23  S      Val( 1S)     0.77424
   202    H   23  S      Ryd( 2S)     0.00127
 
   203    H   24  S      Val( 1S)     0.77339
   204    H   24  S      Ryd( 2S)     0.00128


 Summary of Natural Population Analysis:                  
                                                          
                                       Natural Population 
                Natural  -----------------------------------------------
    Atom  No    Charge         Core      Valence    Rydberg      Total
 -----------------------------------------------------------------------
      C    1    0.79150      1.99935     3.16275    0.04640     5.20850
      O    2   -0.56891      1.99979     6.55041    0.01871     8.56891
      N    3   -0.24642      1.99941     5.22070    0.02631     7.24642
      N    4   -0.24643      1.99941     5.22071    0.02631     7.24643
      C    5    0.79150      1.99935     3.16275    0.04640     5.20850
      O    6   -0.56891      1.99979     6.55041    0.01871     8.56891
      N    7   -0.45844      1.99930     5.44839    0.01076     7.45844
      C    8   -0.47244      1.99945     4.46122    0.01177     6.47244
      C    9   -0.47032      1.99947     4.45889    0.01196     6.47032
      N   10   -0.45844      1.99930     5.44839    0.01076     7.45844
      C   11   -0.47244      1.99945     4.46122    0.01177     6.47244
      C   12   -0.47032      1.99947     4.45890    0.01196     6.47032
      H   13    0.26602      0.00000     0.73208    0.00190     0.73398
      H   14    0.22334      0.00000     0.77511    0.00155     0.77666
      H   15    0.22548      0.00000     0.77316    0.00135     0.77452
      H   16    0.26036      0.00000     0.73793    0.00171     0.73964
      H   17    0.22533      0.00000     0.77339    0.00128     0.77467
      H   18    0.22449      0.00000     0.77424    0.00127     0.77551
      H   19    0.26602      0.00000     0.73208    0.00190     0.73398
      H   20    0.22549      0.00000     0.77316    0.00135     0.77451
      H   21    0.22334      0.00000     0.77511    0.00155     0.77666
      H   22    0.26036      0.00000     0.73793    0.00171     0.73964
      H   23    0.22449      0.00000     0.77424    0.00127     0.77551
      H   24    0.22533      0.00000     0.77339    0.00128     0.77467
 =======================================================================
   * Total *   -0.00000     23.99350    67.73657    0.26992    92.00000

                                 Natural Population      
 --------------------------------------------------------
   Core                      23.99350 ( 99.9729% of  24)
   Valence                   67.73657 ( 99.6126% of  68)
   Natural Minimal Basis     91.73008 ( 99.7066% of  92)
   Natural Rydberg Basis      0.26992 (  0.2934% of  92)
 --------------------------------------------------------

    Atom  No          Natural Electron Configuration
 ----------------------------------------------------------------------------
      C    1      [core]2S( 0.74)2p( 2.43)3p( 0.03)3d( 0.01)
      O    2      [core]2S( 1.70)2p( 4.85)3d( 0.02)
      N    3      [core]2S( 1.40)2p( 3.82)3S( 0.01)3p( 0.01)3d( 0.01)
      N    4      [core]2S( 1.40)2p( 3.82)3S( 0.01)3p( 0.01)3d( 0.01)
      C    5      [core]2S( 0.74)2p( 2.43)3p( 0.03)3d( 0.01)
      O    6      [core]2S( 1.70)2p( 4.85)3d( 0.02)
      N    7      [core]2S( 1.21)2p( 4.24)3p( 0.01)
      C    8      [core]2S( 1.09)2p( 3.37)3p( 0.01)
      C    9      [core]2S( 1.09)2p( 3.37)3p( 0.01)
      N   10      [core]2S( 1.21)2p( 4.24)3p( 0.01)
      C   11      [core]2S( 1.09)2p( 3.37)3p( 0.01)
      C   12      [core]2S( 1.09)2p( 3.37)3p( 0.01)
      H   13            1S( 0.73)
      H   14            1S( 0.78)
      H   15            1S( 0.77)
      H   16            1S( 0.74)
      H   17            1S( 0.77)
      H   18            1S( 0.77)
      H   19            1S( 0.73)
      H   20            1S( 0.77)
      H   21            1S( 0.78)
      H   22            1S( 0.74)
      H   23            1S( 0.77)
      H   24            1S( 0.77)


 NBO analysis skipped by request.
 1\1\GINC-DELLA-R1C3N2\SP\RB3LYP TD-FC\6-31G(d)\C6H12N4O2\BJS4\22-Aug-2
 020\0\\# TD(NStates=10, Root=1) B3LYP/6-31G* scf=qc volume pop=NPA den
 sity=current Geom=AllCheck Guess=Read\\Title Card Required\\0,1\C,0,-0
 .3795155122,-0.3360266491,-0.4361919356\O,0,-0.3002623885,0.0104646584
 ,-1.6032241036\N,0,-0.9261383825,0.5947125611,0.5521482394\N,0,-2.1494
 363679,0.7670771529,0.4108326881\C,0,-2.6960242688,1.6978281224,1.3991
 921937\O,0,-2.7750631108,1.3514299631,2.5662658553\N,0,-3.1785486466,2
 .8440952713,0.8569658495\C,0,-3.0006395553,3.2129072063,-0.5420740179\
 C,0,-3.83545805,3.8134046,1.7212556075\N,0,0.1028132552,-1.4823719318,
 0.1060242803\C,0,-0.0753571585,-1.8512520425,1.5050088309\C,0,0.759759
 9216,-2.4516891912,-0.758222383\H,0,-2.5676443272,2.3845081331,-1.1029
 017789\H,0,-2.3373700676,4.0834370488,-0.6306682199\H,0,-3.9708495491,
 3.4696706079,-0.9847271084\H,0,-3.9043185073,3.3944572673,2.7247323418
 \H,0,-4.8420212151,4.0331017385,1.3439710856\H,0,-3.2635255609,4.74955
 38409,1.7552058817\H,0,-0.5082802962,-1.0228171317,2.0658420835\H,0,0.
 8947482552,-2.1082048585,1.9477805954\H,0,-0.7387869337,-2.7216758402,
 1.5934576532\H,0,0.8287512385,-2.032707808,-1.7616766679\H,0,0.1877756
 352,-3.3878033423,-0.7922655013\H,0,1.7662715925,-2.6714593767,-0.3808
 414694\\Version=ES64L-G16RevA.03\State=1-A\HF=-605.2793301\RMSD=2.872e
 -13\Dipole=-0.0002432,-0.0001258,-0.0000232\Quadrupole=0.2049141,10.49
 41391,-10.6990532,-9.2790653,2.8940999,-0.3545424\PG=C01 [X(C6H12N4O2)
 ]\\@


 MY GROUP MEETINGS AREN'T VERY STRUCTURED.
     -- PROF. M. S. GORDON, OCT. 5, 1984
 Job cpu time:       0 days  0 hours 17 minutes 24.0 seconds.
 Elapsed time:       0 days  0 hours  5 minutes 55.0 seconds.
 File lengths (MBytes):  RWF=    400 Int=      0 D2E=      0 Chk=     24 Scr=      1
 Normal termination of Gaussian 16 at Sat Aug 22 18:09:10 2020.
