 Entering Gaussian System, Link 0=g16
 Input=azadicarboxylate_1_conf23123.com
 Output=azadicarboxylate_1_conf23123.log
 Initial command:
 /opt/export//g16/l1.exe "/scratch/bjs4/job.169246/Gau-169248.inp" -scrdir="/scratch/bjs4/job.169246/"
 Entering Link 1 = /opt/export//g16/l1.exe PID=    169249.
  
 Copyright (c) 1988,1990,1992,1993,1995,1998,2003,2009,2016,
            Gaussian, Inc.  All Rights Reserved.
  
 This is part of the Gaussian(R) 16 program.  It is based on
 the Gaussian(R) 09 system (copyright 2009, Gaussian, Inc.),
 the Gaussian(R) 03 system (copyright 2003, Gaussian, Inc.),
 the Gaussian(R) 98 system (copyright 1998, Gaussian, Inc.),
 the Gaussian(R) 94 system (copyright 1995, Gaussian, Inc.),
 the Gaussian 92(TM) system (copyright 1992, Gaussian, Inc.),
 the Gaussian 90(TM) system (copyright 1990, Gaussian, Inc.),
 the Gaussian 88(TM) system (copyright 1988, Gaussian, Inc.),
 the Gaussian 86(TM) system (copyright 1986, Carnegie Mellon
 University), and the Gaussian 82(TM) system (copyright 1983,
 Carnegie Mellon University). Gaussian is a federally registered
 trademark of Gaussian, Inc.
  
 This software contains proprietary and confidential information,
 including trade secrets, belonging to Gaussian, Inc.
  
 This software is provided under written license and may be
 used, copied, transmitted, or stored only in accord with that
 written license.
  
 The following legend is applicable only to US Government
 contracts under FAR:
  
                    RESTRICTED RIGHTS LEGEND
  
 Use, reproduction and disclosure by the US Government is
 subject to restrictions as set forth in subparagraphs (a)
 and (c) of the Commercial Computer Software - Restricted
 Rights clause in FAR 52.227-19.
  
 Gaussian, Inc.
 340 Quinnipiac St., Bldg. 40, Wallingford CT 06492
  
  
 ---------------------------------------------------------------
 Warning -- This program may not be used in any manner that
 competes with the business of Gaussian, Inc. or will provide
 assistance to any competitor of Gaussian, Inc.  The licensee
 of this program is prohibited from giving any competitor of
 Gaussian, Inc. access to this program.  By using this program,
 the user acknowledges that Gaussian, Inc. is engaged in the
 business of creating and licensing software in the field of
 computational chemistry and represents and warrants to the
 licensee that it is not a competitor of Gaussian, Inc. and that
 it will not use this program in any manner prohibited above.
 ---------------------------------------------------------------
  

 Cite this work as:
 Gaussian 16, Revision A.03,
 M. J. Frisch, G. W. Trucks, H. B. Schlegel, G. E. Scuseria, 
 M. A. Robb, J. R. Cheeseman, G. Scalmani, V. Barone, 
 G. A. Petersson, H. Nakatsuji, X. Li, M. Caricato, A. V. Marenich, 
 J. Bloino, B. G. Janesko, R. Gomperts, B. Mennucci, H. P. Hratchian, 
 J. V. Ortiz, A. F. Izmaylov, J. L. Sonnenberg, D. Williams-Young, 
 F. Ding, F. Lipparini, F. Egidi, J. Goings, B. Peng, A. Petrone, 
 T. Henderson, D. Ranasinghe, V. G. Zakrzewski, J. Gao, N. Rega, 
 G. Zheng, W. Liang, M. Hada, M. Ehara, K. Toyota, R. Fukuda, 
 J. Hasegawa, M. Ishida, T. Nakajima, Y. Honda, O. Kitao, H. Nakai, 
 T. Vreven, K. Throssell, J. A. Montgomery, Jr., J. E. Peralta, 
 F. Ogliaro, M. J. Bearpark, J. J. Heyd, E. N. Brothers, K. N. Kudin, 
 V. N. Staroverov, T. A. Keith, R. Kobayashi, J. Normand, 
 K. Raghavachari, A. P. Rendell, J. C. Burant, S. S. Iyengar, 
 J. Tomasi, M. Cossi, J. M. Millam, M. Klene, C. Adamo, R. Cammi, 
 J. W. Ochterski, R. L. Martin, K. Morokuma, O. Farkas, 
 J. B. Foresman, and D. J. Fox, Gaussian, Inc., Wallingford CT, 2016.
 
 ******************************************
 Gaussian 16:  ES64L-G16RevA.03 25-Dec-2016
                22-Aug-2020 
 ******************************************
 %nprocshared=5
 Will use up to    5 processors via shared memory.
 %Mem=10GB
 %Chk=azadicarboxylate_1_conf231.chk
 ---------------------------------
 # opt=CalcAll B3LYP/6-31G* scf=qc
 ---------------------------------
 1/10=4,18=20,19=15,26=3,38=1/1,3;
 2/9=110,12=2,17=6,18=5,40=1/2;
 3/5=1,6=6,7=1,11=2,25=1,30=1,71=2,74=-5,140=1/1,2,3;
 4//1;
 5/5=2,8=3,38=5/8;
 8/6=4,10=90,11=11/1;
 11/6=1,8=1,9=11,15=111,16=1/1,2,10;
 10/6=1/2;
 6/7=2,8=2,9=2,10=2,18=1,28=1/1;
 7/10=1,25=1/1,2,3,16;
 1/10=4,18=20,19=15,26=3/3(3);
 2/9=110/2;
 7/8=1,9=1,25=1,44=-1/16;
 99//99;
 2/9=110/2;
 3/5=1,6=6,7=1,11=2,25=1,30=1,71=2,74=-5,140=1/1,2,3;
 4/5=5,16=3,69=1/1;
 5/5=2,8=3,38=5/8;
 8/6=4,10=90,11=11/1;
 11/6=1,8=1,9=11,15=111,16=1/1,2,10;
 10/6=1/2;
 7/10=1,25=1/1,2,3,16;
 1/10=4,18=20,19=15,26=3/3(-8);
 2/9=110/2;
 6/7=2,8=2,9=2,10=2,18=1,19=2,28=1/1;
 7/8=1,9=1,25=1,44=-1/16;
 99//99;
 -------------------
 Title Card Required
 -------------------
 Symbolic Z-matrix:
 Charge =  0 Multiplicity = 1
 C                     2.31944  -0.54292  -0.19039 
 C                     3.04841   0.80599  -0.23783 
 C                     4.18739   0.81492  -1.26544 
 C                     2.02714   1.87978  -0.65378 
 O1                    3.52151   1.18944   1.08243 
 C2                    4.6771    0.6551    1.5808 
 O3                    5.37661  -0.15416   0.98203 
 N4                    4.9172    1.1559    2.8418 
 N5                    6.1448    1.2226    3.0972 
 C6                    6.3853    1.7078    4.365 
 O7                    7.34196   1.4194    5.07495 
 O8                    5.38738   2.56735   4.7276 
 C                     5.41271   3.20933   6.02904 
 C                     6.68192   4.05169   6.2134 
 C                     4.20441   4.16179   6.05547 
 C                     5.22725   2.18327   7.15475 
 H                     1.88819  -0.79784  -1.16422 
 H                     1.51158  -0.51768   0.55026 
 H                     2.98086  -1.36344   0.10025 
 H                     3.81449   0.60676  -2.27427 
 H                     4.9565    0.07104  -1.04231 
 H                     4.68971   1.78897  -1.27693 
 H                     1.60914   1.6731   -1.64604 
 H                     2.48647   2.87462  -0.67588 
 H                     1.19873   1.93453   0.06185 
 H                     6.7836    4.77976   5.40032 
 H                     7.59062   3.44485   6.20222 
 H                     6.66331   4.59618   7.16375 
 H                     4.26851   4.90411   5.25131 
 H                     4.13423   4.69588   7.01006 
 H                     3.2674    3.61426   5.89959 
 H                     6.0525    1.46847   7.20621 
 H                     4.31617   1.5958    6.99225 
 H                     5.15467   2.67213   8.13213 
 

 GradGradGradGradGradGradGradGradGradGradGradGradGradGradGradGradGradGrad
 Berny optimization.
 Initialization pass.
                           ----------------------------
                           !    Initial Parameters    !
                           ! (Angstroms and Degrees)  !
 --------------------------                            --------------------------
 ! Name  Definition              Value          Derivative Info.                !
 --------------------------------------------------------------------------------
 ! R1    R(1,2)                  1.534          calculate D2E/DX2 analytically  !
 ! R2    R(1,17)                 1.0951         calculate D2E/DX2 analytically  !
 ! R3    R(1,18)                 1.0963         calculate D2E/DX2 analytically  !
 ! R4    R(1,19)                 1.0933         calculate D2E/DX2 analytically  !
 ! R5    R(2,3)                  1.5341         calculate D2E/DX2 analytically  !
 ! R6    R(2,4)                  1.5392         calculate D2E/DX2 analytically  !
 ! R7    R(2,5)                  1.4539         calculate D2E/DX2 analytically  !
 ! R8    R(3,20)                 1.0955         calculate D2E/DX2 analytically  !
 ! R9    R(3,21)                 1.093          calculate D2E/DX2 analytically  !
 ! R10   R(3,22)                 1.096          calculate D2E/DX2 analytically  !
 ! R11   R(4,23)                 1.0964         calculate D2E/DX2 analytically  !
 ! R12   R(4,24)                 1.096          calculate D2E/DX2 analytically  !
 ! R13   R(4,25)                 1.0961         calculate D2E/DX2 analytically  !
 ! R14   R(5,6)                  1.3672         calculate D2E/DX2 analytically  !
 ! R15   R(6,7)                  1.2259         calculate D2E/DX2 analytically  !
 ! R16   R(6,8)                  1.3779         calculate D2E/DX2 analytically  !
 ! R17   R(8,9)                  1.2557         calculate D2E/DX2 analytically  !
 ! R18   R(9,10)                 1.3786         calculate D2E/DX2 analytically  !
 ! R19   R(10,11)                1.2257         calculate D2E/DX2 analytically  !
 ! R20   R(10,12)                1.3661         calculate D2E/DX2 analytically  !
 ! R21   R(12,13)                1.4514         calculate D2E/DX2 analytically  !
 ! R22   R(13,14)                1.5344         calculate D2E/DX2 analytically  !
 ! R23   R(13,15)                1.5388         calculate D2E/DX2 analytically  !
 ! R24   R(13,16)                1.5344         calculate D2E/DX2 analytically  !
 ! R25   R(14,26)                1.0961         calculate D2E/DX2 analytically  !
 ! R26   R(14,27)                1.0928         calculate D2E/DX2 analytically  !
 ! R27   R(14,28)                1.0954         calculate D2E/DX2 analytically  !
 ! R28   R(15,29)                1.0963         calculate D2E/DX2 analytically  !
 ! R29   R(15,30)                1.0961         calculate D2E/DX2 analytically  !
 ! R30   R(15,31)                1.0964         calculate D2E/DX2 analytically  !
 ! R31   R(16,32)                1.093          calculate D2E/DX2 analytically  !
 ! R32   R(16,33)                1.0962         calculate D2E/DX2 analytically  !
 ! R33   R(16,34)                1.0952         calculate D2E/DX2 analytically  !
 ! A1    A(2,1,17)             111.3656         calculate D2E/DX2 analytically  !
 ! A2    A(2,1,18)             110.5381         calculate D2E/DX2 analytically  !
 ! A3    A(2,1,19)             112.3763         calculate D2E/DX2 analytically  !
 ! A4    A(17,1,18)            108.4177         calculate D2E/DX2 analytically  !
 ! A5    A(17,1,19)            107.454          calculate D2E/DX2 analytically  !
 ! A6    A(18,1,19)            106.4694         calculate D2E/DX2 analytically  !
 ! A7    A(1,2,3)              112.2504         calculate D2E/DX2 analytically  !
 ! A8    A(1,2,4)              107.8491         calculate D2E/DX2 analytically  !
 ! A9    A(1,2,5)              111.0052         calculate D2E/DX2 analytically  !
 ! A10   A(3,2,4)              107.9118         calculate D2E/DX2 analytically  !
 ! A11   A(3,2,5)              111.4167         calculate D2E/DX2 analytically  !
 ! A12   A(4,2,5)              106.0997         calculate D2E/DX2 analytically  !
 ! A13   A(2,3,20)             111.2866         calculate D2E/DX2 analytically  !
 ! A14   A(2,3,21)             112.441          calculate D2E/DX2 analytically  !
 ! A15   A(2,3,22)             110.6391         calculate D2E/DX2 analytically  !
 ! A16   A(20,3,21)            107.3491         calculate D2E/DX2 analytically  !
 ! A17   A(20,3,22)            108.3743         calculate D2E/DX2 analytically  !
 ! A18   A(21,3,22)            106.5282         calculate D2E/DX2 analytically  !
 ! A19   A(2,4,23)             111.4717         calculate D2E/DX2 analytically  !
 ! A20   A(2,4,24)             111.1387         calculate D2E/DX2 analytically  !
 ! A21   A(2,4,25)             111.0936         calculate D2E/DX2 analytically  !
 ! A22   A(23,4,24)            108.2192         calculate D2E/DX2 analytically  !
 ! A23   A(23,4,25)            108.1898         calculate D2E/DX2 analytically  !
 ! A24   A(24,4,25)            106.5338         calculate D2E/DX2 analytically  !
 ! A25   A(2,5,6)              120.1955         calculate D2E/DX2 analytically  !
 ! A26   A(5,6,7)              124.2122         calculate D2E/DX2 analytically  !
 ! A27   A(5,6,8)              109.8054         calculate D2E/DX2 analytically  !
 ! A28   A(7,6,8)              125.981          calculate D2E/DX2 analytically  !
 ! A29   A(6,8,9)              112.0744         calculate D2E/DX2 analytically  !
 ! A30   A(8,9,10)             112.1045         calculate D2E/DX2 analytically  !
 ! A31   A(9,10,11)            125.8735         calculate D2E/DX2 analytically  !
 ! A32   A(9,10,12)            109.7618         calculate D2E/DX2 analytically  !
 ! A33   A(11,10,12)           124.3644         calculate D2E/DX2 analytically  !
 ! A34   A(10,12,13)           120.2369         calculate D2E/DX2 analytically  !
 ! A35   A(12,13,14)           111.4073         calculate D2E/DX2 analytically  !
 ! A36   A(12,13,15)           105.9906         calculate D2E/DX2 analytically  !
 ! A37   A(12,13,16)           111.0976         calculate D2E/DX2 analytically  !
 ! A38   A(14,13,15)           107.9175         calculate D2E/DX2 analytically  !
 ! A39   A(14,13,16)           112.2674         calculate D2E/DX2 analytically  !
 ! A40   A(15,13,16)           107.8421         calculate D2E/DX2 analytically  !
 ! A41   A(13,14,26)           110.6245         calculate D2E/DX2 analytically  !
 ! A42   A(13,14,27)           112.4419         calculate D2E/DX2 analytically  !
 ! A43   A(13,14,28)           111.2878         calculate D2E/DX2 analytically  !
 ! A44   A(26,14,27)           106.5069         calculate D2E/DX2 analytically  !
 ! A45   A(26,14,28)           108.3578         calculate D2E/DX2 analytically  !
 ! A46   A(27,14,28)           107.3994         calculate D2E/DX2 analytically  !
 ! A47   A(13,15,29)           111.1376         calculate D2E/DX2 analytically  !
 ! A48   A(13,15,30)           111.5207         calculate D2E/DX2 analytically  !
 ! A49   A(13,15,31)           111.0714         calculate D2E/DX2 analytically  !
 ! A50   A(29,15,30)           108.2185         calculate D2E/DX2 analytically  !
 ! A51   A(29,15,31)           106.4891         calculate D2E/DX2 analytically  !
 ! A52   A(30,15,31)           108.2063         calculate D2E/DX2 analytically  !
 ! A53   A(13,16,32)           112.371          calculate D2E/DX2 analytically  !
 ! A54   A(13,16,33)           110.492          calculate D2E/DX2 analytically  !
 ! A55   A(13,16,34)           111.3605         calculate D2E/DX2 analytically  !
 ! A56   A(32,16,33)           106.5014         calculate D2E/DX2 analytically  !
 ! A57   A(32,16,34)           107.4534         calculate D2E/DX2 analytically  !
 ! A58   A(33,16,34)           108.447          calculate D2E/DX2 analytically  !
 ! D1    D(17,1,2,3)           -59.3125         calculate D2E/DX2 analytically  !
 ! D2    D(17,1,2,4)            59.4277         calculate D2E/DX2 analytically  !
 ! D3    D(17,1,2,5)           175.2583         calculate D2E/DX2 analytically  !
 ! D4    D(18,1,2,3)          -179.8996         calculate D2E/DX2 analytically  !
 ! D5    D(18,1,2,4)           -61.1594         calculate D2E/DX2 analytically  !
 ! D6    D(18,1,2,5)            54.6712         calculate D2E/DX2 analytically  !
 ! D7    D(19,1,2,3)            61.3083         calculate D2E/DX2 analytically  !
 ! D8    D(19,1,2,4)          -179.9515         calculate D2E/DX2 analytically  !
 ! D9    D(19,1,2,5)           -64.1209         calculate D2E/DX2 analytically  !
 ! D10   D(1,2,3,20)            59.4902         calculate D2E/DX2 analytically  !
 ! D11   D(1,2,3,21)           -60.9847         calculate D2E/DX2 analytically  !
 ! D12   D(1,2,3,22)          -179.9622         calculate D2E/DX2 analytically  !
 ! D13   D(4,2,3,20)           -59.2131         calculate D2E/DX2 analytically  !
 ! D14   D(4,2,3,21)          -179.688          calculate D2E/DX2 analytically  !
 ! D15   D(4,2,3,22)            61.3346         calculate D2E/DX2 analytically  !
 ! D16   D(5,2,3,20)          -175.306          calculate D2E/DX2 analytically  !
 ! D17   D(5,2,3,21)            64.2191         calculate D2E/DX2 analytically  !
 ! D18   D(5,2,3,22)           -54.7584         calculate D2E/DX2 analytically  !
 ! D19   D(1,2,4,23)           -60.8741         calculate D2E/DX2 analytically  !
 ! D20   D(1,2,4,24)           178.3093         calculate D2E/DX2 analytically  !
 ! D21   D(1,2,4,25)            59.8739         calculate D2E/DX2 analytically  !
 ! D22   D(3,2,4,23)            60.6021         calculate D2E/DX2 analytically  !
 ! D23   D(3,2,4,24)           -60.2145         calculate D2E/DX2 analytically  !
 ! D24   D(3,2,4,25)          -178.6499         calculate D2E/DX2 analytically  !
 ! D25   D(5,2,4,23)          -179.8796         calculate D2E/DX2 analytically  !
 ! D26   D(5,2,4,24)            59.3039         calculate D2E/DX2 analytically  !
 ! D27   D(5,2,4,25)           -59.1315         calculate D2E/DX2 analytically  !
 ! D28   D(1,2,5,6)             80.4713         calculate D2E/DX2 analytically  !
 ! D29   D(3,2,5,6)            -45.4235         calculate D2E/DX2 analytically  !
 ! D30   D(4,2,5,6)           -162.6209         calculate D2E/DX2 analytically  !
 ! D31   D(2,5,6,7)             -0.0006         calculate D2E/DX2 analytically  !
 ! D32   D(2,5,6,8)           -179.5809         calculate D2E/DX2 analytically  !
 ! D33   D(5,6,8,9)           -149.6473         calculate D2E/DX2 analytically  !
 ! D34   D(7,6,8,9)             30.7816         calculate D2E/DX2 analytically  !
 ! D35   D(6,8,9,10)          -179.2377         calculate D2E/DX2 analytically  !
 ! D36   D(8,9,10,11)          149.647          calculate D2E/DX2 analytically  !
 ! D37   D(8,9,10,12)          -30.1468         calculate D2E/DX2 analytically  !
 ! D38   D(9,10,12,13)         179.7978         calculate D2E/DX2 analytically  !
 ! D39   D(11,10,12,13)          0.0003         calculate D2E/DX2 analytically  !
 ! D40   D(10,12,13,14)         59.2936         calculate D2E/DX2 analytically  !
 ! D41   D(10,12,13,15)        176.4288         calculate D2E/DX2 analytically  !
 ! D42   D(10,12,13,16)        -66.6869         calculate D2E/DX2 analytically  !
 ! D43   D(12,13,14,26)         55.12           calculate D2E/DX2 analytically  !
 ! D44   D(12,13,14,27)        -63.8212         calculate D2E/DX2 analytically  !
 ! D45   D(12,13,14,28)        175.6377         calculate D2E/DX2 analytically  !
 ! D46   D(15,13,14,26)        -60.8395         calculate D2E/DX2 analytically  !
 ! D47   D(15,13,14,27)       -179.7806         calculate D2E/DX2 analytically  !
 ! D48   D(15,13,14,28)         59.6783         calculate D2E/DX2 analytically  !
 ! D49   D(16,13,14,26)       -179.5478         calculate D2E/DX2 analytically  !
 ! D50   D(16,13,14,27)         61.5111         calculate D2E/DX2 analytically  !
 ! D51   D(16,13,14,28)        -59.0301         calculate D2E/DX2 analytically  !
 ! D52   D(12,13,15,29)        -59.3893         calculate D2E/DX2 analytically  !
 ! D53   D(12,13,15,30)        179.7623         calculate D2E/DX2 analytically  !
 ! D54   D(12,13,15,31)         58.9751         calculate D2E/DX2 analytically  !
 ! D55   D(14,13,15,29)         60.0628         calculate D2E/DX2 analytically  !
 ! D56   D(14,13,15,30)        -60.7856         calculate D2E/DX2 analytically  !
 ! D57   D(14,13,15,31)        178.4272         calculate D2E/DX2 analytically  !
 ! D58   D(16,13,15,29)       -178.4414         calculate D2E/DX2 analytically  !
 ! D59   D(16,13,15,30)         60.7102         calculate D2E/DX2 analytically  !
 ! D60   D(16,13,15,31)        -60.077          calculate D2E/DX2 analytically  !
 ! D61   D(12,13,16,32)         64.5402         calculate D2E/DX2 analytically  !
 ! D62   D(12,13,16,33)        -54.2577         calculate D2E/DX2 analytically  !
 ! D63   D(12,13,16,34)       -174.8471         calculate D2E/DX2 analytically  !
 ! D64   D(14,13,16,32)        -60.9614         calculate D2E/DX2 analytically  !
 ! D65   D(14,13,16,33)       -179.7593         calculate D2E/DX2 analytically  !
 ! D66   D(14,13,16,34)         59.6513         calculate D2E/DX2 analytically  !
 ! D67   D(15,13,16,32)       -179.7142         calculate D2E/DX2 analytically  !
 ! D68   D(15,13,16,33)         61.488          calculate D2E/DX2 analytically  !
 ! D69   D(15,13,16,34)        -59.1015         calculate D2E/DX2 analytically  !
 --------------------------------------------------------------------------------
 Trust Radius=3.00D-01 FncErr=1.00D-07 GrdErr=1.00D-06 EigMax=2.50D+02 EigMin=1.00D-04
 Number of steps in this run=    170 maximum allowed number of steps=    204.
 GradGradGradGradGradGradGradGradGradGradGradGradGradGradGradGradGradGrad

                          Input orientation:                          
 ---------------------------------------------------------------------
 Center     Atomic      Atomic             Coordinates (Angstroms)
 Number     Number       Type             X           Y           Z
 ---------------------------------------------------------------------
      1          6           0        2.319440   -0.542920   -0.190390
      2          6           0        3.048410    0.805990   -0.237830
      3          6           0        4.187390    0.814920   -1.265440
      4          6           0        2.027140    1.879780   -0.653780
      5          8           0        3.521510    1.189440    1.082430
      6          6           0        4.677100    0.655100    1.580800
      7          8           0        5.376610   -0.154160    0.982030
      8          7           0        4.917200    1.155900    2.841800
      9          7           0        6.144800    1.222600    3.097200
     10          6           0        6.385300    1.707800    4.365000
     11          8           0        7.341960    1.419400    5.074950
     12          8           0        5.387380    2.567350    4.727600
     13          6           0        5.412710    3.209330    6.029040
     14          6           0        6.681920    4.051690    6.213400
     15          6           0        4.204410    4.161790    6.055470
     16          6           0        5.227250    2.183270    7.154750
     17          1           0        1.888190   -0.797840   -1.164220
     18          1           0        1.511580   -0.517680    0.550260
     19          1           0        2.980860   -1.363440    0.100250
     20          1           0        3.814490    0.606760   -2.274270
     21          1           0        4.956500    0.071040   -1.042310
     22          1           0        4.689710    1.788970   -1.276930
     23          1           0        1.609140    1.673100   -1.646040
     24          1           0        2.486470    2.874620   -0.675880
     25          1           0        1.198730    1.934530    0.061850
     26          1           0        6.783600    4.779760    5.400320
     27          1           0        7.590620    3.444850    6.202220
     28          1           0        6.663310    4.596180    7.163750
     29          1           0        4.268510    4.904110    5.251310
     30          1           0        4.134230    4.695880    7.010060
     31          1           0        3.267400    3.614260    5.899590
     32          1           0        6.052500    1.468470    7.206210
     33          1           0        4.316170    1.595800    6.992250
     34          1           0        5.154670    2.672130    8.132130
 ---------------------------------------------------------------------
                    Distance matrix (angstroms):
                    1          2          3          4          5
     1  C    0.000000
     2  C    1.534016   0.000000
     3  C    2.547293   1.534059   0.000000
     4  C    2.483877   1.539166   2.484901   0.000000
     5  O    2.462948   1.453941   2.469039   2.392517   0.000000
     6  C    3.182912   2.445979   2.892480   3.676340   1.367216
     7  O    3.297270   2.798296   2.721118   4.246379   2.292758
     8  N    4.339185   3.619245   4.185488   4.592987   2.245987
     9  N    5.344033   4.569860   4.798988   5.608642   3.307877
    10  C    6.507575   5.756226   6.109820   6.649157   4.386942
    11  O    7.536592   6.858314   7.107549   7.828002   5.530727
    12  O    6.578196   5.764431   6.358264   6.381474   4.320575
    13  C    7.894872   7.116152   7.774577   7.608539   5.667940
    14  C    9.008341   8.084264   8.522465   8.575683   6.671396
    15  C    8.043518   7.225189   8.049693   7.413643   5.833725
    16  C    8.356946   7.829079   8.593794   8.444285   6.385164
    17  H    1.095128   2.185539   2.810260   2.729378   3.415326
    18  H    1.096283   2.176013   3.497506   2.731909   2.690220
    19  H    1.093253   2.196654   2.840084   3.463614   2.788221
    20  H    2.810604   2.184870   1.095501   2.727854   3.419472
    21  H    2.838450   2.197304   1.093012   3.464628   2.797237
    22  H    3.498065   2.177118   1.096007   2.736027   2.700131
    23  H    2.744847   2.192358   2.743848   1.096367   3.366843
    24  H    3.455891   2.187897   2.735521   1.095983   2.646279
    25  H    2.730819   2.187402   3.456489   1.096078   2.644248
    26  H    8.917157   7.844184   8.178791   8.227145   6.494290
    27  H    9.195277   8.310806   8.617683   8.966967   6.917860
    28  H    9.968096   9.067328   9.564484   9.486131   7.645864
    29  H    7.942362   6.958009   7.693899   7.002885   5.633502
    30  H    9.087627   8.297117   9.140491   8.432360   6.914286
    31  H    7.434287   6.752945   7.747280   6.891540   5.399014
    32  H    8.525909   8.054636   8.699116   8.840370   6.632077
    33  H    7.755732   7.382755   8.295529   7.986368   5.976837
    34  H    9.361593   8.830348   9.628041   9.359566   7.386735
                    6          7          8          9         10
     6  C    0.000000
     7  O    1.225864   0.000000
     8  N    1.377886   2.320788   0.000000
     9  N    2.185330   2.638092   1.255659   0.000000
    10  C    3.431894   3.991095   2.186332   1.378614   0.000000
    11  O    4.460349   4.805277   3.306940   2.320219   1.225725
    12  O    3.750140   4.629906   2.401979   2.245048   1.366071
    13  C    5.181897   6.065202   3.823690   3.616454   2.443267
    14  C    6.084169   6.838146   4.782000   4.242988   2.999731
    15  C    5.704646   6.763229   4.457703   4.599490   3.692700
    16  C    5.805763   6.602148   4.444452   4.269484   3.057754
    17  H    4.174229   4.146057   5.388896   6.353000   7.554767
    18  H    3.529581   3.906025   4.432863   5.566166   6.577093
    19  H    3.023865   2.824803   4.196735   5.067527   6.261854
    20  H    3.950696   3.690895   5.262290   5.887469   7.204253
    21  H    2.701832   2.079702   4.032961   4.457992   5.827474
    22  H    3.074482   3.057856   4.173304   4.644467   5.891773
    23  H    4.567406   4.943628   5.599238   6.578259   7.677598
    24  H    3.849381   4.502786   4.608310   5.508964   6.478643
    25  H    4.005397   4.760676   4.707590   5.846692   6.743072
    26  H    6.003240   6.770855   4.812674   4.285535   3.266109
    27  H    6.134234   6.716033   4.866096   4.082884   2.800985
    28  H    7.116634   7.901581   5.793417   5.309117   4.031505
    29  H    5.629714   6.711239   4.502845   4.659847   3.934812
    30  H    6.789659   7.836041   5.524391   5.605046   4.581733
    31  H    5.421792   6.544628   4.256225   4.674704   3.963692
    32  H    5.847951   6.467625   4.520474   4.117394   2.870629
    33  H    5.504451   6.348987   4.216750   4.319095   3.346085
    34  H    6.871420   7.691625   5.508442   5.332168   4.078683
                   11         12         13         14         15
    11  O    0.000000
    12  O    2.293213   0.000000
    13  C    2.799311   1.451388   0.000000
    14  C    2.942902   2.467124   1.534423   0.000000
    15  C    4.280928   2.388492   1.538788   2.484979   0.000000
    16  C    3.062852   2.462563   1.534411   2.548175   2.483779
    17  H    8.578287   7.634290   8.956709  10.046246   9.060173
    18  H    7.630100   6.479923   7.689372   8.926517   7.710779
    19  H    7.177119   6.531065   7.872399   8.966163   8.215223
    20  H    8.192342   7.439360   8.847182   9.598450   9.065034
    21  H    6.702937   6.301514   7.749902   8.453873   8.226686
    22  H    6.893286   6.094834   7.477790   8.074271   7.722039
    23  H    8.837494   7.463114   8.702528   9.652025   8.499545
    24  H    7.665866   6.140626   7.323310   8.151655   7.065352
    25  H    7.945804   6.301942   7.415531   8.508191   7.065287
    26  H    3.421937   2.701248   2.177356   1.096140   2.731909
    27  H    2.331312   2.792629   2.197442   1.092756   3.464384
    28  H    3.862070   3.417452   2.185159   1.095436   2.731880
    29  H    4.649774   2.643216   2.187770   2.734371   1.096276
    30  H    4.976897   3.363131   2.192428   2.745974   1.096093
    31  H    4.701008   2.638920   2.187026   3.456699   1.096392
    32  H    2.491462   2.791671   2.196737   2.838110   3.463179
    33  H    3.586441   2.687013   2.175696   3.497824   2.733926
    34  H    3.962312   3.414082   2.185899   2.813753   2.726646
                   16         17         18         19         20
    16  C    0.000000
    17  H    9.446777   0.000000
    18  H    8.044913   1.777573   0.000000
    19  H    8.209226   1.764289   1.754025   0.000000
    20  H    9.663731   2.629780   3.813886   3.196087   0.000000
    21  H    8.469157   3.191291   3.840618   2.695613   1.763210
    22  H    8.457993   3.814814   4.331255   3.841156   1.777166
    23  H    9.529160   2.532896   3.103670   3.761877   2.528897
    24  H    8.325179   3.752783   3.736513   4.336814   3.075984
    25  H    8.160887   3.073182   2.519872   3.748876   3.750017
    26  H    3.498858   9.907969   8.909554   8.960496   9.226531
    27  H    2.843311  10.236336   9.197881   9.033470   9.703855
    28  H    2.807932  11.011463   9.819885   9.948394  10.635200
    29  H    3.456188   8.907142   7.687414   8.214234   8.678001
    30  H    2.743873  10.101708   8.705660   9.262348  10.149971
    31  H    2.732064   8.441935   6.983635   7.648003   8.726761
    32  H    1.092989   9.619862   8.298579   8.243140   9.779097
    33  H    1.096172   8.840396   7.337013   7.618387   9.332646
    34  H    1.095228  10.446660   8.996207   9.247831  10.693690
                   21         22         23         24         25
    21  H    0.000000
    22  H    1.754282   0.000000
    23  H    3.759775   3.104767   0.000000
    24  H    3.754381   2.528668   1.776111   0.000000
    25  H    4.337349   3.741719   1.775858   1.756784   0.000000
    26  H    8.186441   7.610182   9.277799   7.682128   8.233187
    27  H    8.414535   8.191148  10.025587   8.584042   8.991188
    28  H    9.525204   9.111564  10.568890   9.048180   9.347887
    29  H    7.965020   7.245649   8.067534   6.513530   6.721045
    30  H    9.322335   8.799596   9.510065   8.068815   8.032424
    31  H    7.974800   7.540364   7.965831   6.662862   6.417172
    32  H    8.437542   8.597882   9.906950   8.764769   8.649750
    33  H    8.202992   8.279866   9.052847   7.986451   7.606814
    34  H    9.538097   9.461848  10.448993   9.205506   9.017923
                   26         27         28         29         30
    26  H    0.000000
    27  H    1.753941   0.000000
    28  H    1.777036   1.763520   0.000000
    29  H    2.522567   3.751011   3.080148   0.000000
    30  H    3.101203   3.763551   2.535706   1.776117   0.000000
    31  H    3.737823   4.337109   3.754261   1.756759   1.776074
    32  H    3.841925   2.698127   3.187077   4.336805   3.759576
    33  H    4.331288   3.842546   3.813235   3.738724   3.105465
    34  H    3.815534   3.202421   2.629776   3.750485   2.529012
                   31         32         33         34
    31  H    0.000000
    32  H    3.750794   0.000000
    33  H    2.523491   1.754091   0.000000
    34  H    3.071422   1.764150   1.777891   0.000000
 Stoichiometry    C10H18N2O4
 Framework group  C1[X(C10H18N2O4)]
 Deg. of freedom    96
 Full point group                 C1      NOp   1
 Largest Abelian subgroup         C1      NOp   1
 Largest concise Abelian subgroup C1      NOp   1
                         Standard orientation:                         
 ---------------------------------------------------------------------
 Center     Atomic      Atomic             Coordinates (Angstroms)
 Number     Number       Type             X           Y           Z
 ---------------------------------------------------------------------
      1          6           0       -4.318416    0.312367    1.344065
      2          6           0       -3.660590    0.509627   -0.027635
      3          6           0       -4.151897   -0.513239   -1.059962
      4          6           0       -4.038547    1.912864   -0.534692
      5          8           0       -2.210916    0.497837    0.083049
      6          6           0       -1.537088   -0.689036    0.164092
      7          8           0       -2.076103   -1.789955    0.150639
      8          7           0       -0.184042   -0.451390    0.270681
      9          7           0        0.498595   -1.371394   -0.243399
     10          6           0        1.852653   -1.142446   -0.122212
     11          8           0        2.721085   -2.002481   -0.029659
     12          8           0        2.094959    0.201945   -0.115075
     13          6           0        3.452947    0.699205    0.007918
     14          6           0        4.341051    0.191390   -1.135694
     15          6           0        3.356221    2.230270   -0.111878
     16          6           0        4.038205    0.371655    1.387992
     17          1           0       -5.407911    0.403537    1.280874
     18          1           0       -3.949328    1.057615    2.058360
     19          1           0       -4.095800   -0.667226    1.775390
     20          1           0       -5.236017   -0.445474   -1.202143
     21          1           0       -3.925061   -1.541994   -0.768615
     22          1           0       -3.665517   -0.348956   -2.028298
     23          1           0       -5.123736    2.019565   -0.648702
     24          1           0       -3.569992    2.122702   -1.502991
     25          1           0       -3.689069    2.689147    0.155698
     26          1           0        3.902585    0.446301   -2.107441
     27          1           0        4.457091   -0.895111   -1.122835
     28          1           0        5.344154    0.628585   -1.084450
     29          1           0        2.916827    2.524699   -1.072121
     30          1           0        4.341279    2.703309   -0.026354
     31          1           0        2.707490    2.646471    0.667865
     32          1           0        4.144183   -0.704012    1.550263
     33          1           0        3.379892    0.742939    2.181948
     34          1           0        5.027621    0.822678    1.518982
 ---------------------------------------------------------------------
 Rotational constants (GHZ):           1.1241806           0.2161369           0.1978175
 Standard basis: 6-31G(d) (6D, 7F)
 There are   276 symmetry adapted cartesian basis functions of A   symmetry.
 There are   276 symmetry adapted basis functions of A   symmetry.
   276 basis functions,   520 primitive gaussians,   276 cartesian basis functions
    62 alpha electrons       62 beta electrons
       nuclear repulsion energy      1158.3240818655 Hartrees.
 NAtoms=   34 NActive=   34 NUniq=   34 SFac= 1.00D+00 NAtFMM=   60 NAOKFM=F Big=F
 Integral buffers will be    131072 words long.
 Raffenetti 2 integral format.
 Two-electron integral symmetry is turned on.
 One-electron integrals computed using PRISM.
 NBasis=   276 RedAO= T EigKep=  2.25D-03  NBF=   276
 NBsUse=   276 1.00D-06 EigRej= -1.00D+00 NBFU=   276
 ExpMin= 1.61D-01 ExpMax= 5.48D+03 ExpMxC= 8.25D+02 IAcc=3 IRadAn=         5 AccDes= 0.00D+00
 Harris functional with IExCor=  402 and IRadAn=       5 diagonalized for initial guess.
 HarFok:  IExCor=  402 AccDes= 0.00D+00 IRadAn=         5 IDoV= 1 UseB2=F ITyADJ=14
 ICtDFT=  3500011 ScaDFX=  1.000000  1.000000  1.000000  1.000000
 FoFCou: FMM=F IPFlag=           0 FMFlag=      100000 FMFlg1=           0
         NFxFlg=           0 DoJE=T BraDBF=F KetDBF=T FulRan=T
         wScrn=  0.000000 ICntrl=       500 IOpCl=  0 I1Cent=   200000004 NGrid=           0
         NMat0=    1 NMatS0=      1 NMatT0=    0 NMatD0=    1 NMtDS0=    0 NMtDT0=    0
 Petite list used in FoFCou.
 Gradient too large for Newton-Raphson -- use scaled steepest descent instead.
     Minimum is close to point  2 DX=  7.91D-03 DF= -3.20D-04 DXR=  2.57D-02 DFR=  6.60D-04 which will be used.
 Gradient too large for Newton-Raphson -- use scaled steepest descent instead.
 Gradient too large for Newton-Raphson -- use scaled steepest descent instead.
 Gradient too large for Newton-Raphson -- use scaled steepest descent instead.
     Minimum is close to point  2 DX=  3.20D-02 DF= -1.75D-05 DXR=  7.42D-02 DFR=  5.53D-03 which will be used.
 Gradient too large for Newton-Raphson -- use scaled steepest descent instead.
 Gradient too large for Newton-Raphson -- use scaled steepest descent instead.
     Accept linear search using points  1 and  2.
 Gradient too large for Newton-Raphson -- use scaled steepest descent instead.
     Minimum is close to point  3 DX=  3.24D-02 DF= -2.67D-07 DXR=  3.48D-02 DFR=  1.21D-03 which will be used.
 LinEq1:  Iter=  0 NonCon=     1 RMS=6.49D-05 Max=3.67D-03 NDo=     1
 AX will form     1 AO Fock derivatives at one time.
 LinEq1:  Iter=  1 NonCon=     1 RMS=5.65D-05 Max=3.61D-03 NDo=     1
 LinEq1:  Iter=  2 NonCon=     1 RMS=1.05D-05 Max=3.40D-04 NDo=     1
 LinEq1:  Iter=  3 NonCon=     1 RMS=1.01D-05 Max=4.70D-04 NDo=     1
 LinEq1:  Iter=  4 NonCon=     1 RMS=4.33D-06 Max=2.70D-04 NDo=     1
 LinEq1:  Iter=  5 NonCon=     1 RMS=2.88D-06 Max=1.09D-04 NDo=     1
 LinEq1:  Iter=  6 NonCon=     1 RMS=2.03D-06 Max=9.28D-05 NDo=     1
 LinEq1:  Iter=  7 NonCon=     1 RMS=1.88D-06 Max=6.15D-05 NDo=     1
 LinEq1:  Iter=  8 NonCon=     1 RMS=1.09D-06 Max=3.36D-05 NDo=     1
 LinEq1:  Iter=  9 NonCon=     1 RMS=6.69D-07 Max=2.37D-05 NDo=     1
 LinEq1:  Iter= 10 NonCon=     1 RMS=3.22D-07 Max=1.48D-05 NDo=     1
 LinEq1:  Iter= 11 NonCon=     1 RMS=1.65D-07 Max=5.44D-06 NDo=     1
 LinEq1:  Iter= 12 NonCon=     1 RMS=7.70D-08 Max=3.51D-06 NDo=     1
 LinEq1:  Iter= 13 NonCon=     1 RMS=3.78D-08 Max=8.77D-07 NDo=     1
 LinEq1:  Iter= 14 NonCon=     1 RMS=2.22D-08 Max=4.78D-07 NDo=     1
 LinEq1:  Iter= 15 NonCon=     1 RMS=9.72D-09 Max=2.25D-07 NDo=     1
 LinEq1:  Iter= 16 NonCon=     0 RMS=4.20D-09 Max=9.35D-08 NDo=     1
 Linear equations converged to 1.629D-08 1.629D-07 after    16 iterations.
     Accept linear search using points  1 and  2.
     Minimum is close to point  2 DX= -3.04D-04 DF= -1.71D-12 DXR=  3.04D-04 DFR=  9.43D-08 which will be used.
 LinEq1:  Iter=  0 NonCon=     1 RMS=7.41D-08 Max=3.36D-06 NDo=     1
 LinEq1:  Iter=  1 NonCon=     1 RMS=5.98D-08 Max=2.37D-06 NDo=     1
 LinEq1:  Iter=  2 NonCon=     1 RMS=3.33D-08 Max=1.17D-06 NDo=     1
 LinEq1:  Iter=  3 NonCon=     1 RMS=2.74D-08 Max=1.24D-06 NDo=     1
 LinEq1:  Iter=  4 NonCon=     1 RMS=2.25D-08 Max=1.12D-06 NDo=     1
 LinEq1:  Iter=  5 NonCon=     1 RMS=1.60D-08 Max=7.70D-07 NDo=     1
 LinEq1:  Iter=  6 NonCon=     1 RMS=1.14D-08 Max=3.67D-07 NDo=     1
 LinEq1:  Iter=  7 NonCon=     1 RMS=9.13D-09 Max=3.84D-07 NDo=     1
 LinEq1:  Iter=  8 NonCon=     1 RMS=2.97D-09 Max=7.54D-08 NDo=     1
 LinEq1:  Iter=  9 NonCon=     1 RMS=1.70D-09 Max=5.40D-08 NDo=     1
 LinEq1:  Iter= 10 NonCon=     1 RMS=1.18D-09 Max=5.07D-08 NDo=     1
 LinEq1:  Iter= 11 NonCon=     1 RMS=1.13D-09 Max=5.91D-08 NDo=     1
 LinEq1:  Iter= 12 NonCon=     1 RMS=6.98D-10 Max=2.72D-08 NDo=     1
 LinEq1:  Iter= 13 NonCon=     1 RMS=4.58D-10 Max=1.19D-08 NDo=     1
 LinEq1:  Iter= 14 NonCon=     1 RMS=1.30D-10 Max=3.62D-09 NDo=     1
 LinEq1:  Iter= 15 NonCon=     1 RMS=5.08D-11 Max=1.24D-09 NDo=     1
 LinEq1:  Iter= 16 NonCon=     0 RMS=2.51D-11 Max=4.67D-10 NDo=     1
 Linear equations converged to 5.625D-11 5.625D-10 after    16 iterations.
 Restarting incremental Fock formation.
 SCF Done:  E(RB3LYP) =  -802.253334631     a.u. after   10 cycles
            Convg  =    0.1632D-09                    53 Fock formations.
              S**2 =  0.0000                  -V/T =  2.0091
 DoSCS=F DFT=T ScalE2(SS,OS)=  1.000000  1.000000
 Range of M.O.s used for correlation:     1   276
 NBasis=   276 NAE=    62 NBE=    62 NFC=     0 NFV=     0
 NROrb=    276 NOA=    62 NOB=    62 NVA=   214 NVB=   214
 Symmetrizing basis deriv contribution to polar:
 IMax=3 JMax=2 DiffMx= 0.00D+00
 G2DrvN: will do    35 centers at a time, making    1 passes.
 Calling FoFCou, ICntrl=  3107 FMM=F I1Cent=   0 AccDes= 0.00D+00.
 End of G2Drv F.D. properties file   721 does not exist.
 End of G2Drv F.D. properties file   722 does not exist.
 End of G2Drv F.D. properties file   788 does not exist.
          IDoAtm=1111111111111111111111111111111111
          Differentiating once with respect to electric field.
                with respect to dipole field.
          Differentiating once with respect to nuclear coordinates.
 Keep R1 ints in memory in canonical form, NReq=741275395.
          There are   105 degrees of freedom in the 1st order CPHF.  IDoFFX=6 NUNeed=     3.
    102 vectors produced by pass  0 Test12= 1.33D-14 1.00D-09 XBig12= 1.33D+02 4.75D+00.
 AX will form   102 AO Fock derivatives at one time.
    102 vectors produced by pass  1 Test12= 1.33D-14 1.00D-09 XBig12= 5.48D+01 1.91D+00.
    102 vectors produced by pass  2 Test12= 1.33D-14 1.00D-09 XBig12= 9.95D-01 1.55D-01.
    102 vectors produced by pass  3 Test12= 1.33D-14 1.00D-09 XBig12= 5.26D-03 7.18D-03.
    102 vectors produced by pass  4 Test12= 1.33D-14 1.00D-09 XBig12= 8.09D-06 2.28D-04.
     59 vectors produced by pass  5 Test12= 1.33D-14 1.00D-09 XBig12= 6.54D-09 6.48D-06.
      9 vectors produced by pass  6 Test12= 1.33D-14 1.00D-09 XBig12= 4.82D-12 2.02D-07.
      3 vectors produced by pass  7 Test12= 1.33D-14 1.00D-09 XBig12= 3.73D-15 6.13D-09.
 InvSVY:  IOpt=1 It=  1 EMax= 3.55D-15
 Solved reduced A of dimension   581 with   105 vectors.
 Isotropic polarizability for W=    0.000000      136.79 Bohr**3.
 End of Minotr F.D. properties file   721 does not exist.
 End of Minotr F.D. properties file   722 does not exist.
 End of Minotr F.D. properties file   788 does not exist.

 **********************************************************************

            Population analysis using the SCF density.

 **********************************************************************

 Orbital symmetries:
       Occupied  (A) (A) (A) (A) (A) (A) (A) (A) (A) (A) (A) (A)
                 (A) (A) (A) (A) (A) (A) (A) (A) (A) (A) (A) (A)
                 (A) (A) (A) (A) (A) (A) (A) (A) (A) (A) (A) (A)
                 (A) (A) (A) (A) (A) (A) (A) (A) (A) (A) (A) (A)
                 (A) (A) (A) (A) (A) (A) (A) (A) (A) (A) (A) (A)
                 (A) (A)
       Virtual   (A) (A) (A) (A) (A) (A) (A) (A) (A) (A) (A) (A)
                 (A) (A) (A) (A) (A) (A) (A) (A) (A) (A) (A) (A)
                 (A) (A) (A) (A) (A) (A) (A) (A) (A) (A) (A) (A)
                 (A) (A) (A) (A) (A) (A) (A) (A) (A) (A) (A) (A)
                 (A) (A) (A) (A) (A) (A) (A) (A) (A) (A) (A) (A)
                 (A) (A) (A) (A) (A) (A) (A) (A) (A) (A) (A) (A)
                 (A) (A) (A) (A) (A) (A) (A) (A) (A) (A) (A) (A)
                 (A) (A) (A) (A) (A) (A) (A) (A) (A) (A) (A) (A)
                 (A) (A) (A) (A) (A) (A) (A) (A) (A) (A) (A) (A)
                 (A) (A) (A) (A) (A) (A) (A) (A) (A) (A) (A) (A)
                 (A) (A) (A) (A) (A) (A) (A) (A) (A) (A) (A) (A)
                 (A) (A) (A) (A) (A) (A) (A) (A) (A) (A) (A) (A)
                 (A) (A) (A) (A) (A) (A) (A) (A) (A) (A) (A) (A)
                 (A) (A) (A) (A) (A) (A) (A) (A) (A) (A) (A) (A)
                 (A) (A) (A) (A) (A) (A) (A) (A) (A) (A) (A) (A)
                 (A) (A) (A) (A) (A) (A) (A) (A) (A) (A) (A) (A)
                 (A) (A) (A) (A) (A) (A) (A) (A) (A) (A) (A) (A)
                 (A) (A) (A) (A) (A) (A) (A) (A) (A) (A)
 The electronic state is 1-A.
 Alpha  occ. eigenvalues --  -19.20601 -19.20003 -19.16155 -19.15559 -14.43050
 Alpha  occ. eigenvalues --  -14.42997 -10.35550 -10.35469 -10.26784 -10.26432
 Alpha  occ. eigenvalues --  -10.18605 -10.18565 -10.18358 -10.17998 -10.17862
 Alpha  occ. eigenvalues --  -10.17430  -1.14005  -1.11437  -1.06252  -1.03023
 Alpha  occ. eigenvalues --   -1.02420  -0.84893  -0.81486  -0.79212  -0.69994
 Alpha  occ. eigenvalues --   -0.69746  -0.69535  -0.69473  -0.66866  -0.62183
 Alpha  occ. eigenvalues --   -0.57942  -0.52046  -0.51828  -0.51481  -0.49812
 Alpha  occ. eigenvalues --   -0.48019  -0.47734  -0.46685  -0.45650  -0.45372
 Alpha  occ. eigenvalues --   -0.44302  -0.43834  -0.42148  -0.41720  -0.40998
 Alpha  occ. eigenvalues --   -0.40047  -0.39626  -0.39232  -0.37477  -0.37175
 Alpha  occ. eigenvalues --   -0.36720  -0.36515  -0.36417  -0.35647  -0.35029
 Alpha  occ. eigenvalues --   -0.34029  -0.34005  -0.30978  -0.30673  -0.30053
 Alpha  occ. eigenvalues --   -0.29145  -0.26217
 Alpha virt. eigenvalues --   -0.13575   0.00835   0.04220   0.08013   0.08230
 Alpha virt. eigenvalues --    0.09848   0.10175   0.14166   0.14446   0.14800
 Alpha virt. eigenvalues --    0.14901   0.15422   0.15848   0.16475   0.16858
 Alpha virt. eigenvalues --    0.17785   0.18416   0.18804   0.18974   0.19039
 Alpha virt. eigenvalues --    0.19289   0.20265   0.20399   0.21911   0.22232
 Alpha virt. eigenvalues --    0.22298   0.22362   0.24657   0.24743   0.25124
 Alpha virt. eigenvalues --    0.25268   0.29019   0.32799   0.34922   0.40026
 Alpha virt. eigenvalues --    0.43521   0.48275   0.48495   0.48711   0.49217
 Alpha virt. eigenvalues --    0.50604   0.51032   0.51362   0.52262   0.55161
 Alpha virt. eigenvalues --    0.55319   0.55962   0.57469   0.59154   0.59334
 Alpha virt. eigenvalues --    0.59542   0.60343   0.60966   0.62730   0.64984
 Alpha virt. eigenvalues --    0.65689   0.67923   0.69252   0.70137   0.70650
 Alpha virt. eigenvalues --    0.70834   0.71025   0.71611   0.72578   0.74078
 Alpha virt. eigenvalues --    0.76505   0.77403   0.81067   0.81166   0.82751
 Alpha virt. eigenvalues --    0.84023   0.84550   0.85904   0.86285   0.86556
 Alpha virt. eigenvalues --    0.88702   0.88894   0.89183   0.89435   0.89987
 Alpha virt. eigenvalues --    0.90051   0.91854   0.92242   0.92378   0.92666
 Alpha virt. eigenvalues --    0.93284   0.93669   0.95234   0.96100   0.97049
 Alpha virt. eigenvalues --    0.97426   0.98668   0.99394   1.00473   1.02878
 Alpha virt. eigenvalues --    1.04948   1.08271   1.10329   1.12285   1.12481
 Alpha virt. eigenvalues --    1.14397   1.16704   1.17011   1.18868   1.24415
 Alpha virt. eigenvalues --    1.26940   1.31297   1.33584   1.36046   1.37353
 Alpha virt. eigenvalues --    1.38804   1.40787   1.41406   1.43390   1.45784
 Alpha virt. eigenvalues --    1.48026   1.49131   1.50610   1.52491   1.53807
 Alpha virt. eigenvalues --    1.54321   1.58329   1.64887   1.66839   1.70092
 Alpha virt. eigenvalues --    1.70971   1.72077   1.72706   1.73451   1.74885
 Alpha virt. eigenvalues --    1.77307   1.77594   1.79298   1.79816   1.81798
 Alpha virt. eigenvalues --    1.82582   1.83663   1.84339   1.84666   1.85112
 Alpha virt. eigenvalues --    1.86755   1.88589   1.89740   1.90160   1.92488
 Alpha virt. eigenvalues --    1.95539   1.96423   2.02031   2.03667   2.04706
 Alpha virt. eigenvalues --    2.08370   2.08865   2.09261   2.10546   2.12575
 Alpha virt. eigenvalues --    2.14374   2.15967   2.16580   2.18774   2.19005
 Alpha virt. eigenvalues --    2.20342   2.22612   2.23174   2.24442   2.24908
 Alpha virt. eigenvalues --    2.25613   2.26380   2.26776   2.26931   2.29788
 Alpha virt. eigenvalues --    2.32222   2.32555   2.38987   2.41231   2.47368
 Alpha virt. eigenvalues --    2.50216   2.51559   2.55094   2.56273   2.59107
 Alpha virt. eigenvalues --    2.61268   2.61822   2.65330   2.69464   2.71126
 Alpha virt. eigenvalues --    2.71260   2.74717   2.76185   2.77423   2.78946
 Alpha virt. eigenvalues --    2.85531   2.87592   2.93810   2.95669   3.09350
 Alpha virt. eigenvalues --    3.12408   3.19801   3.23705   3.77663   3.89784
 Alpha virt. eigenvalues --    4.04982   4.07743   4.16884   4.18964   4.24555
 Alpha virt. eigenvalues --    4.27476   4.28640   4.29924   4.30094   4.32235
 Alpha virt. eigenvalues --    4.37167   4.43513   4.65608   4.67475
          Condensed to atoms (all electrons):
               1          2          3          4          5          6
     1  C    5.176198   0.380825  -0.063944  -0.073434  -0.043074  -0.003701
     2  C    0.380825   4.586961   0.380747   0.403194   0.176902  -0.014677
     3  C   -0.063944   0.380747   5.218009  -0.071838  -0.040383  -0.006802
     4  C   -0.073434   0.403194  -0.071838   5.153610  -0.045136   0.003069
     5  O   -0.043074   0.176902  -0.040383  -0.045136   8.297424   0.298551
     6  C   -0.003701  -0.014677  -0.006802   0.003069   0.298551   4.236087
     7  O   -0.002501   0.000305  -0.018010   0.000209  -0.074361   0.509870
     8  N   -0.000355   0.003458  -0.000651  -0.000188  -0.088487   0.247373
     9  N    0.000001  -0.000094   0.000047   0.000003   0.001878  -0.052791
    10  C   -0.000000   0.000001   0.000000  -0.000000  -0.000145   0.004729
    11  O   -0.000000  -0.000000  -0.000000   0.000000   0.000000  -0.000102
    12  O   -0.000000  -0.000000   0.000000   0.000000   0.000001  -0.000088
    13  C   -0.000000   0.000000  -0.000000  -0.000000  -0.000001   0.000013
    14  C    0.000000   0.000000   0.000000   0.000000  -0.000000   0.000002
    15  C    0.000000  -0.000000   0.000000   0.000000   0.000000  -0.000002
    16  C    0.000000  -0.000000   0.000000  -0.000000   0.000000  -0.000003
    17  H    0.362740  -0.022925  -0.001968  -0.002903   0.002795   0.000108
    18  H    0.363474  -0.027241   0.005456  -0.006430   0.000269   0.000131
    19  H    0.366885  -0.024171  -0.005298   0.005326  -0.003139   0.002759
    20  H   -0.002775  -0.025531   0.356148  -0.003334   0.002459   0.000573
    21  H   -0.004207  -0.023694   0.366003   0.004916  -0.001786  -0.001534
    22  H    0.005584  -0.028059   0.362550  -0.006625  -0.000514   0.001083
    23  H   -0.001628  -0.026695  -0.002271   0.365636   0.002877  -0.000039
    24  H    0.005953  -0.025422  -0.005736   0.362928   0.000432   0.000052
    25  H   -0.005997  -0.025614   0.006047   0.361854   0.000401  -0.000014
    26  H    0.000000  -0.000000   0.000000  -0.000000   0.000000  -0.000000
    27  H    0.000000   0.000000  -0.000000  -0.000000  -0.000000   0.000000
    28  H    0.000000  -0.000000   0.000000  -0.000000   0.000000  -0.000000
    29  H    0.000000  -0.000000   0.000000   0.000000   0.000000  -0.000001
    30  H   -0.000000   0.000000   0.000000  -0.000000  -0.000000   0.000000
    31  H    0.000000   0.000000  -0.000000   0.000000  -0.000000   0.000002
    32  H   -0.000000   0.000000  -0.000000  -0.000000  -0.000000  -0.000000
    33  H   -0.000000   0.000000  -0.000000   0.000000  -0.000000   0.000002
    34  H   -0.000000   0.000000  -0.000000  -0.000000  -0.000000   0.000000
               7          8          9         10         11         12
     1  C   -0.002501  -0.000355   0.000001  -0.000000  -0.000000  -0.000000
     2  C    0.000305   0.003458  -0.000094   0.000001  -0.000000  -0.000000
     3  C   -0.018010  -0.000651   0.000047   0.000000  -0.000000   0.000000
     4  C    0.000209  -0.000188   0.000003  -0.000000   0.000000   0.000000
     5  O   -0.074361  -0.088487   0.001878  -0.000145   0.000000   0.000001
     6  C    0.509870   0.247373  -0.052791   0.004729  -0.000102  -0.000088
     7  O    8.078298  -0.072098  -0.000914   0.000437   0.000004  -0.000008
     8  N   -0.072098   6.953238   0.224165  -0.055590   0.000996  -0.007052
     9  N   -0.000914   0.224165   6.950053   0.246540  -0.060326  -0.101326
    10  C    0.000437  -0.055590   0.246540   4.228364   0.525279   0.280827
    11  O    0.000004   0.000996  -0.060326   0.525279   8.053597  -0.076674
    12  O   -0.000008  -0.007052  -0.101326   0.280827  -0.076674   8.326101
    13  C    0.000000   0.000507   0.004285  -0.011635   0.002193   0.175846
    14  C   -0.000000   0.000044  -0.000589  -0.005664  -0.009086  -0.039844
    15  C   -0.000000  -0.000033  -0.000215   0.003321   0.000179  -0.045398
    16  C   -0.000000  -0.000099  -0.000333  -0.004985  -0.005774  -0.042522
    17  H    0.000031   0.000005   0.000000   0.000000   0.000000   0.000000
    18  H    0.000062  -0.000006   0.000001  -0.000000  -0.000000   0.000000
    19  H    0.004269  -0.000010  -0.000001  -0.000000   0.000000   0.000000
    20  H    0.000790   0.000009  -0.000000   0.000000  -0.000000   0.000000
    21  H    0.012762   0.000215  -0.000016   0.000000  -0.000000   0.000000
    22  H   -0.000463  -0.000024  -0.000013  -0.000001  -0.000000   0.000000
    23  H    0.000010   0.000002  -0.000000   0.000000  -0.000000   0.000000
    24  H   -0.000004  -0.000004  -0.000001  -0.000000  -0.000000  -0.000000
    25  H    0.000006   0.000007   0.000000  -0.000000  -0.000000   0.000000
    26  H   -0.000000  -0.000014  -0.000007   0.000629   0.000056  -0.000108
    27  H   -0.000000  -0.000010   0.000091   0.000925   0.010929  -0.002969
    28  H    0.000000  -0.000000   0.000007   0.000305   0.000258   0.002571
    29  H   -0.000000  -0.000006  -0.000001   0.000013   0.000002   0.000374
    30  H   -0.000000  -0.000001   0.000003  -0.000032   0.000009   0.002911
    31  H    0.000000   0.000068  -0.000011  -0.000093   0.000002   0.000284
    32  H    0.000000  -0.000014   0.000042   0.001859   0.008877  -0.003221
    33  H   -0.000000   0.000041  -0.000032   0.000350   0.000018   0.000196
    34  H    0.000000   0.000001   0.000004   0.000215   0.000136   0.002704
              13         14         15         16         17         18
     1  C   -0.000000   0.000000   0.000000   0.000000   0.362740   0.363474
     2  C    0.000000   0.000000  -0.000000  -0.000000  -0.022925  -0.027241
     3  C   -0.000000   0.000000   0.000000   0.000000  -0.001968   0.005456
     4  C   -0.000000   0.000000   0.000000  -0.000000  -0.002903  -0.006430
     5  O   -0.000001  -0.000000   0.000000   0.000000   0.002795   0.000269
     6  C    0.000013   0.000002  -0.000002  -0.000003   0.000108   0.000131
     7  O    0.000000  -0.000000  -0.000000  -0.000000   0.000031   0.000062
     8  N    0.000507   0.000044  -0.000033  -0.000099   0.000005  -0.000006
     9  N    0.004285  -0.000589  -0.000215  -0.000333   0.000000   0.000001
    10  C   -0.011635  -0.005664   0.003321  -0.004985   0.000000  -0.000000
    11  O    0.002193  -0.009086   0.000179  -0.005774   0.000000  -0.000000
    12  O    0.175846  -0.039844  -0.045398  -0.042522   0.000000   0.000000
    13  C    4.577060   0.377541   0.402627   0.380023   0.000000   0.000000
    14  C    0.377541   5.204747  -0.073206  -0.064229   0.000000  -0.000000
    15  C    0.402627  -0.073206   5.156979  -0.073056  -0.000000  -0.000000
    16  C    0.380023  -0.064229  -0.073056   5.192036  -0.000000   0.000000
    17  H    0.000000   0.000000  -0.000000  -0.000000   0.559084  -0.026912
    18  H    0.000000  -0.000000  -0.000000   0.000000  -0.026912   0.563167
    19  H   -0.000000   0.000000   0.000000  -0.000000  -0.027383  -0.030569
    20  H   -0.000000   0.000000   0.000000   0.000000   0.001633  -0.000026
    21  H   -0.000000   0.000000   0.000000   0.000000   0.000148  -0.000055
    22  H   -0.000000   0.000000   0.000000   0.000000  -0.000044  -0.000187
    23  H    0.000000   0.000000   0.000000   0.000000   0.001538   0.000123
    24  H   -0.000000   0.000000   0.000000   0.000000  -0.000018  -0.000046
    25  H    0.000000   0.000000   0.000000   0.000000   0.000148   0.004476
    26  H   -0.027922   0.361660  -0.006630   0.005592  -0.000000   0.000000
    27  H   -0.024174   0.366593   0.005097  -0.004852  -0.000000  -0.000000
    28  H   -0.024163   0.360962  -0.003014  -0.002183  -0.000000  -0.000000
    29  H   -0.025345  -0.005951   0.362313   0.006015  -0.000000  -0.000000
    30  H   -0.026413  -0.002000   0.364522  -0.001983   0.000000   0.000000
    31  H   -0.025159   0.005982   0.363026  -0.005879   0.000000  -0.000000
    32  H   -0.024130  -0.005349   0.005274   0.366595   0.000000  -0.000000
    33  H   -0.027614   0.005535  -0.006371   0.362874   0.000000  -0.000000
    34  H   -0.023966  -0.002063  -0.002866   0.362127   0.000000   0.000000
              19         20         21         22         23         24
     1  C    0.366885  -0.002775  -0.004207   0.005584  -0.001628   0.005953
     2  C   -0.024171  -0.025531  -0.023694  -0.028059  -0.026695  -0.025422
     3  C   -0.005298   0.356148   0.366003   0.362550  -0.002271  -0.005736
     4  C    0.005326  -0.003334   0.004916  -0.006625   0.365636   0.362928
     5  O   -0.003139   0.002459  -0.001786  -0.000514   0.002877   0.000432
     6  C    0.002759   0.000573  -0.001534   0.001083  -0.000039   0.000052
     7  O    0.004269   0.000790   0.012762  -0.000463   0.000010  -0.000004
     8  N   -0.000010   0.000009   0.000215  -0.000024   0.000002  -0.000004
     9  N   -0.000001  -0.000000  -0.000016  -0.000013  -0.000000  -0.000001
    10  C   -0.000000   0.000000   0.000000  -0.000001   0.000000  -0.000000
    11  O    0.000000  -0.000000  -0.000000  -0.000000  -0.000000  -0.000000
    12  O    0.000000   0.000000   0.000000   0.000000   0.000000  -0.000000
    13  C   -0.000000  -0.000000  -0.000000  -0.000000   0.000000  -0.000000
    14  C    0.000000   0.000000   0.000000   0.000000   0.000000   0.000000
    15  C    0.000000   0.000000   0.000000   0.000000   0.000000   0.000000
    16  C   -0.000000   0.000000   0.000000   0.000000   0.000000   0.000000
    17  H   -0.027383   0.001633   0.000148  -0.000044   0.001538  -0.000018
    18  H   -0.030569  -0.000026  -0.000055  -0.000187   0.000123  -0.000046
    19  H    0.539104   0.000141   0.002559  -0.000022   0.000018  -0.000185
    20  H    0.000141   0.577084  -0.024607  -0.026979   0.002070   0.000050
    21  H    0.002559  -0.024607   0.492641  -0.028459   0.000000  -0.000047
    22  H   -0.000022  -0.026979  -0.028459   0.571401   0.000195   0.004449
    23  H    0.000018   0.002070   0.000000   0.000195   0.559911  -0.026731
    24  H   -0.000185   0.000050  -0.000047   0.004449  -0.026731   0.559675
    25  H   -0.000060   0.000021  -0.000180  -0.000044  -0.027532  -0.029829
    26  H   -0.000000   0.000000   0.000000   0.000000   0.000000   0.000000
    27  H   -0.000000   0.000000   0.000000   0.000000   0.000000   0.000000
    28  H   -0.000000   0.000000  -0.000000   0.000000   0.000000   0.000000
    29  H   -0.000000   0.000000  -0.000000   0.000000  -0.000000   0.000000
    30  H   -0.000000  -0.000000   0.000000  -0.000000   0.000000  -0.000000
    31  H    0.000000   0.000000  -0.000000  -0.000000   0.000000   0.000000
    32  H   -0.000000   0.000000  -0.000000  -0.000000   0.000000  -0.000000
    33  H    0.000000   0.000000   0.000000  -0.000000   0.000000  -0.000000
    34  H    0.000000  -0.000000  -0.000000  -0.000000   0.000000  -0.000000
              25         26         27         28         29         30
     1  C   -0.005997   0.000000   0.000000   0.000000   0.000000  -0.000000
     2  C   -0.025614  -0.000000   0.000000  -0.000000  -0.000000   0.000000
     3  C    0.006047   0.000000  -0.000000   0.000000   0.000000   0.000000
     4  C    0.361854  -0.000000  -0.000000  -0.000000   0.000000  -0.000000
     5  O    0.000401   0.000000  -0.000000   0.000000   0.000000  -0.000000
     6  C   -0.000014  -0.000000   0.000000  -0.000000  -0.000001   0.000000
     7  O    0.000006  -0.000000  -0.000000   0.000000  -0.000000  -0.000000
     8  N    0.000007  -0.000014  -0.000010  -0.000000  -0.000006  -0.000001
     9  N    0.000000  -0.000007   0.000091   0.000007  -0.000001   0.000003
    10  C   -0.000000   0.000629   0.000925   0.000305   0.000013  -0.000032
    11  O   -0.000000   0.000056   0.010929   0.000258   0.000002   0.000009
    12  O    0.000000  -0.000108  -0.002969   0.002571   0.000374   0.002911
    13  C    0.000000  -0.027922  -0.024174  -0.024163  -0.025345  -0.026413
    14  C    0.000000   0.361660   0.366593   0.360962  -0.005951  -0.002000
    15  C    0.000000  -0.006630   0.005097  -0.003014   0.362313   0.364522
    16  C    0.000000   0.005592  -0.004852  -0.002183   0.006015  -0.001983
    17  H    0.000148  -0.000000  -0.000000  -0.000000  -0.000000   0.000000
    18  H    0.004476   0.000000  -0.000000  -0.000000  -0.000000   0.000000
    19  H   -0.000060  -0.000000  -0.000000  -0.000000  -0.000000  -0.000000
    20  H    0.000021   0.000000   0.000000   0.000000   0.000000  -0.000000
    21  H   -0.000180   0.000000   0.000000  -0.000000  -0.000000   0.000000
    22  H   -0.000044   0.000000   0.000000   0.000000   0.000000  -0.000000
    23  H   -0.027532   0.000000   0.000000   0.000000  -0.000000   0.000000
    24  H   -0.029829   0.000000   0.000000   0.000000   0.000000  -0.000000
    25  H    0.561961  -0.000000   0.000000  -0.000000   0.000000   0.000000
    26  H   -0.000000   0.570665  -0.029808  -0.026779   0.004523   0.000180
    27  H    0.000000  -0.029808   0.513658  -0.025764  -0.000058   0.000008
    28  H   -0.000000  -0.026779  -0.025764   0.566067   0.000092   0.001892
    29  H    0.000000   0.004523  -0.000058   0.000092   0.562375  -0.027383
    30  H    0.000000   0.000180   0.000008   0.001892  -0.027383   0.563398
    31  H    0.000000  -0.000040  -0.000181  -0.000008  -0.029615  -0.027416
    32  H   -0.000000  -0.000021   0.002374   0.000193  -0.000183   0.000004
    33  H   -0.000000  -0.000186  -0.000034  -0.000030  -0.000045   0.000155
    34  H   -0.000000  -0.000040   0.000180   0.001523  -0.000009   0.001750
              31         32         33         34
     1  C    0.000000  -0.000000  -0.000000  -0.000000
     2  C    0.000000   0.000000   0.000000   0.000000
     3  C   -0.000000  -0.000000  -0.000000  -0.000000
     4  C    0.000000  -0.000000   0.000000  -0.000000
     5  O   -0.000000  -0.000000  -0.000000  -0.000000
     6  C    0.000002  -0.000000   0.000002   0.000000
     7  O    0.000000   0.000000  -0.000000   0.000000
     8  N    0.000068  -0.000014   0.000041   0.000001
     9  N   -0.000011   0.000042  -0.000032   0.000004
    10  C   -0.000093   0.001859   0.000350   0.000215
    11  O    0.000002   0.008877   0.000018   0.000136
    12  O    0.000284  -0.003221   0.000196   0.002704
    13  C   -0.025159  -0.024130  -0.027614  -0.023966
    14  C    0.005982  -0.005349   0.005535  -0.002063
    15  C    0.363026   0.005274  -0.006371  -0.002866
    16  C   -0.005879   0.366595   0.362874   0.362127
    17  H    0.000000   0.000000   0.000000   0.000000
    18  H   -0.000000  -0.000000  -0.000000   0.000000
    19  H    0.000000  -0.000000   0.000000   0.000000
    20  H    0.000000   0.000000   0.000000  -0.000000
    21  H   -0.000000  -0.000000   0.000000  -0.000000
    22  H   -0.000000  -0.000000  -0.000000  -0.000000
    23  H    0.000000   0.000000   0.000000   0.000000
    24  H    0.000000  -0.000000  -0.000000  -0.000000
    25  H    0.000000  -0.000000  -0.000000  -0.000000
    26  H   -0.000040  -0.000021  -0.000186  -0.000040
    27  H   -0.000181   0.002374  -0.000034   0.000180
    28  H   -0.000008   0.000193  -0.000030   0.001523
    29  H   -0.029615  -0.000183  -0.000045  -0.000009
    30  H   -0.027416   0.000004   0.000155   0.001750
    31  H    0.557718  -0.000061   0.004405   0.000120
    32  H   -0.000061   0.525102  -0.030113  -0.026574
    33  H    0.004405  -0.030113   0.564863  -0.026691
    34  H    0.000120  -0.026574  -0.026691   0.564166
 Mulliken charges:
               1
     1  C   -0.460043
     2  C    0.311730
     3  C   -0.478106
     4  C   -0.450857
     5  O   -0.486964
     6  C    0.775350
     7  O   -0.438692
     8  N   -0.205488
     9  N   -0.210451
    10  C    0.784351
    11  O   -0.450574
    12  O   -0.472603
    13  C    0.320427
    14  C   -0.475084
    15  C   -0.452548
    16  C   -0.469364
    17  H    0.153925
    18  H    0.154311
    19  H    0.169778
    20  H    0.142276
    21  H    0.205340
    22  H    0.146173
    23  H    0.152517
    24  H    0.154486
    25  H    0.154348
    26  H    0.148251
    27  H    0.187994
    28  H    0.148071
    29  H    0.152889
    30  H    0.150395
    31  H    0.156857
    32  H    0.179346
    33  H    0.152676
    34  H    0.149284
 Sum of Mulliken charges =   0.00000
 Mulliken charges with hydrogens summed into heavy atoms:
               1
     1  C    0.017971
     2  C    0.311730
     3  C    0.015683
     4  C    0.010493
     5  O   -0.486964
     6  C    0.775350
     7  O   -0.438692
     8  N   -0.205488
     9  N   -0.210451
    10  C    0.784351
    11  O   -0.450574
    12  O   -0.472603
    13  C    0.320427
    14  C    0.009232
    15  C    0.007592
    16  C    0.011943
 APT charges:
               1
     1  C   -0.034450
     2  C    0.674422
     3  C   -0.063135
     4  C    0.020543
     5  O   -0.962433
     6  C    1.281210
     7  O   -0.668679
     8  N   -0.213612
     9  N   -0.234326
    10  C    1.213137
    11  O   -0.653694
    12  O   -0.900145
    13  C    0.645825
    14  C   -0.048533
    15  C    0.013105
    16  C   -0.043968
    17  H   -0.005453
    18  H   -0.012610
    19  H    0.006766
    20  H   -0.011686
    21  H    0.061672
    22  H   -0.016462
    23  H   -0.008453
    24  H   -0.012883
    25  H   -0.013912
    26  H   -0.016847
    27  H    0.039822
    28  H   -0.007323
    29  H   -0.014785
    30  H   -0.007852
    31  H   -0.010928
    32  H    0.022969
    33  H   -0.012410
    34  H   -0.004891
 Sum of APT charges =   0.00000
 APT charges with hydrogens summed into heavy atoms:
               1
     1  C   -0.045747
     2  C    0.674422
     3  C   -0.029611
     4  C   -0.014705
     5  O   -0.962433
     6  C    1.281210
     7  O   -0.668679
     8  N   -0.213612
     9  N   -0.234326
    10  C    1.213137
    11  O   -0.653694
    12  O   -0.900145
    13  C    0.645825
    14  C   -0.032882
    15  C   -0.020460
    16  C   -0.038299
 Electronic spatial extent (au):  <R**2>=           5690.2267
 Charge=              0.0000 electrons
 Dipole moment (field-independent basis, Debye):
    X=             -0.6786    Y=              3.6814    Z=              0.0001  Tot=              3.7434
 Quadrupole moment (field-independent basis, Debye-Ang):
   XX=            -79.1340   YY=           -104.6420   ZZ=            -92.6988
   XY=              2.4356   XZ=              0.0041   YZ=             -0.5664
 Traceless Quadrupole moment (field-independent basis, Debye-Ang):
   XX=             13.0243   YY=            -12.4837   ZZ=             -0.5405
   XY=              2.4356   XZ=              0.0041   YZ=             -0.5664
 Octapole moment (field-independent basis, Debye-Ang**2):
  XXX=            -20.8854  YYY=             14.8487  ZZZ=              0.4172  XYY=             -1.9571
  XXY=             37.6238  XXZ=              2.1571  XZZ=              0.7935  YZZ=             -4.7707
  YYZ=              1.8349  XYZ=              0.0790
 Hexadecapole moment (field-independent basis, Debye-Ang**3):
 XXXX=          -5664.4670 YYYY=          -1004.2526 ZZZZ=           -450.2853 XXXY=             37.6570
 XXXZ=             -1.2656 YYYX=              8.4449 YYYZ=             -1.0762 ZZZX=             -6.8867
 ZZZY=             -2.4392 XXYY=          -1211.9810 XXZZ=          -1089.8583 YYZZ=           -230.3046
 XXYZ=              3.3938 YYXZ=              0.5128 ZZXY=             -5.7500
 N-N= 1.158324081866D+03 E-N=-4.187106682082D+03  KE= 7.949850207384D+02
  Exact polarizability: 181.025  -6.537 125.798  -1.833   1.453 103.553
 Approx polarizability: 220.745 -18.164 203.179  -4.044   4.256 145.143
 Calling FoFJK, ICntrl=    100127 FMM=F ISym2X=0 I1Cent= 0 IOpClX= 0 NMat=1 NMatS=1 NMatT=0.
 ***** Axes restored to original set *****
 -------------------------------------------------------------------
 Center     Atomic                   Forces (Hartrees/Bohr)
 Number     Number              X              Y              Z
 -------------------------------------------------------------------
      1        6           0.003407378   -0.006982212    0.011390948
      2        6          -0.006045361   -0.000802119   -0.027356193
      3        6           0.010662088   -0.004381611   -0.003858777
      4        6          -0.000501757    0.008152006    0.010911330
      5        8           0.013130076   -0.002870997    0.021935058
      6        6          -0.009092031   -0.027153202   -0.077507343
      7        8          -0.010941859    0.008648876    0.026500350
      8        7           0.007244499    0.007824835    0.032125231
      9        7          -0.002628468   -0.012257962   -0.036765575
     10        6          -0.001445859    0.027843408    0.073738056
     11        8          -0.015053266   -0.003757358   -0.029423605
     12        8           0.011544440   -0.002602909   -0.001907443
     13        6          -0.001624076    0.014596031    0.022614624
     14        6           0.010860700   -0.001896089   -0.004490582
     15        6          -0.005947443   -0.001892619   -0.012310062
     16        6           0.003515285   -0.011787368   -0.001819314
     17        1           0.000917219    0.003230163   -0.000204483
     18        1          -0.001074771    0.001876035   -0.001395853
     19        1           0.003547981    0.000354660   -0.000881765
     20        1          -0.004258598    0.002703451    0.001206609
     21        1          -0.004783650    0.001286415   -0.002171125
     22        1          -0.002175102    0.001574095   -0.000788580
     23        1           0.002712366   -0.002248863    0.001868139
     24        1           0.001494564   -0.000763139   -0.001167012
     25        1          -0.000436091   -0.001667496    0.000025177
     26        1          -0.002642725    0.001389667    0.000493792
     27        1          -0.001771009   -0.001540253    0.001546411
     28        1          -0.003532687   -0.000381352   -0.000669355
     29        1           0.001789200    0.000397655    0.000597737
     30        1           0.002800262   -0.002451701   -0.000709240
     31        1           0.000618225   -0.001125594    0.001297336
     32        1           0.002213742    0.001863851   -0.000857675
     33        1          -0.001683957    0.002414221    0.000126730
     34        1          -0.000819315    0.002407473   -0.002093548
 -------------------------------------------------------------------
 Cartesian Forces:  Max     0.077507343 RMS     0.014425982
 FormGI is forming the generalized inverse of G from B-inverse, IUseBI=4.

 GradGradGradGradGradGradGradGradGradGradGradGradGradGradGradGradGradGrad
 Berny optimization.
 Internal  Forces:  Max     0.050482897 RMS     0.009074681
 Search for a local minimum.
 Step number   1 out of a maximum of  170
 All quantities printed in internal units (Hartrees-Bohrs-Radians)
 Mixed Optimization -- RFO/linear search
 Second derivative matrix not updated -- analytic derivatives used.
 ITU=  0
     Eigenvalues ---   -0.00568  -0.00361  -0.00082   0.00155   0.00201
     Eigenvalues ---    0.00280   0.00286   0.00329   0.00336   0.00505
     Eigenvalues ---    0.00858   0.02644   0.04515   0.04524   0.04555
     Eigenvalues ---    0.04604   0.04604   0.04669   0.04701   0.04716
     Eigenvalues ---    0.04724   0.04739   0.04812   0.04872   0.04886
     Eigenvalues ---    0.04904   0.05773   0.05878   0.06772   0.06962
     Eigenvalues ---    0.07104   0.10050   0.11151   0.11360   0.11784
     Eigenvalues ---    0.12216   0.12220   0.12236   0.12243   0.12797
     Eigenvalues ---    0.12805   0.13318   0.13994   0.14201   0.14356
     Eigenvalues ---    0.14824   0.14871   0.15213   0.15227   0.15301
     Eigenvalues ---    0.15419   0.17764   0.17880   0.18799   0.19795
     Eigenvalues ---    0.20210   0.21474   0.23516   0.24080   0.26674
     Eigenvalues ---    0.26889   0.26898   0.27831   0.27863   0.28841
     Eigenvalues ---    0.29087   0.30253   0.31987   0.32308   0.33650
     Eigenvalues ---    0.33671   0.33823   0.33830   0.33851   0.33877
     Eigenvalues ---    0.33916   0.33938   0.34092   0.34218   0.34279
     Eigenvalues ---    0.34305   0.34579   0.34620   0.34857   0.34995
     Eigenvalues ---    0.35075   0.35155   0.35473   0.36148   0.49068
     Eigenvalues ---    0.53275   0.62620   0.78440   0.78888   0.81540
     Eigenvalues ---    0.85369
 RFO step:  Lambda=-3.52228837D-02 EMin=-5.68160584D-03
 Linear search not attempted -- first point.
 Maximum step size (   0.300) exceeded in Quadratic search.
    -- Step size scaled by   0.994
 Iteration  1 RMS(Cart)=  0.27026701 RMS(Int)=  0.05423018
 Iteration  2 RMS(Cart)=  0.27424381 RMS(Int)=  0.03105903
 Iteration  3 RMS(Cart)=  0.17434841 RMS(Int)=  0.00712301
 Iteration  4 RMS(Cart)=  0.03342233 RMS(Int)=  0.00054259
 Iteration  5 RMS(Cart)=  0.00044120 RMS(Int)=  0.00051031
 Iteration  6 RMS(Cart)=  0.00000017 RMS(Int)=  0.00051031
 Variable       Old X    -DE/DX   Delta X   Delta X   Delta X     New X
                                 (Linear)    (Quad)   (Total)
    R1        2.89887  -0.00162   0.00000  -0.00601  -0.00601   2.89286
    R2        2.06949  -0.00093   0.00000  -0.00093  -0.00093   2.06856
    R3        2.07168  -0.00011   0.00000  -0.00111  -0.00111   2.07056
    R4        2.06595   0.00165   0.00000  -0.00208  -0.00208   2.06387
    R5        2.89895   0.00335   0.00000   0.00271   0.00271   2.90166
    R6        2.90860  -0.00289   0.00000  -0.01501  -0.01501   2.89359
    R7        2.74755   0.00954   0.00000   0.02920   0.02920   2.77675
    R8        2.07020  -0.00018   0.00000  -0.00205  -0.00205   2.06814
    R9        2.06549  -0.00469   0.00000  -0.00311  -0.00311   2.06238
   R10        2.07115   0.00041   0.00000   0.00092   0.00092   2.07207
   R11        2.07183  -0.00230   0.00000  -0.00399  -0.00399   2.06784
   R12        2.07111  -0.00004   0.00000  -0.00182  -0.00182   2.06929
   R13        2.07129   0.00026   0.00000  -0.00120  -0.00120   2.07009
   R14        2.58366  -0.01771   0.00000  -0.06524  -0.06524   2.51843
   R15        2.31655  -0.02490   0.00000  -0.03539  -0.03539   2.28116
   R16        2.60383   0.04549   0.00000   0.12859   0.12859   2.73241
   R17        2.37285  -0.00122   0.00000  -0.01531  -0.01531   2.35754
   R18        2.60520   0.05048   0.00000   0.09894   0.09894   2.70414
   R19        2.31628  -0.02791   0.00000  -0.03823  -0.03823   2.27805
   R20        2.58150  -0.01109   0.00000  -0.06048  -0.06048   2.52102
   R21        2.74273   0.00429   0.00000   0.03785   0.03785   2.78057
   R22        2.89964   0.00070   0.00000  -0.00330  -0.00330   2.89634
   R23        2.90789  -0.00275   0.00000  -0.01412  -0.01412   2.89377
   R24        2.89962  -0.00038   0.00000  -0.00448  -0.00448   2.89514
   R25        2.07141   0.00031   0.00000  -0.00059  -0.00059   2.07081
   R26        2.06501  -0.00063   0.00000  -0.00185  -0.00185   2.06316
   R27        2.07007  -0.00071   0.00000  -0.00142  -0.00142   2.06865
   R28        2.07166  -0.00007   0.00000  -0.00183  -0.00183   2.06983
   R29        2.07132  -0.00199   0.00000  -0.00344  -0.00344   2.06788
   R30        2.07188  -0.00015   0.00000  -0.00239  -0.00239   2.06949
   R31        2.06545   0.00041   0.00000  -0.00078  -0.00078   2.06467
   R32        2.07147   0.00009   0.00000  -0.00139  -0.00139   2.07008
   R33        2.06968  -0.00074   0.00000  -0.00094  -0.00094   2.06874
    A1        1.94370  -0.00414   0.00000  -0.02838  -0.02866   1.91504
    A2        1.92925  -0.00013   0.00000  -0.00255  -0.00265   1.92661
    A3        1.96134  -0.00271   0.00000  -0.01546  -0.01559   1.94575
    A4        1.89225   0.00142   0.00000   0.00013  -0.00012   1.89213
    A5        1.87543   0.00301   0.00000   0.01811   0.01781   1.89324
    A6        1.85824   0.00307   0.00000   0.03161   0.03166   1.88990
    A7        1.95914  -0.00349   0.00000   0.01003   0.00863   1.96777
    A8        1.88232   0.00926   0.00000   0.04051   0.03981   1.92213
    A9        1.93741  -0.00606   0.00000  -0.00522  -0.00472   1.93269
   A10        1.88342  -0.00284   0.00000   0.02762   0.02641   1.90983
   A11        1.94459   0.01149   0.00000  -0.03149  -0.03122   1.91337
   A12        1.85179  -0.00860   0.00000  -0.04056  -0.04017   1.81162
   A13        1.94232  -0.00650   0.00000  -0.01994  -0.02017   1.92214
   A14        1.96247   0.00177   0.00000  -0.01203  -0.01208   1.95039
   A15        1.93102  -0.00083   0.00000  -0.01298  -0.01313   1.91789
   A16        1.87360   0.00253   0.00000   0.01625   0.01613   1.88972
   A17        1.89149   0.00142   0.00000   0.00011  -0.00022   1.89127
   A18        1.85927   0.00207   0.00000   0.03179   0.03182   1.89109
   A19        1.94555  -0.00465   0.00000  -0.02389  -0.02403   1.92151
   A20        1.93974  -0.00059   0.00000  -0.00437  -0.00444   1.93530
   A21        1.93895  -0.00015   0.00000  -0.00273  -0.00279   1.93616
   A22        1.88878   0.00199   0.00000   0.00716   0.00702   1.89580
   A23        1.88827   0.00191   0.00000   0.00647   0.00635   1.89462
   A24        1.85936   0.00190   0.00000   0.01980   0.01981   1.87917
   A25        2.09781   0.03357   0.00000  -0.03483  -0.03483   2.06297
   A26        2.16791   0.02647   0.00000   0.05264   0.05244   2.22035
   A27        1.91647  -0.02204   0.00000  -0.05582  -0.05601   1.86046
   A28        2.19878  -0.00450   0.00000   0.00293   0.00275   2.20154
   A29        1.95607   0.00539   0.00000  -0.01493  -0.01493   1.94114
   A30        1.95659   0.02632   0.00000  -0.00626  -0.00626   1.95033
   A31        2.19691  -0.03270   0.00000  -0.06689  -0.06800   2.12891
   A32        1.91570   0.02353   0.00000  -0.01911  -0.02035   1.89536
   A33        2.17057   0.00920   0.00000   0.08631   0.08490   2.25547
   A34        2.09853   0.00727   0.00000   0.01192   0.01192   2.11044
   A35        1.94442   0.00224   0.00000  -0.00568  -0.00544   1.93898
   A36        1.84989  -0.00623   0.00000  -0.04182  -0.04135   1.80853
   A37        1.93902  -0.00064   0.00000  -0.01992  -0.01957   1.91945
   A38        1.88351   0.00256   0.00000   0.03517   0.03470   1.91821
   A39        1.95943  -0.00268   0.00000  -0.00476  -0.00617   1.95326
   A40        1.88220   0.00478   0.00000   0.03850   0.03797   1.92017
   A41        1.93076  -0.00096   0.00000  -0.00056  -0.00064   1.93013
   A42        1.96248  -0.00119   0.00000  -0.01360  -0.01372   1.94876
   A43        1.94234  -0.00437   0.00000  -0.02944  -0.02969   1.91265
   A44        1.85890   0.00297   0.00000   0.02692   0.02696   1.88586
   A45        1.89120   0.00132   0.00000   0.00127   0.00107   1.89227
   A46        1.87447   0.00272   0.00000   0.01864   0.01837   1.89284
   A47        1.93972  -0.00046   0.00000  -0.00437  -0.00444   1.93528
   A48        1.94640  -0.00457   0.00000  -0.02422  -0.02437   1.92203
   A49        1.93856  -0.00039   0.00000  -0.00444  -0.00451   1.93405
   A50        1.88877   0.00193   0.00000   0.00629   0.00613   1.89490
   A51        1.85859   0.00192   0.00000   0.02148   0.02149   1.88007
   A52        1.88856   0.00198   0.00000   0.00787   0.00773   1.89628
   A53        1.96124  -0.00202   0.00000  -0.01671  -0.01684   1.94441
   A54        1.92845  -0.00067   0.00000  -0.00125  -0.00130   1.92715
   A55        1.94361  -0.00397   0.00000  -0.02622  -0.02646   1.91715
[...]
    10    C    1  pz     Ryd( 3p)     0.00165
    11    C    1  dxy    Ryd( 3d)     0.00034
    12    C    1  dxz    Ryd( 3d)     0.00051
    13    C    1  dyz    Ryd( 3d)     0.00066
    14    C    1  dx2y2  Ryd( 3d)     0.00101
    15    C    1  dz2    Ryd( 3d)     0.00076
 
    16    C    2  S      Cor( 1S)     1.99900
    17    C    2  S      Val( 2S)     0.91191
    18    C    2  S      Ryd( 3S)     0.00081
    19    C    2  S      Ryd( 4S)     0.00004
    20    C    2  px     Val( 2p)     0.69329
    21    C    2  px     Ryd( 3p)     0.00422
    22    C    2  py     Val( 2p)     1.04230
    23    C    2  py     Ryd( 3p)     0.00475
    24    C    2  pz     Val( 2p)     1.05568
    25    C    2  pz     Ryd( 3p)     0.00286
    26    C    2  dxy    Ryd( 3d)     0.00101
    27    C    2  dxz    Ryd( 3d)     0.00121
    28    C    2  dyz    Ryd( 3d)     0.00083
    29    C    2  dx2y2  Ryd( 3d)     0.00179
    30    C    2  dz2    Ryd( 3d)     0.00117
 
    31    C    3  S      Cor( 1S)     1.99932
    32    C    3  S      Val( 2S)     1.09990
    33    C    3  S      Ryd( 3S)     0.00050
    34    C    3  S      Ryd( 4S)     0.00002
    35    C    3  px     Val( 2p)     1.22337
    36    C    3  px     Ryd( 3p)     0.00130
    37    C    3  py     Val( 2p)     1.22453
    38    C    3  py     Ryd( 3p)     0.00217
    39    C    3  pz     Val( 2p)     1.14710
    40    C    3  pz     Ryd( 3p)     0.00185
    41    C    3  dxy    Ryd( 3d)     0.00029
    42    C    3  dxz    Ryd( 3d)     0.00063
    43    C    3  dyz    Ryd( 3d)     0.00048
    44    C    3  dx2y2  Ryd( 3d)     0.00106
    45    C    3  dz2    Ryd( 3d)     0.00082
 
    46    C    4  S      Cor( 1S)     1.99932
    47    C    4  S      Val( 2S)     1.09902
    48    C    4  S      Ryd( 3S)     0.00060
    49    C    4  S      Ryd( 4S)     0.00002
    50    C    4  px     Val( 2p)     1.24747
    51    C    4  px     Ryd( 3p)     0.00227
    52    C    4  py     Val( 2p)     1.07941
    53    C    4  py     Ryd( 3p)     0.00158
    54    C    4  pz     Val( 2p)     1.25112
    55    C    4  pz     Ryd( 3p)     0.00248
    56    C    4  dxy    Ryd( 3d)     0.00038
    57    C    4  dxz    Ryd( 3d)     0.00068
    58    C    4  dyz    Ryd( 3d)     0.00069
    59    C    4  dx2y2  Ryd( 3d)     0.00085
    60    C    4  dz2    Ryd( 3d)     0.00069
 
    61    O    5  S      Cor( 1S)     1.99970
    62    O    5  S      Val( 2S)     1.61523
    63    O    5  S      Ryd( 3S)     0.00231
    64    O    5  S      Ryd( 4S)     0.00015
    65    O    5  px     Val( 2p)     1.53914
    66    O    5  px     Ryd( 3p)     0.00143
    67    O    5  py     Val( 2p)     1.61310
    68    O    5  py     Ryd( 3p)     0.00165
    69    O    5  pz     Val( 2p)     1.76260
    70    O    5  pz     Ryd( 3p)     0.00198
    71    O    5  dxy    Ryd( 3d)     0.00137
    72    O    5  dxz    Ryd( 3d)     0.00041
    73    O    5  dyz    Ryd( 3d)     0.00162
    74    O    5  dx2y2  Ryd( 3d)     0.00136
    75    O    5  dz2    Ryd( 3d)     0.00082
 
    76    C    6  S      Cor( 1S)     1.99951
    77    C    6  S      Val( 2S)     0.72920
    78    C    6  S      Ryd( 3S)     0.00405
    79    C    6  S      Ryd( 4S)     0.00045
    80    C    6  px     Val( 2p)     0.80404
    81    C    6  px     Ryd( 3p)     0.00905
    82    C    6  py     Val( 2p)     0.70924
    83    C    6  py     Ryd( 3p)     0.02115
    84    C    6  pz     Val( 2p)     0.78061
    85    C    6  pz     Ryd( 3p)     0.00479
    86    C    6  dxy    Ryd( 3d)     0.00345
    87    C    6  dxz    Ryd( 3d)     0.00144
    88    C    6  dyz    Ryd( 3d)     0.00290
    89    C    6  dx2y2  Ryd( 3d)     0.00378
    90    C    6  dz2    Ryd( 3d)     0.00075
 
    91    O    7  S      Cor( 1S)     1.99976
    92    O    7  S      Val( 2S)     1.70717
    93    O    7  S      Ryd( 3S)     0.00085
    94    O    7  S      Ryd( 4S)     0.00013
    95    O    7  px     Val( 2p)     1.71232
    96    O    7  px     Ryd( 3p)     0.00112
    97    O    7  py     Val( 2p)     1.62160
    98    O    7  py     Ryd( 3p)     0.00071
    99    O    7  pz     Val( 2p)     1.48569
   100    O    7  pz     Ryd( 3p)     0.00070
   101    O    7  dxy    Ryd( 3d)     0.00500
   102    O    7  dxz    Ryd( 3d)     0.00133
   103    O    7  dyz    Ryd( 3d)     0.00407
   104    O    7  dx2y2  Ryd( 3d)     0.00490
   105    O    7  dz2    Ryd( 3d)     0.00161
 
   106    N    8  S      Cor( 1S)     1.99939
   107    N    8  S      Val( 2S)     1.39645
   108    N    8  S      Ryd( 3S)     0.00620
   109    N    8  S      Ryd( 4S)     0.00003
   110    N    8  px     Val( 2p)     1.12350
   111    N    8  px     Ryd( 3p)     0.00368
   112    N    8  py     Val( 2p)     1.45160
   113    N    8  py     Ryd( 3p)     0.00459
   114    N    8  pz     Val( 2p)     1.22905
   115    N    8  pz     Ryd( 3p)     0.00448
   116    N    8  dxy    Ryd( 3d)     0.00094
   117    N    8  dxz    Ryd( 3d)     0.00149
   118    N    8  dyz    Ryd( 3d)     0.00241
   119    N    8  dx2y2  Ryd( 3d)     0.00072
   120    N    8  dz2    Ryd( 3d)     0.00210
 
   121    N    9  S      Cor( 1S)     1.99939
   122    N    9  S      Val( 2S)     1.39644
   123    N    9  S      Ryd( 3S)     0.00620
   124    N    9  S      Ryd( 4S)     0.00003
   125    N    9  px     Val( 2p)     1.12349
   126    N    9  px     Ryd( 3p)     0.00368
   127    N    9  py     Val( 2p)     1.45161
   128    N    9  py     Ryd( 3p)     0.00459
   129    N    9  pz     Val( 2p)     1.22905
   130    N    9  pz     Ryd( 3p)     0.00448
   131    N    9  dxy    Ryd( 3d)     0.00094
   132    N    9  dxz    Ryd( 3d)     0.00149
   133    N    9  dyz    Ryd( 3d)     0.00241
   134    N    9  dx2y2  Ryd( 3d)     0.00072
   135    N    9  dz2    Ryd( 3d)     0.00210
 
   136    C   10  S      Cor( 1S)     1.99951
   137    C   10  S      Val( 2S)     0.72920
   138    C   10  S      Ryd( 3S)     0.00405
   139    C   10  S      Ryd( 4S)     0.00045
   140    C   10  px     Val( 2p)     0.80404
   141    C   10  px     Ryd( 3p)     0.00905
   142    C   10  py     Val( 2p)     0.70923
   143    C   10  py     Ryd( 3p)     0.02115
   144    C   10  pz     Val( 2p)     0.78060
   145    C   10  pz     Ryd( 3p)     0.00479
   146    C   10  dxy    Ryd( 3d)     0.00345
   147    C   10  dxz    Ryd( 3d)     0.00144
   148    C   10  dyz    Ryd( 3d)     0.00290
   149    C   10  dx2y2  Ryd( 3d)     0.00378
   150    C   10  dz2    Ryd( 3d)     0.00075
 
   151    O   11  S      Cor( 1S)     1.99976
   152    O   11  S      Val( 2S)     1.70717
   153    O   11  S      Ryd( 3S)     0.00085
   154    O   11  S      Ryd( 4S)     0.00013
   155    O   11  px     Val( 2p)     1.71232
   156    O   11  px     Ryd( 3p)     0.00112
   157    O   11  py     Val( 2p)     1.62160
   158    O   11  py     Ryd( 3p)     0.00071
   159    O   11  pz     Val( 2p)     1.48569
   160    O   11  pz     Ryd( 3p)     0.00070
   161    O   11  dxy    Ryd( 3d)     0.00500
   162    O   11  dxz    Ryd( 3d)     0.00133
   163    O   11  dyz    Ryd( 3d)     0.00407
   164    O   11  dx2y2  Ryd( 3d)     0.00490
   165    O   11  dz2    Ryd( 3d)     0.00161
 
   166    O   12  S      Cor( 1S)     1.99970
   167    O   12  S      Val( 2S)     1.61523
   168    O   12  S      Ryd( 3S)     0.00231
   169    O   12  S      Ryd( 4S)     0.00015
   170    O   12  px     Val( 2p)     1.53914
   171    O   12  px     Ryd( 3p)     0.00143
   172    O   12  py     Val( 2p)     1.61311
   173    O   12  py     Ryd( 3p)     0.00165
   174    O   12  pz     Val( 2p)     1.76260
   175    O   12  pz     Ryd( 3p)     0.00198
   176    O   12  dxy    Ryd( 3d)     0.00137
   177    O   12  dxz    Ryd( 3d)     0.00041
   178    O   12  dyz    Ryd( 3d)     0.00162
   179    O   12  dx2y2  Ryd( 3d)     0.00136
   180    O   12  dz2    Ryd( 3d)     0.00082
 
   181    C   13  S      Cor( 1S)     1.99900
   182    C   13  S      Val( 2S)     0.91191
   183    C   13  S      Ryd( 3S)     0.00081
   184    C   13  S      Ryd( 4S)     0.00004
   185    C   13  px     Val( 2p)     0.69329
   186    C   13  px     Ryd( 3p)     0.00422
   187    C   13  py     Val( 2p)     1.04230
   188    C   13  py     Ryd( 3p)     0.00475
   189    C   13  pz     Val( 2p)     1.05568
   190    C   13  pz     Ryd( 3p)     0.00286
   191    C   13  dxy    Ryd( 3d)     0.00101
   192    C   13  dxz    Ryd( 3d)     0.00121
   193    C   13  dyz    Ryd( 3d)     0.00083
   194    C   13  dx2y2  Ryd( 3d)     0.00179
   195    C   13  dz2    Ryd( 3d)     0.00117
 
   196    C   14  S      Cor( 1S)     1.99932
   197    C   14  S      Val( 2S)     1.09989
   198    C   14  S      Ryd( 3S)     0.00051
   199    C   14  S      Ryd( 4S)     0.00002
   200    C   14  px     Val( 2p)     1.20932
   201    C   14  px     Ryd( 3p)     0.00141
   202    C   14  py     Val( 2p)     1.26381
   203    C   14  py     Ryd( 3p)     0.00236
   204    C   14  pz     Val( 2p)     1.12273
   205    C   14  pz     Ryd( 3p)     0.00165
   206    C   14  dxy    Ryd( 3d)     0.00034
   207    C   14  dxz    Ryd( 3d)     0.00051
   208    C   14  dyz    Ryd( 3d)     0.00066
   209    C   14  dx2y2  Ryd( 3d)     0.00101
   210    C   14  dz2    Ryd( 3d)     0.00076
 
   211    C   15  S      Cor( 1S)     1.99932
   212    C   15  S      Val( 2S)     1.09902
   213    C   15  S      Ryd( 3S)     0.00060
   214    C   15  S      Ryd( 4S)     0.00002
   215    C   15  px     Val( 2p)     1.24747
   216    C   15  px     Ryd( 3p)     0.00227
   217    C   15  py     Val( 2p)     1.07941
   218    C   15  py     Ryd( 3p)     0.00158
   219    C   15  pz     Val( 2p)     1.25112
   220    C   15  pz     Ryd( 3p)     0.00248
   221    C   15  dxy    Ryd( 3d)     0.00038
   222    C   15  dxz    Ryd( 3d)     0.00068
   223    C   15  dyz    Ryd( 3d)     0.00069
   224    C   15  dx2y2  Ryd( 3d)     0.00085
   225    C   15  dz2    Ryd( 3d)     0.00069
 
   226    C   16  S      Cor( 1S)     1.99932
   227    C   16  S      Val( 2S)     1.09990
   228    C   16  S      Ryd( 3S)     0.00050
   229    C   16  S      Ryd( 4S)     0.00002
   230    C   16  px     Val( 2p)     1.22337
   231    C   16  px     Ryd( 3p)     0.00130
   232    C   16  py     Val( 2p)     1.22453
   233    C   16  py     Ryd( 3p)     0.00217
   234    C   16  pz     Val( 2p)     1.14710
   235    C   16  pz     Ryd( 3p)     0.00185
   236    C   16  dxy    Ryd( 3d)     0.00029
   237    C   16  dxz    Ryd( 3d)     0.00063
   238    C   16  dyz    Ryd( 3d)     0.00048
   239    C   16  dx2y2  Ryd( 3d)     0.00106
   240    C   16  dz2    Ryd( 3d)     0.00082
 
   241    H   17  S      Val( 1S)     0.75766
   242    H   17  S      Ryd( 2S)     0.00074
 
   243    H   18  S      Val( 1S)     0.75843
   244    H   18  S      Ryd( 2S)     0.00112
 
   245    H   19  S      Val( 1S)     0.74114
   246    H   19  S      Ryd( 2S)     0.00136
 
   247    H   20  S      Val( 1S)     0.75958
   248    H   20  S      Ryd( 2S)     0.00077
 
   249    H   21  S      Val( 1S)     0.74073
   250    H   21  S      Ryd( 2S)     0.00123
 
   251    H   22  S      Val( 1S)     0.75750
   252    H   22  S      Ryd( 2S)     0.00112
 
   253    H   23  S      Val( 1S)     0.76021
   254    H   23  S      Ryd( 2S)     0.00068
 
   255    H   24  S      Val( 1S)     0.75441
   256    H   24  S      Ryd( 2S)     0.00106
 
   257    H   25  S      Val( 1S)     0.75527
   258    H   25  S      Ryd( 2S)     0.00106
 
   259    H   26  S      Val( 1S)     0.75843
   260    H   26  S      Ryd( 2S)     0.00112
 
   261    H   27  S      Val( 1S)     0.74114
   262    H   27  S      Ryd( 2S)     0.00136
 
   263    H   28  S      Val( 1S)     0.75766
   264    H   28  S      Ryd( 2S)     0.00074
 
   265    H   29  S      Val( 1S)     0.75527
   266    H   29  S      Ryd( 2S)     0.00106
 
   267    H   30  S      Val( 1S)     0.76021
   268    H   30  S      Ryd( 2S)     0.00068
 
   269    H   31  S      Val( 1S)     0.75441
   270    H   31  S      Ryd( 2S)     0.00106
 
   271    H   32  S      Val( 1S)     0.74073
   272    H   32  S      Ryd( 2S)     0.00123
 
   273    H   33  S      Val( 1S)     0.75750
   274    H   33  S      Ryd( 2S)     0.00112
 
   275    H   34  S      Val( 1S)     0.75958
   276    H   34  S      Ryd( 2S)     0.00077

 WARNING:  1 low occupancy (<1.9990e) core orbital  found on  C    2
           1 low occupancy (<1.9990e) core orbital  found on  C   13


 Summary of Natural Population Analysis:                  
                                                          
                                       Natural Population 
                Natural  -----------------------------------------------
    Atom  No    Charge         Core      Valence    Rydberg      Total
 -----------------------------------------------------------------------
      C    1   -0.70429      1.99932     4.69575    0.00922     6.70429
      C    2    0.27913      1.99900     3.70317    0.01870     5.72087
      C    3   -0.70333      1.99932     4.69491    0.00911     6.70333
      C    4   -0.68657      1.99932     4.67703    0.01022     6.68657
      O    5   -0.54286      1.99970     6.53007    0.01309     8.54286
      C    6    0.92561      1.99951     3.02308    0.05180     5.07439
      O    7   -0.54697      1.99976     6.52679    0.02041     8.54697
      N    8   -0.22662      1.99939     5.20060    0.02664     7.22662
      N    9   -0.22662      1.99939     5.20060    0.02664     7.22662
      C   10    0.92561      1.99951     3.02308    0.05180     5.07439
      O   11   -0.54696      1.99976     6.52679    0.02041     8.54696
      O   12   -0.54285      1.99970     6.53006    0.01309     8.54285
      C   13    0.27913      1.99900     3.70317    0.01870     5.72087
      C   14   -0.70429      1.99932     4.69575    0.00922     6.70429
      C   15   -0.68657      1.99932     4.67703    0.01022     6.68657
      C   16   -0.70333      1.99932     4.69491    0.00911     6.70333
      H   17    0.24160      0.00000     0.75766    0.00074     0.75840
      H   18    0.24045      0.00000     0.75843    0.00112     0.75955
      H   19    0.25750      0.00000     0.74114    0.00136     0.74250
      H   20    0.23965      0.00000     0.75958    0.00077     0.76035
      H   21    0.25803      0.00000     0.74073    0.00123     0.74197
      H   22    0.24138      0.00000     0.75750    0.00112     0.75862
      H   23    0.23911      0.00000     0.76021    0.00068     0.76089
      H   24    0.24454      0.00000     0.75441    0.00106     0.75546
      H   25    0.24366      0.00000     0.75527    0.00106     0.75634
      H   26    0.24045      0.00000     0.75843    0.00112     0.75955
      H   27    0.25750      0.00000     0.74114    0.00136     0.74250
      H   28    0.24160      0.00000     0.75766    0.00074     0.75840
      H   29    0.24366      0.00000     0.75527    0.00106     0.75634
      H   30    0.23911      0.00000     0.76021    0.00068     0.76089
      H   31    0.24454      0.00000     0.75441    0.00106     0.75546
      H   32    0.25803      0.00000     0.74073    0.00123     0.74197
      H   33    0.24138      0.00000     0.75750    0.00112     0.75862
      H   34    0.23965      0.00000     0.75958    0.00077     0.76035
 =======================================================================
   * Total *   -0.00000     31.99065    91.67264    0.33671   124.00000

                                 Natural Population      
 --------------------------------------------------------
   Core                      31.99065 ( 99.9708% of  32)
   Valence                   91.67264 ( 99.6442% of  92)
   Natural Minimal Basis    123.66329 ( 99.7285% of 124)
   Natural Rydberg Basis      0.33671 (  0.2715% of 124)
 --------------------------------------------------------

    Atom  No          Natural Electron Configuration
 ----------------------------------------------------------------------------
      C    1      [core]2S( 1.10)2p( 3.60)3p( 0.01)
      C    2      [core]2S( 0.91)2p( 2.79)3p( 0.01)3d( 0.01)
      C    3      [core]2S( 1.10)2p( 3.60)3p( 0.01)
      C    4      [core]2S( 1.10)2p( 3.58)3p( 0.01)
      O    5      [core]2S( 1.62)2p( 4.91)3p( 0.01)3d( 0.01)
      C    6      [core]2S( 0.73)2p( 2.29)3p( 0.03)3d( 0.01)
      O    7      [core]2S( 1.71)2p( 4.82)3d( 0.02)
      N    8      [core]2S( 1.40)2p( 3.80)3S( 0.01)3p( 0.01)3d( 0.01)
      N    9      [core]2S( 1.40)2p( 3.80)3S( 0.01)3p( 0.01)3d( 0.01)
      C   10      [core]2S( 0.73)2p( 2.29)3p( 0.03)3d( 0.01)
      O   11      [core]2S( 1.71)2p( 4.82)3d( 0.02)
      O   12      [core]2S( 1.62)2p( 4.91)3p( 0.01)3d( 0.01)
      C   13      [core]2S( 0.91)2p( 2.79)3p( 0.01)3d( 0.01)
      C   14      [core]2S( 1.10)2p( 3.60)3p( 0.01)
      C   15      [core]2S( 1.10)2p( 3.58)3p( 0.01)
      C   16      [core]2S( 1.10)2p( 3.60)3p( 0.01)
      H   17            1S( 0.76)
      H   18            1S( 0.76)
      H   19            1S( 0.74)
      H   20            1S( 0.76)
      H   21            1S( 0.74)
      H   22            1S( 0.76)
      H   23            1S( 0.76)
      H   24            1S( 0.75)
      H   25            1S( 0.76)
      H   26            1S( 0.76)
      H   27            1S( 0.74)
      H   28            1S( 0.76)
      H   29            1S( 0.76)
      H   30            1S( 0.76)
      H   31            1S( 0.75)
      H   32            1S( 0.74)
      H   33            1S( 0.76)
      H   34            1S( 0.76)


 NBO analysis skipped by request.
 1\1\GINC-DELLA-R2C1N9\SP\RB3LYP TD-FC\6-31G(d)\C10H18N2O4\BJS4\22-Aug-
 2020\0\\# TD(NStates=10, Root=1) B3LYP/6-31G* scf=qc volume pop=NPA de
 nsity=current Geom=AllCheck Guess=Read\\Title Card Required\\0,1\C,0,2
 .3090170633,-0.5235601693,-0.3180211125\C,0,3.1216675583,0.772694923,-
 0.3546690689\C,0,4.2478519605,0.7350406505,-1.390212555\C,0,2.21831753
 23,1.9884731201,-0.5615549335\O,0,3.7002589554,1.0330650488,0.99260583
 49\C,0,4.54965504,0.1816205088,1.5528449101\O,0,4.9882850484,-0.861261
 1152,1.1341480889\N,0,4.8442892754,0.6155549132,2.9090217303\N,0,5.708
 6450469,1.5104295145,2.9542687559\C,0,6.0880236112,1.8623756613,4.3131
 398556\O,0,7.130256708,1.4724140563,4.7789569301\O,0,5.1915542088,2.70
 01918097,4.8178244286\C,0,5.3886369996,3.3297050838,6.1529576424\C,0,6
 .6583769197,4.183691655,6.1308502513\C,0,4.1380802654,4.1979950377,6.2
 913060331\C,0,5.4287335662,2.2388992838,7.2256153693\H,0,1.7924894724,
 -0.653828312,-1.2753885561\H,0,1.5523836314,-0.479259432,0.4726250316\
 H,0,2.949715419,-1.3907280051,-0.1480599371\H,0,3.8147363584,0.6656742
 591,-2.3942202128\H,0,4.903553635,-0.1232796207,-1.2333054248\H,0,4.84
 45345229,1.6518738454,-1.3392306737\H,0,1.7236894419,1.9227850043,-1.5
 362151054\H,0,2.8016008239,2.9140096283,-0.5295165704\H,0,1.4491718197
 ,2.036961776,0.2156764839\H,0,6.6155729901,4.9129037369,5.3147647281\H
 ,0,7.5509691518,3.5672846505,6.0096779443\H,0,6.7403165435,4.734459866
 ,7.0743878764\H,0,4.0902470424,4.9399917603,5.48807643\H,0,4.155650347
 7,4.7252770257,7.2507847091\H,0,3.233486325,3.5833506811,6.2490466846\
 H,0,6.3125454202,1.6076240494,7.1176968072\H,0,4.5338905865,1.61055842
 68,7.165149092\H,0,5.4510067089,2.7057906782,8.2165485327\\Version=ES6
 4L-G16RevA.03\State=1-A\HF=-802.2806175\RMSD=1.750e-09\Dipole=-1.21267
 47,1.173383,-0.0385673\Quadrupole=-5.9568536,-5.3652471,11.3221007,4.7
 003722,3.9248413,4.7701416\PG=C01 [X(C10H18N2O4)]\\@


 IT IS IMPOSSIBLE TO MEDITATE ON TIME AND THE MYSTERY 
 OF NATURE WITHOUT AN OVERWHELMING EMOTION AT THE
 LIMITATIONS OF HUMAN INTELLIGENCE.

                                         -- ALFRED NORTH WHITEHEAD
 Job cpu time:       0 days  0 hours 32 minutes 28.6 seconds.
 Elapsed time:       0 days  0 hours  6 minutes 30.9 seconds.
 File lengths (MBytes):  RWF=    679 Int=      0 D2E=      0 Chk=    268 Scr=      1
 Normal termination of Gaussian 16 at Sat Aug 22 13:58:27 2020.
