 Entering Gaussian System, Link 0=g16
 Input=azadicarboxylate_2_conf9123.com
 Output=azadicarboxylate_2_conf9123.log
 Initial command:
 /opt/export//g16/l1.exe "/scratch/bjs4/job.23085/Gau-23087.inp" -scrdir="/scratch/bjs4/job.23085/"
 Entering Link 1 = /opt/export//g16/l1.exe PID=     23089.
  
 Copyright (c) 1988,1990,1992,1993,1995,1998,2003,2009,2016,
            Gaussian, Inc.  All Rights Reserved.
  
 This is part of the Gaussian(R) 16 program.  It is based on
 the Gaussian(R) 09 system (copyright 2009, Gaussian, Inc.),
 the Gaussian(R) 03 system (copyright 2003, Gaussian, Inc.),
 the Gaussian(R) 98 system (copyright 1998, Gaussian, Inc.),
 the Gaussian(R) 94 system (copyright 1995, Gaussian, Inc.),
 the Gaussian 92(TM) system (copyright 1992, Gaussian, Inc.),
 the Gaussian 90(TM) system (copyright 1990, Gaussian, Inc.),
 the Gaussian 88(TM) system (copyright 1988, Gaussian, Inc.),
 the Gaussian 86(TM) system (copyright 1986, Carnegie Mellon
 University), and the Gaussian 82(TM) system (copyright 1983,
 Carnegie Mellon University). Gaussian is a federally registered
 trademark of Gaussian, Inc.
  
 This software contains proprietary and confidential information,
 including trade secrets, belonging to Gaussian, Inc.
  
 This software is provided under written license and may be
 used, copied, transmitted, or stored only in accord with that
 written license.
  
 The following legend is applicable only to US Government
 contracts under FAR:
  
                    RESTRICTED RIGHTS LEGEND
  
 Use, reproduction and disclosure by the US Government is
 subject to restrictions as set forth in subparagraphs (a)
 and (c) of the Commercial Computer Software - Restricted
 Rights clause in FAR 52.227-19.
  
 Gaussian, Inc.
 340 Quinnipiac St., Bldg. 40, Wallingford CT 06492
  
  
 ---------------------------------------------------------------
 Warning -- This program may not be used in any manner that
 competes with the business of Gaussian, Inc. or will provide
 assistance to any competitor of Gaussian, Inc.  The licensee
 of this program is prohibited from giving any competitor of
 Gaussian, Inc. access to this program.  By using this program,
 the user acknowledges that Gaussian, Inc. is engaged in the
 business of creating and licensing software in the field of
 computational chemistry and represents and warrants to the
 licensee that it is not a competitor of Gaussian, Inc. and that
 it will not use this program in any manner prohibited above.
 ---------------------------------------------------------------
  

 Cite this work as:
 Gaussian 16, Revision A.03,
 M. J. Frisch, G. W. Trucks, H. B. Schlegel, G. E. Scuseria, 
 M. A. Robb, J. R. Cheeseman, G. Scalmani, V. Barone, 
 G. A. Petersson, H. Nakatsuji, X. Li, M. Caricato, A. V. Marenich, 
 J. Bloino, B. G. Janesko, R. Gomperts, B. Mennucci, H. P. Hratchian, 
 J. V. Ortiz, A. F. Izmaylov, J. L. Sonnenberg, D. Williams-Young, 
 F. Ding, F. Lipparini, F. Egidi, J. Goings, B. Peng, A. Petrone, 
 T. Henderson, D. Ranasinghe, V. G. Zakrzewski, J. Gao, N. Rega, 
 G. Zheng, W. Liang, M. Hada, M. Ehara, K. Toyota, R. Fukuda, 
 J. Hasegawa, M. Ishida, T. Nakajima, Y. Honda, O. Kitao, H. Nakai, 
 T. Vreven, K. Throssell, J. A. Montgomery, Jr., J. E. Peralta, 
 F. Ogliaro, M. J. Bearpark, J. J. Heyd, E. N. Brothers, K. N. Kudin, 
 V. N. Staroverov, T. A. Keith, R. Kobayashi, J. Normand, 
 K. Raghavachari, A. P. Rendell, J. C. Burant, S. S. Iyengar, 
 J. Tomasi, M. Cossi, J. M. Millam, M. Klene, C. Adamo, R. Cammi, 
 J. W. Ochterski, R. L. Martin, K. Morokuma, O. Farkas, 
 J. B. Foresman, and D. J. Fox, Gaussian, Inc., Wallingford CT, 2016.
 
 ******************************************
 Gaussian 16:  ES64L-G16RevA.03 25-Dec-2016
                22-Aug-2020 
 ******************************************
 %nprocshared=4
 Will use up to    4 processors via shared memory.
 %Mem=8GB
 %Chk=azadicarboxylate_2_conf91.chk
 ---------------------------------
 # opt=CalcAll B3LYP/6-31G* scf=qc
 ---------------------------------
 1/10=4,18=20,19=15,26=3,38=1/1,3;
 2/9=110,12=2,17=6,18=5,40=1/2;
 3/5=1,6=6,7=1,11=2,25=1,30=1,71=2,74=-5,140=1/1,2,3;
 4//1;
 5/5=2,8=3,38=5/8;
 8/6=4,10=90,11=11/1;
 11/6=1,8=1,9=11,15=111,16=1/1,2,10;
 10/6=1/2;
 6/7=2,8=2,9=2,10=2,18=1,28=1/1;
 7/10=1,25=1/1,2,3,16;
 1/10=4,18=20,19=15,26=3/3(3);
 2/9=110/2;
 7/8=1,9=1,25=1,44=-1/16;
 99//99;
 2/9=110/2;
 3/5=1,6=6,7=1,11=2,25=1,30=1,71=2,74=-5,140=1/1,2,3;
 4/5=5,16=3,69=1/1;
 5/5=2,8=3,38=5/8;
 8/6=4,10=90,11=11/1;
 11/6=1,8=1,9=11,15=111,16=1/1,2,10;
 10/6=1/2;
 7/10=1,25=1/1,2,3,16;
 1/10=4,18=20,19=15,26=3/3(-8);
 2/9=110/2;
 6/7=2,8=2,9=2,10=2,18=1,19=2,28=1/1;
 7/8=1,9=1,25=1,44=-1/16;
 99//99;
 -------------------
 Title Card Required
 -------------------
 Symbolic Z-matrix:
 Charge =  0 Multiplicity = 1
 C                     3.72681  -1.74644   0.24268 
 C                     2.84283  -0.53592   0.52553 
 C                     1.41154  -0.9836    0.80497 
 O1                    3.32234   0.15818   1.69274 
 C2                    4.6047    0.6255    1.633 
 O3                    5.33488   0.48072   0.65794 
 N4                    4.9196    1.2612    2.8145 
 N5                    6.1396    1.1728    3.0913 
 C6                    6.4621    1.8155    4.2661 
 O7                    7.35585   1.51411   5.05003 
 O8                    5.61887   2.87525   4.45052 
 C                     5.82413   3.65577   5.64319 
 C                     6.14255   5.1002    5.27062 
 C                     4.53862   3.59405   6.46152 
 H                     3.35905  -2.31049  -0.62023 
 H                     3.76224  -2.41505   1.10982 
 H                     4.75786  -1.44188   0.03872 
 H                     2.82789   0.13881  -0.33941 
 H                     1.3626   -1.6193    1.69613 
 H                     0.99651  -1.5385   -0.04298 
 H                     0.76964  -0.11764   0.99939 
 H                     6.63487   3.22706   6.24473 
 H                     5.35523   5.52305   4.63703 
 H                     7.07346   5.16172   4.69792 
 H                     6.24795   5.72435   6.16321 
 H                     3.6856    3.97186   5.88632 
 H                     4.62565   4.18029   7.38222 
 H                     4.30415   2.55867   6.73024 
 

 GradGradGradGradGradGradGradGradGradGradGradGradGradGradGradGradGradGrad
 Berny optimization.
 Initialization pass.
                           ----------------------------
                           !    Initial Parameters    !
                           ! (Angstroms and Degrees)  !
 --------------------------                            --------------------------
 ! Name  Definition              Value          Derivative Info.                !
 --------------------------------------------------------------------------------
 ! R1    R(1,2)                  1.5254         calculate D2E/DX2 analytically  !
 ! R2    R(1,15)                 1.0945         calculate D2E/DX2 analytically  !
 ! R3    R(1,16)                 1.0955         calculate D2E/DX2 analytically  !
 ! R4    R(1,17)                 1.0943         calculate D2E/DX2 analytically  !
 ! R5    R(2,3)                  1.5255         calculate D2E/DX2 analytically  !
 ! R6    R(2,4)                  1.4402         calculate D2E/DX2 analytically  !
 ! R7    R(2,18)                 1.0971         calculate D2E/DX2 analytically  !
 ! R8    R(3,19)                 1.0958         calculate D2E/DX2 analytically  !
 ! R9    R(3,20)                 1.0951         calculate D2E/DX2 analytically  !
 ! R10   R(3,21)                 1.0953         calculate D2E/DX2 analytically  !
 ! R11   R(4,5)                  1.3662         calculate D2E/DX2 analytically  !
 ! R12   R(5,6)                  1.2267         calculate D2E/DX2 analytically  !
 ! R13   R(5,7)                  1.3781         calculate D2E/DX2 analytically  !
 ! R14   R(7,8)                  1.2541         calculate D2E/DX2 analytically  !
 ! R15   R(8,9)                  1.3774         calculate D2E/DX2 analytically  !
 ! R16   R(9,10)                 1.2264         calculate D2E/DX2 analytically  !
 ! R17   R(9,11)                 1.3668         calculate D2E/DX2 analytically  !
 ! R18   R(11,12)                1.4401         calculate D2E/DX2 analytically  !
 ! R19   R(12,13)                1.5253         calculate D2E/DX2 analytically  !
 ! R20   R(12,14)                1.5251         calculate D2E/DX2 analytically  !
 ! R21   R(12,22)                1.0968         calculate D2E/DX2 analytically  !
 ! R22   R(13,23)                1.0955         calculate D2E/DX2 analytically  !
 ! R23   R(13,24)                1.0947         calculate D2E/DX2 analytically  !
 ! R24   R(13,25)                1.0943         calculate D2E/DX2 analytically  !
 ! R25   R(14,26)                1.096          calculate D2E/DX2 analytically  !
 ! R26   R(14,27)                1.095          calculate D2E/DX2 analytically  !
 ! R27   R(14,28)                1.0951         calculate D2E/DX2 analytically  !
 ! A1    A(2,1,15)             111.1268         calculate D2E/DX2 analytically  !
 ! A2    A(2,1,16)             110.8728         calculate D2E/DX2 analytically  !
 ! A3    A(2,1,17)             111.0833         calculate D2E/DX2 analytically  !
 ! A4    A(15,1,16)            108.6854         calculate D2E/DX2 analytically  !
 ! A5    A(15,1,17)            108.2442         calculate D2E/DX2 analytically  !
 ! A6    A(16,1,17)            106.6735         calculate D2E/DX2 analytically  !
 ! A7    A(1,2,3)              110.17           calculate D2E/DX2 analytically  !
 ! A8    A(1,2,4)              109.8651         calculate D2E/DX2 analytically  !
 ! A9    A(1,2,18)             110.4733         calculate D2E/DX2 analytically  !
 ! A10   A(3,2,4)              107.7806         calculate D2E/DX2 analytically  !
 ! A11   A(3,2,18)             108.1877         calculate D2E/DX2 analytically  !
 ! A12   A(4,2,18)             110.3095         calculate D2E/DX2 analytically  !
 ! A13   A(2,3,19)             111.1702         calculate D2E/DX2 analytically  !
 ! A14   A(2,3,20)             111.2514         calculate D2E/DX2 analytically  !
 ! A15   A(2,3,21)             110.5089         calculate D2E/DX2 analytically  !
 ! A16   A(19,3,20)            108.5934         calculate D2E/DX2 analytically  !
 ! A17   A(19,3,21)            106.7462         calculate D2E/DX2 analytically  !
 ! A18   A(20,3,21)            108.4184         calculate D2E/DX2 analytically  !
 ! A19   A(2,4,5)              116.2285         calculate D2E/DX2 analytically  !
 ! A20   A(4,5,6)              123.5798         calculate D2E/DX2 analytically  !
 ! A21   A(4,5,7)              109.5593         calculate D2E/DX2 analytically  !
 ! A22   A(6,5,7)              126.8609         calculate D2E/DX2 analytically  !
 ! A23   A(5,7,8)              112.2711         calculate D2E/DX2 analytically  !
 ! A24   A(7,8,9)              112.5273         calculate D2E/DX2 analytically  !
 ! A25   A(8,9,10)             126.9509         calculate D2E/DX2 analytically  !
 ! A26   A(8,9,11)             109.4156         calculate D2E/DX2 analytically  !
 ! A27   A(10,9,11)            123.6334         calculate D2E/DX2 analytically  !
 ! A28   A(9,11,12)            116.363          calculate D2E/DX2 analytically  !
 ! A29   A(11,12,13)           109.9208         calculate D2E/DX2 analytically  !
 ! A30   A(11,12,14)           107.5964         calculate D2E/DX2 analytically  !
 ! A31   A(11,12,22)           110.349          calculate D2E/DX2 analytically  !
 ! A32   A(13,12,14)           110.2027         calculate D2E/DX2 analytically  !
 ! A33   A(13,12,22)           110.4753         calculate D2E/DX2 analytically  !
 ! A34   A(14,12,22)           108.2376         calculate D2E/DX2 analytically  !
 ! A35   A(12,13,23)           110.9013         calculate D2E/DX2 analytically  !
 ! A36   A(12,13,24)           111.0098         calculate D2E/DX2 analytically  !
 ! A37   A(12,13,25)           111.1621         calculate D2E/DX2 analytically  !
 ! A38   A(23,13,24)           106.6721         calculate D2E/DX2 analytically  !
 ! A39   A(23,13,25)           108.7133         calculate D2E/DX2 analytically  !
 ! A40   A(24,13,25)           108.2268         calculate D2E/DX2 analytically  !
 ! A41   A(12,14,26)           111.129          calculate D2E/DX2 analytically  !
 ! A42   A(12,14,27)           111.2545         calculate D2E/DX2 analytically  !
 ! A43   A(12,14,28)           110.5119         calculate D2E/DX2 analytically  !
 ! A44   A(26,14,27)           108.5777         calculate D2E/DX2 analytically  !
 ! A45   A(26,14,28)           106.742          calculate D2E/DX2 analytically  !
 ! A46   A(27,14,28)           108.4751         calculate D2E/DX2 analytically  !
 ! D1    D(15,1,2,3)            59.3513         calculate D2E/DX2 analytically  !
 ! D2    D(15,1,2,4)           177.9471         calculate D2E/DX2 analytically  !
 ! D3    D(15,1,2,18)          -60.1266         calculate D2E/DX2 analytically  !
 ! D4    D(16,1,2,3)           -61.6411         calculate D2E/DX2 analytically  !
 ! D5    D(16,1,2,4)            56.9547         calculate D2E/DX2 analytically  !
 ! D6    D(16,1,2,18)          178.881          calculate D2E/DX2 analytically  !
 ! D7    D(17,1,2,3)           179.9272         calculate D2E/DX2 analytically  !
 ! D8    D(17,1,2,4)           -61.4771         calculate D2E/DX2 analytically  !
 ! D9    D(17,1,2,18)           60.4493         calculate D2E/DX2 analytically  !
 ! D10   D(1,2,3,19)            62.2006         calculate D2E/DX2 analytically  !
 ! D11   D(1,2,3,20)           -58.9633         calculate D2E/DX2 analytically  !
 ! D12   D(1,2,3,21)          -179.4556         calculate D2E/DX2 analytically  !
 ! D13   D(4,2,3,19)           -57.6651         calculate D2E/DX2 analytically  !
 ! D14   D(4,2,3,20)          -178.829          calculate D2E/DX2 analytically  !
 ! D15   D(4,2,3,21)            60.6787         calculate D2E/DX2 analytically  !
 ! D16   D(18,2,3,19)         -176.942          calculate D2E/DX2 analytically  !
 ! D17   D(18,2,3,20)           61.8941         calculate D2E/DX2 analytically  !
 ! D18   D(18,2,3,21)          -58.5982         calculate D2E/DX2 analytically  !
 ! D19   D(1,2,4,5)             59.2946         calculate D2E/DX2 analytically  !
 ! D20   D(3,2,4,5)            179.353          calculate D2E/DX2 analytically  !
 ! D21   D(18,2,4,5)           -62.7292         calculate D2E/DX2 analytically  !
 ! D22   D(2,4,5,6)             -0.0007         calculate D2E/DX2 analytically  !
 ! D23   D(2,4,5,7)           -179.9503         calculate D2E/DX2 analytically  !
 ! D24   D(4,5,7,8)            149.6469         calculate D2E/DX2 analytically  !
 ! D25   D(6,5,7,8)            -30.3006         calculate D2E/DX2 analytically  !
 ! D26   D(5,7,8,9)            179.5215         calculate D2E/DX2 analytically  !
 ! D27   D(7,8,9,10)           149.6472         calculate D2E/DX2 analytically  !
 ! D28   D(7,8,9,11)           -30.2712         calculate D2E/DX2 analytically  !
 ! D29   D(8,9,11,12)          179.9216         calculate D2E/DX2 analytically  !
 ! D30   D(10,9,11,12)           0.0            calculate D2E/DX2 analytically  !
 ! D31   D(9,11,12,13)         120.0001         calculate D2E/DX2 analytically  !
 ! D32   D(9,11,12,14)        -119.9809         calculate D2E/DX2 analytically  !
 ! D33   D(9,11,12,22)          -2.0893         calculate D2E/DX2 analytically  !
 ! D34   D(11,12,13,23)         55.7915         calculate D2E/DX2 analytically  !
 ! D35   D(11,12,13,24)        -62.6096         calculate D2E/DX2 analytically  !
 ! D36   D(11,12,13,25)        176.8626         calculate D2E/DX2 analytically  !
 ! D37   D(14,12,13,23)        -62.6322         calculate D2E/DX2 analytically  !
 ! D38   D(14,12,13,24)        178.9667         calculate D2E/DX2 analytically  !
 ! D39   D(14,12,13,25)         58.4389         calculate D2E/DX2 analytically  !
 ! D40   D(22,12,13,23)        177.8058         calculate D2E/DX2 analytically  !
 ! D41   D(22,12,13,24)         59.4048         calculate D2E/DX2 analytically  !
 ! D42   D(22,12,13,25)        -61.1231         calculate D2E/DX2 analytically  !
 ! D43   D(11,12,14,26)        -58.2612         calculate D2E/DX2 analytically  !
 ! D44   D(11,12,14,27)       -179.3789         calculate D2E/DX2 analytically  !
 ! D45   D(11,12,14,28)         60.0531         calculate D2E/DX2 analytically  !
 ! D46   D(13,12,14,26)         61.5791         calculate D2E/DX2 analytically  !
 ! D47   D(13,12,14,27)        -59.5387         calculate D2E/DX2 analytically  !
 ! D48   D(13,12,14,28)        179.8934         calculate D2E/DX2 analytically  !
 ! D49   D(22,12,14,26)       -177.5101         calculate D2E/DX2 analytically  !
 ! D50   D(22,12,14,27)         61.3721         calculate D2E/DX2 analytically  !
 ! D51   D(22,12,14,28)        -59.1958         calculate D2E/DX2 analytically  !
 --------------------------------------------------------------------------------
 Trust Radius=3.00D-01 FncErr=1.00D-07 GrdErr=1.00D-06 EigMax=2.50D+02 EigMin=1.00D-04
 Number of steps in this run=    134 maximum allowed number of steps=    168.
 GradGradGradGradGradGradGradGradGradGradGradGradGradGradGradGradGradGrad

                          Input orientation:                          
 ---------------------------------------------------------------------
 Center     Atomic      Atomic             Coordinates (Angstroms)
 Number     Number       Type             X           Y           Z
 ---------------------------------------------------------------------
      1          6           0        3.726810   -1.746440    0.242680
      2          6           0        2.842830   -0.535920    0.525530
      3          6           0        1.411540   -0.983600    0.804970
      4          8           0        3.322340    0.158180    1.692740
      5          6           0        4.604700    0.625500    1.633000
      6          8           0        5.334880    0.480720    0.657940
      7          7           0        4.919600    1.261200    2.814500
      8          7           0        6.139600    1.172800    3.091300
      9          6           0        6.462100    1.815500    4.266100
     10          8           0        7.355850    1.514110    5.050030
     11          8           0        5.618870    2.875250    4.450520
     12          6           0        5.824130    3.655770    5.643190
     13          6           0        6.142550    5.100200    5.270620
     14          6           0        4.538620    3.594050    6.461520
     15          1           0        3.359050   -2.310490   -0.620230
     16          1           0        3.762240   -2.415050    1.109820
     17          1           0        4.757860   -1.441880    0.038720
     18          1           0        2.827890    0.138810   -0.339410
     19          1           0        1.362600   -1.619300    1.696130
     20          1           0        0.996510   -1.538500   -0.042980
     21          1           0        0.769640   -0.117640    0.999390
     22          1           0        6.634870    3.227060    6.244730
     23          1           0        5.355230    5.523050    4.637030
     24          1           0        7.073460    5.161720    4.697920
     25          1           0        6.247950    5.724350    6.163210
     26          1           0        3.685600    3.971860    5.886320
     27          1           0        4.625650    4.180290    7.382220
     28          1           0        4.304150    2.558670    6.730240
 ---------------------------------------------------------------------
                    Distance matrix (angstroms):
                    1          2          3          4          5
     1  C    0.000000
     2  C    1.525380   0.000000
     3  C    2.501713   1.525482   0.000000
     4  O    2.427725   1.440168   2.396446   0.000000
     5  C    2.886136   2.383185   3.670301   1.366164   0.000000
     6  O    2.778232   2.694699   4.190280   2.285861   1.226730
     7  N    4.133147   3.575192   4.624265   2.241927   1.378121
     8  N    4.739003   4.513490   5.677316   3.304902   2.186800
     9  C    6.029688   5.711406   6.732202   4.384859   3.435004
    10  O    6.849214   6.711265   7.719709   5.420253   4.475997
    11  O    6.530377   5.894746   6.773654   4.501319   3.745442
    12  C    7.921372   7.255953   8.025153   5.839362   5.172153
    13  C    8.831334   8.072786   8.907138   6.721486   5.968266
    14  C    8.237344   7.427539   7.920231   6.002150   5.668444
    15  H    1.094538   2.174476   2.754020   3.383121   3.904962
    16  H    1.095548   2.172059   2.769074   2.674850   3.198187
    17  H    1.094267   2.173727   3.463382   2.712322   2.615195
    18  H    2.168191   1.097089   2.139032   2.091528   2.698948
    19  H    2.778160   2.176028   1.095754   2.645757   3.943897
    20  H    2.753067   2.176527   1.095072   3.361686   4.528889
    21  H    3.459834   2.167399   1.095318   2.659528   3.957449
    22  H    8.319683   7.826163   8.637350   6.411824   5.670781
    23  H    8.649136   7.741299   8.519030   6.448513   5.794263
    24  H    8.875354   8.232264   9.218316   6.938114   6.005481
    25  H    9.860098   9.086763   9.853841   7.715345   7.015793
    26  H    8.034384   7.054673   7.453056   5.679985   5.489408
    27  H    9.322396   8.510892   8.958598   7.088453   6.759475
    28  H    7.807415   7.085928   7.484898   5.665925   5.459792
                    6          7          8          9         10
     6  O    0.000000
     7  N    2.330742   0.000000
     8  N    2.654767   1.254126   0.000000
     9  C    4.008875   2.189451   1.377398   0.000000
    10  O    4.943953   3.316153   2.330747   1.226447   0.000000
    11  O    4.494228   2.402228   2.239860   1.366791   2.286747
    12  C    5.930685   3.814922   3.574466   2.385367   2.699021
    13  C    6.577898   4.718692   4.491538   3.449700   3.792202
    14  C    6.633882   4.346043   4.447918   3.418023   3.775611
    15  H    3.650819   5.195157   5.800019   7.108371   7.921731
    16  H    3.326090   4.214289   4.738224   5.928651   6.624016
    17  H    2.100661   3.877855   4.250177   5.602294   6.371864
    18  H    2.719671   3.947424   4.879173   6.101598   7.172164
    19  H    4.611608   4.711717   5.706317   6.663895   7.548904
    20  H    4.836320   5.603048   6.605016   7.725941   8.700482
    21  H    4.616930   4.734764   5.905742   6.841968   7.902433
    22  H    6.359605   4.309668   3.795971   2.436663   2.209370
    23  H    6.423291   4.655615   4.682862   3.886988   4.499405
    24  H    6.423072   4.837400   4.400546   3.428909   3.675430
    25  H    7.657503   5.735685   5.492265   4.350172   4.493632
    26  H    6.499549   4.278611   4.654996   3.870911   4.495626
    27  H    7.707514   5.428771   5.454268   4.321456   4.472317
    28  H    6.500239   4.170759   4.304811   3.358725   3.636906
                   11         12         13         14         15
    11  O    0.000000
    12  C    1.440071   0.000000
    13  C    2.428417   1.525312   0.000000
    14  C    2.393269   1.525126   2.501864   0.000000
    15  H    7.596788   8.994627   9.867538   9.295491   0.000000
    16  H    6.526456   7.852241   8.913872   8.084104   1.779485
    17  H    6.232410   7.650690   8.490521   8.164620   1.773518
    18  H    6.182322   7.558966   8.189921   7.817796   2.521916
    19  H    6.775211   7.956814   8.987579   7.744357   3.135136
    20  H    7.812742   9.089493   9.939236   9.011001   2.551623
    21  H    6.662036   7.832712   8.621915   7.603730   3.759894
    22  H    2.091702   1.096787   2.167931   2.139146   9.408673
    23  H    2.667421   2.172317   1.095496   2.777887   9.643022
    24  H    2.721210   2.173073   1.094698   3.463133   9.895124
    25  H    3.383256   2.174642   1.094253   2.747540  10.905020
    26  H    2.646055   2.175393   2.772876   1.096010   9.050401
    27  H    3.359238   2.176167   2.757911   1.094961  10.381412
    28  H    2.650629   2.166944   3.459708   1.095079   8.867432
                   16         17         18         19         20
    16  H    0.000000
    17  H    1.756580   0.000000
    18  H    3.081473   2.523162   0.000000
    19  H    2.595236   3.782364   3.062915   0.000000
    20  H    3.121947   3.763478   2.501038   1.779060   0.000000
    21  H    3.774380   4.310730   2.468713   1.758417   1.776752
    22  H    8.151853   7.989789   8.208610   8.483737   9.697266
    23  H    8.831323   8.367291   7.755156   8.695007   9.527141
    24  H    9.013661   8.407002   8.284273   9.359856  10.212659
    25  H    9.897744   9.543825   9.229254   9.886893  10.901532
    26  H    7.975804   8.040693   7.361226   7.363090   8.529471
    27  H    9.142592   9.249501   8.898824   8.752963  10.050314
    28  H    7.524671   7.809398   7.616759   7.172894   8.579265
                   21         22         23         24         25
    21  H    0.000000
    22  H    8.549943   0.000000
    23  H    8.128803   3.081193   0.000000
    24  H    9.016036   2.515530   1.756867   0.000000
    25  H    9.529206   2.528401   1.779521   1.773441   0.000000
    26  H    7.007776   3.062904   2.598958   3.782282   3.116653
    27  H    8.607063   2.497898   3.141872   3.763037   2.549895
    28  H    7.245553   2.472796   3.778074   4.309904   3.757847
                   26         27         28
    26  H    0.000000
    27  H    1.779004   0.000000
    28  H    1.758383   1.777102   0.000000
 Stoichiometry    C8H14N2O4
 Framework group  C1[X(C8H14N2O4)]
 Deg. of freedom    78
 Full point group                 C1      NOp   1
 Largest Abelian subgroup         C1      NOp   1
 Largest concise Abelian subgroup C1      NOp   1
                         Standard orientation:                         
 ---------------------------------------------------------------------
 Center     Atomic      Atomic             Coordinates (Angstroms)
 Number     Number       Type             X           Y           Z
 ---------------------------------------------------------------------
      1          6           0        4.256530   -0.698699   -0.393184
      2          6           0        3.675426    0.545865    0.270263
      3          6           0        4.336340    1.799760   -0.293682
      4          8           0        2.263968    0.632078   -0.002571
      5          6           0        1.501769   -0.419546    0.421154
      6          8           0        1.958906   -1.397634    1.003594
      7          7           0        0.182682   -0.196059    0.090576
      8          7           0       -0.441028   -1.262860   -0.123322
      9          6           0       -1.762929   -1.046092   -0.443971
     10          8           0       -2.468611   -1.738457   -1.169790
     11          8           0       -2.200907    0.089617    0.177687
     12          6           0       -3.572573    0.459345   -0.058193
     13          6           0       -4.336057    0.493260    1.261852
     14          6           0       -3.573214    1.841611   -0.702668
     15          1           0        5.336646   -0.765361   -0.229118
     16          1           0        4.065156   -0.691449   -1.471864
     17          1           0        3.793265   -1.607995    0.001768
     18          1           0        3.853309    0.522276    1.352578
     19          1           0        4.142336    1.900536   -1.367406
     20          1           0        5.419676    1.783161   -0.134653
     21          1           0        3.929846    2.696630    0.186013
     22          1           0       -4.042854   -0.244677   -0.755424
     23          1           0       -3.849840    1.165338    1.977404
     24          1           0       -4.359441   -0.497289    1.727287
     25          1           0       -5.367837    0.825924    1.113009
     26          1           0       -3.072510    2.576479   -0.061963
     27          1           0       -4.593369    2.187569   -0.898977
     28          1           0       -3.024566    1.823450   -1.650220
 ---------------------------------------------------------------------
 Rotational constants (GHZ):           1.4707027           0.2701930           0.2485324
 Standard basis: 6-31G(d) (6D, 7F)
 There are   238 symmetry adapted cartesian basis functions of A   symmetry.
 There are   238 symmetry adapted basis functions of A   symmetry.
   238 basis functions,   448 primitive gaussians,   238 cartesian basis functions
    54 alpha electrons       54 beta electrons
       nuclear repulsion energy       913.7590215101 Hartrees.
 NAtoms=   28 NActive=   28 NUniq=   28 SFac= 1.00D+00 NAtFMM=   60 NAOKFM=F Big=F
 Integral buffers will be    131072 words long.
 Raffenetti 2 integral format.
 Two-electron integral symmetry is turned on.
 One-electron integrals computed using PRISM.
 NBasis=   238 RedAO= T EigKep=  2.14D-03  NBF=   238
 NBsUse=   238 1.00D-06 EigRej= -1.00D+00 NBFU=   238
 ExpMin= 1.61D-01 ExpMax= 5.48D+03 ExpMxC= 8.25D+02 IAcc=3 IRadAn=         5 AccDes= 0.00D+00
 Harris functional with IExCor=  402 and IRadAn=       5 diagonalized for initial guess.
 HarFok:  IExCor=  402 AccDes= 0.00D+00 IRadAn=         5 IDoV= 1 UseB2=F ITyADJ=14
 ICtDFT=  3500011 ScaDFX=  1.000000  1.000000  1.000000  1.000000
 FoFCou: FMM=F IPFlag=           0 FMFlag=      100000 FMFlg1=           0
         NFxFlg=           0 DoJE=T BraDBF=F KetDBF=T FulRan=T
         wScrn=  0.000000 ICntrl=       500 IOpCl=  0 I1Cent=   200000004 NGrid=           0
         NMat0=    1 NMatS0=      1 NMatT0=    0 NMatD0=    1 NMtDS0=    0 NMtDT0=    0
 Petite list used in FoFCou.
 Keep R1 ints in memory in canonical form, NReq=411287410.
 Gradient too large for Newton-Raphson -- use scaled steepest descent instead.
     Minimum is close to point  2 DX=  1.30D-02 DF= -6.84D-04 DXR=  4.15D-02 DFR=  1.72D-03 which will be used.
 Gradient too large for Newton-Raphson -- use scaled steepest descent instead.
     Accept linear search using points  2 and  3.
 Gradient too large for Newton-Raphson -- use scaled steepest descent instead.
     Minimum is close to point  2 DX=  5.12D-03 DF= -1.22D-06 DXR=  1.26D-02 DFR=  1.60D-04 which will be used.
 Gradient too large for Newton-Raphson -- use scaled steepest descent instead.
     Minimum is close to point  2 DX=  2.32D-02 DF= -6.68D-06 DXR=  5.48D-02 DFR=  3.01D-03 which will be used.
 Gradient too large for Newton-Raphson -- use scaled steepest descent instead.
 Gradient too large for Newton-Raphson -- use scaled steepest descent instead.
     Accept linear search using points  1 and  2.
 Gradient too large for Newton-Raphson -- use scaled steepest descent instead.
     Minimum is close to point  3 DX=  6.30D-02 DF= -6.70D-07 DXR=  6.54D-02 DFR=  4.30D-03 which will be used.
 LinEq1:  Iter=  0 NonCon=     1 RMS=5.69D-05 Max=2.16D-03 NDo=     1
 AX will form     1 AO Fock derivatives at one time.
 LinEq1:  Iter=  1 NonCon=     1 RMS=6.06D-05 Max=2.77D-03 NDo=     1
 LinEq1:  Iter=  2 NonCon=     1 RMS=1.02D-05 Max=5.74D-04 NDo=     1
 LinEq1:  Iter=  3 NonCon=     1 RMS=1.07D-05 Max=4.31D-04 NDo=     1
 LinEq1:  Iter=  4 NonCon=     1 RMS=5.78D-06 Max=1.63D-04 NDo=     1
 LinEq1:  Iter=  5 NonCon=     1 RMS=3.69D-06 Max=8.85D-05 NDo=     1
 LinEq1:  Iter=  6 NonCon=     1 RMS=2.90D-06 Max=9.83D-05 NDo=     1
 LinEq1:  Iter=  7 NonCon=     1 RMS=2.50D-06 Max=6.47D-05 NDo=     1
 LinEq1:  Iter=  8 NonCon=     1 RMS=1.37D-06 Max=3.88D-05 NDo=     1
 LinEq1:  Iter=  9 NonCon=     1 RMS=9.24D-07 Max=2.85D-05 NDo=     1
 LinEq1:  Iter= 10 NonCon=     1 RMS=3.84D-07 Max=1.10D-05 NDo=     1
 LinEq1:  Iter= 11 NonCon=     1 RMS=1.46D-07 Max=3.20D-06 NDo=     1
 LinEq1:  Iter= 12 NonCon=     1 RMS=8.11D-08 Max=1.29D-06 NDo=     1
 LinEq1:  Iter= 13 NonCon=     1 RMS=4.60D-08 Max=1.03D-06 NDo=     1
 LinEq1:  Iter= 14 NonCon=     1 RMS=2.30D-08 Max=3.00D-07 NDo=     1
 LinEq1:  Iter= 15 NonCon=     1 RMS=9.65D-09 Max=2.03D-07 NDo=     1
 LinEq1:  Iter= 16 NonCon=     0 RMS=3.18D-09 Max=5.20D-08 NDo=     1
 Linear equations converged to 1.410D-08 1.410D-07 after    16 iterations.
     Minimum is close to point  2 DX=  1.95D-04 DF= -2.27D-13 DXR=  1.95D-04 DFR=  2.03D-08 which will be used.
 LinEq1:  Iter=  0 NonCon=     1 RMS=7.78D-08 Max=2.57D-06 NDo=     1
 LinEq1:  Iter=  1 NonCon=     1 RMS=5.72D-08 Max=1.75D-06 NDo=     1
 LinEq1:  Iter=  2 NonCon=     1 RMS=3.31D-08 Max=1.04D-06 NDo=     1
 LinEq1:  Iter=  3 NonCon=     1 RMS=2.47D-08 Max=1.13D-06 NDo=     1
 LinEq1:  Iter=  4 NonCon=     1 RMS=2.37D-08 Max=1.15D-06 NDo=     1
 LinEq1:  Iter=  5 NonCon=     1 RMS=1.59D-08 Max=5.01D-07 NDo=     1
 LinEq1:  Iter=  6 NonCon=     1 RMS=1.30D-08 Max=4.37D-07 NDo=     1
 LinEq1:  Iter=  7 NonCon=     1 RMS=9.46D-09 Max=3.99D-07 NDo=     1
 LinEq1:  Iter=  8 NonCon=     1 RMS=4.62D-09 Max=1.20D-07 NDo=     1
 LinEq1:  Iter=  9 NonCon=     1 RMS=4.90D-09 Max=1.28D-07 NDo=     1
 LinEq1:  Iter= 10 NonCon=     1 RMS=2.49D-09 Max=8.79D-08 NDo=     1
 LinEq1:  Iter= 11 NonCon=     1 RMS=1.54D-09 Max=2.87D-08 NDo=     1
 LinEq1:  Iter= 12 NonCon=     1 RMS=8.33D-10 Max=1.84D-08 NDo=     1
 LinEq1:  Iter= 13 NonCon=     1 RMS=4.97D-10 Max=9.87D-09 NDo=     1
 LinEq1:  Iter= 14 NonCon=     1 RMS=1.49D-10 Max=3.22D-09 NDo=     1
 LinEq1:  Iter= 15 NonCon=     1 RMS=4.53D-11 Max=8.28D-10 NDo=     1
 LinEq1:  Iter= 16 NonCon=     0 RMS=2.33D-11 Max=4.23D-10 NDo=     1
 Linear equations converged to 4.562D-11 4.562D-10 after    16 iterations.
 SCF Done:  E(RB3LYP) =  -723.626128514     a.u. after   10 cycles
            Convg  =    0.7155D-10                    53 Fock formations.
              S**2 =  0.0000                  -V/T =  2.0089
 DoSCS=F DFT=T ScalE2(SS,OS)=  1.000000  1.000000
 Range of M.O.s used for correlation:     1   238
 NBasis=   238 NAE=    54 NBE=    54 NFC=     0 NFV=     0
 NROrb=    238 NOA=    54 NOB=    54 NVA=   184 NVB=   184
 Symmetrizing basis deriv contribution to polar:
 IMax=3 JMax=2 DiffMx= 0.00D+00
 G2DrvN: will do    29 centers at a time, making    1 passes.
 Calling FoFCou, ICntrl=  3107 FMM=F I1Cent=   0 AccDes= 0.00D+00.
 End of G2Drv F.D. properties file   721 does not exist.
 End of G2Drv F.D. properties file   722 does not exist.
 End of G2Drv F.D. properties file   788 does not exist.
          IDoAtm=1111111111111111111111111111
          Differentiating once with respect to electric field.
                with respect to dipole field.
          Differentiating once with respect to nuclear coordinates.
 Keep R1 ints in memory in canonical form, NReq=411298527.
          There are    87 degrees of freedom in the 1st order CPHF.  IDoFFX=6 NUNeed=     3.
     84 vectors produced by pass  0 Test12= 1.14D-14 1.15D-09 XBig12= 1.13D+02 4.58D+00.
 AX will form    84 AO Fock derivatives at one time.
     84 vectors produced by pass  1 Test12= 1.14D-14 1.15D-09 XBig12= 4.60D+01 1.48D+00.
     84 vectors produced by pass  2 Test12= 1.14D-14 1.15D-09 XBig12= 7.04D-01 1.98D-01.
     84 vectors produced by pass  3 Test12= 1.14D-14 1.15D-09 XBig12= 3.72D-03 6.41D-03.
     84 vectors produced by pass  4 Test12= 1.14D-14 1.15D-09 XBig12= 5.55D-06 2.15D-04.
     55 vectors produced by pass  5 Test12= 1.14D-14 1.15D-09 XBig12= 4.44D-09 6.81D-06.
      8 vectors produced by pass  6 Test12= 1.14D-14 1.15D-09 XBig12= 3.26D-12 1.36D-07.
      2 vectors produced by pass  7 Test12= 1.14D-14 1.15D-09 XBig12= 2.46D-15 4.61D-09.
 InvSVY:  IOpt=1 It=  1 EMax= 5.33D-15
 Solved reduced A of dimension   485 with    87 vectors.
 Isotropic polarizability for W=    0.000000      116.08 Bohr**3.
 End of Minotr F.D. properties file   721 does not exist.
 End of Minotr F.D. properties file   722 does not exist.
 End of Minotr F.D. properties file   788 does not exist.

 **********************************************************************

            Population analysis using the SCF density.

 **********************************************************************

 Orbital symmetries:
       Occupied  (A) (A) (A) (A) (A) (A) (A) (A) (A) (A) (A) (A)
                 (A) (A) (A) (A) (A) (A) (A) (A) (A) (A) (A) (A)
                 (A) (A) (A) (A) (A) (A) (A) (A) (A) (A) (A) (A)
                 (A) (A) (A) (A) (A) (A) (A) (A) (A) (A) (A) (A)
                 (A) (A) (A) (A) (A) (A)
       Virtual   (A) (A) (A) (A) (A) (A) (A) (A) (A) (A) (A) (A)
                 (A) (A) (A) (A) (A) (A) (A) (A) (A) (A) (A) (A)
                 (A) (A) (A) (A) (A) (A) (A) (A) (A) (A) (A) (A)
                 (A) (A) (A) (A) (A) (A) (A) (A) (A) (A) (A) (A)
                 (A) (A) (A) (A) (A) (A) (A) (A) (A) (A) (A) (A)
                 (A) (A) (A) (A) (A) (A) (A) (A) (A) (A) (A) (A)
                 (A) (A) (A) (A) (A) (A) (A) (A) (A) (A) (A) (A)
                 (A) (A) (A) (A) (A) (A) (A) (A) (A) (A) (A) (A)
                 (A) (A) (A) (A) (A) (A) (A) (A) (A) (A) (A) (A)
                 (A) (A) (A) (A) (A) (A) (A) (A) (A) (A) (A) (A)
                 (A) (A) (A) (A) (A) (A) (A) (A) (A) (A) (A) (A)
                 (A) (A) (A) (A) (A) (A) (A) (A) (A) (A) (A) (A)
                 (A) (A) (A) (A) (A) (A) (A) (A) (A) (A) (A) (A)
                 (A) (A) (A) (A) (A) (A) (A) (A) (A) (A) (A) (A)
                 (A) (A) (A) (A) (A) (A) (A) (A) (A) (A) (A) (A)
                 (A) (A) (A) (A)
 The electronic state is 1-A.
 Alpha  occ. eigenvalues --  -19.21124 -19.20340 -19.16505 -19.16016 -14.43193
 Alpha  occ. eigenvalues --  -14.43140 -10.35719 -10.35642 -10.26024 -10.25223
 Alpha  occ. eigenvalues --  -10.18947 -10.18654 -10.18496 -10.17713  -1.14377
 Alpha  occ. eigenvalues --   -1.12014  -1.06690  -1.03208  -1.02766  -0.84796
 Alpha  occ. eigenvalues --   -0.80095  -0.78162  -0.69835  -0.69822  -0.67071
 Alpha  occ. eigenvalues --   -0.62407  -0.58911  -0.56426  -0.55174  -0.51136
 Alpha  occ. eigenvalues --   -0.50675  -0.48684  -0.47830  -0.46538  -0.45668
 Alpha  occ. eigenvalues --   -0.45420  -0.43774  -0.41924  -0.41451  -0.40860
 Alpha  occ. eigenvalues --   -0.39695  -0.39626  -0.39054  -0.38492  -0.37047
 Alpha  occ. eigenvalues --   -0.36365  -0.35658  -0.34883  -0.34081  -0.31246
 Alpha  occ. eigenvalues --   -0.31085  -0.30638  -0.29984  -0.26678
 Alpha virt. eigenvalues --   -0.13919   0.01195   0.03898   0.08951   0.09192
 Alpha virt. eigenvalues --    0.11323   0.11775   0.13193   0.13825   0.14541
 Alpha virt. eigenvalues --    0.14993   0.16502   0.16791   0.17697   0.17884
 Alpha virt. eigenvalues --    0.18388   0.18511   0.18955   0.19281   0.20658
 Alpha virt. eigenvalues --    0.22022   0.22438   0.23569   0.24561   0.25277
 Alpha virt. eigenvalues --    0.27969   0.31509   0.34474   0.39714   0.43629
 Alpha virt. eigenvalues --    0.47708   0.48596   0.48965   0.49998   0.51856
 Alpha virt. eigenvalues --    0.53414   0.54422   0.55239   0.55640   0.56553
 Alpha virt. eigenvalues --    0.57958   0.58429   0.58737   0.60070   0.60873
 Alpha virt. eigenvalues --    0.63453   0.63507   0.65126   0.67238   0.67929
 Alpha virt. eigenvalues --    0.69344   0.69605   0.72171   0.72850   0.74943
 Alpha virt. eigenvalues --    0.75803   0.76596   0.78300   0.80203   0.81608
 Alpha virt. eigenvalues --    0.82777   0.83352   0.85906   0.87242   0.87716
 Alpha virt. eigenvalues --    0.87922   0.88800   0.89335   0.89927   0.90354
 Alpha virt. eigenvalues --    0.92024   0.92947   0.93464   0.94512   0.95418
 Alpha virt. eigenvalues --    0.96567   0.97267   0.99176   0.99274   1.01053
 Alpha virt. eigenvalues --    1.02899   1.08442   1.09826   1.10918   1.11944
 Alpha virt. eigenvalues --    1.12913   1.15886   1.20171   1.21365   1.27012
 Alpha virt. eigenvalues --    1.28730   1.32873   1.33192   1.39314   1.41236
 Alpha virt. eigenvalues --    1.42277   1.42992   1.43653   1.49723   1.50114
 Alpha virt. eigenvalues --    1.51296   1.54452   1.55425   1.57970   1.61633
 Alpha virt. eigenvalues --    1.66271   1.68320   1.70867   1.71743   1.74048
 Alpha virt. eigenvalues --    1.75018   1.76046   1.77904   1.78842   1.80725
 Alpha virt. eigenvalues --    1.81069   1.81972   1.83016   1.83427   1.86263
 Alpha virt. eigenvalues --    1.89721   1.90922   1.93043   1.94040   1.97490
 Alpha virt. eigenvalues --    1.98717   1.99288   2.00851   2.01576   2.02736
 Alpha virt. eigenvalues --    2.06808   2.08365   2.12336   2.12872   2.14090
 Alpha virt. eigenvalues --    2.14797   2.16453   2.20268   2.21809   2.22312
 Alpha virt. eigenvalues --    2.23429   2.24201   2.25494   2.30212   2.36260
 Alpha virt. eigenvalues --    2.39483   2.42790   2.45002   2.46613   2.48319
 Alpha virt. eigenvalues --    2.49568   2.51569   2.51800   2.54233   2.61582
 Alpha virt. eigenvalues --    2.65597   2.66142   2.67814   2.71340   2.72942
 Alpha virt. eigenvalues --    2.73631   2.74550   2.84583   2.85467   2.92493
 Alpha virt. eigenvalues --    2.94852   3.06569   3.09116   3.19635   3.23646
 Alpha virt. eigenvalues --    3.78164   3.90131   3.99073   4.02311   4.13469
 Alpha virt. eigenvalues --    4.19629   4.22481   4.27564   4.27771   4.28112
 Alpha virt. eigenvalues --    4.34643   4.41477   4.53560   4.56818
          Condensed to atoms (all electrons):
               1          2          3          4          5          6
     1  C    5.199888   0.372099  -0.060683  -0.039862  -0.006337  -0.020133
     2  C    0.372099   4.709091   0.389186   0.187374  -0.018531   0.002931
     3  C   -0.060683   0.389186   5.118592  -0.040821   0.003793   0.000493
     4  O   -0.039862   0.187374  -0.040821   8.252472   0.300629  -0.077168
     5  C   -0.006337  -0.018531   0.003793   0.300629   4.238735   0.510272
     6  O   -0.020133   0.002931   0.000493  -0.077168   0.510272   8.072211
     7  N   -0.000987   0.004374  -0.000128  -0.089260   0.248602  -0.074863
     8  N    0.000060  -0.000045   0.000001   0.001753  -0.052301   0.001631
     9  C    0.000000   0.000002  -0.000000  -0.000180   0.003895   0.000463
    10  O   -0.000000  -0.000000   0.000000   0.000000  -0.000160   0.000000
    11  O   -0.000000   0.000000   0.000000   0.000000   0.000224  -0.000005
    12  C    0.000000  -0.000000  -0.000000  -0.000000   0.000003   0.000000
    13  C   -0.000000   0.000000   0.000000   0.000000   0.000001  -0.000000
    14  C   -0.000000   0.000000  -0.000000  -0.000000  -0.000002   0.000000
    15  H    0.359802  -0.025939  -0.002106   0.002810   0.000402   0.000389
    16  H    0.364726  -0.032444  -0.006804  -0.000861   0.001043   0.000220
    17  H    0.370376  -0.027408   0.004710  -0.003116  -0.000120   0.014200
    18  H   -0.050772   0.378521  -0.050188  -0.036463  -0.004111   0.005523
    19  H   -0.007227  -0.027420   0.368893  -0.000206   0.000005  -0.000007
    20  H   -0.001807  -0.027422   0.367388   0.002720  -0.000043   0.000013
    21  H    0.005833  -0.028067   0.366101   0.001205  -0.000015   0.000006
    22  H   -0.000000   0.000000  -0.000000  -0.000000   0.000003  -0.000000
    23  H   -0.000000  -0.000000   0.000000   0.000000  -0.000000  -0.000000
    24  H    0.000000   0.000000  -0.000000  -0.000000  -0.000000   0.000000
    25  H    0.000000  -0.000000  -0.000000  -0.000000  -0.000000   0.000000
    26  H   -0.000000  -0.000000   0.000000   0.000000   0.000000  -0.000000
    27  H    0.000000  -0.000000   0.000000   0.000000   0.000000  -0.000000
    28  H    0.000000   0.000000   0.000000  -0.000000   0.000001  -0.000000
               7          8          9         10         11         12
     1  C   -0.000987   0.000060   0.000000  -0.000000  -0.000000   0.000000
     2  C    0.004374  -0.000045   0.000002  -0.000000   0.000000  -0.000000
     3  C   -0.000128   0.000001  -0.000000   0.000000   0.000000  -0.000000
     4  O   -0.089260   0.001753  -0.000180   0.000000   0.000000  -0.000000
     5  C    0.248602  -0.052301   0.003895  -0.000160   0.000224   0.000003
     6  O   -0.074863   0.001631   0.000463   0.000000  -0.000005   0.000000
     7  N    6.959783   0.219553  -0.051493   0.000548  -0.005931   0.000083
     8  N    0.219553   6.960621   0.240200  -0.059272  -0.101388   0.004043
     9  C   -0.051493   0.240200   4.217139   0.554704   0.274931  -0.012347
    10  O    0.000548  -0.059272   0.554704   8.020745  -0.079104  -0.014046
    11  O   -0.005931  -0.101388   0.274931  -0.079104   8.284691   0.187739
    12  C    0.000083   0.004043  -0.012347  -0.014046   0.187739   4.760946
    13  C    0.000028  -0.000265   0.000332   0.000285  -0.042052   0.380738
    14  C    0.000080  -0.000272   0.000881   0.000410  -0.047429   0.381140
    15  H    0.000007  -0.000001   0.000000   0.000000  -0.000000   0.000000
    16  H    0.000017  -0.000016  -0.000000   0.000000   0.000000  -0.000000
    17  H    0.000190  -0.000000   0.000000   0.000000   0.000000  -0.000000
    18  H   -0.000102  -0.000010  -0.000000   0.000000   0.000000  -0.000000
    19  H   -0.000008  -0.000000  -0.000000   0.000000  -0.000000   0.000000
    20  H    0.000002  -0.000000   0.000000  -0.000000   0.000000   0.000000
    21  H    0.000002   0.000000   0.000000  -0.000000   0.000000  -0.000000
    22  H   -0.000118   0.000679  -0.009278   0.022663  -0.033383   0.370943
    23  H    0.000001  -0.000011  -0.000245  -0.000006  -0.000243  -0.029114
    24  H   -0.000007  -0.000029   0.001230   0.000127  -0.000088  -0.027976
    25  H   -0.000000   0.000004  -0.000022   0.000003   0.002824  -0.026596
    26  H    0.000018  -0.000012  -0.000300  -0.000009  -0.000433  -0.028879
    27  H    0.000001   0.000004  -0.000018  -0.000000   0.003150  -0.027689
    28  H    0.000069  -0.000077   0.001286   0.000135  -0.000118  -0.028043
              13         14         15         16         17         18
     1  C   -0.000000  -0.000000   0.359802   0.364726   0.370376  -0.050772
     2  C    0.000000   0.000000  -0.025939  -0.032444  -0.027408   0.378521
     3  C    0.000000  -0.000000  -0.002106  -0.006804   0.004710  -0.050188
     4  O    0.000000  -0.000000   0.002810  -0.000861  -0.003116  -0.036463
     5  C    0.000001  -0.000002   0.000402   0.001043  -0.000120  -0.004111
     6  O   -0.000000   0.000000   0.000389   0.000220   0.014200   0.005523
     7  N    0.000028   0.000080   0.000007   0.000017   0.000190  -0.000102
     8  N   -0.000265  -0.000272  -0.000001  -0.000016  -0.000000  -0.000010
     9  C    0.000332   0.000881   0.000000  -0.000000   0.000000  -0.000000
    10  O    0.000285   0.000410   0.000000   0.000000   0.000000   0.000000
    11  O   -0.042052  -0.047429  -0.000000   0.000000   0.000000   0.000000
    12  C    0.380738   0.381140   0.000000  -0.000000  -0.000000  -0.000000
    13  C    5.121172  -0.064386   0.000000   0.000000   0.000000   0.000000
    14  C   -0.064386   5.123770  -0.000000  -0.000000  -0.000000  -0.000000
    15  H    0.000000  -0.000000   0.563792  -0.025999  -0.022841  -0.000314
    16  H    0.000000  -0.000000  -0.025999   0.569377  -0.029604   0.005503
    17  H    0.000000  -0.000000  -0.022841  -0.029604   0.493603  -0.004112
    18  H    0.000000  -0.000000  -0.000314   0.005503  -0.004112   0.598569
    19  H    0.000000  -0.000000   0.000073   0.005029  -0.000064   0.005448
    20  H   -0.000000  -0.000000   0.002034   0.000178   0.000018  -0.000183
    21  H   -0.000000   0.000000  -0.000035  -0.000026  -0.000183  -0.004319
    22  H   -0.045055  -0.047688  -0.000000   0.000000   0.000000   0.000000
    23  H    0.370229  -0.007222  -0.000000   0.000000   0.000000   0.000000
    24  H    0.368335   0.005508  -0.000000  -0.000000  -0.000000  -0.000000
    25  H    0.363972  -0.001409  -0.000000  -0.000000  -0.000000  -0.000000
    26  H   -0.007105   0.370668  -0.000000   0.000000   0.000000   0.000000
    27  H   -0.001194   0.362584   0.000000   0.000000   0.000000   0.000000
    28  H    0.005533   0.368611   0.000000   0.000000  -0.000000   0.000000
              19         20         21         22         23         24
     1  C   -0.007227  -0.001807   0.005833  -0.000000  -0.000000   0.000000
     2  C   -0.027420  -0.027422  -0.028067   0.000000  -0.000000   0.000000
     3  C    0.368893   0.367388   0.366101  -0.000000   0.000000  -0.000000
     4  O   -0.000206   0.002720   0.001205  -0.000000   0.000000  -0.000000
     5  C    0.000005  -0.000043  -0.000015   0.000003  -0.000000  -0.000000
     6  O   -0.000007   0.000013   0.000006  -0.000000  -0.000000   0.000000
     7  N   -0.000008   0.000002   0.000002  -0.000118   0.000001  -0.000007
     8  N   -0.000000  -0.000000   0.000000   0.000679  -0.000011  -0.000029
     9  C   -0.000000   0.000000   0.000000  -0.009278  -0.000245   0.001230
    10  O    0.000000  -0.000000  -0.000000   0.022663  -0.000006   0.000127
    11  O   -0.000000   0.000000   0.000000  -0.033383  -0.000243  -0.000088
    12  C    0.000000   0.000000  -0.000000   0.370943  -0.029114  -0.027976
    13  C    0.000000  -0.000000  -0.000000  -0.045055   0.370229   0.368335
    14  C   -0.000000  -0.000000   0.000000  -0.047688  -0.007222   0.005508
    15  H    0.000073   0.002034  -0.000035  -0.000000  -0.000000  -0.000000
    16  H    0.005029   0.000178  -0.000026   0.000000   0.000000  -0.000000
    17  H   -0.000064   0.000018  -0.000183   0.000000   0.000000  -0.000000
    18  H    0.005448  -0.000183  -0.004319   0.000000   0.000000  -0.000000
    19  H    0.552492  -0.026632  -0.030635  -0.000000  -0.000000  -0.000000
    20  H   -0.026632   0.553712  -0.026522   0.000000  -0.000000   0.000000
    21  H   -0.030635  -0.026522   0.558493   0.000000   0.000000   0.000000
    22  H   -0.000000   0.000000   0.000000   0.560343   0.004841  -0.003506
    23  H   -0.000000  -0.000000   0.000000   0.004841   0.557878  -0.031526
    24  H   -0.000000   0.000000   0.000000  -0.003506  -0.031526   0.557314
    25  H   -0.000000   0.000000   0.000000  -0.000082  -0.027402  -0.026250
    26  H    0.000000  -0.000000   0.000000   0.004978   0.005173  -0.000047
    27  H    0.000000   0.000000  -0.000000  -0.000275   0.000085  -0.000033
    28  H    0.000000   0.000000  -0.000000  -0.003751  -0.000054  -0.000200
              25         26         27         28
     1  C    0.000000  -0.000000   0.000000   0.000000
     2  C   -0.000000  -0.000000  -0.000000   0.000000
     3  C   -0.000000   0.000000   0.000000   0.000000
     4  O   -0.000000   0.000000   0.000000  -0.000000
     5  C   -0.000000   0.000000   0.000000   0.000001
     6  O    0.000000  -0.000000  -0.000000  -0.000000
     7  N   -0.000000   0.000018   0.000001   0.000069
     8  N    0.000004  -0.000012   0.000004  -0.000077
     9  C   -0.000022  -0.000300  -0.000018   0.001286
    10  O    0.000003  -0.000009  -0.000000   0.000135
    11  O    0.002824  -0.000433   0.003150  -0.000118
    12  C   -0.026596  -0.028879  -0.027689  -0.028043
    13  C    0.363972  -0.007105  -0.001194   0.005533
    14  C   -0.001409   0.370668   0.362584   0.368611
    15  H   -0.000000  -0.000000   0.000000   0.000000
    16  H   -0.000000   0.000000   0.000000   0.000000
    17  H   -0.000000   0.000000   0.000000  -0.000000
    18  H   -0.000000   0.000000   0.000000   0.000000
    19  H   -0.000000   0.000000   0.000000   0.000000
    20  H    0.000000  -0.000000   0.000000   0.000000
    21  H    0.000000   0.000000  -0.000000  -0.000000
    22  H   -0.000082   0.004978  -0.000275  -0.003751
    23  H   -0.027402   0.005173   0.000085  -0.000054
    24  H   -0.026250  -0.000047  -0.000033  -0.000200
    25  H    0.559747   0.000091   0.001297  -0.000016
    26  H    0.000091   0.556715  -0.027955  -0.031059
    27  H    0.001297  -0.027955   0.565448  -0.026084
    28  H   -0.000016  -0.031059  -0.026084   0.557256
 Mulliken charges:
               1
     1  C   -0.484976
     2  C    0.143698
     3  C   -0.458427
     4  O   -0.461026
     5  C    0.774011
     6  O   -0.436177
     7  N   -0.210457
     8  N   -0.214850
     9  C    0.778821
    10  O   -0.447022
    11  O   -0.443385
    12  C    0.109056
    13  C   -0.450568
    14  C   -0.445244
    15  H    0.147927
    16  H    0.149662
    17  H    0.204353
    18  H    0.157008
    19  H    0.160259
    20  H    0.156543
    21  H    0.158160
    22  H    0.178685
    23  H    0.157617
    24  H    0.157148
    25  H    0.153839
    26  H    0.158156
    27  H    0.150678
    28  H    0.156510
 Sum of Mulliken charges =  -0.00000
 Mulliken charges with hydrogens summed into heavy atoms:
               1
     1  C    0.016965
     2  C    0.300706
     3  C    0.016535
     4  O   -0.461026
     5  C    0.774011
     6  O   -0.436177
     7  N   -0.210457
     8  N   -0.214850
     9  C    0.778821
    10  O   -0.447022
    11  O   -0.443385
    12  C    0.287741
    13  C    0.018036
    14  C    0.020100
 APT charges:
               1
     1  C   -0.055036
     2  C    0.640303
     3  C    0.032775
     4  O   -0.923915
     5  C    1.247663
     6  O   -0.651751
     7  N   -0.203343
     8  N   -0.227736
     9  C    1.236980
    10  O   -0.643418
    11  O   -0.903102
    12  C    0.561538
    13  C    0.023322
    14  C    0.019707
    15  H   -0.010071
    16  H   -0.010412
    17  H    0.054345
    18  H   -0.079759
    19  H   -0.003653
    20  H   -0.006579
    21  H   -0.014679
    22  H   -0.010953
    23  H   -0.005191
    24  H   -0.017822
    25  H   -0.012777
    26  H   -0.005448
    27  H   -0.013825
    28  H   -0.017163
 Sum of APT charges =  -0.00000
 APT charges with hydrogens summed into heavy atoms:
               1
     1  C   -0.021173
     2  C    0.560544
     3  C    0.007865
     4  O   -0.923915
     5  C    1.247663
     6  O   -0.651751
     7  N   -0.203343
     8  N   -0.227736
     9  C    1.236980
    10  O   -0.643418
    11  O   -0.903102
    12  C    0.550585
    13  C   -0.012469
    14  C   -0.016730
 Electronic spatial extent (au):  <R**2>=           4515.5041
 Charge=             -0.0000 electrons
 Dipole moment (field-independent basis, Debye):
    X=              0.4995    Y=              3.1771    Z=              0.3303  Tot=              3.2330
 Quadrupole moment (field-independent basis, Debye-Ang):
   XX=            -64.4002   YY=            -89.2314   ZZ=            -83.1375
   XY=             -1.4046   XZ=             -3.8669   YZ=             -0.5213
 Traceless Quadrupole moment (field-independent basis, Debye-Ang):
   XX=             14.5228   YY=            -10.3084   ZZ=             -4.2145
   XY=             -1.4046   XZ=             -3.8669   YZ=             -0.5213
 Octapole moment (field-independent basis, Debye-Ang**2):
  XXX=             11.1569  YYY=              7.9490  ZZZ=              0.8516  XYY=              1.9307
  XXY=             30.3008  XXZ=              8.8918  XZZ=              1.9933  YZZ=              3.8284
  YYZ=              3.8466  XYZ=             13.9180
 Hexadecapole moment (field-independent basis, Debye-Ang**3):
 XXXX=          -4399.6612 YYYY=           -763.2143 ZZZZ=           -316.6857 XXXY=            -11.3870
 XXXZ=             10.8556 YYYX=              2.0601 YYYZ=             -2.3894 ZZZX=              8.3468
 ZZZY=              0.1765 XXYY=           -946.2082 XXZZ=           -874.9617 YYZZ=           -185.4394
 XXYZ=            -10.5403 YYXZ=            -16.9065 ZZXY=              1.0818
 N-N= 9.137590215101D+02 E-N=-3.516400531736D+03  KE= 7.172120803931D+02
  Exact polarizability: 157.479   5.263 104.488   5.135   2.151  86.260
 Approx polarizability: 183.885  15.620 165.299  18.903   7.738 132.821
 Calling FoFJK, ICntrl=    100127 FMM=F ISym2X=0 I1Cent= 0 IOpClX= 0 NMat=1 NMatS=1 NMatT=0.
 ***** Axes restored to original set *****
 -------------------------------------------------------------------
 Center     Atomic                   Forces (Hartrees/Bohr)
 Number     Number              X              Y              Z
 -------------------------------------------------------------------
      1        6           0.010632865   -0.004180967   -0.003647023
      2        6          -0.005067702   -0.021747935   -0.010385358
      3        6          -0.003922436    0.008500996    0.009503468
      4        8           0.016721416    0.019167750    0.009162540
      5        6          -0.012034187   -0.039708227   -0.066231361
      6        8          -0.010294989    0.018254059    0.022341504
      7        7           0.007789869    0.011783748    0.034390038
      8        7          -0.001564310   -0.028995669   -0.033776055
      9        6           0.003957099    0.043118721    0.064531800
     10        8          -0.016937112   -0.006901269   -0.031380174
     11        8           0.017449851   -0.003934328    0.002835865
     12        6          -0.005182340    0.013548788    0.018512697
     13        6           0.005124130   -0.001010787   -0.010796338
     14        6          -0.007061744   -0.007518103   -0.001388746
     15        1          -0.002228388    0.000228431    0.000469865
     16        1          -0.004186075   -0.000691635    0.000758757
     17        1          -0.004645641   -0.002863517   -0.002751445
     18        1           0.005980877    0.003609470    0.003206095
     19        1           0.001634600   -0.001507703   -0.001082649
     20        1           0.002637292    0.001037407   -0.000485522
     21        1          -0.001203160    0.000347341   -0.001062972
     22        1          -0.000154488   -0.000500674   -0.006770167
     23        1          -0.001860620   -0.000115559    0.001563086
     24        1           0.001863790    0.000131022    0.000741737
     25        1          -0.000373075   -0.001504541    0.000853944
     26        1           0.000933864    0.001811992   -0.000295924
     27        1           0.001476124   -0.000000928   -0.000561234
     28        1           0.000514491   -0.000357883    0.001743570
 -------------------------------------------------------------------
 Cartesian Forces:  Max     0.066231361 RMS     0.015724743
 FormGI is forming the generalized inverse of G from B-inverse, IUseBI=4.

 GradGradGradGradGradGradGradGradGradGradGradGradGradGradGradGradGradGrad
 Berny optimization.
 Internal  Forces:  Max     0.050864425 RMS     0.010263363
 Search for a local minimum.
 Step number   1 out of a maximum of  134
 All quantities printed in internal units (Hartrees-Bohrs-Radians)
 Mixed Optimization -- RFO/linear search
 Second derivative matrix not updated -- analytic derivatives used.
 ITU=  0
     Eigenvalues ---   -0.00566  -0.00332  -0.00173   0.00054   0.00223
     Eigenvalues ---    0.00271   0.00309   0.00463   0.01477   0.01586
     Eigenvalues ---    0.04173   0.04285   0.04523   0.04525   0.04632
     Eigenvalues ---    0.04681   0.04715   0.04740   0.04783   0.04912
     Eigenvalues ---    0.05784   0.05814   0.06495   0.06720   0.07003
     Eigenvalues ---    0.09925   0.11687   0.12117   0.12298   0.12498
     Eigenvalues ---    0.12529   0.12847   0.12867   0.13701   0.14176
     Eigenvalues ---    0.14865   0.14871   0.15236   0.15309   0.18569
     Eigenvalues ---    0.19078   0.19373   0.20032   0.20638   0.22057
     Eigenvalues ---    0.24497   0.24785   0.27474   0.28672   0.28707
     Eigenvalues ---    0.29892   0.30775   0.30896   0.32105   0.32247
     Eigenvalues ---    0.33441   0.33801   0.33838   0.33895   0.34023
     Eigenvalues ---    0.34040   0.34104   0.34177   0.34404   0.34571
     Eigenvalues ---    0.34733   0.34796   0.34865   0.35172   0.35545
     Eigenvalues ---    0.37048   0.48873   0.52679   0.63210   0.75818
     Eigenvalues ---    0.78786   0.79130   0.81519
 RFO step:  Lambda=-3.33461464D-02 EMin=-5.65680867D-03
 Linear search not attempted -- first point.
 Iteration  1 RMS(Cart)=  0.24228401 RMS(Int)=  0.05889976
 Iteration  2 RMS(Cart)=  0.19407168 RMS(Int)=  0.03154964
 Iteration  3 RMS(Cart)=  0.16373435 RMS(Int)=  0.00722644
 Iteration  4 RMS(Cart)=  0.03865627 RMS(Int)=  0.00067530
 Iteration  5 RMS(Cart)=  0.00052351 RMS(Int)=  0.00063200
 Iteration  6 RMS(Cart)=  0.00000017 RMS(Int)=  0.00063200
 Variable       Old X    -DE/DX   Delta X   Delta X   Delta X     New X
                                 (Linear)    (Quad)   (Total)
    R1        2.88255   0.00667   0.00000   0.00171   0.00171   2.88426
    R2        2.06838   0.00026   0.00000   0.00065   0.00065   2.06903
    R3        2.07029   0.00089   0.00000   0.00131   0.00131   2.07160
    R4        2.06787  -0.00466   0.00000  -0.00499  -0.00499   2.06288
    R5        2.88274  -0.00040   0.00000  -0.00478  -0.00478   2.87797
    R6        2.72152   0.01288   0.00000   0.03394   0.03394   2.75547
    R7        2.07320  -0.00039   0.00000  -0.00197  -0.00197   2.07123
    R8        2.07067  -0.00008   0.00000  -0.00087  -0.00087   2.06980
    R9        2.06939  -0.00115   0.00000  -0.00114  -0.00114   2.06824
   R10        2.06985   0.00079   0.00000  -0.00079  -0.00079   2.06906
   R11        2.58168  -0.01584   0.00000  -0.06605  -0.06605   2.51563
   R12        2.31818  -0.02604   0.00000  -0.04046  -0.04046   2.27772
   R13        2.60427   0.04485   0.00000   0.12590   0.12590   2.73017
   R14        2.36996  -0.00103   0.00000  -0.01352  -0.01352   2.35644
   R15        2.60290   0.05086   0.00000   0.09519   0.09519   2.69810
   R16        2.31765  -0.03070   0.00000  -0.04331  -0.04331   2.27434
   R17        2.58286  -0.00656   0.00000  -0.05087  -0.05087   2.53199
   R18        2.72134   0.00474   0.00000   0.03279   0.03279   2.75413
   R19        2.88242   0.00049   0.00000  -0.00213  -0.00213   2.88030
   R20        2.88207   0.00346   0.00000  -0.00110  -0.00110   2.88097
   R21        2.07263  -0.00363   0.00000  -0.00719  -0.00719   2.06544
   R22        2.07019   0.00039   0.00000   0.00025   0.00025   2.07044
   R23        2.06868   0.00120   0.00000   0.00069   0.00069   2.06937
   R24        2.06784  -0.00020   0.00000   0.00128   0.00128   2.06911
   R25        2.07116   0.00005   0.00000  -0.00079  -0.00079   2.07037
   R26        2.06918  -0.00036   0.00000  -0.00007  -0.00007   2.06911
   R27        2.06940   0.00066   0.00000  -0.00113  -0.00113   2.06827
    A1        1.93953  -0.00345   0.00000  -0.02382  -0.02402   1.91551
    A2        1.93510  -0.00348   0.00000  -0.00810  -0.00827   1.92682
    A3        1.93877   0.00464   0.00000   0.00095   0.00092   1.93969
    A4        1.89692   0.00110   0.00000  -0.00229  -0.00262   1.89429
    A5        1.88922  -0.00070   0.00000   0.00692   0.00686   1.89608
    A6        1.86180   0.00213   0.00000   0.02870   0.02869   1.89050
    A7        1.92283  -0.00217   0.00000   0.04160   0.04140   1.96423
    A8        1.91751   0.01582   0.00000   0.02572   0.02633   1.94384
    A9        1.92812  -0.00173   0.00000  -0.00906  -0.00976   1.91836
   A10        1.88113  -0.01251   0.00000  -0.04338  -0.04390   1.83723
   A11        1.88823   0.00449   0.00000   0.02357   0.02272   1.91095
   A12        1.92526  -0.00441   0.00000  -0.03916  -0.03903   1.88623
   A13        1.94029  -0.00126   0.00000  -0.00849  -0.00860   1.93168
   A14        1.94170  -0.00420   0.00000  -0.01979  -0.01989   1.92181
   A15        1.92874   0.00219   0.00000   0.00680   0.00681   1.93556
   A16        1.89531   0.00169   0.00000   0.00244   0.00223   1.89754
   A17        1.86307   0.00123   0.00000   0.01835   0.01835   1.88142
   A18        1.89226   0.00063   0.00000   0.00242   0.00243   1.89469
   A19        2.02857   0.03215   0.00000   0.02154   0.02154   2.05011
   A20        2.15687   0.02225   0.00000   0.06600   0.06550   2.22237
   A21        1.91217  -0.01665   0.00000  -0.03872  -0.03919   1.87298
   A22        2.21414  -0.00558   0.00000  -0.02724  -0.02767   2.18647
   A23        1.95950   0.00189   0.00000  -0.01678  -0.01678   1.94272
   A24        1.96397   0.02007   0.00000  -0.02057  -0.02057   1.94340
   A25        2.21571  -0.03600   0.00000  -0.06473  -0.06612   2.14959
   A26        1.90966   0.02708   0.00000  -0.01791  -0.01947   1.89020
   A27        2.15781   0.00893   0.00000   0.08278   0.08102   2.23883
   A28        2.03092   0.01173   0.00000   0.01526   0.01526   2.04618
   A29        1.91848  -0.00523   0.00000  -0.01948  -0.01947   1.89901
   A30        1.87791  -0.00116   0.00000  -0.01555  -0.01509   1.86282
   A31        1.92595  -0.00007   0.00000  -0.03168  -0.03185   1.89410
   A32        1.92340   0.00838   0.00000   0.04890   0.04849   1.97189
   A33        1.92816  -0.00164   0.00000  -0.00660  -0.00821   1.91995
   A34        1.88910  -0.00011   0.00000   0.02521   0.02466   1.91376
   A35        1.93559  -0.00092   0.00000  -0.00331  -0.00337   1.93222
   A36        1.93749   0.00088   0.00000  -0.00056  -0.00060   1.93689
   A37        1.94014  -0.00283   0.00000  -0.01604  -0.01613   1.92401
   A38        1.86178   0.00159   0.00000   0.02081   0.02080   1.88258
   A39        1.89740   0.00096   0.00000  -0.00041  -0.00051   1.89689
   A40        1.88891   0.00054   0.00000   0.00108   0.00102   1.88993
   A41        1.93957  -0.00107   0.00000  -0.00418  -0.00426   1.93530
   A42        1.94176  -0.00254   0.00000  -0.02023  -0.02031   1.92144
   A43        1.92880   0.00135   0.00000   0.00439   0.00437   1.93317
   A44        1.89504   0.00105   0.00000   0.00162   0.00146   1.89650
   A45        1.86300   0.00131   0.00000   0.01635   0.01633   1.87933
   A46        1.89325   0.00008   0.00000   0.00369   0.00368   1.89693
    D1        1.03588   0.00196   0.00000   0.00809   0.00781   1.04368
    D2        3.10576  -0.00500   0.00000  -0.00393  -0.00361   3.10215
    D3       -1.04941  -0.00114   0.00000  -0.04190  -0.04171  -1.09112
    D4       -1.07584   0.00527   0.00000   0.03264   0.03219  -1.04365
    D5        0.99405  -0.00169   0.00000   0.02062   0.02077   1.01482
    D6        3.12206   0.00217   0.00000  -0.01736  -0.01733   3.10473
    D7        3.14032   0.00187   0.00000   0.00140   0.00105   3.14137
    D8       -1.07298  -0.00509   0.00000  -0.01062  -0.01036  -1.08334
    D9        1.05504  -0.00122   0.00000  -0.04860  -0.04847   1.00657
   D10        1.08561   0.00221   0.00000  -0.01794  -0.01842   1.06718
   D11       -1.02910   0.00382   0.00000  -0.00159  -0.00220  -1.03130
   D12       -3.13209   0.00434   0.00000   0.00390   0.00336  -3.12873
   D13       -1.00645  -0.00813   0.00000  -0.04694  -0.04674  -1.05318
   D14       -3.12115  -0.00652   0.00000  -0.03059  -0.03051   3.13152
   D15        1.05904  -0.00600   0.00000  -0.02509  -0.02495   1.03410
   D16       -3.08822   0.00159   0.00000   0.01073   0.01119  -3.07703
   D17        1.08026   0.00320   0.00000   0.02708   0.02742   1.10767
   D18       -1.02273   0.00372   0.00000   0.03258   0.03298  -0.98975
   D19        1.03489   0.01173   0.00000   0.03634   0.03638   1.07127
   D20        3.13030   0.01073   0.00000   0.07546   0.07456  -3.07833
   D21       -1.09483   0.00630   0.00000   0.05640   0.05726  -1.03758
   D22       -0.00001   0.01264   0.00000   0.05026   0.05114   0.05113
   D23       -3.14073   0.00166   0.00000  -0.00297  -0.00386   3.13860
   D24        2.61183   0.00361   0.00000  -0.02138  -0.02231   2.58952
   D25       -0.52885  -0.00784   0.00000  -0.07687  -0.07594  -0.60478
   D26        3.13324  -0.00699   0.00000  -0.04458  -0.04458   3.08866
   D27        2.61184  -0.00148   0.00000  -0.55877  -0.56156   2.05028
   D28       -0.52833  -0.00993   0.00000  -0.66073  -0.65795  -1.18628
   D29        3.14022   0.00504   0.00000   0.07566   0.07813  -3.06483
   D30       -0.00000  -0.00302   0.00000  -0.02206  -0.02453  -0.02453
   D31        2.09440  -0.00397   0.00000  -0.23716  -0.23700   1.85740
   D32       -2.09406   0.00246   0.00000  -0.19859  -0.19873  -2.29279
   D33       -0.03647   0.00161   0.00000  -0.19500  -0.19504  -0.23150
   D34        0.97375   0.00293   0.00000   0.03126   0.03106   1.00480
   D35       -1.09274   0.00097   0.00000   0.00776   0.00760  -1.08515
   D36        3.08683   0.00159   0.00000   0.01759   0.01743   3.10426
   D37       -1.09314   0.00243   0.00000   0.03245   0.03245  -1.06069
   D38        3.12356   0.00047   0.00000   0.00895   0.00899   3.13255
   D39        1.01995   0.00110   0.00000   0.01878   0.01882   1.03877
   D40        3.10330  -0.00174   0.00000  -0.02587  -0.02574   3.07755
   D41        1.03681  -0.00370   0.00000  -0.04937  -0.04920   0.98761
   D42       -1.06680  -0.00307   0.00000  -0.03954  -0.03937  -1.10617
   D43       -1.01685  -0.00057   0.00000  -0.02627  -0.02630  -1.04315
   D44       -3.13075   0.00057   0.00000  -0.01158  -0.01168   3.14075
   D45        1.04812   0.00124   0.00000  -0.00575  -0.00582   1.04231
   D46        1.07476  -0.00277   0.00000  -0.03110  -0.03145   1.04331
   D47       -1.03915  -0.00163   0.00000  -0.01641  -0.01683  -1.05597
   D48        3.13973  -0.00096   0.00000  -0.01058  -0.01096   3.12877
   D49       -3.09814   0.00022   0.00000   0.00615   0.00664  -3.09150
   D50        1.07115   0.00136   0.00000   0.02085   0.02126   1.09240
   D51       -1.03316   0.00203   0.00000   0.02667   0.02712  -1.00604
         Item               Value     Threshold  Converged?
 Maximum Force            0.050864     0.000450     NO 
 RMS     Force            0.010263     0.000300     NO 
 Maximum Displacement     1.795231     0.001800     NO 
 RMS     Displacement     0.609489     0.001200     NO 
 Predicted change in Energy=-2.315957D-02
 GradGradGradGradGradGradGradGradGradGradGradGradGradGradGradGradGradGrad

                          Input orientation:                          
 ---------------------------------------------------------------------
 Center     Atomic      Atomic             Coordinates (Angstroms)
 Number     Number       Type             X           Y           Z
 ---------------------------------------------------------------------
      1          6           0        3.816121   -1.558360   -0.228246
      2          6           0        2.733952   -0.776066    0.510989
      3          6           0        1.560367   -1.653180    0.926636
      4          8           0        3.244731   -0.205000    1.751606
      5          6           0        4.242510    0.671345    1.658968
      6          8           0        4.752953    1.094103    0.652232
      7          7           0        4.569265    1.094346    3.001200
      8          7           0        5.781902    1.364362    3.108666
      9          6           0        6.092715    1.848840    4.415267
     10          8           0        6.843883    1.282548    5.165962
     11          8           0        5.512813    3.046932    4.568699
     12          6           0        5.786873    3.767132    5.805748
     13          6           0        6.734550    4.921719    5.502460
     14          6           0        4.440722    4.229706    6.351768
     15          1           0        3.394646   -2.008220   -1.133095
     16          1           0        4.210580   -2.359294    0.407878
     17          1           0        4.644974   -0.908533   -0.515265
     18          1           0        2.371827    0.045462   -0.117721
     19          1           0        1.890797   -2.443228    1.609500
     20          1           0        1.106933   -2.117532    0.045368
     21          1           0        0.795402   -1.063473    1.442272
     22          1           0        6.252988    3.076849    6.513463
     23          1           0        6.305225    5.586516    4.744749
     24          1           0        7.692652    4.552751    5.121588
     25          1           0        6.926591    5.502620    6.410502
     26          1           0        3.932240    4.883604    5.634702
     27          1           0        4.583418    4.779900    7.287603
     28          1           0        3.785491    3.374420    6.544253
 ---------------------------------------------------------------------
                    Distance matrix (angstroms):
                    1          2          3          4          5
     1  C    0.000000
     2  C    1.526284   0.000000
     3  C    2.535975   1.522955   0.000000
     4  O    2.465337   1.458129   2.369575   0.000000
     5  C    2.952112   2.385078   3.624033   1.331211   0.000000
     6  O    2.947618   2.755693   4.220837   2.273988   1.205318
     7  N    4.246575   3.614964   4.572328   2.237002   1.444745
     8  N    4.851966   4.540854   5.629225   3.277460   2.225225
     9  C    6.193069   5.780554   6.706480   4.407308   3.522349
    10  O    6.807024   6.542032   7.382812   5.179239   4.409049
    11  O    6.862810   6.229157   7.139854   4.863669   3.965303
    12  C    8.285760   7.615474   8.429049   6.219034   5.400439
    13  C    9.129602   8.566464   9.536227   7.247826   6.248870
    14  C    8.785694   7.879436   8.505108   6.500654   5.892674
    15  H    1.094882   2.158179   2.780849   3.405228   3.961635
    16  H    1.096242   2.167412   2.791296   2.716515   3.278874
    17  H    1.091628   2.173189   3.485452   2.755784   2.717587
    18  H    2.161122   1.096048   2.152797   2.078239   2.654771
    19  H    2.804848   2.167271   1.095292   2.619732   3.903019
    20  H    2.779791   2.159519   1.094467   3.337545   4.495929
    21  H    3.487160   2.169761   1.094900   2.613786   3.865113
    22  H    8.536634   7.953506   8.695200   6.518851   5.778806
    23  H    9.054037   8.435708   9.460702   7.201888   6.159201
    24  H    8.999661   8.616415   9.680709   7.333278   6.241677
    25  H   10.178675   9.581459  10.491645   8.236402   7.288524
    26  H    8.711288   7.727883   8.397691   6.437778   5.800505
    27  H    9.861555   8.956102   9.538619   7.568921   6.976961
    28  H    8.378544   7.398144   7.860379   6.006175   5.601919
                    6          7          8          9         10
     6  O    0.000000
     7  N    2.356139   0.000000
     8  N    2.676909   1.246974   0.000000
     9  C    4.065098   2.211277   1.427771   0.000000
    10  O    4.978078   3.145711   2.316671   1.203529   0.000000
    11  O    4.441807   2.675804   2.243914   1.339871   2.289437
    12  C    5.896847   4.061015   3.612143   2.388895   2.774843
    13  C    6.488612   5.059006   4.392331   3.322126   3.656330
    14  C    6.512619   4.590567   4.530637   3.485346   3.983348
    15  H    3.828419   5.300759   5.921641   7.276044   7.899652
    16  H    3.504258   4.333775   4.860959   6.108191   6.544972
    17  H    2.320616   4.047566   4.426232   5.831742   6.473977
    18  H    2.713344   3.956838   4.876236   6.135565   7.031854
    19  H    4.649839   4.650317   5.646763   6.629501   7.145829
    20  H    4.896564   5.571431   6.585037   7.725681   8.407949
    21  H    4.576188   4.618277   5.791064   6.736601   7.480227
    22  H    6.366743   4.370495   3.840206   2.436415   2.320438
    23  H    6.272163   5.121827   4.558204   3.758184   4.357949
    24  H    6.370182   5.119780   4.227132   3.220221   3.378847
    25  H    7.570826   6.050884   5.416421   4.245753   4.400537
    26  H    6.313390   4.658283   4.710326   3.919753   4.654566
    27  H    7.592233   5.653031   5.528633   4.372574   4.673600
    28  H    6.391537   4.285588   4.453005   3.490453   3.953401
                   11         12         13         14         15
    11  O    0.000000
    12  C    1.457424   0.000000
    13  C    2.424742   1.524187   0.000000
    14  C    2.393254   1.524544   2.542018   0.000000
    15  H    7.908961   9.339432  10.159212   9.799448   0.000000
    16  H    6.945180   8.315936   9.237875   8.876808   1.778651
    17  H    6.499657   7.944872   8.635460   8.579007   1.776048
    18  H    6.390395   7.784655   8.625408   7.977626   2.508935
    19  H    7.212330   8.447276   9.636364   8.574337   3.157946
    20  H    8.157450   9.471699  10.535700   9.548417   2.575724
    21  H    6.994565   8.203014   9.358478   8.087599   3.779038
    22  H    2.081072   1.092984   2.158141   2.153957   9.617583
    23  H    2.666158   2.169001   1.095628   2.810661  10.034966
    24  H    2.706450   2.171927   1.095062   3.491812  10.031962
    25  H    3.379557   2.162545   1.094928   2.793439  11.215757
    26  H    2.647250   2.171504   2.805688   1.095591   9.674157
    27  H    3.355501   2.160995   2.798968   1.094926  10.881172
    28  H    2.644561   2.169135   3.489472   1.094483   9.384415
                   16         17         18         19         20
    16  H    0.000000
    17  H    1.773583   0.000000
    18  H    3.072478   2.497068   0.000000
    19  H    2.613873   3.802026   3.067289   0.000000
    20  H    3.134084   3.780704   2.510996   1.779615   0.000000
    21  H    3.796388   4.321477   2.479603   1.769627   1.777479
    22  H    8.426224   8.238447   8.259862   8.576060   9.762158
    23  H    9.291496   8.521142   8.355748   9.684717  10.414355
    24  H    9.062023   8.419506   8.722224   9.743715  10.659849
    25  H   10.257578   9.709527   9.651121  10.561502  11.508695
    26  H    8.936259   8.478144   7.676775   8.605358   9.393557
    27  H    9.921578   9.656439   9.063380   9.574164  10.588223
    28  H    8.409000   8.301759   7.580390   7.860450   8.920298
                   21         22         23         24         25
    21  H    0.000000
    22  H    8.523173   0.000000
    23  H    9.245910   3.070750   0.000000
    24  H    9.625559   2.487617   1.770772   0.000000
    25  H   10.265883   2.519664   1.779850   1.774937   0.000000
    26  H    7.923631   3.069602   2.630050   3.809653   3.154550
    27  H    9.091862   2.507417   3.175115   3.796124   2.604245
    28  H    7.393628   2.485566   3.805344   4.321846   3.796529
                   26         27         28
    26  H    0.000000
    27  H    1.779570   0.000000
    28  H    1.768178   1.778941   0.000000
 Stoichiometry    C8H14N2O4
 Framework group  C1[X(C8H14N2O4)]
 Deg. of freedom    78
 Full point group                 C1      NOp   1
 Largest Abelian subgroup         C1      NOp   1
 Largest concise Abelian subgroup C1      NOp   1
                         Standard orientation:                         
 ---------------------------------------------------------------------
 Center     Atomic      Atomic             Coordinates (Angstroms)
 Number     Number       Type             X           Y           Z
 ---------------------------------------------------------------------
      1          6           0        4.413090   -0.938982    0.000842
      2          6           0        3.845784    0.452720    0.267059
      3          6           0        4.578235    1.539891   -0.508162
      4          8           0        2.454257    0.549548   -0.157698
      5          6           0        1.574248   -0.254898    0.434396
      6          8           0        1.783526   -1.034791    1.329249
      7          7           0        0.279780    0.024560   -0.143136
      8          7           0       -0.435619   -0.996500   -0.167338
      9          6           0       -1.738768   -0.706229   -0.673380
     10          8           0       -2.177821   -1.196082   -1.681228
     11          8           0       -2.371496    0.071751    0.215245
     12          6           0       -3.762410    0.406740   -0.062651
     13          6           0       -4.657189   -0.387611    0.881554
     14          6           0       -3.895441    1.914572    0.118959
     15          1           0        5.468137   -0.970337    0.291808
     16          1           0        4.338053   -1.184764   -1.064853
     17          1           0        3.872253   -1.699476    0.567232
     18          1           0        3.890244    0.675142    1.339380
     19          1           0        4.489955    1.371940   -1.586894
     20          1           0        5.639076    1.544297   -0.238990
     21          1           0        4.158684    2.526896   -0.287696
[...]
   XY=             -5.3412   XZ=             -0.1993   YZ=             -2.1088
 Traceless Quadrupole moment (field-independent basis, Debye-Ang):
   XX=             23.0732   YY=            -17.2534   ZZ=             -5.8198
   XY=             -5.3412   XZ=             -0.1993   YZ=             -2.1088
 Octapole moment (field-independent basis, Debye-Ang**2):
  XXX=             -0.9337  YYY=             -2.2994  ZZZ=             -3.4252  XYY=             -1.9429
  XXY=             -0.9654  XXZ=             -1.3138  XZZ=              1.0255  YZZ=              1.7760
  YYZ=              2.4142  XYZ=              2.5314
 Hexadecapole moment (field-independent basis, Debye-Ang**3):
 XXXX=          -4705.0944 YYYY=           -581.8116 ZZZZ=           -337.8236 XXXY=              3.0516
 XXXZ=             10.5218 YYYX=            -26.2283 YYYZ=             -5.4187 ZZZX=             -2.8428
 ZZZY=              4.5859 XXYY=          -1016.3491 XXZZ=           -941.5320 YYZZ=           -143.6139
 XXYZ=             -7.4275 YYXZ=             -7.8833 ZZXY=              6.0198
 N-N= 9.013863488772D+02 E-N=-3.491913729743D+03  KE= 7.171691971780D+02
 Evaluate density.
 Using the total density.
 Monte-Carlo method of calculating molar volume:
 based on  0.001 e/bohr**3 density envelope.
 Number of points per bohr**3 =   20 CutOff= 1.00D-04
 Using the CI density.
 There are       419 points.  Will hold       419 in memory.
 LenV=  1073583544 MDV=  1073741824.
 Box volume = 9195.883 fraction occupied=0.177
 Integrated density= 6.0686768526798846D+02 error= 4.9886768526798846D+02
 Molar volume = 1624.094 bohr**3/mol (144.932 cm**3/mol)
 Recommended a0 for SCRF calculation =  4.75 angstrom (  8.97 bohr)
 ******************************Gaussian NBO Version 3.1******************************
             N A T U R A L   A T O M I C   O R B I T A L   A N D
          N A T U R A L   B O N D   O R B I T A L   A N A L Y S I S
 ******************************Gaussian NBO Version 3.1******************************
       /RESON  / : Allow strongly delocalized NBO set

 Analyzing the CI density

 Job title: Title Card Required                                             

 Storage needed:    172550 in NPA (1073737624 available)


 NATURAL POPULATIONS:  Natural atomic orbital occupancies 
                                                          
   NAO  Atom  No  lang   Type(AO)    Occupancy
 --------------------------------------------
     1    C    1  S      Cor( 1S)     1.99939
     2    C    1  S      Val( 2S)     1.10893
     3    C    1  S      Ryd( 3S)     0.00047
     4    C    1  S      Ryd( 4S)     0.00002
     5    C    1  px     Val( 2p)     1.24446
     6    C    1  px     Ryd( 3p)     0.00139
     7    C    1  py     Val( 2p)     1.25638
     8    C    1  py     Ryd( 3p)     0.00203
     9    C    1  pz     Val( 2p)     1.08612
    10    C    1  pz     Ryd( 3p)     0.00139
    11    C    1  dxy    Ryd( 3d)     0.00053
    12    C    1  dxz    Ryd( 3d)     0.00033
    13    C    1  dyz    Ryd( 3d)     0.00071
    14    C    1  dx2y2  Ryd( 3d)     0.00088
    15    C    1  dz2    Ryd( 3d)     0.00078
 
    16    C    2  S      Cor( 1S)     1.99912
    17    C    2  S      Val( 2S)     0.97708
    18    C    2  S      Ryd( 3S)     0.00194
    19    C    2  S      Ryd( 4S)     0.00005
    20    C    2  px     Val( 2p)     0.69213
    21    C    2  px     Ryd( 3p)     0.00260
    22    C    2  py     Val( 2p)     1.16974
    23    C    2  py     Ryd( 3p)     0.00455
    24    C    2  pz     Val( 2p)     1.06072
    25    C    2  pz     Ryd( 3p)     0.00218
    26    C    2  dxy    Ryd( 3d)     0.00098
    27    C    2  dxz    Ryd( 3d)     0.00118
    28    C    2  dyz    Ryd( 3d)     0.00090
    29    C    2  dx2y2  Ryd( 3d)     0.00193
    30    C    2  dz2    Ryd( 3d)     0.00121
 
    31    C    3  S      Cor( 1S)     1.99939
    32    C    3  S      Val( 2S)     1.10687
    33    C    3  S      Ryd( 3S)     0.00046
    34    C    3  S      Ryd( 4S)     0.00002
    35    C    3  px     Val( 2p)     1.19796
    36    C    3  px     Ryd( 3p)     0.00187
    37    C    3  py     Val( 2p)     1.17158
    38    C    3  py     Ryd( 3p)     0.00117
    39    C    3  pz     Val( 2p)     1.21169
    40    C    3  pz     Ryd( 3p)     0.00233
    41    C    3  dxy    Ryd( 3d)     0.00038
    42    C    3  dxz    Ryd( 3d)     0.00031
    43    C    3  dyz    Ryd( 3d)     0.00050
    44    C    3  dx2y2  Ryd( 3d)     0.00097
    45    C    3  dz2    Ryd( 3d)     0.00106
 
    46    O    4  S      Cor( 1S)     1.99971
    47    O    4  S      Val( 2S)     1.62269
    48    O    4  S      Ryd( 3S)     0.00205
    49    O    4  S      Ryd( 4S)     0.00014
    50    O    4  px     Val( 2p)     1.42154
    51    O    4  px     Ryd( 3p)     0.00108
    52    O    4  py     Val( 2p)     1.70872
    53    O    4  py     Ryd( 3p)     0.00168
    54    O    4  pz     Val( 2p)     1.77154
    55    O    4  pz     Ryd( 3p)     0.00190
    56    O    4  dxy    Ryd( 3d)     0.00143
    57    O    4  dxz    Ryd( 3d)     0.00039
    58    O    4  dyz    Ryd( 3d)     0.00194
    59    O    4  dx2y2  Ryd( 3d)     0.00133
    60    O    4  dz2    Ryd( 3d)     0.00078
 
    61    C    5  S      Cor( 1S)     1.99950
    62    C    5  S      Val( 2S)     0.72937
    63    C    5  S      Ryd( 3S)     0.00399
    64    C    5  S      Ryd( 4S)     0.00044
    65    C    5  px     Val( 2p)     0.79108
    66    C    5  px     Ryd( 3p)     0.00569
    67    C    5  py     Val( 2p)     0.71620
    68    C    5  py     Ryd( 3p)     0.02378
    69    C    5  pz     Val( 2p)     0.79610
    70    C    5  pz     Ryd( 3p)     0.00459
    71    C    5  dxy    Ryd( 3d)     0.00404
    72    C    5  dxz    Ryd( 3d)     0.00179
    73    C    5  dyz    Ryd( 3d)     0.00275
    74    C    5  dx2y2  Ryd( 3d)     0.00300
    75    C    5  dz2    Ryd( 3d)     0.00074
 
    76    O    6  S      Cor( 1S)     1.99977
    77    O    6  S      Val( 2S)     1.70715
    78    O    6  S      Ryd( 3S)     0.00085
    79    O    6  S      Ryd( 4S)     0.00013
    80    O    6  px     Val( 2p)     1.75499
    81    O    6  px     Ryd( 3p)     0.00140
    82    O    6  py     Val( 2p)     1.59482
    83    O    6  py     Ryd( 3p)     0.00042
    84    O    6  pz     Val( 2p)     1.47547
    85    O    6  pz     Ryd( 3p)     0.00075
    86    O    6  dxy    Ryd( 3d)     0.00501
    87    O    6  dxz    Ryd( 3d)     0.00040
    88    O    6  dyz    Ryd( 3d)     0.00505
    89    O    6  dx2y2  Ryd( 3d)     0.00484
    90    O    6  dz2    Ryd( 3d)     0.00178
 
    91    N    7  S      Cor( 1S)     1.99939
    92    N    7  S      Val( 2S)     1.39394
    93    N    7  S      Ryd( 3S)     0.00596
    94    N    7  S      Ryd( 4S)     0.00003
    95    N    7  px     Val( 2p)     1.16967
    96    N    7  px     Ryd( 3p)     0.00390
    97    N    7  py     Val( 2p)     1.34456
    98    N    7  py     Ryd( 3p)     0.00457
    99    N    7  pz     Val( 2p)     1.28019
   100    N    7  pz     Ryd( 3p)     0.00420
   101    N    7  dxy    Ryd( 3d)     0.00092
   102    N    7  dxz    Ryd( 3d)     0.00156
   103    N    7  dyz    Ryd( 3d)     0.00160
   104    N    7  dx2y2  Ryd( 3d)     0.00128
   105    N    7  dz2    Ryd( 3d)     0.00229
 
   106    N    8  S      Cor( 1S)     1.99938
   107    N    8  S      Val( 2S)     1.39202
   108    N    8  S      Ryd( 3S)     0.00585
   109    N    8  S      Ryd( 4S)     0.00003
   110    N    8  px     Val( 2p)     1.16599
   111    N    8  px     Ryd( 3p)     0.00384
   112    N    8  py     Val( 2p)     1.34985
   113    N    8  py     Ryd( 3p)     0.00451
   114    N    8  pz     Val( 2p)     1.28208
   115    N    8  pz     Ryd( 3p)     0.00420
   116    N    8  dxy    Ryd( 3d)     0.00094
   117    N    8  dxz    Ryd( 3d)     0.00156
   118    N    8  dyz    Ryd( 3d)     0.00158
   119    N    8  dx2y2  Ryd( 3d)     0.00126
   120    N    8  dz2    Ryd( 3d)     0.00229
 
   121    C    9  S      Cor( 1S)     1.99950
   122    C    9  S      Val( 2S)     0.73002
   123    C    9  S      Ryd( 3S)     0.00391
   124    C    9  S      Ryd( 4S)     0.00043
   125    C    9  px     Val( 2p)     0.79050
   126    C    9  px     Ryd( 3p)     0.00591
   127    C    9  py     Val( 2p)     0.72085
   128    C    9  py     Ryd( 3p)     0.02312
   129    C    9  pz     Val( 2p)     0.78779
   130    C    9  pz     Ryd( 3p)     0.00529
   131    C    9  dxy    Ryd( 3d)     0.00397
   132    C    9  dxz    Ryd( 3d)     0.00196
   133    C    9  dyz    Ryd( 3d)     0.00245
   134    C    9  dx2y2  Ryd( 3d)     0.00299
   135    C    9  dz2    Ryd( 3d)     0.00096
 
   136    O   10  S      Cor( 1S)     1.99977
   137    O   10  S      Val( 2S)     1.70758
   138    O   10  S      Ryd( 3S)     0.00083
   139    O   10  S      Ryd( 4S)     0.00012
   140    O   10  px     Val( 2p)     1.75892
   141    O   10  px     Ryd( 3p)     0.00142
   142    O   10  py     Val( 2p)     1.58812
   143    O   10  py     Ryd( 3p)     0.00041
   144    O   10  pz     Val( 2p)     1.47282
   145    O   10  pz     Ryd( 3p)     0.00071
   146    O   10  dxy    Ryd( 3d)     0.00483
   147    O   10  dxz    Ryd( 3d)     0.00057
   148    O   10  dyz    Ryd( 3d)     0.00499
   149    O   10  dx2y2  Ryd( 3d)     0.00467
   150    O   10  dz2    Ryd( 3d)     0.00205
 
   151    O   11  S      Cor( 1S)     1.99971
   152    O   11  S      Val( 2S)     1.62339
   153    O   11  S      Ryd( 3S)     0.00205
   154    O   11  S      Ryd( 4S)     0.00014
   155    O   11  px     Val( 2p)     1.41671
   156    O   11  px     Ryd( 3p)     0.00113
   157    O   11  py     Val( 2p)     1.71229
   158    O   11  py     Ryd( 3p)     0.00170
   159    O   11  pz     Val( 2p)     1.77070
   160    O   11  pz     Ryd( 3p)     0.00187
   161    O   11  dxy    Ryd( 3d)     0.00140
   162    O   11  dxz    Ryd( 3d)     0.00042
   163    O   11  dyz    Ryd( 3d)     0.00180
   164    O   11  dx2y2  Ryd( 3d)     0.00135
   165    O   11  dz2    Ryd( 3d)     0.00092
 
   166    C   12  S      Cor( 1S)     1.99912
   167    C   12  S      Val( 2S)     0.97711
   168    C   12  S      Ryd( 3S)     0.00193
   169    C   12  S      Ryd( 4S)     0.00005
   170    C   12  px     Val( 2p)     0.69053
   171    C   12  px     Ryd( 3p)     0.00262
   172    C   12  py     Val( 2p)     1.10104
   173    C   12  py     Ryd( 3p)     0.00457
   174    C   12  pz     Val( 2p)     1.13201
   175    C   12  pz     Ryd( 3p)     0.00205
   176    C   12  dxy    Ryd( 3d)     0.00104
   177    C   12  dxz    Ryd( 3d)     0.00105
   178    C   12  dyz    Ryd( 3d)     0.00130
   179    C   12  dx2y2  Ryd( 3d)     0.00176
   180    C   12  dz2    Ryd( 3d)     0.00103
 
   181    C   13  S      Cor( 1S)     1.99939
   182    C   13  S      Val( 2S)     1.10901
   183    C   13  S      Ryd( 3S)     0.00047
   184    C   13  S      Ryd( 4S)     0.00002
   185    C   13  px     Val( 2p)     1.22222
   186    C   13  px     Ryd( 3p)     0.00145
   187    C   13  py     Val( 2p)     1.22887
   188    C   13  py     Ryd( 3p)     0.00230
   189    C   13  pz     Val( 2p)     1.13666
   190    C   13  pz     Ryd( 3p)     0.00107
   191    C   13  dxy    Ryd( 3d)     0.00053
   192    C   13  dxz    Ryd( 3d)     0.00029
   193    C   13  dyz    Ryd( 3d)     0.00091
   194    C   13  dx2y2  Ryd( 3d)     0.00079
   195    C   13  dz2    Ryd( 3d)     0.00072
 
   196    C   14  S      Cor( 1S)     1.99939
   197    C   14  S      Val( 2S)     1.10681
   198    C   14  S      Ryd( 3S)     0.00048
   199    C   14  S      Ryd( 4S)     0.00002
   200    C   14  px     Val( 2p)     1.21398
   201    C   14  px     Ryd( 3p)     0.00205
   202    C   14  py     Val( 2p)     1.12040
   203    C   14  py     Ryd( 3p)     0.00121
   204    C   14  pz     Val( 2p)     1.24680
   205    C   14  pz     Ryd( 3p)     0.00213
   206    C   14  dxy    Ryd( 3d)     0.00039
   207    C   14  dxz    Ryd( 3d)     0.00043
   208    C   14  dyz    Ryd( 3d)     0.00103
   209    C   14  dx2y2  Ryd( 3d)     0.00079
   210    C   14  dz2    Ryd( 3d)     0.00058
 
   211    H   15  S      Val( 1S)     0.75879
   212    H   15  S      Ryd( 2S)     0.00076
 
   213    H   16  S      Val( 1S)     0.76122
   214    H   16  S      Ryd( 2S)     0.00135
 
   215    H   17  S      Val( 1S)     0.74841
   216    H   17  S      Ryd( 2S)     0.00103
 
   217    H   18  S      Val( 1S)     0.75392
   218    H   18  S      Ryd( 2S)     0.00274
 
   219    H   19  S      Val( 1S)     0.75850
   220    H   19  S      Ryd( 2S)     0.00127
 
   221    H   20  S      Val( 1S)     0.75793
   222    H   20  S      Ryd( 2S)     0.00066
 
   223    H   21  S      Val( 1S)     0.75310
   224    H   21  S      Ryd( 2S)     0.00097
 
   225    H   22  S      Val( 1S)     0.75342
   226    H   22  S      Ryd( 2S)     0.00267
 
   227    H   23  S      Val( 1S)     0.76144
   228    H   23  S      Ryd( 2S)     0.00136
 
   229    H   24  S      Val( 1S)     0.74891
   230    H   24  S      Ryd( 2S)     0.00112
 
   231    H   25  S      Val( 1S)     0.75699
   232    H   25  S      Ryd( 2S)     0.00073
 
   233    H   26  S      Val( 1S)     0.75912
   234    H   26  S      Ryd( 2S)     0.00127
 
   235    H   27  S      Val( 1S)     0.75840
   236    H   27  S      Ryd( 2S)     0.00066
 
   237    H   28  S      Val( 1S)     0.75195
   238    H   28  S      Ryd( 2S)     0.00096


 Summary of Natural Population Analysis:                  
                                                          
                                       Natural Population 
                Natural  -----------------------------------------------
    Atom  No    Charge         Core      Valence    Rydberg      Total
 -----------------------------------------------------------------------
      C    1   -0.70382      1.99939     4.69589    0.00853     6.70382
      C    2    0.08370      1.99912     3.89967    0.01751     5.91630
      C    3   -0.69654      1.99939     4.68810    0.00905     6.69654
      O    4   -0.53693      1.99971     6.52449    0.01273     8.53693
      C    5    0.91693      1.99950     3.03275    0.05082     5.08307
      O    6   -0.55283      1.99977     6.53243    0.02063     8.55283
      N    7   -0.21405      1.99939     5.18836    0.02631     7.21405
      N    8   -0.21539      1.99938     5.18994    0.02607     7.21539
      C    9    0.92037      1.99950     3.02915    0.05098     5.07963
      O   10   -0.54782      1.99977     6.52745    0.02059     8.54782
      O   11   -0.53558      1.99971     6.52309    0.01277     8.53558
      C   12    0.08280      1.99912     3.90068    0.01740     5.91720
      C   13   -0.70468      1.99939     4.69675    0.00853     6.70468
      C   14   -0.69649      1.99939     4.68800    0.00910     6.69649
      H   15    0.24045      0.00000     0.75879    0.00076     0.75955
      H   16    0.23743      0.00000     0.76122    0.00135     0.76257
      H   17    0.25056      0.00000     0.74841    0.00103     0.74944
      H   18    0.24333      0.00000     0.75392    0.00274     0.75667
      H   19    0.24023      0.00000     0.75850    0.00127     0.75977
      H   20    0.24141      0.00000     0.75793    0.00066     0.75859
      H   21    0.24593      0.00000     0.75310    0.00097     0.75407
      H   22    0.24391      0.00000     0.75342    0.00267     0.75609
      H   23    0.23720      0.00000     0.76144    0.00136     0.76280
      H   24    0.24997      0.00000     0.74891    0.00112     0.75003
      H   25    0.24228      0.00000     0.75699    0.00073     0.75772
      H   26    0.23961      0.00000     0.75912    0.00127     0.76039
      H   27    0.24094      0.00000     0.75840    0.00066     0.75906
      H   28    0.24709      0.00000     0.75195    0.00096     0.75291
 =======================================================================
   * Total *    0.00000     27.99256    79.69887    0.30857   108.00000

                                 Natural Population      
 --------------------------------------------------------
   Core                      27.99256 ( 99.9734% of  28)
   Valence                   79.69887 ( 99.6236% of  80)
   Natural Minimal Basis    107.69143 ( 99.7143% of 108)
   Natural Rydberg Basis      0.30857 (  0.2857% of 108)
 --------------------------------------------------------

    Atom  No          Natural Electron Configuration
 ----------------------------------------------------------------------------
      C    1      [core]2S( 1.11)2p( 3.59)
      C    2      [core]2S( 0.98)2p( 2.92)3p( 0.01)3d( 0.01)
      C    3      [core]2S( 1.11)2p( 3.58)3p( 0.01)
      O    4      [core]2S( 1.62)2p( 4.90)3d( 0.01)
      C    5      [core]2S( 0.73)2p( 2.30)3p( 0.03)3d( 0.01)
      O    6      [core]2S( 1.71)2p( 4.83)3d( 0.02)
      N    7      [core]2S( 1.39)2p( 3.79)3S( 0.01)3p( 0.01)3d( 0.01)
      N    8      [core]2S( 1.39)2p( 3.80)3S( 0.01)3p( 0.01)3d( 0.01)
      C    9      [core]2S( 0.73)2p( 2.30)3p( 0.03)3d( 0.01)
      O   10      [core]2S( 1.71)2p( 4.82)3d( 0.02)
      O   11      [core]2S( 1.62)2p( 4.90)3d( 0.01)
      C   12      [core]2S( 0.98)2p( 2.92)3p( 0.01)3d( 0.01)
      C   13      [core]2S( 1.11)2p( 3.59)
      C   14      [core]2S( 1.11)2p( 3.58)3p( 0.01)
      H   15            1S( 0.76)
      H   16            1S( 0.76)
      H   17            1S( 0.75)
      H   18            1S( 0.75)
      H   19            1S( 0.76)
      H   20            1S( 0.76)
      H   21            1S( 0.75)
      H   22            1S( 0.75)
      H   23            1S( 0.76)
      H   24            1S( 0.75)
      H   25            1S( 0.76)
      H   26            1S( 0.76)
      H   27            1S( 0.76)
      H   28            1S( 0.75)


 NBO analysis skipped by request.
 1\1\GINC-DELLA-R2C1N4\SP\RB3LYP TD-FC\6-31G(d)\C8H14N2O4\BJS4\22-Aug-2
 020\0\\# TD(NStates=10, Root=1) B3LYP/6-31G* scf=qc volume pop=NPA den
 sity=current Geom=AllCheck Guess=Read\\Title Card Required\\0,1\C,0,3.
 891367665,-0.9613384404,-0.5227844698\C,0,2.808306126,-1.0513569083,0.
 5449033\C,0,2.4532557227,-2.4737611848,0.9488538162\O,0,3.2916247069,-
 0.3998725469,1.7708460183\C,0,3.1398215756,0.9180087304,1.8495706742\O
 ,0,2.6514653082,1.6661647923,1.039015562\N,0,3.5456907924,1.4007767671
 ,3.1556025247\N,0,4.7827959471,1.4200732075,3.3004111923\C,0,5.1907924
 778,1.9002895767,4.6064705169\O,0,5.5852739406,1.1384867992,5.45434619
 07\O,0,5.1515252619,3.2280680559,4.6406564411\C,0,5.6540710062,3.87818
 40692,5.8604826625\C,0,7.1701834899,3.9989456909,5.7711755869\C,0,4.92
 95288464,5.2127992733,5.9383328629\H,0,3.5531522877,-1.4598758615,-1.4
 37972815\H,0,4.8103763469,-1.4498777972,-0.181628434\H,0,4.1118441661,
 0.0822224323,-0.7637444962\H,0,1.9186523395,-0.5019333894,0.2236754204
 \H,0,3.3375233298,-3.0055383382,1.315794272\H,0,2.0573758277,-3.016773
 2601,0.0839765598\H,0,1.6941666858,-2.4781798157,1.7369510512\H,0,5.37
 74249193,3.235028846,6.7003246746\H,0,7.459452465,4.5889334397,4.89475
 04154\H,0,7.6352917344,3.0113985142,5.7055273624\H,0,7.5561255185,4.49
 87012823,6.6665848295\H,0,5.1733698348,5.8386122333,5.0732728221\H,0,5
 .2310746133,5.7454626471,6.8465934463\H,0,3.8455870645,5.0666211848,5.
 965762013\\Version=ES64L-G16RevA.03\State=1-A\HF=-723.6527845\RMSD=3.0
 86e-13\Dipole=0.1679591,0.015974,-0.025911\Quadrupole=-3.7569565,3.348
 7525,0.408204,7.4896957,1.5404882,13.6309369\PG=C01 [X(C8H14N2O4)]\\@


 We're simply so accustomed to the marvels of everyday thought
 that we never wonder about it.
 -- Marvin Minsky in "Why people think computers are smart"
 Job cpu time:       0 days  0 hours 20 minutes 38.1 seconds.
 Elapsed time:       0 days  0 hours  5 minutes 21.9 seconds.
 File lengths (MBytes):  RWF=    524 Int=      0 D2E=      0 Chk=    268 Scr=      1
 Normal termination of Gaussian 16 at Sat Aug 22 14:26:15 2020.
