 Entering Gaussian System, Link 0=g16
 Input=azadicarboxylate_5_conf5123.com
 Output=azadicarboxylate_5_conf5123.log
 Initial command:
 /opt/export//g16/l1.exe "/scratch/bjs4/job.6270/Gau-6272.inp" -scrdir="/scratch/bjs4/job.6270/"
 Entering Link 1 = /opt/export//g16/l1.exe PID=      6273.
  
 Copyright (c) 1988,1990,1992,1993,1995,1998,2003,2009,2016,
            Gaussian, Inc.  All Rights Reserved.
  
 This is part of the Gaussian(R) 16 program.  It is based on
 the Gaussian(R) 09 system (copyright 2009, Gaussian, Inc.),
 the Gaussian(R) 03 system (copyright 2003, Gaussian, Inc.),
 the Gaussian(R) 98 system (copyright 1998, Gaussian, Inc.),
 the Gaussian(R) 94 system (copyright 1995, Gaussian, Inc.),
 the Gaussian 92(TM) system (copyright 1992, Gaussian, Inc.),
 the Gaussian 90(TM) system (copyright 1990, Gaussian, Inc.),
 the Gaussian 88(TM) system (copyright 1988, Gaussian, Inc.),
 the Gaussian 86(TM) system (copyright 1986, Carnegie Mellon
 University), and the Gaussian 82(TM) system (copyright 1983,
 Carnegie Mellon University). Gaussian is a federally registered
 trademark of Gaussian, Inc.
  
 This software contains proprietary and confidential information,
 including trade secrets, belonging to Gaussian, Inc.
  
 This software is provided under written license and may be
 used, copied, transmitted, or stored only in accord with that
 written license.
  
 The following legend is applicable only to US Government
 contracts under FAR:
  
                    RESTRICTED RIGHTS LEGEND
  
 Use, reproduction and disclosure by the US Government is
 subject to restrictions as set forth in subparagraphs (a)
 and (c) of the Commercial Computer Software - Restricted
 Rights clause in FAR 52.227-19.
  
 Gaussian, Inc.
 340 Quinnipiac St., Bldg. 40, Wallingford CT 06492
  
  
 ---------------------------------------------------------------
 Warning -- This program may not be used in any manner that
 competes with the business of Gaussian, Inc. or will provide
 assistance to any competitor of Gaussian, Inc.  The licensee
 of this program is prohibited from giving any competitor of
 Gaussian, Inc. access to this program.  By using this program,
 the user acknowledges that Gaussian, Inc. is engaged in the
 business of creating and licensing software in the field of
 computational chemistry and represents and warrants to the
 licensee that it is not a competitor of Gaussian, Inc. and that
 it will not use this program in any manner prohibited above.
 ---------------------------------------------------------------
  

 Cite this work as:
 Gaussian 16, Revision A.03,
 M. J. Frisch, G. W. Trucks, H. B. Schlegel, G. E. Scuseria, 
 M. A. Robb, J. R. Cheeseman, G. Scalmani, V. Barone, 
 G. A. Petersson, H. Nakatsuji, X. Li, M. Caricato, A. V. Marenich, 
 J. Bloino, B. G. Janesko, R. Gomperts, B. Mennucci, H. P. Hratchian, 
 J. V. Ortiz, A. F. Izmaylov, J. L. Sonnenberg, D. Williams-Young, 
 F. Ding, F. Lipparini, F. Egidi, J. Goings, B. Peng, A. Petrone, 
 T. Henderson, D. Ranasinghe, V. G. Zakrzewski, J. Gao, N. Rega, 
 G. Zheng, W. Liang, M. Hada, M. Ehara, K. Toyota, R. Fukuda, 
 J. Hasegawa, M. Ishida, T. Nakajima, Y. Honda, O. Kitao, H. Nakai, 
 T. Vreven, K. Throssell, J. A. Montgomery, Jr., J. E. Peralta, 
 F. Ogliaro, M. J. Bearpark, J. J. Heyd, E. N. Brothers, K. N. Kudin, 
 V. N. Staroverov, T. A. Keith, R. Kobayashi, J. Normand, 
 K. Raghavachari, A. P. Rendell, J. C. Burant, S. S. Iyengar, 
 J. Tomasi, M. Cossi, J. M. Millam, M. Klene, C. Adamo, R. Cammi, 
 J. W. Ochterski, R. L. Martin, K. Morokuma, O. Farkas, 
 J. B. Foresman, and D. J. Fox, Gaussian, Inc., Wallingford CT, 2016.
 
 ******************************************
 Gaussian 16:  ES64L-G16RevA.03 25-Dec-2016
                22-Aug-2020 
 ******************************************
 %nprocshared=5
 Will use up to    5 processors via shared memory.
 %Mem=10GB
 %Chk=azadicarboxylate_5_conf51.chk
 ---------------------------------
 # opt=CalcAll B3LYP/6-31G* scf=qc
 ---------------------------------
 1/10=4,18=20,19=15,26=3,38=1/1,3;
 2/9=110,12=2,17=6,18=5,40=1/2;
 3/5=1,6=6,7=1,11=2,25=1,30=1,71=2,74=-5,140=1/1,2,3;
 4//1;
 5/5=2,8=3,38=5/8;
 8/6=4,10=90,11=11/1;
 11/6=1,8=1,9=11,15=111,16=1/1,2,10;
 10/6=1/2;
 6/7=2,8=2,9=2,10=2,18=1,28=1/1;
 7/10=1,25=1/1,2,3,16;
 1/10=4,18=20,19=15,26=3/3(3);
 2/9=110/2;
 7/8=1,9=1,25=1,44=-1/16;
 99//99;
 2/9=110/2;
 3/5=1,6=6,7=1,11=2,25=1,30=1,71=2,74=-5,140=1/1,2,3;
 4/5=5,16=3,69=1/1;
 5/5=2,8=3,38=5/8;
 8/6=4,10=90,11=11/1;
 11/6=1,8=1,9=11,15=111,16=1/1,2,10;
 10/6=1/2;
 7/10=1,25=1/1,2,3,16;
 1/10=4,18=20,19=15,26=3/3(-8);
 2/9=110/2;
 6/7=2,8=2,9=2,10=2,18=1,19=2,28=1/1;
 7/8=1,9=1,25=1,44=-1/16;
 99//99;
 -------------------
 Title Card Required
 -------------------
 Symbolic Z-matrix:
 Charge =  0 Multiplicity = 1
 C2                    0.8141    0.1461    0.0473 
 O3                    0.32428  -0.8725    0.53916 
 N4                    0.2028    1.3863    0.0651 
 N5                   -1.0496    1.3066    0.0658 
 C6                   -1.6625    2.5457    0.0392 
 O7                   -1.17372   3.56858   0.52315 
 N8                   -2.90471   2.5878   -0.59831 
 C                    -3.63193   3.84781  -0.69448 
 C                    -4.16042   4.06677  -2.11027 
 C                    -4.98182   2.87089  -2.58794 
 C                    -4.19366   1.56954  -2.43885 
 C                    -3.64331   1.39757  -1.02285 
 N1                    2.05823   0.09881  -0.59168 
 C                     2.78279  -1.16429  -0.67759 
 C                     3.30536  -1.39754  -2.09303 
 C                     4.12566  -0.20699  -2.5858 
 C                     3.33893   1.09635  -2.44651 
 C                     2.79477   1.2825   -1.02994 
 H                    -3.00285   4.69422  -0.40531 
 H                    -4.46449   3.80144   0.01844 
 H                    -3.31514   4.21687  -2.79353 
 H                    -4.77042   4.97645  -2.14565 
 H                    -5.26812   3.01322  -3.63635 
 H                    -5.91      2.80802  -2.00722 
 H                    -3.35925   1.57569  -3.15108 
 H                    -4.83308   0.71799  -2.69703 
 H                    -3.02357   0.49825  -0.97644 
 H                    -4.46914   1.26062  -0.31354 
 H                     2.15322  -2.00746  -0.37792 
 H                     3.61755  -1.11183   0.03214 
 H                     2.45717  -1.55332  -2.77157 
 H                     3.91437  -2.3078   -2.12181 
 H                     4.40778  -0.36006  -3.6339 
 H                     5.05622  -0.13897  -2.00936 
 H                     2.5016    1.08378  -3.15513 
 H                     3.97785   1.94477  -2.71599 
 H                     2.17672   2.18305  -0.98907 
 H                     3.62396   1.42507  -0.32579 
 

 GradGradGradGradGradGradGradGradGradGradGradGradGradGradGradGradGradGrad
 Berny optimization.
 Initialization pass.
                           ----------------------------
                           !    Initial Parameters    !
                           ! (Angstroms and Degrees)  !
 --------------------------                            --------------------------
 ! Name  Definition              Value          Derivative Info.                !
 --------------------------------------------------------------------------------
 ! R1    R(1,2)                  1.2326         calculate D2E/DX2 analytically  !
 ! R2    R(1,3)                  1.3828         calculate D2E/DX2 analytically  !
 ! R3    R(1,13)                 1.3994         calculate D2E/DX2 analytically  !
 ! R4    R(3,4)                  1.2549         calculate D2E/DX2 analytically  !
 ! R5    R(4,5)                  1.3827         calculate D2E/DX2 analytically  !
 ! R6    R(5,6)                  1.2326         calculate D2E/DX2 analytically  !
 ! R7    R(5,7)                  1.3969         calculate D2E/DX2 analytically  !
 ! R8    R(7,8)                  1.458          calculate D2E/DX2 analytically  !
 ! R9    R(7,12)                 1.4637         calculate D2E/DX2 analytically  !
 ! R10   R(8,9)                  1.527          calculate D2E/DX2 analytically  !
 ! R11   R(8,19)                 1.0935         calculate D2E/DX2 analytically  !
 ! R12   R(8,20)                 1.0971         calculate D2E/DX2 analytically  !
 ! R13   R(9,10)                 1.5274         calculate D2E/DX2 analytically  !
 ! R14   R(9,21)                 1.0972         calculate D2E/DX2 analytically  !
 ! R15   R(9,22)                 1.0958         calculate D2E/DX2 analytically  !
 ! R16   R(10,11)                1.5287         calculate D2E/DX2 analytically  !
 ! R17   R(10,23)                1.0961         calculate D2E/DX2 analytically  !
 ! R18   R(10,24)                1.0967         calculate D2E/DX2 analytically  !
 ! R19   R(11,12)                1.5289         calculate D2E/DX2 analytically  !
 ! R20   R(11,25)                1.0971         calculate D2E/DX2 analytically  !
 ! R21   R(11,26)                1.0957         calculate D2E/DX2 analytically  !
 ! R22   R(12,27)                1.0932         calculate D2E/DX2 analytically  !
 ! R23   R(12,28)                1.0972         calculate D2E/DX2 analytically  !
 ! R24   R(13,14)                1.4587         calculate D2E/DX2 analytically  !
 ! R25   R(13,18)                1.4614         calculate D2E/DX2 analytically  !
 ! R26   R(14,15)                1.5267         calculate D2E/DX2 analytically  !
 ! R27   R(14,29)                1.0941         calculate D2E/DX2 analytically  !
 ! R28   R(14,30)                1.0969         calculate D2E/DX2 analytically  !
 ! R29   R(15,16)                1.5275         calculate D2E/DX2 analytically  !
 ! R30   R(15,31)                1.0973         calculate D2E/DX2 analytically  !
 ! R31   R(15,32)                1.0956         calculate D2E/DX2 analytically  !
 ! R32   R(16,17)                1.5287         calculate D2E/DX2 analytically  !
 ! R33   R(16,33)                1.0961         calculate D2E/DX2 analytically  !
 ! R34   R(16,34)                1.0967         calculate D2E/DX2 analytically  !
 ! R35   R(17,18)                1.5289         calculate D2E/DX2 analytically  !
 ! R36   R(17,35)                1.097          calculate D2E/DX2 analytically  !
 ! R37   R(17,36)                1.0957         calculate D2E/DX2 analytically  !
 ! R38   R(18,37)                1.093          calculate D2E/DX2 analytically  !
 ! R39   R(18,38)                1.0971         calculate D2E/DX2 analytically  !
 ! A1    A(2,1,3)              124.0793         calculate D2E/DX2 analytically  !
 ! A2    A(2,1,13)             120.5009         calculate D2E/DX2 analytically  !
 ! A3    A(3,1,13)             115.4172         calculate D2E/DX2 analytically  !
 ! A4    A(1,3,4)              112.5961         calculate D2E/DX2 analytically  !
 ! A5    A(3,4,5)              112.6722         calculate D2E/DX2 analytically  !
 ! A6    A(4,5,6)              124.0798         calculate D2E/DX2 analytically  !
 ! A7    A(4,5,7)              115.4667         calculate D2E/DX2 analytically  !
 ! A8    A(6,5,7)              120.4507         calculate D2E/DX2 analytically  !
 ! A9    A(5,7,8)              119.9805         calculate D2E/DX2 analytically  !
 ! A10   A(5,7,12)             123.8212         calculate D2E/DX2 analytically  !
 ! A11   A(8,7,12)             115.5898         calculate D2E/DX2 analytically  !
 ! A12   A(7,8,9)              110.9595         calculate D2E/DX2 analytically  !
 ! A13   A(7,8,19)             111.3793         calculate D2E/DX2 analytically  !
 ! A14   A(7,8,20)             107.4055         calculate D2E/DX2 analytically  !
 ! A15   A(9,8,19)             109.4691         calculate D2E/DX2 analytically  !
 ! A16   A(9,8,20)             110.2382         calculate D2E/DX2 analytically  !
 ! A17   A(19,8,20)            107.3046         calculate D2E/DX2 analytically  !
 ! A18   A(8,9,10)             111.3344         calculate D2E/DX2 analytically  !
 ! A19   A(8,9,21)             109.2906         calculate D2E/DX2 analytically  !
 ! A20   A(8,9,22)             109.9758         calculate D2E/DX2 analytically  !
 ! A21   A(10,9,21)            109.0659         calculate D2E/DX2 analytically  !
 ! A22   A(10,9,22)            109.9067         calculate D2E/DX2 analytically  !
 ! A23   A(21,9,22)            107.1678         calculate D2E/DX2 analytically  !
 ! A24   A(9,10,11)            111.0229         calculate D2E/DX2 analytically  !
 ! A25   A(9,10,23)            109.7508         calculate D2E/DX2 analytically  !
 ! A26   A(9,10,24)            109.5379         calculate D2E/DX2 analytically  !
 ! A27   A(11,10,23)           109.7853         calculate D2E/DX2 analytically  !
 ! A28   A(11,10,24)           109.6281         calculate D2E/DX2 analytically  !
 ! A29   A(23,10,24)           107.0298         calculate D2E/DX2 analytically  !
 ! A30   A(10,11,12)           111.8184         calculate D2E/DX2 analytically  !
 ! A31   A(10,11,25)           108.908          calculate D2E/DX2 analytically  !
 ! A32   A(10,11,26)           109.7382         calculate D2E/DX2 analytically  !
 ! A33   A(12,11,25)           109.1549         calculate D2E/DX2 analytically  !
 ! A34   A(12,11,26)           109.9297         calculate D2E/DX2 analytically  !
 ! A35   A(25,11,26)           107.1711         calculate D2E/DX2 analytically  !
 ! A36   A(7,12,11)            111.027          calculate D2E/DX2 analytically  !
 ! A37   A(7,12,27)            111.7515         calculate D2E/DX2 analytically  !
 ! A38   A(7,12,28)            107.0853         calculate D2E/DX2 analytically  !
 ! A39   A(11,12,27)           109.629          calculate D2E/DX2 analytically  !
 ! A40   A(11,12,28)           109.9889         calculate D2E/DX2 analytically  !
 ! A41   A(27,12,28)           107.2519         calculate D2E/DX2 analytically  !
 ! A42   A(1,13,14)            119.8512         calculate D2E/DX2 analytically  !
 ! A43   A(1,13,18)            123.8919         calculate D2E/DX2 analytically  !
 ! A44   A(14,13,18)           115.6808         calculate D2E/DX2 analytically  !
 ! A45   A(13,14,15)           110.9104         calculate D2E/DX2 analytically  !
 ! A46   A(13,14,29)           111.4295         calculate D2E/DX2 analytically  !
 ! A47   A(13,14,30)           107.3662         calculate D2E/DX2 analytically  !
 ! A48   A(15,14,29)           109.4594         calculate D2E/DX2 analytically  !
 ! A49   A(15,14,30)           110.284          calculate D2E/DX2 analytically  !
 ! A50   A(29,14,30)           107.3091         calculate D2E/DX2 analytically  !
 ! A51   A(14,15,16)           111.3353         calculate D2E/DX2 analytically  !
 ! A52   A(14,15,31)           109.2931         calculate D2E/DX2 analytically  !
 ! A53   A(14,15,32)           109.9715         calculate D2E/DX2 analytically  !
 ! A54   A(16,15,31)           109.0428         calculate D2E/DX2 analytically  !
 ! A55   A(16,15,32)           109.9127         calculate D2E/DX2 analytically  !
 ! A56   A(31,15,32)           107.1864         calculate D2E/DX2 analytically  !
 ! A57   A(15,16,17)           111.0231         calculate D2E/DX2 analytically  !
 ! A58   A(15,16,33)           109.7456         calculate D2E/DX2 analytically  !
 ! A59   A(15,16,34)           109.5386         calculate D2E/DX2 analytically  !
 ! A60   A(17,16,33)           109.7933         calculate D2E/DX2 analytically  !
 ! A61   A(17,16,34)           109.6262         calculate D2E/DX2 analytically  !
 ! A62   A(33,16,34)           107.028          calculate D2E/DX2 analytically  !
 ! A63   A(16,17,18)           111.8017         calculate D2E/DX2 analytically  !
 ! A64   A(16,17,35)           108.9161         calculate D2E/DX2 analytically  !
 ! A65   A(16,17,36)           109.7333         calculate D2E/DX2 analytically  !
 ! A66   A(18,17,35)           109.1617         calculate D2E/DX2 analytically  !
 ! A67   A(18,17,36)           109.9458         calculate D2E/DX2 analytically  !
 ! A68   A(35,17,36)           107.1621         calculate D2E/DX2 analytically  !
 ! A69   A(13,18,17)           111.016          calculate D2E/DX2 analytically  !
 ! A70   A(13,18,37)           111.7866         calculate D2E/DX2 analytically  !
 ! A71   A(13,18,38)           107.079          calculate D2E/DX2 analytically  !
 ! A72   A(17,18,37)           109.6471         calculate D2E/DX2 analytically  !
 ! A73   A(17,18,38)           109.9676         calculate D2E/DX2 analytically  !
 ! A74   A(37,18,38)           107.2354         calculate D2E/DX2 analytically  !
 ! D1    D(2,1,3,4)            -29.6469         calculate D2E/DX2 analytically  !
 ! D2    D(13,1,3,4)           149.7635         calculate D2E/DX2 analytically  !
 ! D3    D(2,1,13,14)            0.0007         calculate D2E/DX2 analytically  !
 ! D4    D(2,1,13,18)         -170.9102         calculate D2E/DX2 analytically  !
 ! D5    D(3,1,13,14)         -179.4325         calculate D2E/DX2 analytically  !
 ! D6    D(3,1,13,18)            9.6565         calculate D2E/DX2 analytically  !
 ! D7    D(1,3,4,5)           -178.0064         calculate D2E/DX2 analytically  !
 ! D8    D(3,4,5,6)            -29.6472         calculate D2E/DX2 analytically  !
 ! D9    D(3,4,5,7)            149.7409         calculate D2E/DX2 analytically  !
 ! D10   D(4,5,7,8)           -179.4122         calculate D2E/DX2 analytically  !
 ! D11   D(4,5,7,12)             9.9353         calculate D2E/DX2 analytically  !
 ! D12   D(6,5,7,8)             -0.0001         calculate D2E/DX2 analytically  !
 ! D13   D(6,5,7,12)          -170.6526         calculate D2E/DX2 analytically  !
 ! D14   D(5,7,8,9)            133.4704         calculate D2E/DX2 analytically  !
 ! D15   D(5,7,8,19)            11.2454         calculate D2E/DX2 analytically  !
 ! D16   D(5,7,8,20)          -105.9794         calculate D2E/DX2 analytically  !
 ! D17   D(12,7,8,9)           -55.1341         calculate D2E/DX2 analytically  !
 ! D18   D(12,7,8,19)         -177.3591         calculate D2E/DX2 analytically  !
 ! D19   D(12,7,8,20)           65.4161         calculate D2E/DX2 analytically  !
 ! D20   D(5,7,12,11)         -134.8055         calculate D2E/DX2 analytically  !
 ! D21   D(5,7,12,27)          -12.0636         calculate D2E/DX2 analytically  !
 ! D22   D(5,7,12,28)          105.1097         calculate D2E/DX2 analytically  !
 ! D23   D(8,7,12,11)           54.1688         calculate D2E/DX2 analytically  !
 ! D24   D(8,7,12,27)          176.9106         calculate D2E/DX2 analytically  !
 ! D25   D(8,7,12,28)          -65.9161         calculate D2E/DX2 analytically  !
 ! D26   D(7,8,9,10)            53.4585         calculate D2E/DX2 analytically  !
 ! D27   D(7,8,9,21)           -67.0891         calculate D2E/DX2 analytically  !
 ! D28   D(7,8,9,22)           175.5254         calculate D2E/DX2 analytically  !
 ! D29   D(19,8,9,10)          176.7883         calculate D2E/DX2 analytically  !
 ! D30   D(19,8,9,21)           56.2407         calculate D2E/DX2 analytically  !
 ! D31   D(19,8,9,22)          -61.1448         calculate D2E/DX2 analytically  !
 ! D32   D(20,8,9,10)          -65.3989         calculate D2E/DX2 analytically  !
 ! D33   D(20,8,9,21)          174.0535         calculate D2E/DX2 analytically  !
 ! D34   D(20,8,9,22)           56.668          calculate D2E/DX2 analytically  !
 ! D35   D(8,9,10,11)          -53.1497         calculate D2E/DX2 analytically  !
 ! D36   D(8,9,10,23)         -174.7032         calculate D2E/DX2 analytically  !
 ! D37   D(8,9,10,24)           68.0643         calculate D2E/DX2 analytically  !
 ! D38   D(21,9,10,11)          67.5299         calculate D2E/DX2 analytically  !
 ! D39   D(21,9,10,23)         -54.0235         calculate D2E/DX2 analytically  !
 ! D40   D(21,9,10,24)        -171.256          calculate D2E/DX2 analytically  !
 ! D41   D(22,9,10,11)        -175.2567         calculate D2E/DX2 analytically  !
 ! D42   D(22,9,10,23)          63.1899         calculate D2E/DX2 analytically  !
 ! D43   D(22,9,10,24)         -54.0426         calculate D2E/DX2 analytically  !
 ! D44   D(9,10,11,12)          52.4208         calculate D2E/DX2 analytically  !
 ! D45   D(9,10,11,25)         -68.2917         calculate D2E/DX2 analytically  !
 ! D46   D(9,10,11,26)         174.6789         calculate D2E/DX2 analytically  !
 ! D47   D(23,10,11,12)        173.9541         calculate D2E/DX2 analytically  !
 ! D48   D(23,10,11,25)         53.2415         calculate D2E/DX2 analytically  !
 ! D49   D(23,10,11,26)        -63.7879         calculate D2E/DX2 analytically  !
 ! D50   D(24,10,11,12)        -68.7402         calculate D2E/DX2 analytically  !
 ! D51   D(24,10,11,25)        170.5472         calculate D2E/DX2 analytically  !
 ! D52   D(24,10,11,26)         53.5178         calculate D2E/DX2 analytically  !
 ! D53   D(10,11,12,7)         -51.6944         calculate D2E/DX2 analytically  !
 ! D54   D(10,11,12,27)       -175.6544         calculate D2E/DX2 analytically  !
 ! D55   D(10,11,12,28)         66.6491         calculate D2E/DX2 analytically  !
 ! D56   D(25,11,12,7)          68.8743         calculate D2E/DX2 analytically  !
 ! D57   D(25,11,12,27)        -55.0856         calculate D2E/DX2 analytically  !
 ! D58   D(25,11,12,28)       -172.7821         calculate D2E/DX2 analytically  !
 ! D59   D(26,11,12,7)        -173.8428         calculate D2E/DX2 analytically  !
 ! D60   D(26,11,12,27)         62.1972         calculate D2E/DX2 analytically  !
 ! D61   D(26,11,12,28)        -55.4993         calculate D2E/DX2 analytically  !
 ! D62   D(1,13,14,15)         133.2486         calculate D2E/DX2 analytically  !
 ! D63   D(1,13,14,29)          11.0354         calculate D2E/DX2 analytically  !
 ! D64   D(1,13,14,30)        -106.199          calculate D2E/DX2 analytically  !
 ! D65   D(18,13,14,15)        -55.1177         calculate D2E/DX2 analytically  !
 ! D66   D(18,13,14,29)       -177.3309         calculate D2E/DX2 analytically  !
 ! D67   D(18,13,14,30)         65.4347         calculate D2E/DX2 analytically  !
 ! D68   D(1,13,18,17)        -134.5527         calculate D2E/DX2 analytically  !
 ! D69   D(1,13,18,37)         -11.7702         calculate D2E/DX2 analytically  !
 ! D70   D(1,13,18,38)         105.3986         calculate D2E/DX2 analytically  !
 ! D71   D(14,13,18,17)         54.1917         calculate D2E/DX2 analytically  !
 ! D72   D(14,13,18,37)        176.9742         calculate D2E/DX2 analytically  !
 ! D73   D(14,13,18,38)        -65.857          calculate D2E/DX2 analytically  !
 ! D74   D(13,14,15,16)         53.3813         calculate D2E/DX2 analytically  !
 ! D75   D(13,14,15,31)        -67.1396         calculate D2E/DX2 analytically  !
 ! D76   D(13,14,15,32)        175.4535         calculate D2E/DX2 analytically  !
 ! D77   D(29,14,15,16)        176.7348         calculate D2E/DX2 analytically  !
 ! D78   D(29,14,15,31)         56.2139         calculate D2E/DX2 analytically  !
 ! D79   D(29,14,15,32)        -61.193          calculate D2E/DX2 analytically  !
 ! D80   D(30,14,15,16)        -65.4255         calculate D2E/DX2 analytically  !
 ! D81   D(30,14,15,31)        174.0536         calculate D2E/DX2 analytically  !
 ! D82   D(30,14,15,32)         56.6466         calculate D2E/DX2 analytically  !
 ! D83   D(14,15,16,17)        -53.1541         calculate D2E/DX2 analytically  !
 ! D84   D(14,15,16,33)       -174.7142         calculate D2E/DX2 analytically  !
 ! D85   D(14,15,16,34)         68.0582         calculate D2E/DX2 analytically  !
 ! D86   D(31,15,16,17)         67.514          calculate D2E/DX2 analytically  !
 ! D87   D(31,15,16,33)        -54.0461         calculate D2E/DX2 analytically  !
 ! D88   D(31,15,16,34)       -171.2737         calculate D2E/DX2 analytically  !
 ! D89   D(32,15,16,17)       -175.2603         calculate D2E/DX2 analytically  !
 ! D90   D(32,15,16,33)         63.1797         calculate D2E/DX2 analytically  !
 ! D91   D(32,15,16,34)        -54.048          calculate D2E/DX2 analytically  !
 ! D92   D(15,16,17,18)         52.4337         calculate D2E/DX2 analytically  !
 ! D93   D(15,16,17,35)        -68.2821         calculate D2E/DX2 analytically  !
 ! D94   D(15,16,17,36)        174.6975         calculate D2E/DX2 analytically  !
 ! D95   D(33,16,17,18)        173.9659         calculate D2E/DX2 analytically  !
 ! D96   D(33,16,17,35)         53.25           calculate D2E/DX2 analytically  !
 ! D97   D(33,16,17,36)        -63.7704         calculate D2E/DX2 analytically  !
 ! D98   D(34,16,17,18)        -68.7271         calculate D2E/DX2 analytically  !
 ! D99   D(34,16,17,35)        170.5571         calculate D2E/DX2 analytically  !
 ! D100  D(34,16,17,36)         53.5367         calculate D2E/DX2 analytically  !
 ! D101  D(16,17,18,13)        -51.7105         calculate D2E/DX2 analytically  !
 ! D102  D(16,17,18,37)       -175.7204         calculate D2E/DX2 analytically  !
 ! D103  D(16,17,18,38)         66.6051         calculate D2E/DX2 analytically  !
 ! D104  D(35,17,18,13)         68.8623         calculate D2E/DX2 analytically  !
 ! D105  D(35,17,18,37)        -55.1476         calculate D2E/DX2 analytically  !
 ! D106  D(35,17,18,38)       -172.8222         calculate D2E/DX2 analytically  !
 ! D107  D(36,17,18,13)       -173.8525         calculate D2E/DX2 analytically  !
 ! D108  D(36,17,18,37)         62.1376         calculate D2E/DX2 analytically  !
 ! D109  D(36,17,18,38)        -55.5369         calculate D2E/DX2 analytically  !
 --------------------------------------------------------------------------------
 Trust Radius=3.00D-01 FncErr=1.00D-07 GrdErr=1.00D-06 EigMax=2.50D+02 EigMin=1.00D-04
 Number of steps in this run=    228 maximum allowed number of steps=    228.
 GradGradGradGradGradGradGradGradGradGradGradGradGradGradGradGradGradGrad

                          Input orientation:                          
 ---------------------------------------------------------------------
 Center     Atomic      Atomic             Coordinates (Angstroms)
 Number     Number       Type             X           Y           Z
 ---------------------------------------------------------------------
      1          6           0        0.814100    0.146100    0.047300
      2          8           0        0.324280   -0.872500    0.539160
      3          7           0        0.202800    1.386300    0.065100
      4          7           0       -1.049600    1.306600    0.065800
      5          6           0       -1.662500    2.545700    0.039200
      6          8           0       -1.173720    3.568580    0.523150
      7          7           0       -2.904710    2.587800   -0.598310
      8          6           0       -3.631930    3.847810   -0.694480
      9          6           0       -4.160420    4.066770   -2.110270
     10          6           0       -4.981820    2.870890   -2.587940
     11          6           0       -4.193660    1.569540   -2.438850
     12          6           0       -3.643310    1.397570   -1.022850
     13          7           0        2.058230    0.098810   -0.591680
     14          6           0        2.782790   -1.164290   -0.677590
     15          6           0        3.305360   -1.397540   -2.093030
     16          6           0        4.125660   -0.206990   -2.585800
     17          6           0        3.338930    1.096350   -2.446510
     18          6           0        2.794770    1.282500   -1.029940
     19          1           0       -3.002850    4.694220   -0.405310
     20          1           0       -4.464490    3.801440    0.018440
     21          1           0       -3.315140    4.216870   -2.793530
     22          1           0       -4.770420    4.976450   -2.145650
     23          1           0       -5.268120    3.013220   -3.636350
     24          1           0       -5.910000    2.808020   -2.007220
     25          1           0       -3.359250    1.575690   -3.151080
     26          1           0       -4.833080    0.717990   -2.697030
     27          1           0       -3.023570    0.498250   -0.976440
     28          1           0       -4.469140    1.260620   -0.313540
     29          1           0        2.153220   -2.007460   -0.377920
     30          1           0        3.617550   -1.111830    0.032140
     31          1           0        2.457170   -1.553320   -2.771570
     32          1           0        3.914370   -2.307800   -2.121810
     33          1           0        4.407780   -0.360060   -3.633900
     34          1           0        5.056220   -0.138970   -2.009360
     35          1           0        2.501600    1.083780   -3.155130
     36          1           0        3.977850    1.944770   -2.715990
     37          1           0        2.176720    2.183050   -0.989070
     38          1           0        3.623960    1.425070   -0.325790
 ---------------------------------------------------------------------
                    Distance matrix (angstroms):
                    1          2          3          4          5
     1  C    0.000000
     2  O    1.232638   0.000000
     3  N    1.382787   2.311205   0.000000
     4  N    2.195559   2.619178   1.254934   0.000000
     5  C    3.448433   3.985141   2.196411   1.382651   0.000000
     6  O    3.986381   4.686945   2.620489   2.311088   1.232638
     7  N    4.495360   4.867637   3.397107   2.350308   1.396881
     8  C    5.832673   6.281305   4.619648   3.701919   2.472333
     9  C    6.691234   7.178329   5.563708   4.693721   3.629529
    10  C    6.925436   7.207387   6.010234   4.995167   4.245645
    11  C    5.769297   5.936656   5.062826   4.028340   3.674288
    12  C    4.751831   4.830617   3.997039   2.814386   2.523839
    13  N    1.399425   2.286662   2.351938   3.398477   4.497679
    14  C    2.473525   2.758604   3.703167   4.620080   5.834245
    15  C    3.629079   4.011350   4.693950   5.562247   6.691426
    16  C    4.245506   4.965760   4.995465   6.008765   6.926090
    17  C    3.673803   4.677468   4.028345   5.061136   5.770067
    18  C    2.524857   3.634477   2.815705   3.997550   4.754576
    19  H    5.954776   6.553639   4.630314   3.938667   2.571044
    20  H    6.420736   6.711869   5.255347   4.229414   3.070580
    21  H    6.456943   7.088998   5.344136   4.666702   3.680813
    22  H    7.702478   8.208190   6.519932   5.674752   4.510131
    23  H    7.667011   7.988031   6.802835   5.866377   5.169984
    24  H    7.518004   7.674407   6.609245   5.493192   4.722066
    25  H    5.448873   5.760200   4.802904   3.969283   3.741359
    26  H    6.304685   6.292928   5.782395   4.721696   4.569470
    27  H    3.987451   3.922257   3.504697   2.374079   2.660092
    28  H    5.411560   5.315466   4.688943   3.440824   3.106941
    29  H    2.571357   2.339699   3.939291   4.630112   5.955248
    30  H    3.072776   3.340655   4.231106   5.256636   6.423123
    31  H    3.678823   3.996707   4.665860   5.341090   6.455546
    32  H    4.509805   4.693569   5.674919   6.518476   7.702461
    33  H    5.169329   5.861058   5.866364   6.800627   7.667034
    34  H    4.722997   5.424415   5.494135   6.608858   7.519658
    35  H    3.739312   4.713336   3.968108   4.799485   5.447998
    36  H    4.569497   5.646378   4.722007   5.781079   6.306008
    37  H    2.660820   3.886310   2.375383   3.505718   3.991048
    38  H    3.109706   4.112767   3.443637   4.691433   5.416243
                    6          7          8          9         10
     6  O    0.000000
     7  N    2.283841   0.000000
     8  C    2.757424   1.457986   0.000000
     9  C    4.012913   2.459712   1.526993   0.000000
    10  C    4.966616   2.890182   2.522254   1.527415   0.000000
    11  C    4.678637   2.466948   2.923847   2.518973   1.528704
    12  C    3.633494   1.463698   2.472172   2.928227   2.532151
    13  N    4.871104   5.552107   6.814946   7.531429   7.825074
    14  C    6.284569   6.814112   8.140643   8.810490   8.956633
    15  C    7.181149   7.528751   8.808838   9.251857   9.334976
    16  C    7.211375   7.822216   8.955373   9.335431   9.613508
    17  C    5.940944   6.680068   7.696300   8.073209   8.509047
    18  C    4.836028   5.862950   6.927902   7.569276   8.088615
    19  H    2.339833   2.117519   1.093513   2.154194   3.464784
    20  H    3.337383   2.070318   1.097069   2.166625   2.815452
    21  H    4.000791   2.764292   2.154663   1.097211   2.152150
    22  H    4.694768   3.403055   2.162379   1.095842   2.161873
    23  H    5.862932   3.872515   3.468178   2.160066   1.096079
    24  H    5.423428   3.326453   2.827376   2.157800   1.096680
    25  H    4.716791   2.783453   3.357345   2.816139   2.151140
    26  H    5.646799   3.408728   3.904964   3.465701   2.160788
    27  H    3.885568   2.126812   3.416015   3.913098   3.472909
    28  H    4.109321   2.071217   2.745831   3.346345   2.833497
    29  H    6.555355   6.837225   8.237254   8.930809   8.921395
    30  H    6.715921   7.524932   8.813681   9.586691   9.832398
    31  H    7.090303   7.114892   8.400217   8.707194   8.657132
    32  H    8.210744   8.531577   9.842533  10.287736  10.304286
    33  H    7.991772   8.448503   9.538516   9.763827   9.984871
    34  H    7.679302   8.532452   9.649211  10.131381  10.495535
    35  H    5.762981   6.166652   7.163438   7.373769   7.714729
    36  H    6.298211   7.229640   8.100421   8.432154   9.008317
    37  H    3.928352   5.112480   6.049680   6.705582   7.367103
    38  H    5.322882   6.636998   7.658560   8.411868   9.014830
                   11         12         13         14         15
    11  C    0.000000
    12  C    1.528893   0.000000
    13  N    6.682904   5.863467   0.000000
    14  C    7.697189   6.926550   1.458694   0.000000
    15  C    8.072079   7.565840   2.459359   1.526747   0.000000
    16  C    8.508157   8.085439   2.888649   2.522100   1.527457
    17  C    7.547442   7.132266   2.464888   2.923844   2.519040
    18  C    7.134814   6.439112   1.461398   2.472059   2.928050
    19  H    3.913686   3.414593   6.838644   8.238319   8.930367
    20  H    3.330616   2.745398   7.525131   8.812832   9.584272
    21  H    2.811752   3.345363   7.118965   8.403501   8.708807
    22  H    3.467802   3.916560   8.534439   9.844535  10.288282
    23  H    2.161639   3.475732   8.452172   9.540598   9.764282
    24  H    2.160083   2.845389   8.534416   9.649444  10.130003
    25  H    1.097064   2.154479   6.170964   7.165912   7.374049
    26  H    1.095743   2.163391   7.232291   8.100777   8.430569
    27  H    2.157641   1.093164   5.111975   6.047079   6.700459
    28  H    2.165240   1.097211   6.635791   7.655273   8.406857
    29  H    7.571344   6.753512   2.119219   1.094119   2.154305
    30  H    8.620356   7.754365   2.070333   1.096947   2.166896
    31  H    7.355032   6.998688   2.764165   2.154559   1.097320
    32  H    8.993021   8.488581   3.402694   2.161911   1.095580
    33  H    8.895857   8.644472   3.871182   3.468018   2.160087
    34  H    9.416143   8.889093   3.324801   2.827256   2.157895
    35  H    6.750965   6.511912   2.781729   3.357245   2.816209
    36  H    8.184814   7.826125   3.406641   3.905060   3.465741
    37  H    6.562012   5.872893   2.125092   3.415996   3.913206
    38  H    8.099449   7.300675   2.069100   2.745199   3.345410
                   16         17         18         19         20
    16  C    0.000000
    17  C    1.528738   0.000000
    18  C    2.531906   1.528866   0.000000
    19  H    8.921438   7.571614   6.755915   0.000000
    20  H    9.830578   8.618982   7.755064   1.764373   0.000000
    21  H    8.659053   7.357630   7.003697   2.455399   3.066066
    22  H   10.305437   8.994846   8.492478   2.496546   2.481437
    23  H    9.985815   8.897832   8.648639   4.289152   3.824213
    24  H   10.494737   9.416236   8.891305   3.817773   2.679493
    25  H    7.715009   6.752170   6.515916   4.170312   4.027577
    26  H    9.007052   8.184599   7.828279   4.940863   4.125203
    27  H    7.361990   6.557456   5.871200   4.234712   3.738596
    28  H    9.010418   8.095832   7.299185   3.734707   2.562420
    29  H    3.465104   3.913900   3.414755   8.455668   8.814449
    30  H    2.816118   3.331275   2.745505   8.816534   9.458318
    31  H    2.151970   2.811390   3.345015   8.628022   9.185150
    32  H    2.161789   3.467679   3.916113   9.991126  10.588143
    33  H    1.096146   2.161820   3.475689   9.533466  10.458243
    34  H    1.096746   2.160139   2.844995   9.533169  10.501558
    35  H    2.151231   1.097006   2.154500   7.134126   8.123031
    36  H    2.160756   1.095744   2.163572   7.850407   9.066280
    37  H    3.472781   2.157726   1.092999   5.785732   6.909409
    38  H    2.832484   2.164891   1.097137   7.389741   8.437337
                   21         22         23         24         25
    21  H    0.000000
    22  H    1.764809   0.000000
    23  H    2.444023   2.514789   0.000000
    24  H    3.055559   2.453547   1.763004   0.000000
    25  H    2.665637   3.816734   2.438394   3.055058   0.000000
    26  H    3.815182   4.294465   2.517869   2.450269   1.764649
    27  H    4.149092   4.947000   4.293973   3.837841   2.450024
    28  H    4.027590   4.153888   3.840709   2.709073   3.063129
    29  H    8.630204   9.991830   9.534195   9.531998   7.135594
    30  H    9.189214  10.590938  10.460831  10.502306   8.125970
    31  H    8.161810   9.760519   9.015611   9.466523   6.615548
    32  H    9.761575  11.335186  10.720318  11.077138   8.309419
    33  H    9.016541  10.720661  10.247052  10.915100   8.019164
    34  H    9.469315  11.079213  10.916748  11.355295   8.663932
    35  H    6.616757   8.309886   8.020153   8.662893   5.881459
    36  H    7.639120   9.276238   9.352893   9.950735   7.359250
    37  H    6.128052   7.576511   7.944993   8.174488   5.974122
    38  H    7.876230   9.294612   9.620349   9.779374   7.534598
                   26         27         28         29         30
    26  H    0.000000
    27  H    2.506600   0.000000
    28  H    2.471421   1.763609   0.000000
    29  H    7.849505   5.782384   7.385130   0.000000
    30  H    9.066960   6.907537   8.434605   1.764813   0.000000
    31  H    7.636239   6.121270   7.869812   2.455237   3.066298
    32  H    9.273843   7.571050   9.289064   2.496599   2.481521
    33  H    9.350583   7.938750   9.615150   4.289333   3.824849
    34  H    9.950152   8.170433   9.775845   3.818411   2.680289
    35  H    7.358070   5.968001   7.529749   4.170135   4.027994
    36  H    8.895945   7.357876   8.808602   4.941252   4.126117
    37  H    7.362121   5.466418   6.743491   4.234906   3.738328
    38  H    8.811598   6.743293   8.094780   3.734710   2.562034
                   31         32         33         34         35
    31  H    0.000000
    32  H    1.764897   0.000000
    33  H    2.443842   2.514669   0.000000
    34  H    3.055554   2.453628   1.763090   0.000000
    35  H    2.665218   3.816606   2.438733   3.055158   0.000000
    36  H    3.814733   4.294349   2.517864   2.450343   1.764500
    37  H    4.149267   4.946742   4.294201   3.837224   2.450665
    38  H    4.026667   4.152631   3.839877   2.707766   3.062897
                   36         37         38
    36  H    0.000000
    37  H    2.506611   0.000000
    38  H    2.471514   1.763229   0.000000
 Stoichiometry    C12H20N4O2
 Framework group  C1[X(C12H20N4O2)]
 Deg. of freedom   108
 Full point group                 C1      NOp   1
 Largest Abelian subgroup         C1      NOp   1
 Largest concise Abelian subgroup C1      NOp   1
                         Standard orientation:                         
 ---------------------------------------------------------------------
 Center     Atomic      Atomic             Coordinates (Angstroms)
 Number     Number       Type             X           Y           Z
 ---------------------------------------------------------------------
      1          6           0       -1.628715   -1.074483    0.570409
      2          8           0       -1.615254   -1.554417    1.705697
      3          7           0       -0.550905   -1.102332   -0.295415
      4          7           0        0.550702   -1.097639    0.305666
      5          6           0        1.629535   -1.081074   -0.558953
      6          8           0        1.617989   -1.576934   -1.687397
      7          7           0        2.773884   -0.439452   -0.079302
      8          6           0        3.965234   -0.353108   -0.915335
      9          6           0        4.537966    1.062374   -0.905567
     10          6           0        4.777964    1.554892    0.520204
     11          6           0        3.513871    1.415816    1.368534
     12          6           0        2.941166   -0.000422    1.306945
     13          7           0       -2.775903   -0.439641    0.081198
     14          6           0       -3.965991   -0.343875    0.919237
     15          6           0       -4.536968    1.071878    0.895083
     16          6           0       -4.777388    1.549802   -0.535619
     17          6           0       -3.513999    1.400489   -1.383318
     18          6           0       -2.943341   -0.015848   -1.307344
     19          1           0        3.752159   -0.652965   -1.945119
     20          1           0        4.699733   -1.062469   -0.514238
     21          1           0        3.835713    1.741002   -1.405745
     22          1           0        5.475074    1.090974   -1.472912
     23          1           0        5.098485    2.602884    0.501037
     24          1           0        5.592285    0.978238    0.975240
     25          1           0        2.760711    2.124880    1.003119
     26          1           0        3.734122    1.684774    2.407670
     27          1           0        1.999595   -0.040190    1.860903
     28          1           0        3.631319   -0.705300    1.787265
     29          1           0       -3.751607   -0.632856    1.952497
     30          1           0       -4.701130   -1.057153    0.526684
     31          1           0       -3.833310    1.755041    1.387286
     32          1           0       -5.473368    1.107443    1.462696
     33          1           0       -5.096861    2.598325   -0.527047
     34          1           0       -5.592683    0.969301   -0.984133
     35          1           0       -2.759686    2.112271   -1.025825
     36          1           0       -3.734666    1.659195   -2.424967
     37          1           0       -2.002857   -0.063373   -1.862210
     38          1           0       -3.635376   -0.724419   -1.779280
 ---------------------------------------------------------------------
 Rotational constants (GHZ):           0.8358660           0.1723161           0.1698853
 Standard basis: 6-31G(d) (6D, 7F)
 There are   310 symmetry adapted cartesian basis functions of A   symmetry.
 There are   310 symmetry adapted basis functions of A   symmetry.
   310 basis functions,   584 primitive gaussians,   310 cartesian basis functions
    68 alpha electrons       68 beta electrons
       nuclear repulsion energy      1348.6623125983 Hartrees.
 NAtoms=   38 NActive=   38 NUniq=   38 SFac= 1.00D+00 NAtFMM=   60 NAOKFM=F Big=F
 Integral buffers will be    131072 words long.
 Raffenetti 2 integral format.
 Two-electron integral symmetry is turned on.
 One-electron integrals computed using PRISM.
 NBasis=   310 RedAO= T EigKep=  2.19D-03  NBF=   310
 NBsUse=   310 1.00D-06 EigRej= -1.00D+00 NBFU=   310
 ExpMin= 1.61D-01 ExpMax= 5.48D+03 ExpMxC= 8.25D+02 IAcc=3 IRadAn=         5 AccDes= 0.00D+00
 Harris functional with IExCor=  402 and IRadAn=       5 diagonalized for initial guess.
 HarFok:  IExCor=  402 AccDes= 0.00D+00 IRadAn=         5 IDoV= 1 UseB2=F ITyADJ=14
 ICtDFT=  3500011 ScaDFX=  1.000000  1.000000  1.000000  1.000000
 FoFCou: FMM=F IPFlag=           0 FMFlag=      100000 FMFlg1=           0
         NFxFlg=           0 DoJE=T BraDBF=F KetDBF=T FulRan=T
         wScrn=  0.000000 ICntrl=       500 IOpCl=  0 I1Cent=   200000004 NGrid=           0
         NMat0=    1 NMatS0=      1 NMatT0=    0 NMatD0=    1 NMtDS0=    0 NMtDT0=    0
 Petite list used in FoFCou.
 Gradient too large for Newton-Raphson -- use scaled steepest descent instead.
 Gradient too large for Newton-Raphson -- use scaled steepest descent instead.
     Accept linear search using points  2 and  3.
 Gradient too large for Newton-Raphson -- use scaled steepest descent instead.
     Accept linear search using points  2 and  3.
 Gradient too large for Newton-Raphson -- use scaled steepest descent instead.
     Minimum is close to point  2 DX=  9.57D-03 DF= -1.17D-06 DXR=  2.34D-02 DFR=  5.47D-04 which will be used.
 Gradient too large for Newton-Raphson -- use scaled steepest descent instead.
 Gradient too large for Newton-Raphson -- use scaled steepest descent instead.
     Minimum is close to point  2 DX= -2.80D-03 DF= -1.04D-08 DXR=  7.05D-03 DFR=  4.97D-05 which will be used.
 Gradient too large for Newton-Raphson -- use scaled steepest descent instead.
 LinEq1:  Iter=  0 NonCon=     1 RMS=5.81D-05 Max=3.31D-03 NDo=     1
 AX will form     1 AO Fock derivatives at one time.
 LinEq1:  Iter=  1 NonCon=     1 RMS=8.98D-05 Max=6.84D-03 NDo=     1
 LinEq1:  Iter=  2 NonCon=     1 RMS=1.34D-05 Max=7.02D-04 NDo=     1
 LinEq1:  Iter=  3 NonCon=     1 RMS=1.02D-05 Max=3.33D-04 NDo=     1
 LinEq1:  Iter=  4 NonCon=     1 RMS=3.53D-06 Max=1.97D-04 NDo=     1
 LinEq1:  Iter=  5 NonCon=     1 RMS=1.92D-06 Max=9.17D-05 NDo=     1
 LinEq1:  Iter=  6 NonCon=     1 RMS=1.88D-06 Max=8.26D-05 NDo=     1
 LinEq1:  Iter=  7 NonCon=     1 RMS=1.47D-06 Max=6.27D-05 NDo=     1
 LinEq1:  Iter=  8 NonCon=     1 RMS=7.15D-07 Max=3.17D-05 NDo=     1
 LinEq1:  Iter=  9 NonCon=     1 RMS=3.51D-07 Max=1.09D-05 NDo=     1
 LinEq1:  Iter= 10 NonCon=     1 RMS=2.91D-07 Max=8.54D-06 NDo=     1
 LinEq1:  Iter= 11 NonCon=     1 RMS=1.62D-07 Max=4.01D-06 NDo=     1
 LinEq1:  Iter= 12 NonCon=     1 RMS=6.51D-08 Max=1.45D-06 NDo=     1
 LinEq1:  Iter= 13 NonCon=     1 RMS=4.07D-08 Max=9.06D-07 NDo=     1
 LinEq1:  Iter= 14 NonCon=     1 RMS=2.00D-08 Max=5.32D-07 NDo=     1
 LinEq1:  Iter= 15 NonCon=     1 RMS=9.71D-09 Max=3.00D-07 NDo=     1
 LinEq1:  Iter= 16 NonCon=     0 RMS=4.24D-09 Max=1.53D-07 NDo=     1
 Linear equations converged to 1.814D-08 1.814D-07 after    16 iterations.
 Restarting incremental Fock formation.
     Minimum is close to point  2 DX=  1.04D-04 DF= -4.55D-13 DXR=  1.04D-04 DFR=  1.27D-08 which will be used.
 LinEq1:  Iter=  0 NonCon=     1 RMS=1.12D-07 Max=7.43D-06 NDo=     1
 LinEq1:  Iter=  1 NonCon=     1 RMS=1.02D-07 Max=4.94D-06 NDo=     1
 LinEq1:  Iter=  2 NonCon=     1 RMS=8.54D-08 Max=6.23D-06 NDo=     1
 LinEq1:  Iter=  3 NonCon=     1 RMS=3.57D-08 Max=1.71D-06 NDo=     1
 LinEq1:  Iter=  4 NonCon=     1 RMS=3.06D-08 Max=1.62D-06 NDo=     1
 LinEq1:  Iter=  5 NonCon=     1 RMS=1.20D-08 Max=6.13D-07 NDo=     1
 LinEq1:  Iter=  6 NonCon=     1 RMS=5.11D-09 Max=2.55D-07 NDo=     1
 LinEq1:  Iter=  7 NonCon=     1 RMS=2.48D-09 Max=9.50D-08 NDo=     1
 LinEq1:  Iter=  8 NonCon=     1 RMS=1.67D-09 Max=6.36D-08 NDo=     1
 LinEq1:  Iter=  9 NonCon=     1 RMS=1.36D-09 Max=3.89D-08 NDo=     1
 LinEq1:  Iter= 10 NonCon=     1 RMS=8.90D-10 Max=3.77D-08 NDo=     1
 LinEq1:  Iter= 11 NonCon=     1 RMS=8.12D-10 Max=3.45D-08 NDo=     1
 LinEq1:  Iter= 12 NonCon=     1 RMS=4.97D-10 Max=1.34D-08 NDo=     1
 LinEq1:  Iter= 13 NonCon=     1 RMS=1.60D-10 Max=4.84D-09 NDo=     1
 LinEq1:  Iter= 14 NonCon=     1 RMS=1.03D-10 Max=4.93D-09 NDo=     1
 LinEq1:  Iter= 15 NonCon=     1 RMS=6.06D-11 Max=3.68D-09 NDo=     1
 LinEq1:  Iter= 16 NonCon=     1 RMS=2.89D-11 Max=1.33D-09 NDo=     1
 LinEq1:  Iter= 17 NonCon=     0 RMS=1.51D-11 Max=5.31D-10 NDo=     1
 Linear equations converged to 9.552D-11 9.552D-10 after    17 iterations.
 SCF Done:  E(RB3LYP) =  -838.744160441     a.u. after   10 cycles
            Convg  =    0.1277D-09                    56 Fock formations.
              S**2 =  0.0000                  -V/T =  2.0092
 DoSCS=F DFT=T ScalE2(SS,OS)=  1.000000  1.000000
 Range of M.O.s used for correlation:     1   310
 NBasis=   310 NAE=    68 NBE=    68 NFC=     0 NFV=     0
 NROrb=    310 NOA=    68 NOB=    68 NVA=   242 NVB=   242
 Symmetrizing basis deriv contribution to polar:
 IMax=3 JMax=2 DiffMx= 0.00D+00
 G2DrvN: will do    39 centers at a time, making    1 passes.
 Calling FoFCou, ICntrl=  3107 FMM=F I1Cent=   0 AccDes= 0.00D+00.
 End of G2Drv F.D. properties file   721 does not exist.
 End of G2Drv F.D. properties file   722 does not exist.
 End of G2Drv F.D. properties file   788 does not exist.
          IDoAtm=11111111111111111111111111111111111111
          Differentiating once with respect to electric field.
                with respect to dipole field.
          Differentiating once with respect to nuclear coordinates.
 Keep R1 ints in memory in canonical form, NReq=1176942833.
          There are   117 degrees of freedom in the 1st order CPHF.  IDoFFX=6 NUNeed=     3.
    114 vectors produced by pass  0 Test12= 1.65D-14 1.00D-09 XBig12= 2.28D+02 7.99D+00.
 AX will form   114 AO Fock derivatives at one time.
    114 vectors produced by pass  1 Test12= 1.65D-14 1.00D-09 XBig12= 3.28D+01 1.19D+00.
    114 vectors produced by pass  2 Test12= 1.65D-14 1.00D-09 XBig12= 6.65D-01 1.40D-01.
    114 vectors produced by pass  3 Test12= 1.65D-14 1.00D-09 XBig12= 5.82D-03 1.11D-02.
    114 vectors produced by pass  4 Test12= 1.65D-14 1.00D-09 XBig12= 1.08D-05 4.30D-04.
     64 vectors produced by pass  5 Test12= 1.65D-14 1.00D-09 XBig12= 8.35D-09 9.55D-06.
     10 vectors produced by pass  6 Test12= 1.65D-14 1.00D-09 XBig12= 7.35D-12 2.09D-07.
      3 vectors produced by pass  7 Test12= 1.65D-14 1.00D-09 XBig12= 6.33D-15 7.30D-09.
 InvSVY:  IOpt=1 It=  1 EMax= 8.88D-15
 Solved reduced A of dimension   647 with   117 vectors.
 Isotropic polarizability for W=    0.000000      170.08 Bohr**3.
 End of Minotr F.D. properties file   721 does not exist.
 End of Minotr F.D. properties file   722 does not exist.
 End of Minotr F.D. properties file   788 does not exist.

 **********************************************************************

            Population analysis using the SCF density.

 **********************************************************************

 Orbital symmetries:
       Occupied  (A) (A) (A) (A) (A) (A) (A) (A) (A) (A) (A) (A)
                 (A) (A) (A) (A) (A) (A) (A) (A) (A) (A) (A) (A)
                 (A) (A) (A) (A) (A) (A) (A) (A) (A) (A) (A) (A)
                 (A) (A) (A) (A) (A) (A) (A) (A) (A) (A) (A) (A)
                 (A) (A) (A) (A) (A) (A) (A) (A) (A) (A) (A) (A)
                 (A) (A) (A) (A) (A) (A) (A) (A)
       Virtual   (A) (A) (A) (A) (A) (A) (A) (A) (A) (A) (A) (A)
                 (A) (A) (A) (A) (A) (A) (A) (A) (A) (A) (A) (A)
                 (A) (A) (A) (A) (A) (A) (A) (A) (A) (A) (A) (A)
                 (A) (A) (A) (A) (A) (A) (A) (A) (A) (A) (A) (A)
                 (A) (A) (A) (A) (A) (A) (A) (A) (A) (A) (A) (A)
                 (A) (A) (A) (A) (A) (A) (A) (A) (A) (A) (A) (A)
                 (A) (A) (A) (A) (A) (A) (A) (A) (A) (A) (A) (A)
                 (A) (A) (A) (A) (A) (A) (A) (A) (A) (A) (A) (A)
                 (A) (A) (A) (A) (A) (A) (A) (A) (A) (A) (A) (A)
                 (A) (A) (A) (A) (A) (A) (A) (A) (A) (A) (A) (A)
                 (A) (A) (A) (A) (A) (A) (A) (A) (A) (A) (A) (A)
                 (A) (A) (A) (A) (A) (A) (A) (A) (A) (A) (A) (A)
                 (A) (A) (A) (A) (A) (A) (A) (A) (A) (A) (A) (A)
                 (A) (A) (A) (A) (A) (A) (A) (A) (A) (A) (A) (A)
                 (A) (A) (A) (A) (A) (A) (A) (A) (A) (A) (A) (A)
                 (A) (A) (A) (A) (A) (A) (A) (A) (A) (A) (A) (A)
                 (A) (A) (A) (A) (A) (A) (A) (A) (A) (A) (A) (A)
                 (A) (A) (A) (A) (A) (A) (A) (A) (A) (A) (A) (A)
                 (A) (A) (A) (A) (A) (A) (A) (A) (A) (A) (A) (A)
                 (A) (A) (A) (A) (A) (A) (A) (A) (A) (A) (A) (A)
                 (A) (A)
 The electronic state is 1-A.
 Alpha  occ. eigenvalues --  -19.11358 -19.11322 -14.40482 -14.40435 -14.37227
 Alpha  occ. eigenvalues --  -14.37219 -10.30711 -10.30686 -10.22328 -10.22307
 Alpha  occ. eigenvalues --  -10.22031 -10.22031 -10.19115 -10.19103 -10.19009
 Alpha  occ. eigenvalues --  -10.18999 -10.18863 -10.18858  -1.09057  -1.03812
 Alpha  occ. eigenvalues --   -0.99833  -0.94031  -0.93994  -0.82211  -0.80636
 Alpha  occ. eigenvalues --   -0.78734  -0.76857  -0.76361  -0.69288  -0.66550
 Alpha  occ. eigenvalues --   -0.64230  -0.63607  -0.60774  -0.58415  -0.56327
 Alpha  occ. eigenvalues --   -0.54260  -0.52493  -0.48531  -0.47891  -0.47132
 Alpha  occ. eigenvalues --   -0.46609  -0.46412  -0.46038  -0.45825  -0.44039
 Alpha  occ. eigenvalues --   -0.43890  -0.43011  -0.42775  -0.42473  -0.41723
 Alpha  occ. eigenvalues --   -0.40252  -0.39496  -0.39381  -0.37534  -0.36159
 Alpha  occ. eigenvalues --   -0.36144  -0.34863  -0.34093  -0.33337  -0.33112
 Alpha  occ. eigenvalues --   -0.33025  -0.32787  -0.32751  -0.28391  -0.25653
 Alpha  occ. eigenvalues --   -0.24034  -0.23966  -0.23372
 Alpha virt. eigenvalues --   -0.11075   0.04290   0.06124   0.08589   0.09105
 Alpha virt. eigenvalues --    0.10893   0.10898   0.12746   0.12764   0.13863
 Alpha virt. eigenvalues --    0.13960   0.14457   0.14603   0.15743   0.16150
 Alpha virt. eigenvalues --    0.16368   0.16443   0.16772   0.16780   0.17051
 Alpha virt. eigenvalues --    0.17264   0.18243   0.18640   0.18753   0.19147
 Alpha virt. eigenvalues --    0.21635   0.22272   0.23134   0.23324   0.23944
 Alpha virt. eigenvalues --    0.24410   0.25664   0.25692   0.26975   0.27452
 Alpha virt. eigenvalues --    0.27557   0.27599   0.32214   0.36033   0.38112
 Alpha virt. eigenvalues --    0.39355   0.43709   0.49353   0.49945   0.50497
 Alpha virt. eigenvalues --    0.50696   0.51680   0.51711   0.52963   0.53032
 Alpha virt. eigenvalues --    0.54777   0.54873   0.56081   0.56394   0.57069
 Alpha virt. eigenvalues --    0.58965   0.60226   0.60446   0.61605   0.62258
 Alpha virt. eigenvalues --    0.63330   0.64430   0.64549   0.65079   0.65780
 Alpha virt. eigenvalues --    0.68099   0.68789   0.69321   0.70610   0.71173
 Alpha virt. eigenvalues --    0.73001   0.75008   0.75811   0.76555   0.77861
 Alpha virt. eigenvalues --    0.77996   0.79489   0.79686   0.81469   0.81900
 Alpha virt. eigenvalues --    0.82584   0.83272   0.83400   0.84569   0.85138
 Alpha virt. eigenvalues --    0.86217   0.86894   0.87242   0.87446   0.87558
 Alpha virt. eigenvalues --    0.88014   0.88227   0.89982   0.91047   0.91606
 Alpha virt. eigenvalues --    0.91879   0.92627   0.93256   0.93589   0.94787
 Alpha virt. eigenvalues --    0.95318   0.95341   0.96490   0.96957   0.99962
 Alpha virt. eigenvalues --    1.00765   1.02917   1.04812   1.06881   1.07831
 Alpha virt. eigenvalues --    1.09411   1.09693   1.15639   1.15843   1.17134
 Alpha virt. eigenvalues --    1.19888   1.22438   1.26646   1.27082   1.29025
 Alpha virt. eigenvalues --    1.30222   1.30881   1.34730   1.35115   1.35729
 Alpha virt. eigenvalues --    1.39739   1.40358   1.40480   1.42541   1.42609
 Alpha virt. eigenvalues --    1.50277   1.51074   1.52213   1.54735   1.55510
 Alpha virt. eigenvalues --    1.57671   1.58603   1.59094   1.59876   1.63668
 Alpha virt. eigenvalues --    1.65338   1.69166   1.69540   1.71022   1.72164
 Alpha virt. eigenvalues --    1.76366   1.77738   1.79049   1.80053   1.81302
 Alpha virt. eigenvalues --    1.84494   1.84726   1.85805   1.87143   1.88373
 Alpha virt. eigenvalues --    1.89817   1.90481   1.90549   1.92164   1.92510
 Alpha virt. eigenvalues --    1.92893   1.94767   1.97270   1.98335   1.98485
 Alpha virt. eigenvalues --    1.98672   1.99280   1.99572   2.00459   2.00939
 Alpha virt. eigenvalues --    2.02087   2.05618   2.05735   2.09241   2.11773
 Alpha virt. eigenvalues --    2.12060   2.13672   2.15918   2.16491   2.17688
 Alpha virt. eigenvalues --    2.20543   2.26871   2.28100   2.29162   2.30065
 Alpha virt. eigenvalues --    2.31750   2.31921   2.33186   2.33400   2.35048
 Alpha virt. eigenvalues --    2.35749   2.35871   2.37860   2.39902   2.40090
 Alpha virt. eigenvalues --    2.41082   2.41872   2.46261   2.49452   2.50398
 Alpha virt. eigenvalues --    2.56354   2.56810   2.60448   2.61432   2.61894
 Alpha virt. eigenvalues --    2.62391   2.63048   2.65454   2.67673   2.69514
 Alpha virt. eigenvalues --    2.71287   2.72091   2.73190   2.74084   2.74225
 Alpha virt. eigenvalues --    2.80978   2.81587   2.86306   2.94374   2.96311
 Alpha virt. eigenvalues --    3.05954   3.15048   3.23391   3.27084   3.81822
 Alpha virt. eigenvalues --    3.95912   4.02077   4.03326   4.14834   4.15982
 Alpha virt. eigenvalues --    4.17061   4.17662   4.24557   4.25754   4.38320
 Alpha virt. eigenvalues --    4.40008   4.48067   4.50123   4.54638   4.54705
 Alpha virt. eigenvalues --    4.56933   4.57365
          Condensed to atoms (all electrons):
               1          2          3          4          5          6
     1  C    4.282617   0.576376   0.216571  -0.051855   0.006105   0.000415
     2  O    0.576376   8.084333  -0.085737   0.000822   0.000418  -0.000002
     3  N    0.216571  -0.085737   6.966632   0.270869  -0.051703   0.000896
     4  N   -0.051855   0.000822   0.270869   6.967722   0.216414  -0.085867
     5  C    0.006105   0.000418  -0.051703   0.216414   4.281671   0.576885
     6  O    0.000415  -0.000002   0.000896  -0.085867   0.576885   8.084927
     7  N   -0.000269  -0.000002   0.002511  -0.105211   0.304797  -0.103153
     8  C    0.000004   0.000000  -0.000081   0.003817  -0.025015  -0.004137
     9  C   -0.000000   0.000000   0.000008  -0.000091   0.002279   0.000345
    10  C    0.000000  -0.000000   0.000001  -0.000017  -0.000071  -0.000017
    11  C    0.000003   0.000000   0.000019  -0.000081   0.001458  -0.000060
    12  C   -0.000057  -0.000035   0.000653  -0.004338  -0.025406   0.002447
    13  N    0.304515  -0.102585  -0.104930   0.002513  -0.000269  -0.000002
    14  C   -0.024906  -0.004153   0.003802  -0.000080   0.000004   0.000000
    15  C    0.002237   0.000338  -0.000092   0.000008  -0.000000   0.000000
    16  C   -0.000068  -0.000017  -0.000017   0.000001   0.000000  -0.000000
    17  C    0.001468  -0.000059  -0.000089   0.000020   0.000003   0.000000
    18  C   -0.025448   0.002438  -0.004302   0.000648  -0.000056  -0.000034
    19  H    0.000000   0.000000  -0.000013   0.000652  -0.002103   0.017446
    20  H   -0.000000  -0.000000  -0.000005  -0.000137  -0.000464   0.001000
    21  H   -0.000000   0.000000  -0.000003  -0.000010   0.000619   0.000035
    22  H    0.000000  -0.000000  -0.000000   0.000001  -0.000082  -0.000008
    23  H   -0.000000  -0.000000   0.000000  -0.000000   0.000012   0.000000
    24  H   -0.000000   0.000000  -0.000000  -0.000000  -0.000024   0.000000
    25  H   -0.000002   0.000000  -0.000017   0.000089   0.000414  -0.000012
    26  H   -0.000000   0.000000  -0.000000   0.000007  -0.000061   0.000001
    27  H    0.000168   0.000236  -0.000567   0.014997  -0.007922   0.000148
    28  H   -0.000004   0.000000  -0.000051   0.000340  -0.000007   0.000022
    29  H   -0.002133   0.017439   0.000652  -0.000014   0.000000   0.000000
    30  H   -0.000433   0.000990  -0.000136  -0.000005  -0.000000  -0.000000
    31  H    0.000625   0.000036  -0.000010  -0.000003  -0.000000   0.000000
    32  H   -0.000081  -0.000008   0.000001  -0.000000   0.000000  -0.000000
    33  H    0.000012   0.000000  -0.000000   0.000000  -0.000000  -0.000000
    34  H   -0.000024   0.000000  -0.000000  -0.000000  -0.000000   0.000000
    35  H    0.000418  -0.000012   0.000090  -0.000017  -0.000002   0.000000
    36  H   -0.000061   0.000001   0.000007  -0.000000  -0.000000   0.000000
    37  H   -0.007942   0.000148   0.015014  -0.000566   0.000167   0.000231
    38  H    0.000000   0.000020   0.000339  -0.000051  -0.000004   0.000000
               7          8          9         10         11         12
     1  C   -0.000269   0.000004  -0.000000   0.000000   0.000003  -0.000057
     2  O   -0.000002   0.000000   0.000000  -0.000000   0.000000  -0.000035
     3  N    0.002511  -0.000081   0.000008   0.000001   0.000019   0.000653
     4  N   -0.105211   0.003817  -0.000091  -0.000017  -0.000081  -0.004338
     5  C    0.304797  -0.025015   0.002279  -0.000071   0.001458  -0.025406
     6  O   -0.103153  -0.004137   0.000345  -0.000017  -0.000060   0.002447
     7  N    7.045985   0.285315  -0.046650  -0.013492  -0.051535   0.286597
     8  C    0.285315   4.926312   0.371962  -0.039560  -0.013493  -0.043186
     9  C   -0.046650   0.371962   5.029741   0.379250  -0.046125  -0.013863
    10  C   -0.013492  -0.039560   0.379250   5.015360   0.385063  -0.041785
    11  C   -0.051535  -0.013493  -0.046125   0.385063   5.047172   0.364827
    12  C    0.286597  -0.043186  -0.013863  -0.041785   0.364827   4.942690
    13  N    0.000003  -0.000000  -0.000000  -0.000000  -0.000000  -0.000000
    14  C   -0.000000   0.000000  -0.000000   0.000000   0.000000   0.000000
    15  C   -0.000000  -0.000000   0.000000   0.000000   0.000000   0.000000
    16  C   -0.000000   0.000000   0.000000   0.000000   0.000000  -0.000000
    17  C   -0.000000   0.000000   0.000000   0.000000   0.000000  -0.000000
    18  C   -0.000000   0.000000   0.000000  -0.000000  -0.000000   0.000000
    19  H   -0.031994   0.371716  -0.028129   0.004025   0.000044   0.003652
    20  H   -0.054852   0.374935  -0.047604  -0.006932  -0.001567  -0.001147
    21  H   -0.000635  -0.038499   0.371520  -0.043129  -0.004450  -0.000171
    22  H    0.004181  -0.032138   0.366682  -0.033723   0.005101   0.000113
    23  H   -0.000092   0.004980  -0.033292   0.373646  -0.033222   0.004782
    24  H   -0.000941  -0.003675  -0.041782   0.370630  -0.042173  -0.003051
    25  H    0.000831  -0.000830  -0.003864  -0.043373   0.367595  -0.038198
    26  H    0.004027   0.000013   0.005231  -0.034300   0.364412  -0.030317
    27  H   -0.027980   0.003452   0.000032   0.003921  -0.028985   0.374149
    28  H   -0.057673  -0.003291  -0.001002  -0.007157  -0.051865   0.370651
    29  H   -0.000000   0.000000  -0.000000   0.000000  -0.000000   0.000000
    30  H    0.000000  -0.000000  -0.000000  -0.000000  -0.000000   0.000000
    31  H    0.000000  -0.000000  -0.000000  -0.000000  -0.000000   0.000000
    32  H   -0.000000   0.000000  -0.000000  -0.000000  -0.000000   0.000000
    33  H   -0.000000  -0.000000   0.000000  -0.000000  -0.000000  -0.000000
    34  H    0.000000  -0.000000  -0.000000  -0.000000  -0.000000   0.000000
    35  H   -0.000000  -0.000000  -0.000000  -0.000000  -0.000000  -0.000000
    36  H    0.000000  -0.000000  -0.000000  -0.000000  -0.000000   0.000000
    37  H    0.000002   0.000000  -0.000000   0.000000   0.000000  -0.000000
    38  H    0.000000  -0.000000  -0.000000  -0.000000  -0.000000   0.000000
              13         14         15         16         17         18
     1  C    0.304515  -0.024906   0.002237  -0.000068   0.001468  -0.025448
     2  O   -0.102585  -0.004153   0.000338  -0.000017  -0.000059   0.002438
     3  N   -0.104930   0.003802  -0.000092  -0.000017  -0.000089  -0.004302
     4  N    0.002513  -0.000080   0.000008   0.000001   0.000020   0.000648
     5  C   -0.000269   0.000004  -0.000000   0.000000   0.000003  -0.000056
     6  O   -0.000002   0.000000   0.000000  -0.000000   0.000000  -0.000034
     7  N    0.000003  -0.000000  -0.000000  -0.000000  -0.000000  -0.000000
     8  C   -0.000000   0.000000  -0.000000   0.000000   0.000000   0.000000
     9  C   -0.000000  -0.000000   0.000000   0.000000   0.000000   0.000000
    10  C   -0.000000   0.000000   0.000000   0.000000   0.000000  -0.000000
    11  C   -0.000000   0.000000   0.000000   0.000000   0.000000  -0.000000
    12  C   -0.000000   0.000000   0.000000  -0.000000  -0.000000   0.000000
    13  N    7.045818   0.285269  -0.046715  -0.013555  -0.051856   0.287207
    14  C    0.285269   4.926523   0.372021  -0.039594  -0.013514  -0.043227
    15  C   -0.046715   0.372021   5.029611   0.379307  -0.046097  -0.013839
    16  C   -0.013555  -0.039594   0.379307   5.015473   0.385164  -0.041772
    17  C   -0.051856  -0.013514  -0.046097   0.385164   5.047618   0.364876
    18  C    0.287207  -0.043227  -0.013839  -0.041772   0.364876   4.941645
    19  H   -0.000000   0.000000  -0.000000   0.000000  -0.000000   0.000000
    20  H    0.000000  -0.000000  -0.000000  -0.000000  -0.000000   0.000000
    21  H    0.000000  -0.000000  -0.000000  -0.000000  -0.000000   0.000000
    22  H   -0.000000   0.000000  -0.000000  -0.000000  -0.000000   0.000000
    23  H   -0.000000  -0.000000   0.000000  -0.000000  -0.000000  -0.000000
    24  H    0.000000  -0.000000  -0.000000  -0.000000  -0.000000   0.000000
    25  H   -0.000000  -0.000000  -0.000000  -0.000000  -0.000000  -0.000000
    26  H    0.000000  -0.000000  -0.000000  -0.000000  -0.000000   0.000000
    27  H    0.000002   0.000000  -0.000000   0.000000   0.000000  -0.000000
    28  H    0.000000  -0.000000  -0.000000  -0.000000  -0.000000   0.000000
    29  H   -0.031851   0.371640  -0.028171   0.004025   0.000044   0.003635
    30  H   -0.054892   0.374912  -0.047569  -0.006936  -0.001568  -0.001130
    31  H   -0.000648  -0.038474   0.371535  -0.043175  -0.004450  -0.000171
    32  H    0.004193  -0.032186   0.366650  -0.033727   0.005100   0.000111
    33  H   -0.000093   0.004981  -0.033299   0.373652  -0.033217   0.004781
    34  H   -0.000944  -0.003662  -0.041793   0.370595  -0.042177  -0.003051
    35  H    0.000843  -0.000827  -0.003866  -0.043380   0.367512  -0.038174
    36  H    0.004048   0.000015   0.005232  -0.034317   0.364324  -0.030296
    37  H   -0.028056   0.003466   0.000031   0.003922  -0.028999   0.374209
    38  H   -0.057936  -0.003318  -0.001008  -0.007191  -0.052025   0.370712
              19         20         21         22         23         24
     1  C    0.000000  -0.000000  -0.000000   0.000000  -0.000000  -0.000000
     2  O    0.000000  -0.000000   0.000000  -0.000000  -0.000000   0.000000
     3  N   -0.000013  -0.000005  -0.000003  -0.000000   0.000000  -0.000000
     4  N    0.000652  -0.000137  -0.000010   0.000001  -0.000000  -0.000000
     5  C   -0.002103  -0.000464   0.000619  -0.000082   0.000012  -0.000024
     6  O    0.017446   0.001000   0.000035  -0.000008   0.000000   0.000000
     7  N   -0.031994  -0.054852  -0.000635   0.004181  -0.000092  -0.000941
     8  C    0.371716   0.374935  -0.038499  -0.032138   0.004980  -0.003675
     9  C   -0.028129  -0.047604   0.371520   0.366682  -0.033292  -0.041782
    10  C    0.004025  -0.006932  -0.043129  -0.033723   0.373646   0.370630
    11  C    0.000044  -0.001567  -0.004450   0.005101  -0.033222  -0.042173
    12  C    0.003652  -0.001147  -0.000171   0.000113   0.004782  -0.003051
    13  N   -0.000000   0.000000   0.000000  -0.000000  -0.000000   0.000000
    14  C    0.000000  -0.000000  -0.000000   0.000000  -0.000000  -0.000000
    15  C   -0.000000  -0.000000  -0.000000  -0.000000   0.000000  -0.000000
    16  C    0.000000  -0.000000  -0.000000  -0.000000  -0.000000  -0.000000
    17  C   -0.000000  -0.000000  -0.000000  -0.000000  -0.000000  -0.000000
    18  C    0.000000   0.000000   0.000000   0.000000  -0.000000   0.000000
    19  H    0.507539  -0.031754  -0.004371  -0.001468  -0.000140  -0.000049
    20  H   -0.031754   0.603798   0.006044  -0.001505  -0.000088   0.005345
    21  H   -0.004371   0.006044   0.594988  -0.032325  -0.005008   0.006155
    22  H   -0.001468  -0.001505  -0.032325   0.590327  -0.002563  -0.004331
    23  H   -0.000140  -0.000088  -0.005008  -0.002563   0.595062  -0.035602
    24  H   -0.000049   0.005345   0.006155  -0.004331  -0.035602   0.609429
    25  H   -0.000034   0.000243   0.005147  -0.000001  -0.005400   0.006216
    26  H    0.000010   0.000042  -0.000008  -0.000149  -0.002378  -0.004405
    27  H   -0.000143  -0.000049  -0.000019   0.000010  -0.000139  -0.000039
    28  H   -0.000184   0.008218   0.000232   0.000054  -0.000116   0.005189
    29  H    0.000000  -0.000000  -0.000000   0.000000  -0.000000  -0.000000
    30  H    0.000000   0.000000   0.000000   0.000000  -0.000000   0.000000
    31  H   -0.000000   0.000000   0.000000   0.000000  -0.000000   0.000000
    32  H    0.000000   0.000000   0.000000   0.000000  -0.000000   0.000000
    33  H   -0.000000  -0.000000  -0.000000  -0.000000   0.000000  -0.000000
    34  H   -0.000000   0.000000   0.000000   0.000000  -0.000000   0.000000
    35  H   -0.000000   0.000000   0.000000   0.000000   0.000000   0.000000
    36  H    0.000000   0.000000   0.000000   0.000000  -0.000000   0.000000
    37  H   -0.000000  -0.000000  -0.000000  -0.000000   0.000000  -0.000000
    38  H   -0.000000   0.000000   0.000000   0.000000   0.000000   0.000000
              25         26         27         28         29         30
     1  C   -0.000002  -0.000000   0.000168  -0.000004  -0.002133  -0.000433
     2  O    0.000000   0.000000   0.000236   0.000000   0.017439   0.000990
     3  N   -0.000017  -0.000000  -0.000567  -0.000051   0.000652  -0.000136
     4  N    0.000089   0.000007   0.014997   0.000340  -0.000014  -0.000005
     5  C    0.000414  -0.000061  -0.007922  -0.000007   0.000000  -0.000000
     6  O   -0.000012   0.000001   0.000148   0.000022   0.000000  -0.000000
     7  N    0.000831   0.004027  -0.027980  -0.057673  -0.000000   0.000000
     8  C   -0.000830   0.000013   0.003452  -0.003291   0.000000  -0.000000
     9  C   -0.003864   0.005231   0.000032  -0.001002  -0.000000  -0.000000
    10  C   -0.043373  -0.034300   0.003921  -0.007157   0.000000  -0.000000
    11  C    0.367595   0.364412  -0.028985  -0.051865  -0.000000  -0.000000
    12  C   -0.038198  -0.030317   0.374149   0.370651   0.000000   0.000000
    13  N   -0.000000   0.000000   0.000002   0.000000  -0.031851  -0.054892
    14  C   -0.000000  -0.000000   0.000000  -0.000000   0.371640   0.374912
    15  C   -0.000000  -0.000000  -0.000000  -0.000000  -0.028171  -0.047569
    16  C   -0.000000  -0.000000   0.000000  -0.000000   0.004025  -0.006936
    17  C   -0.000000  -0.000000   0.000000  -0.000000   0.000044  -0.001568
    18  C   -0.000000   0.000000  -0.000000   0.000000   0.003635  -0.001130
    19  H   -0.000034   0.000010  -0.000143  -0.000184   0.000000   0.000000
    20  H    0.000243   0.000042  -0.000049   0.008218  -0.000000   0.000000
    21  H    0.005147  -0.000008  -0.000019   0.000232  -0.000000   0.000000
    22  H   -0.000001  -0.000149   0.000010   0.000054   0.000000   0.000000
    23  H   -0.005400  -0.002378  -0.000139  -0.000116  -0.000000  -0.000000
    24  H    0.006216  -0.004405  -0.000039   0.005189  -0.000000   0.000000
    25  H    0.601336  -0.032041  -0.004316   0.006381  -0.000000   0.000000
    26  H   -0.032041   0.590191  -0.001252  -0.001342   0.000000   0.000000
    27  H   -0.004316  -0.001252   0.508432  -0.030340  -0.000000  -0.000000
    28  H    0.006381  -0.001342  -0.030340   0.617725  -0.000000   0.000000
    29  H   -0.000000   0.000000  -0.000000  -0.000000   0.507555  -0.031743
    30  H    0.000000   0.000000  -0.000000   0.000000  -0.031743   0.603762
    31  H    0.000000   0.000000  -0.000000   0.000000  -0.004379   0.006041
    32  H    0.000000   0.000000  -0.000000   0.000000  -0.001453  -0.001510
    33  H    0.000000  -0.000000   0.000000   0.000000  -0.000140  -0.000088
    34  H    0.000000   0.000000  -0.000000   0.000000  -0.000049   0.005338
    35  H    0.000000   0.000000   0.000000   0.000000  -0.000034   0.000243
    36  H    0.000000   0.000000  -0.000000   0.000000   0.000010   0.000042
    37  H    0.000000  -0.000000   0.000001   0.000000  -0.000143  -0.000050
    38  H    0.000000   0.000000   0.000000   0.000000  -0.000183   0.008240
              31         32         33         34         35         36
     1  C    0.000625  -0.000081   0.000012  -0.000024   0.000418  -0.000061
     2  O    0.000036  -0.000008   0.000000   0.000000  -0.000012   0.000001
     3  N   -0.000010   0.000001  -0.000000  -0.000000   0.000090   0.000007
     4  N   -0.000003  -0.000000   0.000000  -0.000000  -0.000017  -0.000000
     5  C   -0.000000   0.000000  -0.000000  -0.000000  -0.000002  -0.000000
     6  O    0.000000  -0.000000  -0.000000   0.000000   0.000000   0.000000
     7  N    0.000000  -0.000000  -0.000000   0.000000  -0.000000   0.000000
     8  C   -0.000000   0.000000  -0.000000  -0.000000  -0.000000  -0.000000
     9  C   -0.000000  -0.000000   0.000000  -0.000000  -0.000000  -0.000000
    10  C   -0.000000  -0.000000  -0.000000  -0.000000  -0.000000  -0.000000
    11  C   -0.000000  -0.000000  -0.000000  -0.000000  -0.000000  -0.000000
    12  C    0.000000   0.000000  -0.000000   0.000000  -0.000000   0.000000
    13  N   -0.000648   0.004193  -0.000093  -0.000944   0.000843   0.004048
    14  C   -0.038474  -0.032186   0.004981  -0.003662  -0.000827   0.000015
    15  C    0.371535   0.366650  -0.033299  -0.041793  -0.003866   0.005232
    16  C   -0.043175  -0.033727   0.373652   0.370595  -0.043380  -0.034317
    17  C   -0.004450   0.005100  -0.033217  -0.042177   0.367512   0.364324
    18  C   -0.000171   0.000111   0.004781  -0.003051  -0.038174  -0.030296
    19  H   -0.000000   0.000000  -0.000000  -0.000000  -0.000000   0.000000
    20  H    0.000000   0.000000  -0.000000   0.000000   0.000000   0.000000
    21  H    0.000000   0.000000  -0.000000   0.000000   0.000000   0.000000
    22  H    0.000000   0.000000  -0.000000   0.000000   0.000000   0.000000
    23  H   -0.000000  -0.000000   0.000000  -0.000000   0.000000  -0.000000
    24  H    0.000000   0.000000  -0.000000   0.000000   0.000000   0.000000
    25  H    0.000000   0.000000   0.000000   0.000000   0.000000   0.000000
    26  H    0.000000   0.000000  -0.000000   0.000000   0.000000   0.000000
    27  H   -0.000000  -0.000000   0.000000  -0.000000   0.000000  -0.000000
    28  H    0.000000   0.000000   0.000000   0.000000   0.000000   0.000000
    29  H   -0.004379  -0.001453  -0.000140  -0.000049  -0.000034   0.000010
    30  H    0.006041  -0.001510  -0.000088   0.005338   0.000243   0.000042
    31  H    0.595021  -0.032308  -0.005007   0.006156   0.005151  -0.000008
    32  H   -0.032308   0.590403  -0.002572  -0.004323  -0.000000  -0.000149
    33  H   -0.005007  -0.002572   0.595111  -0.035604  -0.005397  -0.002381
    34  H    0.006156  -0.004323  -0.035604   0.609483   0.006216  -0.004398
    35  H    0.005151  -0.000000  -0.005397   0.006216   0.601448  -0.032042
    36  H   -0.000008  -0.000149  -0.002381  -0.004398  -0.032042   0.590340
    37  H   -0.000020   0.000010  -0.000139  -0.000039  -0.004306  -0.001254
    38  H    0.000233   0.000055  -0.000116   0.005207   0.006392  -0.001316
              37         38
     1  C   -0.007942   0.000000
     2  O    0.000148   0.000020
     3  N    0.015014   0.000339
     4  N   -0.000566  -0.000051
     5  C    0.000167  -0.000004
     6  O    0.000231   0.000000
     7  N    0.000002   0.000000
     8  C    0.000000  -0.000000
     9  C   -0.000000  -0.000000
    10  C    0.000000  -0.000000
    11  C    0.000000  -0.000000
    12  C   -0.000000   0.000000
    13  N   -0.028056  -0.057936
    14  C    0.003466  -0.003318
    15  C    0.000031  -0.001008
    16  C    0.003922  -0.007191
    17  C   -0.028999  -0.052025
    18  C    0.374209   0.370712
    19  H   -0.000000  -0.000000
    20  H   -0.000000   0.000000
    21  H   -0.000000   0.000000
    22  H   -0.000000   0.000000
    23  H    0.000000   0.000000
    24  H   -0.000000   0.000000
    25  H    0.000000   0.000000
    26  H   -0.000000   0.000000
    27  H    0.000001   0.000000
    28  H    0.000000   0.000000
    29  H   -0.000143  -0.000183
    30  H   -0.000050   0.008240
    31  H   -0.000020   0.000233
    32  H    0.000010   0.000055
    33  H   -0.000139  -0.000116
    34  H   -0.000039   0.005207
    35  H   -0.004306   0.006392
    36  H   -0.001254  -0.001316
    37  H    0.508600  -0.030345
    38  H   -0.030345   0.618331
 Mulliken charges:
               1
     1  C    0.721747
     2  O   -0.490987
     3  N   -0.230312
     4  N   -0.230578
     5  C    0.721944
     6  O   -0.491507
     7  N   -0.439772
     8  C   -0.138600
     9  C   -0.264650
    10  C   -0.268339
    11  C   -0.262142
    12  C   -0.149007
    13  N   -0.440081
    14  C   -0.138692
    15  C   -0.264519
    16  C   -0.268389
    17  C   -0.262077
    18  C   -0.148760
    19  H    0.195298
    20  H    0.146479
    21  H    0.143889
    22  H    0.141823
    23  H    0.139559
    24  H    0.133108
    25  H    0.139835
    26  H    0.142319
    27  H    0.196203
    28  H    0.144219
    29  H    0.195293
    30  H    0.146491
    31  H    0.143854
    32  H    0.141794
    33  H    0.139517
    34  H    0.133070
    35  H    0.139744
    36  H    0.142206
    37  H    0.196057
    38  H    0.143965
 Sum of Mulliken charges =  -0.00000
 Mulliken charges with hydrogens summed into heavy atoms:
               1
     1  C    0.721747
     2  O   -0.490987
     3  N   -0.230312
     4  N   -0.230578
     5  C    0.721944
     6  O   -0.491507
     7  N   -0.439772
     8  C    0.203178
     9  C    0.021062
    10  C    0.004328
    11  C    0.020012
    12  C    0.191415
    13  N   -0.440081
    14  C    0.203092
    15  C    0.021128
    16  C    0.004197
    17  C    0.019873
    18  C    0.191262
 APT charges:
               1
     1  C    1.119944
     2  O   -0.750500
     3  N   -0.192008
     4  N   -0.193131
     5  C    1.120889
     6  O   -0.751187
     7  N   -0.734678
     8  C    0.302436
     9  C    0.109798
    10  C    0.120420
    11  C    0.100528
    12  C    0.327843
    13  N   -0.733792
    14  C    0.302449
    15  C    0.109567
    16  C    0.120521
    17  C    0.100657
    18  C    0.327459
    19  H    0.032484
    20  H   -0.085976
    21  H   -0.036481
    22  H   -0.056498
    23  H   -0.056026
    24  H   -0.048146
    25  H   -0.041306
    26  H   -0.054614
    27  H    0.021547
    28  H   -0.078211
    29  H    0.032521
    30  H   -0.085930
    31  H   -0.036480
    32  H   -0.056558
    33  H   -0.056075
    34  H   -0.048199
    35  H   -0.041388
    36  H   -0.054829
    37  H    0.021493
    38  H   -0.078541
 Sum of APT charges =  -0.00000
 APT charges with hydrogens summed into heavy atoms:
               1
     1  C    1.119944
     2  O   -0.750500
     3  N   -0.192008
     4  N   -0.193131
     5  C    1.120889
     6  O   -0.751187
     7  N   -0.734678
     8  C    0.248944
     9  C    0.016818
    10  C    0.016248
    11  C    0.004609
    12  C    0.271179
    13  N   -0.733792
    14  C    0.249039
    15  C    0.016529
    16  C    0.016248
    17  C    0.004439
    18  C    0.270411
 Electronic spatial extent (au):  <R**2>=           6827.3145
 Charge=             -0.0000 electrons
 Dipole moment (field-independent basis, Debye):
    X=              0.0048    Y=              4.0675    Z=             -0.0143  Tot=              4.0676
 Quadrupole moment (field-independent basis, Debye-Ang):
   XX=            -81.6633   YY=           -111.7819   ZZ=           -113.5902
   XY=              0.0622   XZ=              6.5655   YZ=             -0.0335
 Traceless Quadrupole moment (field-independent basis, Debye-Ang):
   XX=             20.6819   YY=             -9.4367   ZZ=            -11.2451
   XY=              0.0622   XZ=              6.5655   YZ=             -0.0335
 Octapole moment (field-independent basis, Debye-Ang**2):
[...]
    56    N    4  dxy    Ryd( 3d)     0.00099
    57    N    4  dxz    Ryd( 3d)     0.00149
    58    N    4  dyz    Ryd( 3d)     0.00202
    59    N    4  dx2y2  Ryd( 3d)     0.00075
    60    N    4  dz2    Ryd( 3d)     0.00224
 
    61    C    5  S      Cor( 1S)     1.99934
    62    C    5  S      Val( 2S)     0.73319
    63    C    5  S      Ryd( 3S)     0.00444
    64    C    5  S      Ryd( 4S)     0.00039
    65    C    5  px     Val( 2p)     0.83231
    66    C    5  px     Ryd( 3p)     0.00843
    67    C    5  py     Val( 2p)     0.76977
    68    C    5  py     Ryd( 3p)     0.01964
    69    C    5  pz     Val( 2p)     0.82155
    70    C    5  pz     Ryd( 3p)     0.00386
    71    C    5  dxy    Ryd( 3d)     0.00318
    72    C    5  dxz    Ryd( 3d)     0.00193
    73    C    5  dyz    Ryd( 3d)     0.00233
    74    C    5  dx2y2  Ryd( 3d)     0.00213
    75    C    5  dz2    Ryd( 3d)     0.00040
 
    76    O    6  S      Cor( 1S)     1.99979
    77    O    6  S      Val( 2S)     1.70363
    78    O    6  S      Ryd( 3S)     0.00079
    79    O    6  S      Ryd( 4S)     0.00009
    80    O    6  px     Val( 2p)     1.73792
    81    O    6  px     Ryd( 3p)     0.00148
    82    O    6  py     Val( 2p)     1.57453
    83    O    6  py     Ryd( 3p)     0.00037
    84    O    6  pz     Val( 2p)     1.53823
    85    O    6  pz     Ryd( 3p)     0.00090
    86    O    6  dxy    Ryd( 3d)     0.00437
    87    O    6  dxz    Ryd( 3d)     0.00023
    88    O    6  dyz    Ryd( 3d)     0.00460
    89    O    6  dx2y2  Ryd( 3d)     0.00438
    90    O    6  dz2    Ryd( 3d)     0.00134
 
    91    N    7  S      Cor( 1S)     1.99927
    92    N    7  S      Val( 2S)     1.20578
    93    N    7  S      Ryd( 3S)     0.00169
    94    N    7  S      Ryd( 4S)     0.00006
    95    N    7  px     Val( 2p)     1.29915
    96    N    7  px     Ryd( 3p)     0.00168
    97    N    7  py     Val( 2p)     1.30122
    98    N    7  py     Ryd( 3p)     0.00155
    99    N    7  pz     Val( 2p)     1.65277
   100    N    7  pz     Ryd( 3p)     0.00484
   101    N    7  dxy    Ryd( 3d)     0.00073
   102    N    7  dxz    Ryd( 3d)     0.00068
   103    N    7  dyz    Ryd( 3d)     0.00044
   104    N    7  dx2y2  Ryd( 3d)     0.00068
   105    N    7  dz2    Ryd( 3d)     0.00055
 
   106    C    8  S      Cor( 1S)     1.99932
   107    C    8  S      Val( 2S)     1.01799
   108    C    8  S      Ryd( 3S)     0.00122
   109    C    8  S      Ryd( 4S)     0.00003
   110    C    8  px     Val( 2p)     0.91709
   111    C    8  px     Ryd( 3p)     0.00372
   112    C    8  py     Val( 2p)     1.15391
   113    C    8  py     Ryd( 3p)     0.00479
   114    C    8  pz     Val( 2p)     1.15476
   115    C    8  pz     Ryd( 3p)     0.00157
   116    C    8  dxy    Ryd( 3d)     0.00114
   117    C    8  dxz    Ryd( 3d)     0.00119
   118    C    8  dyz    Ryd( 3d)     0.00046
   119    C    8  dx2y2  Ryd( 3d)     0.00088
   120    C    8  dz2    Ryd( 3d)     0.00120
 
   121    C    9  S      Cor( 1S)     1.99932
   122    C    9  S      Val( 2S)     1.04092
   123    C    9  S      Ryd( 3S)     0.00063
   124    C    9  S      Ryd( 4S)     0.00002
   125    C    9  px     Val( 2p)     1.16693
   126    C    9  px     Ryd( 3p)     0.00345
   127    C    9  py     Val( 2p)     1.09315
   128    C    9  py     Ryd( 3p)     0.00170
   129    C    9  pz     Val( 2p)     1.15974
   130    C    9  pz     Ryd( 3p)     0.00212
   131    C    9  dxy    Ryd( 3d)     0.00083
   132    C    9  dxz    Ryd( 3d)     0.00075
   133    C    9  dyz    Ryd( 3d)     0.00052
   134    C    9  dx2y2  Ryd( 3d)     0.00056
   135    C    9  dz2    Ryd( 3d)     0.00083
 
   136    C   10  S      Cor( 1S)     1.99933
   137    C   10  S      Val( 2S)     1.03646
   138    C   10  S      Ryd( 3S)     0.00060
   139    C   10  S      Ryd( 4S)     0.00002
   140    C   10  px     Val( 2p)     1.12660
   141    C   10  px     Ryd( 3p)     0.00200
   142    C   10  py     Val( 2p)     1.04848
   143    C   10  py     Ryd( 3p)     0.00157
   144    C   10  pz     Val( 2p)     1.24283
   145    C   10  pz     Ryd( 3p)     0.00381
   146    C   10  dxy    Ryd( 3d)     0.00060
   147    C   10  dxz    Ryd( 3d)     0.00113
   148    C   10  dyz    Ryd( 3d)     0.00047
   149    C   10  dx2y2  Ryd( 3d)     0.00066
   150    C   10  dz2    Ryd( 3d)     0.00067
 
   151    C   11  S      Cor( 1S)     1.99932
   152    C   11  S      Val( 2S)     1.04084
   153    C   11  S      Ryd( 3S)     0.00066
   154    C   11  S      Ryd( 4S)     0.00002
   155    C   11  px     Val( 2p)     1.05964
   156    C   11  px     Ryd( 3p)     0.00189
   157    C   11  py     Val( 2p)     1.20368
   158    C   11  py     Ryd( 3p)     0.00363
   159    C   11  pz     Val( 2p)     1.15575
   160    C   11  pz     Ryd( 3p)     0.00180
   161    C   11  dxy    Ryd( 3d)     0.00048
   162    C   11  dxz    Ryd( 3d)     0.00089
   163    C   11  dyz    Ryd( 3d)     0.00025
   164    C   11  dx2y2  Ryd( 3d)     0.00095
   165    C   11  dz2    Ryd( 3d)     0.00092
 
   166    C   12  S      Cor( 1S)     1.99930
   167    C   12  S      Val( 2S)     1.01820
   168    C   12  S      Ryd( 3S)     0.00132
   169    C   12  S      Ryd( 4S)     0.00003
   170    C   12  px     Val( 2p)     1.20704
   171    C   12  px     Ryd( 3p)     0.00563
   172    C   12  py     Val( 2p)     0.85788
   173    C   12  py     Ryd( 3p)     0.00246
   174    C   12  pz     Val( 2p)     1.16296
   175    C   12  pz     Ryd( 3p)     0.00186
   176    C   12  dxy    Ryd( 3d)     0.00070
   177    C   12  dxz    Ryd( 3d)     0.00071
   178    C   12  dyz    Ryd( 3d)     0.00100
   179    C   12  dx2y2  Ryd( 3d)     0.00126
   180    C   12  dz2    Ryd( 3d)     0.00115
 
   181    N   13  S      Cor( 1S)     1.99928
   182    N   13  S      Val( 2S)     1.20570
   183    N   13  S      Ryd( 3S)     0.00173
   184    N   13  S      Ryd( 4S)     0.00006
   185    N   13  px     Val( 2p)     1.29908
   186    N   13  px     Ryd( 3p)     0.00149
   187    N   13  py     Val( 2p)     1.30280
   188    N   13  py     Ryd( 3p)     0.00159
   189    N   13  pz     Val( 2p)     1.65036
   190    N   13  pz     Ryd( 3p)     0.00491
   191    N   13  dxy    Ryd( 3d)     0.00072
   192    N   13  dxz    Ryd( 3d)     0.00073
   193    N   13  dyz    Ryd( 3d)     0.00045
   194    N   13  dx2y2  Ryd( 3d)     0.00068
   195    N   13  dz2    Ryd( 3d)     0.00053
 
   196    C   14  S      Cor( 1S)     1.99932
   197    C   14  S      Val( 2S)     1.01813
   198    C   14  S      Ryd( 3S)     0.00118
   199    C   14  S      Ryd( 4S)     0.00003
   200    C   14  px     Val( 2p)     0.95034
   201    C   14  px     Ryd( 3p)     0.00385
   202    C   14  py     Val( 2p)     1.15030
   203    C   14  py     Ryd( 3p)     0.00461
   204    C   14  pz     Val( 2p)     1.12511
   205    C   14  pz     Ryd( 3p)     0.00162
   206    C   14  dxy    Ryd( 3d)     0.00105
   207    C   14  dxz    Ryd( 3d)     0.00147
   208    C   14  dyz    Ryd( 3d)     0.00046
   209    C   14  dx2y2  Ryd( 3d)     0.00090
   210    C   14  dz2    Ryd( 3d)     0.00099
 
   211    C   15  S      Cor( 1S)     1.99932
   212    C   15  S      Val( 2S)     1.04114
   213    C   15  S      Ryd( 3S)     0.00063
   214    C   15  S      Ryd( 4S)     0.00002
   215    C   15  px     Val( 2p)     1.21092
   216    C   15  px     Ryd( 3p)     0.00384
   217    C   15  py     Val( 2p)     1.08325
   218    C   15  py     Ryd( 3p)     0.00176
   219    C   15  pz     Val( 2p)     1.12587
   220    C   15  pz     Ryd( 3p)     0.00158
   221    C   15  dxy    Ryd( 3d)     0.00084
   222    C   15  dxz    Ryd( 3d)     0.00086
   223    C   15  dyz    Ryd( 3d)     0.00044
   224    C   15  dx2y2  Ryd( 3d)     0.00059
   225    C   15  dz2    Ryd( 3d)     0.00074
 
   226    C   16  S      Cor( 1S)     1.99933
   227    C   16  S      Val( 2S)     1.03668
   228    C   16  S      Ryd( 3S)     0.00060
   229    C   16  S      Ryd( 4S)     0.00002
   230    C   16  px     Val( 2p)     1.12459
   231    C   16  px     Ryd( 3p)     0.00154
   232    C   16  py     Val( 2p)     1.05030
   233    C   16  py     Ryd( 3p)     0.00168
   234    C   16  pz     Val( 2p)     1.24310
   235    C   16  pz     Ryd( 3p)     0.00416
   236    C   16  dxy    Ryd( 3d)     0.00059
   237    C   16  dxz    Ryd( 3d)     0.00114
   238    C   16  dyz    Ryd( 3d)     0.00049
   239    C   16  dx2y2  Ryd( 3d)     0.00068
   240    C   16  dz2    Ryd( 3d)     0.00065
 
   241    C   17  S      Cor( 1S)     1.99932
   242    C   17  S      Val( 2S)     1.04165
   243    C   17  S      Ryd( 3S)     0.00066
   244    C   17  S      Ryd( 4S)     0.00002
   245    C   17  px     Val( 2p)     1.10242
   246    C   17  px     Ryd( 3p)     0.00212
   247    C   17  py     Val( 2p)     1.19309
   248    C   17  py     Ryd( 3p)     0.00333
   249    C   17  pz     Val( 2p)     1.12403
   250    C   17  pz     Ryd( 3p)     0.00185
   251    C   17  dxy    Ryd( 3d)     0.00045
   252    C   17  dxz    Ryd( 3d)     0.00109
   253    C   17  dyz    Ryd( 3d)     0.00029
   254    C   17  dx2y2  Ryd( 3d)     0.00095
   255    C   17  dz2    Ryd( 3d)     0.00070
 
   256    C   18  S      Cor( 1S)     1.99930
   257    C   18  S      Val( 2S)     1.01834
   258    C   18  S      Ryd( 3S)     0.00128
   259    C   18  S      Ryd( 4S)     0.00003
   260    C   18  px     Val( 2p)     1.24308
   261    C   18  px     Ryd( 3p)     0.00630
   262    C   18  py     Val( 2p)     0.85071
   263    C   18  py     Ryd( 3p)     0.00263
   264    C   18  pz     Val( 2p)     1.13379
   265    C   18  pz     Ryd( 3p)     0.00126
   266    C   18  dxy    Ryd( 3d)     0.00068
   267    C   18  dxz    Ryd( 3d)     0.00102
   268    C   18  dyz    Ryd( 3d)     0.00092
   269    C   18  dx2y2  Ryd( 3d)     0.00127
   270    C   18  dz2    Ryd( 3d)     0.00094
 
   271    H   19  S      Val( 1S)     0.73017
   272    H   19  S      Ryd( 2S)     0.00203
 
   273    H   20  S      Val( 1S)     0.77304
   274    H   20  S      Ryd( 2S)     0.00201
 
   275    H   21  S      Val( 1S)     0.76181
   276    H   21  S      Ryd( 2S)     0.00188
 
   277    H   22  S      Val( 1S)     0.75326
   278    H   22  S      Ryd( 2S)     0.00113
 
   279    H   23  S      Val( 1S)     0.75453
   280    H   23  S      Ryd( 2S)     0.00111
 
   281    H   24  S      Val( 1S)     0.77136
   282    H   24  S      Ryd( 2S)     0.00194
 
   283    H   25  S      Val( 1S)     0.76214
   284    H   25  S      Ryd( 2S)     0.00207
 
   285    H   26  S      Val( 1S)     0.75244
   286    H   26  S      Ryd( 2S)     0.00110
 
   287    H   27  S      Val( 1S)     0.72412
   288    H   27  S      Ryd( 2S)     0.00243
 
   289    H   28  S      Val( 1S)     0.77350
   290    H   28  S      Ryd( 2S)     0.00227
 
   291    H   29  S      Val( 1S)     0.73035
   292    H   29  S      Ryd( 2S)     0.00205
 
   293    H   30  S      Val( 1S)     0.77220
   294    H   30  S      Ryd( 2S)     0.00205
 
   295    H   31  S      Val( 1S)     0.76125
   296    H   31  S      Ryd( 2S)     0.00189
 
   297    H   32  S      Val( 1S)     0.75449
   298    H   32  S      Ryd( 2S)     0.00113
 
   299    H   33  S      Val( 1S)     0.75454
   300    H   33  S      Ryd( 2S)     0.00111
 
   301    H   34  S      Val( 1S)     0.77227
   302    H   34  S      Ryd( 2S)     0.00194
 
   303    H   35  S      Val( 1S)     0.76007
   304    H   35  S      Ryd( 2S)     0.00199
 
   305    H   36  S      Val( 1S)     0.75294
   306    H   36  S      Ryd( 2S)     0.00112
 
   307    H   37  S      Val( 1S)     0.72415
   308    H   37  S      Ryd( 2S)     0.00243
 
   309    H   38  S      Val( 1S)     0.77258
   310    H   38  S      Ryd( 2S)     0.00217


 Summary of Natural Population Analysis:                  
                                                          
                                       Natural Population 
                Natural  -----------------------------------------------
    Atom  No    Charge         Core      Valence    Rydberg      Total
 -----------------------------------------------------------------------
      C    1    0.79535      1.99934     3.15847    0.04684     5.20465
      O    2   -0.57138      1.99979     6.55304    0.01855     8.57138
      N    3   -0.24923      1.99941     5.22369    0.02612     7.24923
      N    4   -0.25253      1.99941     5.22708    0.02603     7.25253
      C    5    0.79713      1.99934     3.15681    0.04672     5.20287
      O    6   -0.57264      1.99979     6.55431    0.01854     8.57264
      N    7   -0.47109      1.99927     5.45892    0.01290     7.47109
      C    8   -0.25926      1.99932     4.24375    0.01620     6.25926
      C    9   -0.47146      1.99932     4.46074    0.01140     6.47146
      C   10   -0.46524      1.99933     4.45437    0.01154     6.46524
      C   11   -0.47070      1.99932     4.45990    0.01148     6.47070
      C   12   -0.26151      1.99930     4.24608    0.01613     6.26151
      N   13   -0.47011      1.99928     5.45794    0.01289     7.47011
      C   14   -0.25936      1.99932     4.24388    0.01616     6.25936
      C   15   -0.47181      1.99932     4.46117    0.01132     6.47181
      C   16   -0.46554      1.99933     4.45467    0.01155     6.46554
      C   17   -0.47197      1.99932     4.46120    0.01146     6.47197
      C   18   -0.26153      1.99930     4.24592    0.01631     6.26153
      H   19    0.26780      0.00000     0.73017    0.00203     0.73220
      H   20    0.22495      0.00000     0.77304    0.00201     0.77505
      H   21    0.23631      0.00000     0.76181    0.00188     0.76369
      H   22    0.24562      0.00000     0.75326    0.00113     0.75438
      H   23    0.24436      0.00000     0.75453    0.00111     0.75564
      H   24    0.22670      0.00000     0.77136    0.00194     0.77330
      H   25    0.23579      0.00000     0.76214    0.00207     0.76421
      H   26    0.24646      0.00000     0.75244    0.00110     0.75354
      H   27    0.27345      0.00000     0.72412    0.00243     0.72655
      H   28    0.22422      0.00000     0.77350    0.00227     0.77578
      H   29    0.26759      0.00000     0.73035    0.00205     0.73241
      H   30    0.22575      0.00000     0.77220    0.00205     0.77425
      H   31    0.23686      0.00000     0.76125    0.00189     0.76314
      H   32    0.24438      0.00000     0.75449    0.00113     0.75562
      H   33    0.24435      0.00000     0.75454    0.00111     0.75565
      H   34    0.22579      0.00000     0.77227    0.00194     0.77421
      H   35    0.23794      0.00000     0.76007    0.00199     0.76206
      H   36    0.24593      0.00000     0.75294    0.00112     0.75407
      H   37    0.27342      0.00000     0.72415    0.00243     0.72658
      H   38    0.22524      0.00000     0.77258    0.00217     0.77476
 =======================================================================
   * Total *    0.00000     35.98882    99.63317    0.37801   136.00000

                                 Natural Population      
 --------------------------------------------------------
   Core                      35.98882 ( 99.9690% of  36)
   Valence                   99.63317 ( 99.6332% of 100)
   Natural Minimal Basis    135.62199 ( 99.7221% of 136)
   Natural Rydberg Basis      0.37801 (  0.2779% of 136)
 --------------------------------------------------------

    Atom  No          Natural Electron Configuration
 ----------------------------------------------------------------------------
      C    1      [core]2S( 0.73)2p( 2.42)3p( 0.03)3d( 0.01)
      O    2      [core]2S( 1.70)2p( 4.85)3d( 0.01)
      N    3      [core]2S( 1.40)2p( 3.82)3S( 0.01)3p( 0.01)3d( 0.01)
      N    4      [core]2S( 1.40)2p( 3.83)3S( 0.01)3p( 0.01)3d( 0.01)
      C    5      [core]2S( 0.73)2p( 2.42)3p( 0.03)3d( 0.01)
      O    6      [core]2S( 1.70)2p( 4.85)3d( 0.01)
      N    7      [core]2S( 1.21)2p( 4.25)3p( 0.01)
      C    8      [core]2S( 1.02)2p( 3.23)3p( 0.01)
      C    9      [core]2S( 1.04)2p( 3.42)3p( 0.01)
      C   10      [core]2S( 1.04)2p( 3.42)3p( 0.01)
      C   11      [core]2S( 1.04)2p( 3.42)3p( 0.01)
      C   12      [core]2S( 1.02)2p( 3.23)3p( 0.01)
      N   13      [core]2S( 1.21)2p( 4.25)3p( 0.01)
      C   14      [core]2S( 1.02)2p( 3.23)3p( 0.01)
      C   15      [core]2S( 1.04)2p( 3.42)3p( 0.01)
      C   16      [core]2S( 1.04)2p( 3.42)3p( 0.01)
      C   17      [core]2S( 1.04)2p( 3.42)3p( 0.01)
      C   18      [core]2S( 1.02)2p( 3.23)3p( 0.01)
      H   19            1S( 0.73)
      H   20            1S( 0.77)
      H   21            1S( 0.76)
      H   22            1S( 0.75)
      H   23            1S( 0.75)
      H   24            1S( 0.77)
      H   25            1S( 0.76)
      H   26            1S( 0.75)
      H   27            1S( 0.72)
      H   28            1S( 0.77)
      H   29            1S( 0.73)
      H   30            1S( 0.77)
      H   31            1S( 0.76)
      H   32            1S( 0.75)
      H   33            1S( 0.75)
      H   34            1S( 0.77)
      H   35            1S( 0.76)
      H   36            1S( 0.75)
      H   37            1S( 0.72)
      H   38            1S( 0.77)


 NBO analysis skipped by request.
 1\1\GINC-DELLA-R4C4N3\SP\RB3LYP TD-FC\6-31G(d)\C12H20N4O2\BJS4\22-Aug-
 2020\0\\# TD(NStates=10, Root=1) B3LYP/6-31G* scf=qc volume pop=NPA de
 nsity=current Geom=AllCheck Guess=Read\\Title Card Required\\0,1\C,0,0
 .5821597979,-0.1783637011,-0.5508769582\O,0,-0.1144413848,-1.180970170
 2,-0.5522171366\N,0,-0.052137237,1.1229822325,-0.3378446545\N,0,-0.673
 8886017,1.5112220554,-1.343493474\C,0,-1.3056180761,2.8141554343,-1.13
 87680652\O,0,-0.6070179863,3.8151984971,-1.1653441873\N,0,-2.656624109
 1,2.7656917867,-1.0558411702\C,0,-3.4211629532,4.0132547503,-0.9731086
 306\C,0,-4.5082039167,4.0530702919,-2.054320051\C,0,-5.3873328992,2.79
 40034424,-2.0018114642\C,0,-4.5271786445,1.5235294981,-2.0793033469\C,
 0,-3.4370239523,1.5238847937,-0.9995644137\N,0,1.9339666095,-0.1254466
 927,-0.6163412654\C,0,2.7018986176,-1.3644414505,-0.7628914027\C,0,3.5
 184660068,-1.3419456651,-2.0618323175\C,0,4.3816655553,-0.0734065916,-
 2.1516918633\C,0,3.5266328291,1.1900710057,-1.9655061895\C,0,2.7124788
 218,1.1175971186,-0.6663469774\H,0,-2.7138326525,4.8375516544,-1.07221
 61614\H,0,-3.8816347264,4.076602703,0.0245975863\H,0,-4.0276041131,4.1
 292867981,-3.0386379501\H,0,-5.1157014095,4.9565934369,-1.9200816243\H
 ,0,-6.1223631172,2.8066536329,-2.8153637934\H,0,-5.9587035423,2.788923
 9535,-1.0616018405\H,0,-4.0477299187,1.4586329466,-3.0649168212\H,0,-5
 .1467981155,0.6263881117,-1.9604641751\H,0,-2.766230595,0.6716994079,-
 1.1169251764\H,0,-3.8970599468,1.4464984084,-0.0025326834\H,0,1.994858
 7621,-2.1944936095,-0.7381238659\H,0,3.3745073106,-1.4586873527,0.1029
 615914\H,0,2.8274457127,-1.3823040417,-2.914150536\H,0,4.1450389093,-2
 .2411184637,-2.1104628819\H,0,4.9087434881,-0.0380057001,-3.1125483415
 \H,0,5.1552627089,-0.1050782237,-1.3699357234\H,0,2.8339958074,1.30070
 94208,-2.8102120714\H,0,4.1577162409,2.0868859268,-1.944040636\H,0,2.0
 390675838,1.9705711367,-0.5724383422\H,0,3.3900131361,1.1326032182,0.2
 005470148\\Version=ES64L-G16RevA.03\State=1-A\HF=-838.7633152\RMSD=8.1
 39e-09\Dipole=-0.0420197,0.0176767,-0.266998\Quadrupole=14.8001777,-9.
 6109892,-5.1891885,-9.0426274,0.5270548,1.046227\PG=C01 [X(C12H20N4O2)
 ]\\@


 EVERYBODY NEEDS BEAUTY AS WELL AS BREAD, PLACES TO PLAY IN AND PRAY IN,
 WHERE NATURE MAY HEAL AND CHEER AND GIVE STRENGTH TO BODY AND SOUL ALIKE.

                                    -- JOHN MUIR
 Job cpu time:       0 days  0 hours 54 minutes 10.0 seconds.
 Elapsed time:       0 days  0 hours 10 minutes 50.5 seconds.
 File lengths (MBytes):  RWF=    821 Int=      0 D2E=      0 Chk=    268 Scr=      1
 Normal termination of Gaussian 16 at Sat Aug 22 18:47:07 2020.
