 Entering Gaussian System, Link 0=g16
 Input=azadicarboxylate_4_conf23123.com
 Output=azadicarboxylate_4_conf23123.log
 Initial command:
 /opt/export//g16/l1.exe "/scratch/bjs4/job.30691/Gau-30693.inp" -scrdir="/scratch/bjs4/job.30691/"
 Entering Link 1 = /opt/export//g16/l1.exe PID=     30694.
  
 Copyright (c) 1988,1990,1992,1993,1995,1998,2003,2009,2016,
            Gaussian, Inc.  All Rights Reserved.
  
 This is part of the Gaussian(R) 16 program.  It is based on
 the Gaussian(R) 09 system (copyright 2009, Gaussian, Inc.),
 the Gaussian(R) 03 system (copyright 2003, Gaussian, Inc.),
 the Gaussian(R) 98 system (copyright 1998, Gaussian, Inc.),
 the Gaussian(R) 94 system (copyright 1995, Gaussian, Inc.),
 the Gaussian 92(TM) system (copyright 1992, Gaussian, Inc.),
 the Gaussian 90(TM) system (copyright 1990, Gaussian, Inc.),
 the Gaussian 88(TM) system (copyright 1988, Gaussian, Inc.),
 the Gaussian 86(TM) system (copyright 1986, Carnegie Mellon
 University), and the Gaussian 82(TM) system (copyright 1983,
 Carnegie Mellon University). Gaussian is a federally registered
 trademark of Gaussian, Inc.
  
 This software contains proprietary and confidential information,
 including trade secrets, belonging to Gaussian, Inc.
  
 This software is provided under written license and may be
 used, copied, transmitted, or stored only in accord with that
 written license.
  
 The following legend is applicable only to US Government
 contracts under FAR:
  
                    RESTRICTED RIGHTS LEGEND
  
 Use, reproduction and disclosure by the US Government is
 subject to restrictions as set forth in subparagraphs (a)
 and (c) of the Commercial Computer Software - Restricted
 Rights clause in FAR 52.227-19.
  
 Gaussian, Inc.
 340 Quinnipiac St., Bldg. 40, Wallingford CT 06492
  
  
 ---------------------------------------------------------------
 Warning -- This program may not be used in any manner that
 competes with the business of Gaussian, Inc. or will provide
 assistance to any competitor of Gaussian, Inc.  The licensee
 of this program is prohibited from giving any competitor of
 Gaussian, Inc. access to this program.  By using this program,
 the user acknowledges that Gaussian, Inc. is engaged in the
 business of creating and licensing software in the field of
 computational chemistry and represents and warrants to the
 licensee that it is not a competitor of Gaussian, Inc. and that
 it will not use this program in any manner prohibited above.
 ---------------------------------------------------------------
  

 Cite this work as:
 Gaussian 16, Revision A.03,
 M. J. Frisch, G. W. Trucks, H. B. Schlegel, G. E. Scuseria, 
 M. A. Robb, J. R. Cheeseman, G. Scalmani, V. Barone, 
 G. A. Petersson, H. Nakatsuji, X. Li, M. Caricato, A. V. Marenich, 
 J. Bloino, B. G. Janesko, R. Gomperts, B. Mennucci, H. P. Hratchian, 
 J. V. Ortiz, A. F. Izmaylov, J. L. Sonnenberg, D. Williams-Young, 
 F. Ding, F. Lipparini, F. Egidi, J. Goings, B. Peng, A. Petrone, 
 T. Henderson, D. Ranasinghe, V. G. Zakrzewski, J. Gao, N. Rega, 
 G. Zheng, W. Liang, M. Hada, M. Ehara, K. Toyota, R. Fukuda, 
 J. Hasegawa, M. Ishida, T. Nakajima, Y. Honda, O. Kitao, H. Nakai, 
 T. Vreven, K. Throssell, J. A. Montgomery, Jr., J. E. Peralta, 
 F. Ogliaro, M. J. Bearpark, J. J. Heyd, E. N. Brothers, K. N. Kudin, 
 V. N. Staroverov, T. A. Keith, R. Kobayashi, J. Normand, 
 K. Raghavachari, A. P. Rendell, J. C. Burant, S. S. Iyengar, 
 J. Tomasi, M. Cossi, J. M. Millam, M. Klene, C. Adamo, R. Cammi, 
 J. W. Ochterski, R. L. Martin, K. Morokuma, O. Farkas, 
 J. B. Foresman, and D. J. Fox, Gaussian, Inc., Wallingford CT, 2016.
 
 ******************************************
 Gaussian 16:  ES64L-G16RevA.03 25-Dec-2016
                22-Aug-2020 
 ******************************************
 %nprocshared=5
 Will use up to    5 processors via shared memory.
 %Mem=10GB
 %Chk=azadicarboxylate_4_conf231.chk
 ---------------------------------
 # opt=CalcAll B3LYP/6-31G* scf=qc
 ---------------------------------
 1/10=4,18=20,19=15,26=3,38=1/1,3;
 2/9=110,12=2,17=6,18=5,40=1/2;
 3/5=1,6=6,7=1,11=2,25=1,30=1,71=2,74=-5,140=1/1,2,3;
 4//1;
 5/5=2,8=3,38=5/8;
 8/6=4,10=90,11=11/1;
 11/6=1,8=1,9=11,15=111,16=1/1,2,10;
 10/6=1/2;
 6/7=2,8=2,9=2,10=2,18=1,28=1/1;
 7/10=1,25=1/1,2,3,16;
 1/10=4,18=20,19=15,26=3/3(3);
 2/9=110/2;
 7/8=1,9=1,25=1,44=-1/16;
 99//99;
 2/9=110/2;
 3/5=1,6=6,7=1,11=2,25=1,30=1,71=2,74=-5,140=1/1,2,3;
 4/5=5,16=3,69=1/1;
 5/5=2,8=3,38=5/8;
 8/6=4,10=90,11=11/1;
 11/6=1,8=1,9=11,15=111,16=1/1,2,10;
 10/6=1/2;
 7/10=1,25=1/1,2,3,16;
 1/10=4,18=20,19=15,26=3/3(-8);
 2/9=110/2;
 6/7=2,8=2,9=2,10=2,18=1,19=2,28=1/1;
 7/8=1,9=1,25=1,44=-1/16;
 99//99;
 -------------------
 Title Card Required
 -------------------
 Symbolic Z-matrix:
 Charge =  0 Multiplicity = 1
 C                    -2.96575  -0.60915  -0.82244 
 C                    -3.34033  -0.07074   0.5393 
 O1                   -3.88495   1.25179   0.42858 
 C2                   -5.0001    1.3961   -0.3376 
 O3                   -5.55489   0.47553  -0.9276 
 N4                   -5.3965    2.7153   -0.3106 
 N5                   -6.637     2.8452   -0.4364 
 C6                   -7.0368    4.1615   -0.3722 
 O7                   -8.18565   4.58447  -0.45161 
 O8                   -5.93912   4.95333  -0.22895 
 C                    -6.16409   6.36849  -0.16945 
 C                    -7.06667   6.71874   0.99144 
 C                    -6.71961   6.40414   2.31354 
 C                    -7.5637    6.74779   3.37187 
 C                    -8.75522   7.42579   3.12396 
 C                    -9.09825   7.77165   1.81918 
 C                    -8.25701   7.42551   0.75976 
 C                    -3.15702   0.14641  -1.98885 
 C                    -2.79316  -0.36609  -3.23625 
 C                    -2.21734  -1.6311   -3.33142 
 C                    -1.99345  -2.38009  -2.17871 
 C                    -2.35979  -1.87053  -0.93119 
 H                    -2.43303  -0.00383   1.14987 
 H                    -4.02232  -0.76563   1.04169 
 H                    -6.58066   6.76788  -1.10029 
 H                    -5.19205   6.85036  -0.01306 
 H                    -5.78939   5.88233   2.52989 
 H                    -7.29053   6.4852    4.39072 
 H                    -9.41425   7.68757   3.94795 
 H                    -10.02266   8.30996   1.62549 
 H                    -8.54183   7.70894  -0.25172 
 H                    -3.59747   1.1399   -1.93564 
 H                    -2.96022   0.22321  -4.13429 
 H                    -1.94017  -2.03125  -4.30322 
 H                    -1.53462  -3.36293  -2.25065 
 H                    -2.17226  -2.47036  -0.04289 
 

 GradGradGradGradGradGradGradGradGradGradGradGradGradGradGradGradGradGrad
 Berny optimization.
 Initialization pass.
                           ----------------------------
                           !    Initial Parameters    !
                           ! (Angstroms and Degrees)  !
 --------------------------                            --------------------------
 ! Name  Definition              Value          Derivative Info.                !
 --------------------------------------------------------------------------------
 ! R1    R(1,2)                  1.5115         calculate D2E/DX2 analytically  !
 ! R2    R(1,18)                 1.4028         calculate D2E/DX2 analytically  !
 ! R3    R(1,22)                 1.4036         calculate D2E/DX2 analytically  !
 ! R4    R(2,3)                  1.4346         calculate D2E/DX2 analytically  !
 ! R5    R(2,23)                 1.0957         calculate D2E/DX2 analytically  !
 ! R6    R(2,24)                 1.0956         calculate D2E/DX2 analytically  !
 ! R7    R(3,4)                  1.3607         calculate D2E/DX2 analytically  !
 ! R8    R(4,5)                  1.2261         calculate D2E/DX2 analytically  !
 ! R9    R(4,6)                  1.3777         calculate D2E/DX2 analytically  !
 ! R10   R(6,7)                  1.2536         calculate D2E/DX2 analytically  !
 ! R11   R(7,8)                  1.3772         calculate D2E/DX2 analytically  !
 ! R12   R(8,9)                  1.2268         calculate D2E/DX2 analytically  !
 ! R13   R(8,10)                 1.361          calculate D2E/DX2 analytically  !
 ! R14   R(10,11)                1.4342         calculate D2E/DX2 analytically  !
 ! R15   R(11,12)                1.5116         calculate D2E/DX2 analytically  !
 ! R16   R(11,25)                1.0952         calculate D2E/DX2 analytically  !
 ! R17   R(11,26)                1.0961         calculate D2E/DX2 analytically  !
 ! R18   R(12,13)                1.4026         calculate D2E/DX2 analytically  !
 ! R19   R(12,17)                1.4036         calculate D2E/DX2 analytically  !
 ! R20   R(13,14)                1.3967         calculate D2E/DX2 analytically  !
 ! R21   R(13,27)                1.0883         calculate D2E/DX2 analytically  !
 ! R22   R(14,15)                1.3931         calculate D2E/DX2 analytically  !
 ! R23   R(14,28)                1.087          calculate D2E/DX2 analytically  !
 ! R24   R(15,16)                1.3927         calculate D2E/DX2 analytically  !
 ! R25   R(15,29)                1.0871         calculate D2E/DX2 analytically  !
 ! R26   R(16,17)                1.3964         calculate D2E/DX2 analytically  !
 ! R27   R(16,30)                1.0871         calculate D2E/DX2 analytically  !
 ! R28   R(17,31)                1.0884         calculate D2E/DX2 analytically  !
 ! R29   R(18,19)                1.3968         calculate D2E/DX2 analytically  !
 ! R30   R(18,32)                1.088          calculate D2E/DX2 analytically  !
 ! R31   R(19,20)                1.3932         calculate D2E/DX2 analytically  !
 ! R32   R(19,33)                1.087          calculate D2E/DX2 analytically  !
 ! R33   R(20,21)                1.3928         calculate D2E/DX2 analytically  !
 ! R34   R(20,34)                1.0869         calculate D2E/DX2 analytically  !
 ! R35   R(21,22)                1.3965         calculate D2E/DX2 analytically  !
 ! R36   R(21,35)                1.087          calculate D2E/DX2 analytically  !
 ! R37   R(22,36)                1.0881         calculate D2E/DX2 analytically  !
 ! A1    A(2,1,18)             121.5641         calculate D2E/DX2 analytically  !
 ! A2    A(2,1,22)             119.7963         calculate D2E/DX2 analytically  !
 ! A3    A(18,1,22)            118.5849         calculate D2E/DX2 analytically  !
 ! A4    A(1,2,3)              110.6678         calculate D2E/DX2 analytically  !
 ! A5    A(1,2,23)             108.5779         calculate D2E/DX2 analytically  !
 ! A6    A(1,2,24)             109.9656         calculate D2E/DX2 analytically  !
 ! A7    A(3,2,23)             107.523          calculate D2E/DX2 analytically  !
 ! A8    A(3,2,24)             112.5686         calculate D2E/DX2 analytically  !
 ! A9    A(23,2,24)            107.3773         calculate D2E/DX2 analytically  !
 ! A10   A(2,3,4)              116.8962         calculate D2E/DX2 analytically  !
 ! A11   A(3,4,5)              124.2056         calculate D2E/DX2 analytically  !
 ! A12   A(3,4,6)              109.0456         calculate D2E/DX2 analytically  !
 ! A13   A(5,4,6)              126.7376         calculate D2E/DX2 analytically  !
 ! A14   A(4,6,7)              112.4552         calculate D2E/DX2 analytically  !
 ! A15   A(6,7,8)              112.4347         calculate D2E/DX2 analytically  !
 ! A16   A(7,8,9)              126.7533         calculate D2E/DX2 analytically  !
 ! A17   A(7,8,10)             109.0773         calculate D2E/DX2 analytically  !
 ! A18   A(9,8,10)             124.1583         calculate D2E/DX2 analytically  !
 ! A19   A(8,10,11)            116.8676         calculate D2E/DX2 analytically  !
 ! A20   A(10,11,12)           110.7419         calculate D2E/DX2 analytically  !
 ! A21   A(10,11,25)           112.5964         calculate D2E/DX2 analytically  !
 ! A22   A(10,11,26)           107.4934         calculate D2E/DX2 analytically  !
 ! A23   A(12,11,25)           109.9446         calculate D2E/DX2 analytically  !
 ! A24   A(12,11,26)           108.546          calculate D2E/DX2 analytically  !
 ! A25   A(25,11,26)           107.352          calculate D2E/DX2 analytically  !
 ! A26   A(11,12,13)           121.6126         calculate D2E/DX2 analytically  !
 ! A27   A(11,12,17)           119.7543         calculate D2E/DX2 analytically  !
 ! A28   A(13,12,17)           118.5786         calculate D2E/DX2 analytically  !
 ! A29   A(12,13,14)           120.6322         calculate D2E/DX2 analytically  !
 ! A30   A(12,13,27)           120.4255         calculate D2E/DX2 analytically  !
 ! A31   A(14,13,27)           118.9413         calculate D2E/DX2 analytically  !
 ! A32   A(13,14,15)           120.1191         calculate D2E/DX2 analytically  !
 ! A33   A(13,14,28)           119.9285         calculate D2E/DX2 analytically  !
 ! A34   A(15,14,28)           119.9524         calculate D2E/DX2 analytically  !
 ! A35   A(14,15,16)           119.882          calculate D2E/DX2 analytically  !
 ! A36   A(14,15,29)           120.0527         calculate D2E/DX2 analytically  !
 ! A37   A(16,15,29)           120.0649         calculate D2E/DX2 analytically  !
 ! A38   A(15,16,17)           120.0553         calculate D2E/DX2 analytically  !
 ! A39   A(15,16,30)           119.9547         calculate D2E/DX2 analytically  !
 ! A40   A(17,16,30)           119.9899         calculate D2E/DX2 analytically  !
 ! A41   A(12,17,16)           120.697          calculate D2E/DX2 analytically  !
 ! A42   A(12,17,31)           120.4285         calculate D2E/DX2 analytically  !
 ! A43   A(16,17,31)           118.8739         calculate D2E/DX2 analytically  !
 ! A44   A(1,18,19)            120.6237         calculate D2E/DX2 analytically  !
 ! A45   A(1,18,32)            120.4188         calculate D2E/DX2 analytically  !
 ! A46   A(19,18,32)           118.9565         calculate D2E/DX2 analytically  !
 ! A47   A(18,19,20)           120.1215         calculate D2E/DX2 analytically  !
 ! A48   A(18,19,33)           119.9225         calculate D2E/DX2 analytically  !
 ! A49   A(20,19,33)           119.956          calculate D2E/DX2 analytically  !
 ! A50   A(19,20,21)           119.8812         calculate D2E/DX2 analytically  !
 ! A51   A(19,20,34)           120.0514         calculate D2E/DX2 analytically  !
 ! A52   A(21,20,34)           120.0671         calculate D2E/DX2 analytically  !
 ! A53   A(20,21,22)           120.0631         calculate D2E/DX2 analytically  !
 ! A54   A(20,21,35)           119.9531         calculate D2E/DX2 analytically  !
 ! A55   A(22,21,35)           119.9838         calculate D2E/DX2 analytically  !
 ! A56   A(1,22,21)            120.6894         calculate D2E/DX2 analytically  !
 ! A57   A(1,22,36)            120.4338         calculate D2E/DX2 analytically  !
 ! A58   A(21,22,36)           118.8761         calculate D2E/DX2 analytically  !
 ! D1    D(18,1,2,3)             0.0002         calculate D2E/DX2 analytically  !
 ! D2    D(18,1,2,23)         -117.7927         calculate D2E/DX2 analytically  !
 ! D3    D(18,1,2,24)          124.9921         calculate D2E/DX2 analytically  !
 ! D4    D(22,1,2,3)           177.2712         calculate D2E/DX2 analytically  !
 ! D5    D(22,1,2,23)           59.4783         calculate D2E/DX2 analytically  !
 ! D6    D(22,1,2,24)          -57.7368         calculate D2E/DX2 analytically  !
 ! D7    D(2,1,18,19)          179.4488         calculate D2E/DX2 analytically  !
 ! D8    D(2,1,18,32)           -0.9248         calculate D2E/DX2 analytically  !
 ! D9    D(22,1,18,19)           2.1456         calculate D2E/DX2 analytically  !
 ! D10   D(22,1,18,32)        -178.2279         calculate D2E/DX2 analytically  !
 ! D11   D(2,1,22,21)         -179.3349         calculate D2E/DX2 analytically  !
 ! D12   D(2,1,22,36)            0.9782         calculate D2E/DX2 analytically  !
 ! D13   D(18,1,22,21)          -1.9829         calculate D2E/DX2 analytically  !
 ! D14   D(18,1,22,36)         178.3303         calculate D2E/DX2 analytically  !
 ! D15   D(1,2,3,4)             59.2939         calculate D2E/DX2 analytically  !
 ! D16   D(23,2,3,4)           177.7303         calculate D2E/DX2 analytically  !
 ! D17   D(24,2,3,4)           -64.2097         calculate D2E/DX2 analytically  !
 ! D18   D(2,3,4,5)              0.0            calculate D2E/DX2 analytically  !
 ! D19   D(2,3,4,6)            178.8514         calculate D2E/DX2 analytically  !
 ! D20   D(3,4,6,7)           -149.647          calculate D2E/DX2 analytically  !
 ! D21   D(5,4,6,7)             29.1677         calculate D2E/DX2 analytically  !
 ! D22   D(4,6,7,8)            178.3141         calculate D2E/DX2 analytically  !
 ! D23   D(6,7,8,9)           -179.2943         calculate D2E/DX2 analytically  !
 ! D24   D(6,7,8,10)             1.8799         calculate D2E/DX2 analytically  !
 ! D25   D(7,8,10,11)          178.8626         calculate D2E/DX2 analytically  !
 ! D26   D(9,8,10,11)           -0.0004         calculate D2E/DX2 analytically  !
 ! D27   D(8,10,11,12)          59.2945         calculate D2E/DX2 analytically  !
 ! D28   D(8,10,11,25)         -64.2575         calculate D2E/DX2 analytically  !
 ! D29   D(8,10,11,26)         177.7163         calculate D2E/DX2 analytically  !
 ! D30   D(10,11,12,13)         59.2945         calculate D2E/DX2 analytically  !
 ! D31   D(10,11,12,17)       -123.43           calculate D2E/DX2 analytically  !
 ! D32   D(25,11,12,13)       -175.6405         calculate D2E/DX2 analytically  !
 ! D33   D(25,11,12,17)          1.635          calculate D2E/DX2 analytically  !
 ! D34   D(26,11,12,13)        -58.4861         calculate D2E/DX2 analytically  !
 ! D35   D(26,11,12,17)        118.7894         calculate D2E/DX2 analytically  !
 ! D36   D(11,12,13,14)        179.4387         calculate D2E/DX2 analytically  !
 ! D37   D(11,12,13,27)         -0.923          calculate D2E/DX2 analytically  !
 ! D38   D(17,12,13,14)          2.1322         calculate D2E/DX2 analytically  !
 ! D39   D(17,12,13,27)       -178.2295         calculate D2E/DX2 analytically  !
 ! D40   D(11,12,17,16)       -179.3176         calculate D2E/DX2 analytically  !
 ! D41   D(11,12,17,31)          0.9749         calculate D2E/DX2 analytically  !
 ! D42   D(13,12,17,16)         -1.9596         calculate D2E/DX2 analytically  !
 ! D43   D(13,12,17,31)        178.3328         calculate D2E/DX2 analytically  !
 ! D44   D(12,13,14,15)         -0.8836         calculate D2E/DX2 analytically  !
 ! D45   D(12,13,14,28)        179.0839         calculate D2E/DX2 analytically  !
 ! D46   D(27,13,14,15)        179.4728         calculate D2E/DX2 analytically  !
 ! D47   D(27,13,14,28)         -0.5597         calculate D2E/DX2 analytically  !
 ! D48   D(13,14,15,16)         -0.5834         calculate D2E/DX2 analytically  !
 ! D49   D(13,14,15,29)        179.6392         calculate D2E/DX2 analytically  !
 ! D50   D(28,14,15,16)        179.4491         calculate D2E/DX2 analytically  !
 ! D51   D(28,14,15,29)         -0.3283         calculate D2E/DX2 analytically  !
 ! D52   D(14,15,16,17)          0.7559         calculate D2E/DX2 analytically  !
 ! D53   D(14,15,16,30)       -179.3551         calculate D2E/DX2 analytically  !
 ! D54   D(29,15,16,17)       -179.4667         calculate D2E/DX2 analytically  !
 ! D55   D(29,15,16,30)          0.4223         calculate D2E/DX2 analytically  !
 ! D56   D(15,16,17,12)          0.535          calculate D2E/DX2 analytically  !
 ! D57   D(15,16,17,31)       -179.753          calculate D2E/DX2 analytically  !
 ! D58   D(30,16,17,12)       -179.354          calculate D2E/DX2 analytically  !
 ! D59   D(30,16,17,31)          0.3581         calculate D2E/DX2 analytically  !
 ! D60   D(1,18,19,20)          -0.8849         calculate D2E/DX2 analytically  !
 ! D61   D(1,18,19,33)         179.0814         calculate D2E/DX2 analytically  !
 ! D62   D(32,18,19,20)        179.4832         calculate D2E/DX2 analytically  !
 ! D63   D(32,18,19,33)         -0.5504         calculate D2E/DX2 analytically  !
 ! D64   D(18,19,20,21)         -0.5843         calculate D2E/DX2 analytically  !
 ! D65   D(18,19,20,34)        179.6297         calculate D2E/DX2 analytically  !
 ! D66   D(33,19,20,21)        179.4493         calculate D2E/DX2 analytically  !
 ! D67   D(33,19,20,34)         -0.3367         calculate D2E/DX2 analytically  !
 ! D68   D(19,20,21,22)          0.7472         calculate D2E/DX2 analytically  !
 ! D69   D(19,20,21,35)       -179.356          calculate D2E/DX2 analytically  !
 ! D70   D(34,20,21,22)       -179.4668         calculate D2E/DX2 analytically  !
 ! D71   D(34,20,21,35)          0.43           calculate D2E/DX2 analytically  !
 ! D72   D(20,21,22,1)           0.556          calculate D2E/DX2 analytically  !
 ! D73   D(20,21,22,36)       -179.7523         calculate D2E/DX2 analytically  !
 ! D74   D(35,21,22,1)        -179.3407         calculate D2E/DX2 analytically  !
 ! D75   D(35,21,22,36)          0.3509         calculate D2E/DX2 analytically  !
 --------------------------------------------------------------------------------
 Trust Radius=3.00D-01 FncErr=1.00D-07 GrdErr=1.00D-06 EigMax=2.50D+02 EigMin=1.00D-04
 Number of steps in this run=    180 maximum allowed number of steps=    216.
 GradGradGradGradGradGradGradGradGradGradGradGradGradGradGradGradGradGrad

                          Input orientation:                          
 ---------------------------------------------------------------------
 Center     Atomic      Atomic             Coordinates (Angstroms)
 Number     Number       Type             X           Y           Z
 ---------------------------------------------------------------------
      1          6           0       -2.965750   -0.609150   -0.822440
      2          6           0       -3.340330   -0.070740    0.539300
      3          8           0       -3.884950    1.251790    0.428580
      4          6           0       -5.000100    1.396100   -0.337600
      5          8           0       -5.554890    0.475530   -0.927600
      6          7           0       -5.396500    2.715300   -0.310600
      7          7           0       -6.637000    2.845200   -0.436400
      8          6           0       -7.036800    4.161500   -0.372200
      9          8           0       -8.185650    4.584470   -0.451610
     10          8           0       -5.939120    4.953330   -0.228950
     11          6           0       -6.164090    6.368490   -0.169450
     12          6           0       -7.066670    6.718740    0.991440
     13          6           0       -6.719610    6.404140    2.313540
     14          6           0       -7.563700    6.747790    3.371870
     15          6           0       -8.755220    7.425790    3.123960
     16          6           0       -9.098250    7.771650    1.819180
     17          6           0       -8.257010    7.425510    0.759760
     18          6           0       -3.157020    0.146410   -1.988850
     19          6           0       -2.793160   -0.366090   -3.236250
     20          6           0       -2.217340   -1.631100   -3.331420
     21          6           0       -1.993450   -2.380090   -2.178710
     22          6           0       -2.359790   -1.870530   -0.931190
     23          1           0       -2.433030   -0.003830    1.149870
     24          1           0       -4.022320   -0.765630    1.041690
     25          1           0       -6.580660    6.767880   -1.100290
     26          1           0       -5.192050    6.850360   -0.013060
     27          1           0       -5.789390    5.882330    2.529890
     28          1           0       -7.290530    6.485200    4.390720
     29          1           0       -9.414250    7.687570    3.947950
     30          1           0      -10.022660    8.309960    1.625490
     31          1           0       -8.541830    7.708940   -0.251720
     32          1           0       -3.597470    1.139900   -1.935640
     33          1           0       -2.960220    0.223210   -4.134290
     34          1           0       -1.940170   -2.031250   -4.303220
     35          1           0       -1.534620   -3.362930   -2.250650
     36          1           0       -2.172260   -2.470360   -0.042890
 ---------------------------------------------------------------------
                    Distance matrix (angstroms):
                    1          2          3          4          5
     1  C    0.000000
     2  C    1.511467   0.000000
     3  O    2.423443   1.434558   0.000000
     4  C    2.897357   2.382312   1.360668   0.000000
     5  O    2.809134   2.711915   2.287029   1.226108   0.000000
     6  N    4.149999   3.565415   2.230030   1.377734   2.328593
     7  N    5.055654   4.508074   3.295592   2.188400   2.650957
     8  C    6.287707   5.692678   4.363693   3.434644   4.011347
     9  O    7.372826   6.791908   5.511580   4.508484   4.902127
    10  O    6.335167   5.708344   4.284082   3.680686   4.548235
    11  C    7.703456   7.066798   5.633182   5.109580   5.972679
    12  C    8.591023   7.758033   6.350409   5.862385   6.704168
    13  C    8.550560   7.516085   6.175361   5.921632   6.856382
    14  C    9.636283   8.506037   7.238935   6.998057   7.865240
    15  C   10.660783   9.602055   8.312814   7.901929   8.658139
    16  C   10.715574   9.812992   8.462910   7.879985   8.563502
    17  C    9.749695   8.967503   7.572279   6.940133   7.645316
    18  C    1.402843   2.544071   2.756032   2.772237   2.642792
    19  C    2.432148   3.826409   4.152171   4.046983   3.696666
    20  C    2.810601   4.321840   5.022905   5.086320   4.621199
    21  C    2.433324   3.812448   4.854512   5.166163   4.733254
    22  C    1.403600   2.522507   3.731484   4.241987   3.963922
    23  H    2.130777   1.095658   2.050588   3.280582   3.780434
    24  H    2.148443   1.095618   2.112997   2.744371   2.786997
    25  H    8.219814   7.743043   6.327049   5.651185   6.377750
    26  H    7.826608   7.185791   5.766068   5.467277   6.450310
    27  H    7.832648   6.737907   5.429944   5.382540   6.422049
    28  H    9.808698   8.568423   7.394938   7.314507   8.210549
    29  H   11.540162  10.426062   9.185771   8.799617   9.522561
    30  H   11.633695  10.773554   9.429838   8.768198   9.373235
    31  H   10.030404   9.391738   7.990252   7.239004   7.854989
    32  H    2.167363   2.767146   2.384261   2.141668   2.299788
    33  H    3.414851   4.698227   4.767902   4.466725   4.132655
    34  H    3.897437   5.408701   6.078688   6.069270   5.544814
    35  H    3.416317   4.677919   5.830777   6.190128   5.713738
    36  H    2.168277   2.731576   4.124317   4.799276   4.571998
                    6          7          8          9         10
     6  N    0.000000
     7  N    1.253611   0.000000
     8  C    2.187664   1.377174   0.000000
     9  O    3.360512   2.328864   1.226811   0.000000
    10  O    2.304318   2.230310   1.361035   2.287473   0.000000
    11  C    3.735628   3.564895   2.381918   2.710912   1.434165
    12  C    4.529052   4.150621   2.898255   2.808846   2.424334
    13  C    4.716383   4.498338   3.513295   3.620294   3.029566
    14  C    5.875229   5.530995   4.580893   4.436865   4.338808
    15  C    6.727995   6.176150   5.082489   4.602414   5.028467
    16  C    6.618579   5.951076   4.699458   4.018388   4.702964
    17  C    5.613757   5.003446   3.663879   3.089339   3.530133
    18  C    3.798814   4.669457   5.812676   6.880887   5.826132
    19  C    4.983149   5.738175   6.834496   7.832063   6.872929
    20  C    6.174432   6.924724   8.095579   9.085557   8.175065
    21  C    6.405746   7.204294   8.455250   9.477938   8.552714
    22  C    5.535032   6.385723   7.653253   8.708482   7.737558
    23  H    4.278878   5.320394   6.392290   7.530596   6.226335
    24  H    3.979187   4.696743   5.946662   6.941674   6.164021
    25  H    4.295259   3.978862   2.744339   2.786406   2.112676
    26  H    4.150789   4.278832   3.280557   3.779977   2.050230
    27  H    4.272333   4.329143   3.597140   4.039288   2.914903
    28  H    6.316796   6.080937   5.305598   5.278463   5.051167
    29  H    7.681213   7.098182   6.062106   5.522211   6.082688
    30  H    7.513323   6.751125   5.487791   4.644160   5.601894
    31  H    5.901950   5.226706   3.855381   3.151053   3.790515
    32  H    2.891219   3.794010   4.837706   5.926112   4.789401
    33  H    5.173643   5.836774   6.803084   7.738723   6.819059
    34  H    7.100491   7.796940   8.931893   9.879710   9.020844
    35  H    7.458069   8.238123   9.508922  10.518266   9.625335
    36  H    6.112157   6.952980   8.231267   9.278930   8.326766
                   11         12         13         14         15
    11  C    0.000000
    12  C    1.511619   0.000000
    13  C    2.544624   1.402630   0.000000
    14  C    3.826712   2.431939   1.396655   0.000000
    15  C    4.321850   2.810474   2.417490   1.393149   0.000000
    16  C    3.812191   2.433329   2.787903   2.411219   1.392745
    17  C    2.522110   1.403606   2.412681   2.786234   2.416124
    18  C    7.146115   8.207497   8.388194   9.577806  10.510473
    19  C    8.131605   9.291451   9.594436  10.818160  11.692383
    20  C    9.464055  10.579364  10.802828  11.988472  12.901281
    21  C    9.897930  10.889266  10.939817  12.048021  13.038218
    22  C    9.106832   9.981322   9.899822  10.948628  11.990302
    23  H    7.501192   8.166313   7.796857   8.766153   9.953209
    24  H    7.546503   8.079999   7.765216   8.626853   9.686875
    25  H    1.095220   2.148012   3.435964   4.578972   4.796441
    26  H    1.096138   2.130855   2.818798   4.134368   4.782070
    27  H    2.768246   2.167453   1.088302   2.146189   3.395782
    28  H    4.698685   3.414639   2.155736   1.087028   2.152837
    29  H    5.408927   3.897527   3.402877   2.153971   1.087110
    30  H    4.677572   3.416413   3.875010   3.396572   2.152574
    31  H    2.730791   2.168419   3.406398   3.874397   3.394249
    32  H    6.086470   7.192121   7.450873   8.680384   9.576761
    33  H    7.984310   9.237313   9.690791  10.959225  11.753356
    34  H   10.270598  11.440138  11.737988  12.946144  13.821849
    35  H   10.975606  11.948004  11.962926  13.045658  14.050622
    36  H    9.699278  10.462535  10.246361  11.211713  12.300329
                   16         17         18         19         20
    16  C    0.000000
    17  C    1.396377   0.000000
    18  C   10.389591   9.303228   0.000000
    19  C   11.468842  10.321375   1.396802   0.000000
    20  C   12.739204  11.629168   2.417651   1.393153   0.000000
    21  C   13.019951  12.000691   2.788036   2.411249   1.392786
    22  C   12.080688  11.137903   2.412937   2.786476   2.416345
    23  H   10.263100   9.448070   3.224639   4.415764   4.772472
    24  H    9.962666   9.225338   3.280965   4.468919   4.809478
    25  H    3.983606   2.588902   7.506978   8.354700   9.724164
    26  H    4.411834   3.212791   7.279288   8.259587   9.581001
    27  H    3.875976   3.406452   7.762033   9.014905  10.176744
    28  H    3.396413   3.873259   9.897731  11.195409  12.298090
    29  H    2.153738   3.401828  11.457208  12.661477  13.842773
    30  H    1.087119   2.156214  11.262505  12.295366  13.576401
    31  H    2.145265   1.088369   9.444875  10.351847  11.692736
    32  H    9.398796   8.275590   1.088049   2.146277   3.395792
    33  H   11.406058  10.192195   2.155816   1.087042   2.152890
    34  H   13.594806  12.448556   3.402828   2.153781   1.086894
    35  H   14.062393  13.063060   3.875073   3.396525   2.152535
    36  H   12.503416  11.644598   3.406464   3.874405   3.394233
                   21         22         23         24         25
    21  C    0.000000
    22  C    1.396482   0.000000
    23  H    4.113306   2.796559   0.000000
    24  H    4.134461   2.806611   1.765753   0.000000
    25  H   10.290328   9.615949   8.253612   8.239354   0.000000
    26  H   10.006113   9.215128   7.479607   7.777150   1.765534
    27  H   10.239515   9.156859   6.914947   7.037943   3.819491
    28  H   12.239683  11.065855   8.729601   8.629701   5.543917
    29  H   13.927025  12.842456  10.757524  10.439150   5.861722
    30  H   13.900263  12.996098  11.267112  10.895469   4.653520
    31  H   12.181260  11.421276   9.938245   9.691090   2.334920
    32  H    3.875860   3.406385   3.490618   3.560342   6.424281
    33  H    3.396485   3.873514   5.315244   5.375559   8.071273
    34  H    2.153618   3.401837   5.838624   5.874113  10.450722
    35  H    1.087049   2.156186   4.863561   4.875871  11.376254
    36  H    2.145192   1.088136   2.752171   2.739551  10.290635
                   26         27         28         29         30
    26  H    0.000000
    27  H    2.785766   0.000000
    28  H    4.891854   2.465677   0.000000
    29  H    5.849572   4.290617   2.480308   0.000000
    30  H    5.305664   4.963054   4.294273   2.480192   0.000000
    31  H    3.466287   4.318540   4.961405   4.289382   2.465360
    32  H    6.232845   6.872853   9.068283  10.550997  10.265207
    33  H    8.116940   9.189186  11.429781  12.755147  12.183951
    34  H   10.385721  11.141483  13.294392  14.778333  14.401975
    35  H   11.076773  11.244175  13.199392  14.920615  14.944151
    36  H    9.797747   9.458872  11.227450  13.097968  13.439776
                   31         32         33         34         35
    31  H    0.000000
    32  H    8.392531   0.000000
    33  H   10.112610   2.465861   0.000000
    34  H   12.444592   4.290486   2.480248   0.000000
    35  H   13.254547   4.962868   4.294279   2.480098   0.000000
    36  H   12.009712   4.318299   4.961427   4.289183   2.465253
                   36
    36  H    0.000000
 Stoichiometry    C16H14N2O4
 Framework group  C1[X(C16H14N2O4)]
 Deg. of freedom   102
 Full point group                 C1      NOp   1
 Largest Abelian subgroup         C1      NOp   1
 Largest concise Abelian subgroup C1      NOp   1
                         Standard orientation:                         
 ---------------------------------------------------------------------
 Center     Atomic      Atomic             Coordinates (Angstroms)
 Number     Number       Type             X           Y           Z
 ---------------------------------------------------------------------
      1          6           0        4.315604    0.782861   -0.111043
      2          6           0        3.242289    1.842559   -0.013222
      3          8           0        1.954180    1.287948   -0.315110
      4          6           0        1.525261    0.263850    0.471445
      5          8           0        2.166787   -0.202477    1.406498
      6          7           0        0.269617   -0.124739    0.058518
      7          7           0       -0.426327   -0.573666    0.999616
      8          6           0       -1.693862   -0.927409    0.593626
      9          8           0       -2.590238   -1.381331    1.297566
     10          8           0       -1.806070   -0.718950   -0.746661
     11          6           0       -3.060710   -1.058778   -1.352653
     12          6           0       -4.188371   -0.269880   -0.727345
     13          6           0       -4.204057    1.132517   -0.747595
     14          6           0       -5.262233    1.840718   -0.173696
     15          6           0       -6.325843    1.156576    0.410723
     16          6           0       -6.338618   -0.236111    0.411246
     17          6           0       -5.279566   -0.945423   -0.158977
     18          6           0        4.010145   -0.542000   -0.456593
     19          6           0        5.019221   -1.503059   -0.552443
     20          6           0        6.346682   -1.148330   -0.322467
     21          6           0        6.668232    0.169940   -0.008421
     22          6           0        5.660172    1.131223    0.091134
     23          1           0        3.449730    2.619266   -0.757641
     24          1           0        3.274693    2.317900    0.973377
     25          1           0       -3.278590   -2.130633   -1.296423
     26          1           0       -2.996447   -0.793494   -2.414262
     27          1           0       -3.387263    1.686254   -1.206534
     28          1           0       -5.255454    2.927688   -0.182687
     29          1           0       -7.146087    1.708914    0.862312
     30          1           0       -7.173070   -0.771127    0.857647
     31          1           0       -5.311263   -2.033306   -0.151601
     32          1           0        2.980842   -0.837989   -0.648365
     33          1           0        4.767907   -2.529700   -0.806430
     34          1           0        7.130285   -1.898361   -0.391452
     35          1           0        7.704788    0.450189    0.160953
     36          1           0        5.933557    2.156189    0.333509
 ---------------------------------------------------------------------
 Rotational constants (GHZ):           1.0245645           0.0950889           0.0917701
 Standard basis: 6-31G(d) (6D, 7F)
 There are   358 symmetry adapted cartesian basis functions of A   symmetry.
 There are   358 symmetry adapted basis functions of A   symmetry.
   358 basis functions,   672 primitive gaussians,   358 cartesian basis functions
    78 alpha electrons       78 beta electrons
       nuclear repulsion energy      1628.5850744306 Hartrees.
 NAtoms=   36 NActive=   36 NUniq=   36 SFac= 1.00D+00 NAtFMM=   60 NAOKFM=F Big=F
 Integral buffers will be    131072 words long.
 Raffenetti 2 integral format.
 Two-electron integral symmetry is turned on.
 One-electron integrals computed using PRISM.
 NBasis=   358 RedAO= T EigKep=  4.62D-04  NBF=   358
 NBsUse=   358 1.00D-06 EigRej= -1.00D+00 NBFU=   358
 ExpMin= 1.61D-01 ExpMax= 5.48D+03 ExpMxC= 8.25D+02 IAcc=3 IRadAn=         5 AccDes= 0.00D+00
 Harris functional with IExCor=  402 and IRadAn=       5 diagonalized for initial guess.
 HarFok:  IExCor=  402 AccDes= 0.00D+00 IRadAn=         5 IDoV= 1 UseB2=F ITyADJ=14
 ICtDFT=  3500011 ScaDFX=  1.000000  1.000000  1.000000  1.000000
 FoFCou: FMM=F IPFlag=           0 FMFlag=      100000 FMFlg1=           0
         NFxFlg=           0 DoJE=T BraDBF=F KetDBF=T FulRan=T
         wScrn=  0.000000 ICntrl=       500 IOpCl=  0 I1Cent=   200000004 NGrid=           0
         NMat0=    1 NMatS0=      1 NMatT0=    0 NMatD0=    1 NMtDS0=    0 NMtDT0=    0
 Petite list used in FoFCou.
 Gradient too large for Newton-Raphson -- use scaled steepest descent instead.
     Minimum is close to point  2 DX=  1.25D-02 DF= -6.85D-04 DXR=  4.01D-02 DFR=  1.61D-03 which will be used.
 Gradient too large for Newton-Raphson -- use scaled steepest descent instead.
     Minimum is close to point  3 DX=  1.76D-02 DF= -1.23D-04 DXR=  4.21D-02 DFR=  1.74D-03 which will be used.
 Gradient too large for Newton-Raphson -- use scaled steepest descent instead.
     Accept linear search using points  1 and  2.
 Gradient too large for Newton-Raphson -- use scaled steepest descent instead.
     Accept linear search using points  2 and  3.
 Gradient too large for Newton-Raphson -- use scaled steepest descent instead.
 Gradient too large for Newton-Raphson -- use scaled steepest descent instead.
     Accept linear search using points  1 and  2.
 Gradient too large for Newton-Raphson -- use scaled steepest descent instead.
     Accept linear search using points  2 and  3.
 LinEq1:  Iter=  0 NonCon=     1 RMS=5.49D-05 Max=2.97D-03 NDo=     1
 AX will form     1 AO Fock derivatives at one time.
 LinEq1:  Iter=  1 NonCon=     1 RMS=7.85D-05 Max=4.15D-03 NDo=     1
 LinEq1:  Iter=  2 NonCon=     1 RMS=9.11D-06 Max=4.32D-04 NDo=     1
 LinEq1:  Iter=  3 NonCon=     1 RMS=9.64D-06 Max=4.36D-04 NDo=     1
 LinEq1:  Iter=  4 NonCon=     1 RMS=4.81D-06 Max=2.96D-04 NDo=     1
 LinEq1:  Iter=  5 NonCon=     1 RMS=3.00D-06 Max=1.84D-04 NDo=     1
 LinEq1:  Iter=  6 NonCon=     1 RMS=2.02D-06 Max=1.16D-04 NDo=     1
 LinEq1:  Iter=  7 NonCon=     1 RMS=1.57D-06 Max=8.27D-05 NDo=     1
 LinEq1:  Iter=  8 NonCon=     1 RMS=1.34D-06 Max=5.65D-05 NDo=     1
 LinEq1:  Iter=  9 NonCon=     1 RMS=8.80D-07 Max=3.76D-05 NDo=     1
 LinEq1:  Iter= 10 NonCon=     1 RMS=5.42D-07 Max=2.66D-05 NDo=     1
 LinEq1:  Iter= 11 NonCon=     1 RMS=3.80D-07 Max=2.34D-05 NDo=     1
 LinEq1:  Iter= 12 NonCon=     1 RMS=1.74D-07 Max=4.22D-06 NDo=     1
 LinEq1:  Iter= 13 NonCon=     1 RMS=1.02D-07 Max=3.88D-06 NDo=     1
 LinEq1:  Iter= 14 NonCon=     1 RMS=6.17D-08 Max=2.31D-06 NDo=     1
 LinEq1:  Iter= 15 NonCon=     1 RMS=3.81D-08 Max=1.13D-06 NDo=     1
 LinEq1:  Iter= 16 NonCon=     1 RMS=1.83D-08 Max=5.17D-07 NDo=     1
 LinEq1:  Iter= 17 NonCon=     1 RMS=8.90D-09 Max=2.41D-07 NDo=     1
 LinEq1:  Iter= 18 NonCon=     0 RMS=5.35D-09 Max=1.82D-07 NDo=     1
 Linear equations converged to 2.090D-08 2.090D-07 after    18 iterations.
     Accept linear search using points  1 and  2.
     Minimum is close to point  2 DX= -1.28D-03 DF= -4.64D-11 DXR=  1.29D-03 DFR=  1.65D-06 which will be used.
 LinEq1:  Iter=  0 NonCon=     1 RMS=2.48D-07 Max=1.76D-05 NDo=     1
 LinEq1:  Iter=  1 NonCon=     1 RMS=1.70D-07 Max=7.55D-06 NDo=     1
 LinEq1:  Iter=  2 NonCon=     1 RMS=1.44D-07 Max=6.59D-06 NDo=     1
 LinEq1:  Iter=  3 NonCon=     1 RMS=8.95D-08 Max=3.84D-06 NDo=     1
 LinEq1:  Iter=  4 NonCon=     1 RMS=8.16D-08 Max=5.51D-06 NDo=     1
 LinEq1:  Iter=  5 NonCon=     1 RMS=5.32D-08 Max=2.49D-06 NDo=     1
 LinEq1:  Iter=  6 NonCon=     1 RMS=4.56D-08 Max=3.01D-06 NDo=     1
 LinEq1:  Iter=  7 NonCon=     1 RMS=3.15D-08 Max=1.77D-06 NDo=     1
 LinEq1:  Iter=  8 NonCon=     1 RMS=2.15D-08 Max=9.58D-07 NDo=     1
 LinEq1:  Iter=  9 NonCon=     1 RMS=1.81D-08 Max=8.32D-07 NDo=     1
 LinEq1:  Iter= 10 NonCon=     1 RMS=1.24D-08 Max=4.88D-07 NDo=     1
 LinEq1:  Iter= 11 NonCon=     1 RMS=8.85D-09 Max=4.13D-07 NDo=     1
 LinEq1:  Iter= 12 NonCon=     1 RMS=5.99D-09 Max=2.80D-07 NDo=     1
 LinEq1:  Iter= 13 NonCon=     1 RMS=3.01D-09 Max=1.44D-07 NDo=     1
 LinEq1:  Iter= 14 NonCon=     1 RMS=1.77D-09 Max=6.74D-08 NDo=     1
 LinEq1:  Iter= 15 NonCon=     1 RMS=7.99D-10 Max=2.89D-08 NDo=     1
 LinEq1:  Iter= 16 NonCon=     1 RMS=6.51D-10 Max=2.55D-08 NDo=     1
 LinEq1:  Iter= 17 NonCon=     1 RMS=2.76D-10 Max=9.29D-09 NDo=     1
 LinEq1:  Iter= 18 NonCon=     1 RMS=9.97D-11 Max=2.90D-09 NDo=     1
 LinEq1:  Iter= 19 NonCon=     0 RMS=5.22D-11 Max=1.69D-09 NDo=     1
 Linear equations converged to 2.332D-10 2.332D-09 after    19 iterations.
 Restarting incremental Fock formation.
 SCF Done:  E(RB3LYP) =  -1028.43622870     a.u. after   10 cycles
            Convg  =    0.7704D-09                    58 Fock formations.
              S**2 =  0.0000                  -V/T =  2.0091
 DoSCS=F DFT=T ScalE2(SS,OS)=  1.000000  1.000000
 Range of M.O.s used for correlation:     1   358
 NBasis=   358 NAE=    78 NBE=    78 NFC=     0 NFV=     0
 NROrb=    358 NOA=    78 NOB=    78 NVA=   280 NVB=   280

 **** Warning!!: The smallest alpha delta epsilon is  0.95473546D-01

 Symmetrizing basis deriv contribution to polar:
 IMax=3 JMax=2 DiffMx= 0.00D+00
 G2DrvN: will do    37 centers at a time, making    1 passes.
 Calling FoFCou, ICntrl=  3107 FMM=F I1Cent=   0 AccDes= 0.00D+00.
 End of G2Drv F.D. properties file   721 does not exist.
 End of G2Drv F.D. properties file   722 does not exist.
 End of G2Drv F.D. properties file   788 does not exist.
          IDoAtm=111111111111111111111111111111111111
          Differentiating once with respect to electric field.
                with respect to dipole field.
          Differentiating once with respect to nuclear coordinates.
 CalDSu exits because no D1Ps are significant.
          There are   111 degrees of freedom in the 1st order CPHF.  IDoFFX=6 NUNeed=     3.
    108 vectors produced by pass  0 Test12= 2.18D-14 1.00D-09 XBig12= 2.92D+02 4.98D+00.
 AX will form   108 AO Fock derivatives at one time.
    108 vectors produced by pass  1 Test12= 2.18D-14 1.00D-09 XBig12= 8.02D+01 1.99D+00.
    108 vectors produced by pass  2 Test12= 2.18D-14 1.00D-09 XBig12= 1.16D+00 1.24D-01.
    108 vectors produced by pass  3 Test12= 2.18D-14 1.00D-09 XBig12= 8.16D-03 1.07D-02.
    108 vectors produced by pass  4 Test12= 2.18D-14 1.00D-09 XBig12= 1.53D-05 3.80D-04.
     96 vectors produced by pass  5 Test12= 2.18D-14 1.00D-09 XBig12= 1.68D-08 1.21D-05.
     23 vectors produced by pass  6 Test12= 2.18D-14 1.00D-09 XBig12= 1.75D-11 3.19D-07.
      3 vectors produced by pass  7 Test12= 2.18D-14 1.00D-09 XBig12= 1.75D-14 1.28D-08.
 InvSVY:  IOpt=1 It=  1 EMax= 5.33D-15
 Solved reduced A of dimension   662 with   111 vectors.
 Isotropic polarizability for W=    0.000000      191.04 Bohr**3.
 End of Minotr F.D. properties file   721 does not exist.
 End of Minotr F.D. properties file   722 does not exist.
 End of Minotr F.D. properties file   788 does not exist.

 **********************************************************************

            Population analysis using the SCF density.

 **********************************************************************

 Orbital symmetries:
       Occupied  (A) (A) (A) (A) (A) (A) (A) (A) (A) (A) (A) (A)
                 (A) (A) (A) (A) (A) (A) (A) (A) (A) (A) (A) (A)
                 (A) (A) (A) (A) (A) (A) (A) (A) (A) (A) (A) (A)
                 (A) (A) (A) (A) (A) (A) (A) (A) (A) (A) (A) (A)
                 (A) (A) (A) (A) (A) (A) (A) (A) (A) (A) (A) (A)
                 (A) (A) (A) (A) (A) (A) (A) (A) (A) (A) (A) (A)
                 (A) (A) (A) (A) (A) (A)
       Virtual   (A) (A) (A) (A) (A) (A) (A) (A) (A) (A) (A) (A)
                 (A) (A) (A) (A) (A) (A) (A) (A) (A) (A) (A) (A)
                 (A) (A) (A) (A) (A) (A) (A) (A) (A) (A) (A) (A)
                 (A) (A) (A) (A) (A) (A) (A) (A) (A) (A) (A) (A)
                 (A) (A) (A) (A) (A) (A) (A) (A) (A) (A) (A) (A)
                 (A) (A) (A) (A) (A) (A) (A) (A) (A) (A) (A) (A)
                 (A) (A) (A) (A) (A) (A) (A) (A) (A) (A) (A) (A)
                 (A) (A) (A) (A) (A) (A) (A) (A) (A) (A) (A) (A)
                 (A) (A) (A) (A) (A) (A) (A) (A) (A) (A) (A) (A)
                 (A) (A) (A) (A) (A) (A) (A) (A) (A) (A) (A) (A)
                 (A) (A) (A) (A) (A) (A) (A) (A) (A) (A) (A) (A)
                 (A) (A) (A) (A) (A) (A) (A) (A) (A) (A) (A) (A)
                 (A) (A) (A) (A) (A) (A) (A) (A) (A) (A) (A) (A)
                 (A) (A) (A) (A) (A) (A) (A) (A) (A) (A) (A) (A)
                 (A) (A) (A) (A) (A) (A) (A) (A) (A) (A) (A) (A)
                 (A) (A) (A) (A) (A) (A) (A) (A) (A) (A) (A) (A)
                 (A) (A) (A) (A) (A) (A) (A) (A) (A) (A) (A) (A)
                 (A) (A) (A) (A) (A) (A) (A) (A) (A) (A) (A) (A)
                 (A) (A) (A) (A) (A) (A) (A) (A) (A) (A) (A) (A)
                 (A) (A) (A) (A) (A) (A) (A) (A) (A) (A) (A) (A)
                 (A) (A) (A) (A) (A) (A) (A) (A) (A) (A) (A) (A)
                 (A) (A) (A) (A) (A) (A) (A) (A) (A) (A) (A) (A)
                 (A) (A) (A) (A) (A) (A) (A) (A) (A) (A) (A) (A)
                 (A) (A) (A) (A)
 The electronic state is 1-A.
 Alpha  occ. eigenvalues --  -19.21885 -19.20577 -19.16930 -19.15819 -14.42963
 Alpha  occ. eigenvalues --  -14.42828 -10.35691 -10.35604 -10.26597 -10.25792
 Alpha  occ. eigenvalues --  -10.20419 -10.20158 -10.19383 -10.19327 -10.19249
 Alpha  occ. eigenvalues --  -10.19244 -10.19130 -10.19077 -10.19068 -10.19041
 Alpha  occ. eigenvalues --  -10.18889 -10.18749  -1.14765  -1.12582  -1.06892
 Alpha  occ. eigenvalues --   -1.03517  -1.02889  -0.86110  -0.85686  -0.83981
 Alpha  occ. eigenvalues --   -0.78228  -0.76969  -0.74582  -0.74479  -0.71824
 Alpha  occ. eigenvalues --   -0.69882  -0.63643  -0.61129  -0.60850  -0.60259
 Alpha  occ. eigenvalues --   -0.59005  -0.55820  -0.55386  -0.53122  -0.51895
 Alpha  occ. eigenvalues --   -0.51533  -0.50135  -0.48963  -0.47691  -0.47316
 Alpha  occ. eigenvalues --   -0.46919  -0.46193  -0.45946  -0.44319  -0.44018
 Alpha  occ. eigenvalues --   -0.43046  -0.42740  -0.42178  -0.42000  -0.40959
 Alpha  occ. eigenvalues --   -0.38629  -0.37942  -0.37472  -0.36039  -0.35515
 Alpha  occ. eigenvalues --   -0.35398  -0.34924  -0.34299  -0.34170  -0.31912
 Alpha  occ. eigenvalues --   -0.31649  -0.31163  -0.30631  -0.26733  -0.25101
 Alpha  occ. eigenvalues --   -0.24780  -0.24592  -0.23929
 Alpha virt. eigenvalues --   -0.14381  -0.00892  -0.00358  -0.00206   0.00135
 Alpha virt. eigenvalues --    0.00892   0.04900   0.09153   0.09345   0.10305
 Alpha virt. eigenvalues --    0.11314   0.11541   0.12517   0.12787   0.13141
 Alpha virt. eigenvalues --    0.14315   0.14974   0.15388   0.16000   0.17636
 Alpha virt. eigenvalues --    0.18210   0.18857   0.19099   0.19660   0.20131
 Alpha virt. eigenvalues --    0.21726   0.23443   0.24094   0.24677   0.26924
 Alpha virt. eigenvalues --    0.30252   0.30351   0.30491   0.31360   0.31696
 Alpha virt. eigenvalues --    0.32250   0.32999   0.34021   0.34607   0.35339
 Alpha virt. eigenvalues --    0.39775   0.43657   0.45334   0.45642   0.47937
 Alpha virt. eigenvalues --    0.49344   0.50459   0.51763   0.52757   0.53054
 Alpha virt. eigenvalues --    0.53097   0.53801   0.54584   0.54864   0.55106
 Alpha virt. eigenvalues --    0.56535   0.56577   0.57146   0.58105   0.58492
 Alpha virt. eigenvalues --    0.59104   0.59474   0.59926   0.60229   0.60680
 Alpha virt. eigenvalues --    0.60775   0.61363   0.61490   0.61764   0.62125
 Alpha virt. eigenvalues --    0.62911   0.63357   0.64718   0.65036   0.65890
 Alpha virt. eigenvalues --    0.66104   0.67470   0.67712   0.68610   0.69597
 Alpha virt. eigenvalues --    0.70587   0.72513   0.72648   0.75144   0.75551
 Alpha virt. eigenvalues --    0.76506   0.76822   0.80945   0.81588   0.82284
 Alpha virt. eigenvalues --    0.82701   0.82989   0.83566   0.84000   0.84108
 Alpha virt. eigenvalues --    0.84492   0.84607   0.85776   0.86607   0.88684
 Alpha virt. eigenvalues --    0.89424   0.90151   0.90579   0.91600   0.92354
 Alpha virt. eigenvalues --    0.92914   0.94037   0.94419   0.96090   0.97707
 Alpha virt. eigenvalues --    0.97777   0.99849   1.00278   1.01721   1.03157
 Alpha virt. eigenvalues --    1.04570   1.06405   1.06746   1.08788   1.11053
 Alpha virt. eigenvalues --    1.12102   1.12280   1.13181   1.15056   1.15903
 Alpha virt. eigenvalues --    1.16393   1.17194   1.17898   1.20292   1.21666
 Alpha virt. eigenvalues --    1.21944   1.24643   1.26069   1.27785   1.29134
 Alpha virt. eigenvalues --    1.30329   1.31211   1.35122   1.36021   1.37584
 Alpha virt. eigenvalues --    1.39146   1.41167   1.42070   1.43539   1.44162
 Alpha virt. eigenvalues --    1.44640   1.45431   1.46496   1.48048   1.48094
 Alpha virt. eigenvalues --    1.49138   1.49566   1.50156   1.51173   1.51459
 Alpha virt. eigenvalues --    1.52738   1.55600   1.57656   1.60423   1.62685
 Alpha virt. eigenvalues --    1.66034   1.68183   1.70861   1.72192   1.72696
 Alpha virt. eigenvalues --    1.75106   1.76663   1.77147   1.78461   1.79716
 Alpha virt. eigenvalues --    1.80800   1.82178   1.82665   1.83931   1.85306
 Alpha virt. eigenvalues --    1.85817   1.87509   1.88376   1.88814   1.90514
 Alpha virt. eigenvalues --    1.91046   1.91292   1.91753   1.92630   1.94601
 Alpha virt. eigenvalues --    1.97253   1.97573   1.99384   2.00630   2.02327
 Alpha virt. eigenvalues --    2.03024   2.04617   2.05332   2.06340   2.06908
 Alpha virt. eigenvalues --    2.08896   2.09847   2.13373   2.13921   2.14450
 Alpha virt. eigenvalues --    2.14696   2.15305   2.16005   2.16667   2.19379
 Alpha virt. eigenvalues --    2.21639   2.22570   2.24512   2.24741   2.25718
 Alpha virt. eigenvalues --    2.29524   2.30757   2.30991   2.32122   2.33939
 Alpha virt. eigenvalues --    2.34381   2.37234   2.38221   2.39535   2.40700
 Alpha virt. eigenvalues --    2.45092   2.45654   2.49858   2.52799   2.56650
 Alpha virt. eigenvalues --    2.57965   2.58257   2.59125   2.60756   2.64533
 Alpha virt. eigenvalues --    2.65302   2.65407   2.66389   2.68203   2.71180
 Alpha virt. eigenvalues --    2.71606   2.72277   2.72995   2.73772   2.75179
 Alpha virt. eigenvalues --    2.76424   2.77197   2.78615   2.80510   2.81988
 Alpha virt. eigenvalues --    2.85499   2.87530   2.89590   2.94323   2.97611
 Alpha virt. eigenvalues --    3.04274   3.05082   3.08065   3.11834   3.20419
 Alpha virt. eigenvalues --    3.26467   3.40526   3.40814   3.81018   3.93837
 Alpha virt. eigenvalues --    4.00744   4.04091   4.09041   4.09561   4.11420
 Alpha virt. eigenvalues --    4.11706   4.17023   4.19397   4.20545   4.23619
 Alpha virt. eigenvalues --    4.27525   4.34370   4.35575   4.37174   4.38422
 Alpha virt. eigenvalues --    4.39156   4.46969   4.48165   4.70322   4.71316
          Condensed to atoms (all electrons):
               1          2          3          4          5          6
     1  C    4.759194   0.323631  -0.033198  -0.002755  -0.005761  -0.000186
     2  C    0.323631   4.986200   0.208907  -0.028080   0.008331   0.004777
     3  O   -0.033198   0.208907   8.226991   0.268535  -0.078086  -0.091805
     4  C   -0.002755  -0.028080   0.268535   4.321720   0.500405   0.227869
     5  O   -0.005761   0.008331  -0.078086   0.500405   8.082052  -0.075903
     6  N   -0.000186   0.004777  -0.091805   0.227869  -0.075903   7.002001
     7  N   -0.000008  -0.000134   0.001715  -0.049738   0.000148   0.203794
     8  C    0.000000   0.000001  -0.000156   0.005126   0.000464  -0.050302
     9  O    0.000000  -0.000000   0.000000  -0.000120   0.000002   0.001791
    10  O   -0.000000  -0.000000  -0.000003  -0.000027  -0.000010  -0.019161
    11  C   -0.000000  -0.000000  -0.000001   0.000021   0.000000   0.000412
    12  C    0.000000  -0.000000  -0.000000   0.000002   0.000000   0.000089
    13  C   -0.000000  -0.000000  -0.000000   0.000000  -0.000000  -0.000008
    14  C   -0.000000  -0.000000   0.000000   0.000000  -0.000000   0.000000
    15  C    0.000000   0.000000   0.000000  -0.000000   0.000000  -0.000000
    16  C   -0.000000  -0.000000  -0.000000   0.000000  -0.000000  -0.000000
    17  C    0.000000   0.000000  -0.000000   0.000000  -0.000000  -0.000001
    18  C    0.553787  -0.063226  -0.001233   0.008177  -0.011298  -0.002397
    19  C   -0.021408   0.006388   0.000747  -0.000402  -0.001011  -0.000025
    20  C   -0.036248   0.000452  -0.000013  -0.000014  -0.000013   0.000000
    21  C   -0.015313   0.004972  -0.000058  -0.000031   0.000042  -0.000000
    22  C    0.529253  -0.058515   0.001966   0.000454  -0.001022  -0.000006
    23  H   -0.035662   0.372454  -0.027678   0.004530   0.000193  -0.000055
    24  H   -0.039178   0.356047  -0.028243  -0.004692   0.006090  -0.000063
    25  H   -0.000000   0.000000   0.000000   0.000001  -0.000000  -0.000074
    26  H    0.000000   0.000000  -0.000000  -0.000000   0.000000   0.000179
    27  H    0.000000  -0.000000   0.000000  -0.000002   0.000000   0.000045
    28  H    0.000000   0.000000   0.000000  -0.000000   0.000000  -0.000000
    29  H   -0.000000   0.000000  -0.000000   0.000000  -0.000000   0.000000
    30  H    0.000000  -0.000000   0.000000  -0.000000   0.000000  -0.000000
    31  H    0.000000   0.000000   0.000000  -0.000000  -0.000000  -0.000000
    32  H   -0.049932  -0.012437  -0.000656   0.008181  -0.011551   0.000828
    33  H    0.003930  -0.000203   0.000007   0.000045  -0.000005  -0.000002
    34  H    0.000844   0.000011   0.000000  -0.000000   0.000000   0.000000
    35  H    0.003745  -0.000157   0.000000   0.000000  -0.000000   0.000000
    36  H   -0.056217  -0.007365   0.000054   0.000005  -0.000013  -0.000000
               7          8          9         10         11         12
     1  C   -0.000008   0.000000   0.000000  -0.000000  -0.000000   0.000000
     2  C   -0.000134   0.000001  -0.000000  -0.000000  -0.000000  -0.000000
     3  O    0.001715  -0.000156   0.000000  -0.000003  -0.000001  -0.000000
     4  C   -0.049738   0.005126  -0.000120  -0.000027   0.000021   0.000002
     5  O    0.000148   0.000464   0.000002  -0.000010   0.000000   0.000000
     6  N    0.203794  -0.050302   0.001791  -0.019161   0.000412   0.000089
     7  N    7.013394   0.228574  -0.060611  -0.102974   0.005626  -0.001224
     8  C    0.228574   4.222968   0.542345   0.282290  -0.018358  -0.005795
     9  O   -0.060611   0.542345   8.019838  -0.077721   0.004595  -0.004602
    10  O   -0.102974   0.282290  -0.077721   8.254770   0.198177  -0.048133
    11  C    0.005626  -0.018358   0.004595   0.198177   4.976238   0.344287
    12  C   -0.001224  -0.005795  -0.004602  -0.048133   0.344287   4.746619
    13  C   -0.000231   0.001079  -0.001105   0.004080  -0.065275   0.527607
    14  C   -0.000000  -0.000093  -0.000087   0.000186   0.005035  -0.021484
    15  C    0.000001   0.000014   0.000056  -0.000001   0.000413  -0.035080
    16  C    0.000000  -0.000104  -0.000240  -0.000054   0.006049  -0.021444
    17  C    0.000003   0.000368   0.002108   0.000426  -0.045237   0.546614
    18  C    0.000044   0.000004   0.000000   0.000000   0.000000   0.000000
    19  C    0.000002  -0.000000   0.000000   0.000000  -0.000000   0.000000
    20  C    0.000000  -0.000000  -0.000000  -0.000000  -0.000000  -0.000000
    21  C   -0.000000  -0.000000  -0.000000   0.000000  -0.000000   0.000000
    22  C    0.000000   0.000000   0.000000  -0.000000   0.000000   0.000000
    23  H    0.000000  -0.000000   0.000000   0.000000  -0.000000   0.000000
    24  H    0.000034   0.000000  -0.000000   0.000000   0.000000  -0.000000
    25  H   -0.000005  -0.004455   0.004252  -0.027688   0.354690  -0.038641
    26  H   -0.000175   0.003858   0.000187  -0.033275   0.369293  -0.031972
    27  H   -0.000035   0.000325  -0.000024   0.002717  -0.007735  -0.047559
    28  H   -0.000000   0.000002  -0.000001   0.000001  -0.000167   0.003687
    29  H    0.000000  -0.000000   0.000000   0.000000   0.000008   0.000722
    30  H   -0.000000   0.000001  -0.000007   0.000001  -0.000168   0.003947
    31  H    0.000001   0.000119   0.000330   0.000053  -0.010342  -0.041950
    32  H    0.000267  -0.000001  -0.000000  -0.000003  -0.000000   0.000000
    33  H   -0.000000   0.000000   0.000000   0.000000   0.000000  -0.000000
    34  H   -0.000000  -0.000000  -0.000000  -0.000000  -0.000000  -0.000000
    35  H   -0.000000   0.000000   0.000000   0.000000   0.000000   0.000000
    36  H    0.000000   0.000000   0.000000   0.000000   0.000000  -0.000000
              13         14         15         16         17         18
     1  C   -0.000000  -0.000000   0.000000  -0.000000   0.000000   0.553787
     2  C   -0.000000  -0.000000   0.000000  -0.000000   0.000000  -0.063226
     3  O   -0.000000   0.000000   0.000000  -0.000000  -0.000000  -0.001233
     4  C    0.000000   0.000000  -0.000000   0.000000   0.000000   0.008177
     5  O   -0.000000  -0.000000   0.000000  -0.000000  -0.000000  -0.011298
     6  N   -0.000008   0.000000  -0.000000  -0.000000  -0.000001  -0.002397
     7  N   -0.000231  -0.000000   0.000001   0.000000   0.000003   0.000044
     8  C    0.001079  -0.000093   0.000014  -0.000104   0.000368   0.000004
     9  O   -0.001105  -0.000087   0.000056  -0.000240   0.002108   0.000000
    10  O    0.004080   0.000186  -0.000001  -0.000054   0.000426   0.000000
    11  C   -0.065275   0.005035   0.000413   0.006049  -0.045237   0.000000
    12  C    0.527607  -0.021484  -0.035080  -0.021444   0.546614   0.000000
    13  C    4.973802   0.530076  -0.035323  -0.044605  -0.042512   0.000000
    14  C    0.530076   4.855021   0.551268  -0.027821  -0.044018   0.000000
    15  C   -0.035323   0.551268   4.846013   0.551687  -0.035316  -0.000000
    16  C   -0.044605  -0.027821   0.551687   4.858065   0.530335   0.000000
    17  C   -0.042512  -0.044018  -0.035316   0.530335   4.915780   0.000000
    18  C    0.000000   0.000000  -0.000000   0.000000   0.000000   4.900947
    19  C   -0.000000  -0.000000   0.000000   0.000000  -0.000000   0.527708
    20  C   -0.000000  -0.000000   0.000000   0.000000  -0.000000  -0.033329
    21  C    0.000000   0.000000   0.000000   0.000000  -0.000000  -0.044979
    22  C    0.000000  -0.000000  -0.000000  -0.000000   0.000000  -0.028680
    23  H   -0.000000  -0.000000   0.000000  -0.000000  -0.000000  -0.000830
    24  H    0.000000   0.000000  -0.000000   0.000000  -0.000000   0.002961
    25  H    0.006439  -0.000099  -0.000010   0.000145  -0.005561   0.000000
    26  H   -0.007046  -0.000085   0.000023  -0.000268   0.003104  -0.000000
    27  H    0.357439  -0.042267   0.004732   0.000470   0.005299  -0.000000
    28  H   -0.040717   0.358024  -0.042606   0.004623   0.000852  -0.000000
    29  H    0.004805  -0.043299   0.358601  -0.043070   0.004781   0.000000
    30  H    0.000776   0.004677  -0.043466   0.357447  -0.039311  -0.000000
    31  H    0.005896   0.000420   0.004809  -0.044060   0.353418  -0.000000
    32  H   -0.000000  -0.000000   0.000000  -0.000000  -0.000000   0.349711
    33  H    0.000000   0.000000  -0.000000   0.000000   0.000000  -0.039120
    34  H    0.000000   0.000000   0.000000   0.000000   0.000000   0.004870
    35  H    0.000000   0.000000   0.000000   0.000000   0.000000   0.000810
    36  H   -0.000000  -0.000000  -0.000000  -0.000000  -0.000000   0.005120
              19         20         21         22         23         24
     1  C   -0.021408  -0.036248  -0.015313   0.529253  -0.035662  -0.039178
     2  C    0.006388   0.000452   0.004972  -0.058515   0.372454   0.356047
     3  O    0.000747  -0.000013  -0.000058   0.001966  -0.027678  -0.028243
     4  C   -0.000402  -0.000014  -0.000031   0.000454   0.004530  -0.004692
     5  O   -0.001011  -0.000013   0.000042  -0.001022   0.000193   0.006090
     6  N   -0.000025   0.000000  -0.000000  -0.000006  -0.000055  -0.000063
     7  N    0.000002   0.000000  -0.000000   0.000000   0.000000   0.000034
     8  C   -0.000000  -0.000000  -0.000000   0.000000  -0.000000   0.000000
     9  O    0.000000  -0.000000  -0.000000   0.000000   0.000000  -0.000000
    10  O    0.000000  -0.000000   0.000000  -0.000000   0.000000   0.000000
    11  C   -0.000000  -0.000000  -0.000000   0.000000  -0.000000   0.000000
    12  C    0.000000  -0.000000   0.000000   0.000000   0.000000  -0.000000
    13  C   -0.000000  -0.000000   0.000000   0.000000  -0.000000   0.000000
    14  C   -0.000000  -0.000000   0.000000  -0.000000  -0.000000   0.000000
    15  C    0.000000   0.000000   0.000000  -0.000000   0.000000  -0.000000
    16  C    0.000000   0.000000   0.000000  -0.000000  -0.000000   0.000000
    17  C   -0.000000  -0.000000  -0.000000   0.000000  -0.000000  -0.000000
    18  C    0.527708  -0.033329  -0.044979  -0.028680  -0.000830   0.002961
    19  C    4.874184   0.549467  -0.027595  -0.044859  -0.000113  -0.000010
    20  C    0.549467   4.845599   0.554851  -0.036928   0.000023   0.000010
    21  C   -0.027595   0.554851   4.847201   0.532126  -0.000119  -0.000126
    22  C   -0.044859  -0.036928   0.532126   4.960533  -0.001411  -0.002537
    23  H   -0.000113   0.000023  -0.000119  -0.001411   0.542847  -0.039521
    24  H   -0.000010   0.000010  -0.000126  -0.002537  -0.039521   0.563788
    25  H   -0.000000  -0.000000   0.000000  -0.000000   0.000000   0.000000
    26  H    0.000000   0.000000  -0.000000   0.000000   0.000000  -0.000000
    27  H   -0.000000   0.000000  -0.000000   0.000000   0.000000  -0.000000
    28  H   -0.000000   0.000000  -0.000000  -0.000000   0.000000  -0.000000
    29  H    0.000000   0.000000   0.000000   0.000000  -0.000000   0.000000
    30  H   -0.000000   0.000000   0.000000   0.000000   0.000000  -0.000000
    31  H   -0.000000   0.000000  -0.000000  -0.000000   0.000000  -0.000000
    32  H   -0.037912   0.004762   0.000519   0.005314  -0.000160   0.000324
    33  H    0.356695  -0.043066   0.004464   0.001016   0.000003   0.000003
    34  H   -0.042894   0.358053  -0.043590   0.004824  -0.000000  -0.000000
    35  H    0.004676  -0.042668   0.357784  -0.040841   0.000001   0.000002
    36  H    0.000498   0.004991  -0.042238   0.359822   0.001803   0.002289
              25         26         27         28         29         30
     1  C   -0.000000   0.000000   0.000000   0.000000  -0.000000   0.000000
     2  C    0.000000   0.000000  -0.000000   0.000000   0.000000  -0.000000
     3  O    0.000000  -0.000000   0.000000   0.000000  -0.000000   0.000000
     4  C    0.000001  -0.000000  -0.000002  -0.000000   0.000000  -0.000000
     5  O   -0.000000   0.000000   0.000000   0.000000  -0.000000   0.000000
     6  N   -0.000074   0.000179   0.000045  -0.000000   0.000000  -0.000000
     7  N   -0.000005  -0.000175  -0.000035  -0.000000   0.000000  -0.000000
     8  C   -0.004455   0.003858   0.000325   0.000002  -0.000000   0.000001
     9  O    0.004252   0.000187  -0.000024  -0.000001   0.000000  -0.000007
    10  O   -0.027688  -0.033275   0.002717   0.000001   0.000000   0.000001
    11  C    0.354690   0.369293  -0.007735  -0.000167   0.000008  -0.000168
    12  C   -0.038641  -0.031972  -0.047559   0.003687   0.000722   0.003947
    13  C    0.006439  -0.007046   0.357439  -0.040717   0.004805   0.000776
    14  C   -0.000099  -0.000085  -0.042267   0.358024  -0.043299   0.004677
    15  C   -0.000010   0.000023   0.004732  -0.042606   0.358601  -0.043466
    16  C    0.000145  -0.000268   0.000470   0.004623  -0.043070   0.357447
    17  C   -0.005561   0.003104   0.005299   0.000852   0.004781  -0.039311
    18  C    0.000000  -0.000000  -0.000000  -0.000000   0.000000  -0.000000
    19  C   -0.000000   0.000000  -0.000000  -0.000000   0.000000  -0.000000
    20  C   -0.000000   0.000000   0.000000   0.000000   0.000000   0.000000
    21  C    0.000000  -0.000000  -0.000000  -0.000000   0.000000   0.000000
    22  C   -0.000000   0.000000   0.000000  -0.000000   0.000000   0.000000
    23  H    0.000000   0.000000   0.000000   0.000000  -0.000000   0.000000
    24  H    0.000000  -0.000000  -0.000000  -0.000000   0.000000  -0.000000
    25  H    0.578067  -0.039964   0.000123   0.000003  -0.000000  -0.000007
    26  H   -0.039964   0.561322   0.001966  -0.000001  -0.000000   0.000004
    27  H    0.000123   0.001966   0.595661  -0.005524  -0.000185   0.000017
    28  H    0.000003  -0.000001  -0.005524   0.595532  -0.005622  -0.000190
    29  H   -0.000000  -0.000000  -0.000185  -0.005622   0.597635  -0.005723
    30  H   -0.000007   0.000004   0.000017  -0.000190  -0.005723   0.594722
    31  H    0.007783   0.000130  -0.000164   0.000016  -0.000185  -0.005622
    32  H   -0.000000   0.000000   0.000000   0.000000  -0.000000   0.000000
    33  H   -0.000000  -0.000000  -0.000000  -0.000000   0.000000  -0.000000
    34  H    0.000000   0.000000   0.000000   0.000000   0.000000   0.000000
    35  H   -0.000000  -0.000000  -0.000000   0.000000   0.000000   0.000000
    36  H   -0.000000   0.000000   0.000000   0.000000   0.000000   0.000000
              31         32         33         34         35         36
     1  C    0.000000  -0.049932   0.003930   0.000844   0.003745  -0.056217
     2  C    0.000000  -0.012437  -0.000203   0.000011  -0.000157  -0.007365
     3  O    0.000000  -0.000656   0.000007   0.000000   0.000000   0.000054
     4  C   -0.000000   0.008181   0.000045  -0.000000   0.000000   0.000005
     5  O   -0.000000  -0.011551  -0.000005   0.000000  -0.000000  -0.000013
     6  N   -0.000000   0.000828  -0.000002   0.000000   0.000000  -0.000000
     7  N    0.000001   0.000267  -0.000000  -0.000000  -0.000000   0.000000
     8  C    0.000119  -0.000001   0.000000  -0.000000   0.000000   0.000000
     9  O    0.000330  -0.000000   0.000000  -0.000000   0.000000   0.000000
    10  O    0.000053  -0.000003   0.000000  -0.000000   0.000000   0.000000
    11  C   -0.010342  -0.000000   0.000000  -0.000000   0.000000   0.000000
    12  C   -0.041950   0.000000  -0.000000  -0.000000   0.000000  -0.000000
    13  C    0.005896  -0.000000   0.000000   0.000000   0.000000  -0.000000
    14  C    0.000420  -0.000000   0.000000   0.000000   0.000000  -0.000000
    15  C    0.004809   0.000000  -0.000000   0.000000   0.000000  -0.000000
    16  C   -0.044060  -0.000000   0.000000   0.000000   0.000000  -0.000000
    17  C    0.353418  -0.000000   0.000000   0.000000   0.000000  -0.000000
    18  C   -0.000000   0.349711  -0.039120   0.004870   0.000810   0.005120
    19  C   -0.000000  -0.037912   0.356695  -0.042894   0.004676   0.000498
    20  C    0.000000   0.004762  -0.043066   0.358053  -0.042668   0.004991
    21  C   -0.000000   0.000519   0.004464  -0.043590   0.357784  -0.042238
    22  C   -0.000000   0.005314   0.001016   0.004824  -0.040841   0.359822
    23  H    0.000000  -0.000160   0.000003  -0.000000   0.000001   0.001803
    24  H   -0.000000   0.000324   0.000003  -0.000000   0.000002   0.002289
    25  H    0.007783  -0.000000  -0.000000   0.000000  -0.000000  -0.000000
    26  H    0.000130   0.000000  -0.000000   0.000000  -0.000000   0.000000
    27  H   -0.000164   0.000000  -0.000000   0.000000  -0.000000   0.000000
    28  H    0.000016   0.000000  -0.000000   0.000000   0.000000   0.000000
    29  H   -0.000185  -0.000000   0.000000   0.000000   0.000000   0.000000
    30  H   -0.005622   0.000000  -0.000000   0.000000   0.000000   0.000000
    31  H    0.598269   0.000000  -0.000000   0.000000   0.000000  -0.000000
    32  H    0.000000   0.608920  -0.005604  -0.000190   0.000017  -0.000171
    33  H   -0.000000  -0.005604   0.595200  -0.005667  -0.000192   0.000019
    34  H    0.000000  -0.000190  -0.005667   0.600608  -0.005665  -0.000193
    35  H    0.000000   0.000017  -0.000192  -0.005665   0.597696  -0.005796
    36  H   -0.000000  -0.000171   0.000019  -0.000193  -0.005796   0.616446
 Mulliken charges:
               1
     1  C    0.121480
     2  C   -0.102056
     3  O   -0.447795
     4  C    0.740791
     5  O   -0.413054
     6  N   -0.201797
     7  N   -0.238469
     8  C    0.791729
     9  O   -0.430987
    10  O   -0.433651
    11  C   -0.117561
    12  C    0.124311
    13  C   -0.175176
    14  C   -0.125454
    15  C   -0.125815
    16  C   -0.127155
    17  C   -0.151131
    18  C   -0.129048
    19  C   -0.144137
    20  C   -0.125929
    21  C   -0.127911
    22  C   -0.180509
    23  H    0.183696
    24  H    0.182824
    25  H    0.165003
    26  H    0.172722
    27  H    0.134700
    28  H    0.132088
    29  H    0.131532
    30  H    0.132902
    31  H    0.131078
    32  H    0.139774
    33  H    0.132478
    34  H    0.128988
    35  H    0.130588
    36  H    0.120950
 Sum of Mulliken charges =   0.00000
 Mulliken charges with hydrogens summed into heavy atoms:
               1
     1  C    0.121480
     2  C    0.264463
     3  O   -0.447795
     4  C    0.740791
     5  O   -0.413054
     6  N   -0.201797
     7  N   -0.238469
     8  C    0.791729
     9  O   -0.430987
    10  O   -0.433651
    11  C    0.220164
    12  C    0.124311
    13  C   -0.040476
    14  C    0.006634
    15  C    0.005718
    16  C    0.005748
    17  C   -0.020053
    18  C    0.010726
    19  C   -0.011660
    20  C    0.003060
    21  C    0.002678
    22  C   -0.059560
 APT charges:
               1
     1  C   -0.009990
     2  C    0.585171
     3  O   -0.851392
     4  C    1.274888
     5  O   -0.675906
     6  N   -0.245931
     7  N   -0.153864
     8  C    1.087218
     9  O   -0.551267
    10  O   -0.848099
    11  C    0.658278
    12  C   -0.056626
    13  C   -0.046791
    14  C   -0.027915
    15  C   -0.008984
    16  C    0.005700
    17  C   -0.021208
    18  C   -0.027175
    19  C    0.020676
    20  C   -0.038754
    21  C   -0.022519
    22  C   -0.016629
    23  H   -0.040060
    24  H   -0.049311
    25  H   -0.048478
    26  H   -0.048698
    27  H    0.028042
    28  H    0.013674
    29  H    0.012737
    30  H    0.012145
    31  H    0.023107
    32  H    0.019281
    33  H    0.016863
    34  H    0.009705
    35  H    0.009560
    36  H    0.012552
 Sum of APT charges =   0.00000
 APT charges with hydrogens summed into heavy atoms:
               1
     1  C   -0.009990
     2  C    0.495800
     3  O   -0.851392
     4  C    1.274888
     5  O   -0.675906
     6  N   -0.245931
     7  N   -0.153864
     8  C    1.087218
     9  O   -0.551267
    10  O   -0.848099
    11  C    0.561102
    12  C   -0.056626
    13  C   -0.018749
    14  C   -0.014241
    15  C    0.003753
    16  C    0.017845
    17  C    0.001899
    18  C   -0.007893
    19  C    0.037539
    20  C   -0.029049
    21  C   -0.012958
    22  C   -0.004077
 Electronic spatial extent (au):  <R**2>=          11167.3574
 Charge=              0.0000 electrons
 Dipole moment (field-independent basis, Debye):
    X=              0.0364    Y=              1.6625    Z=             -2.7014  Tot=              3.1722
 Quadrupole moment (field-independent basis, Debye-Ang):
   XX=           -105.3368   YY=           -111.6597   ZZ=           -132.5062
   XY=              4.2507   XZ=              0.9955   YZ=              6.7518
 Traceless Quadrupole moment (field-independent basis, Debye-Ang):
   XX=             11.1641   YY=              4.8412   ZZ=            -16.0053
   XY=              4.2507   XZ=              0.9955   YZ=              6.7518
 Octapole moment (field-independent basis, Debye-Ang**2):
  XXX=             17.4291  YYY=              4.3633  ZZZ=             -6.7112  XYY=             10.3148
  XXY=             16.9283  XXZ=             13.6572  XZZ=            -13.3249  YZZ=              3.6106
  YYZ=             -3.8918  XYZ=             -1.6568
 Hexadecapole moment (field-independent basis, Debye-Ang**3):
 XXXX=         -12495.8219 YYYY=           -953.7252 ZZZZ=           -496.8396 XXXY=             52.0642
 XXXZ=           -163.3153 YYYX=             31.7710 YYYZ=              7.4400 ZZZX=             27.8779
 ZZZY=              6.4482 XXYY=          -2198.6395 XXZZ=          -2527.7814 YYZZ=           -256.5067
 XXYZ=             89.8496 YYXZ=              5.5755 ZZXY=             22.7826
 N-N= 1.628585074431D+03 E-N=-5.652951434289D+03  KE= 1.019162853103D+03
  Exact polarizability: 281.769   4.921 182.800 -18.682   4.546 108.562
 Approx polarizability: 364.654  17.419 317.554 -40.141  -3.984 192.105
 Calling FoFJK, ICntrl=    100127 FMM=F ISym2X=0 I1Cent= 0 IOpClX= 0 NMat=1 NMatS=1 NMatT=0.
 ***** Axes restored to original set *****
 -------------------------------------------------------------------
 Center     Atomic                   Forces (Hartrees/Bohr)
 Number     Number              X              Y              Z
 -------------------------------------------------------------------
      1        6           0.009144489   -0.003828646   -0.010225737
      2        6           0.004406339   -0.007242997   -0.013260559
      3        8          -0.009775445    0.010856459    0.002363489
      4        6          -0.005765834   -0.076878916    0.006307460
      5        8           0.002888230    0.024318639    0.016012282
      6        7          -0.006851522    0.029055551    0.000349442
      7        7          -0.000787928   -0.050745935    0.003668026
      8        6          -0.009187671    0.076899411   -0.003255714
      9        8           0.026998819   -0.027225876   -0.002076423
     10        8          -0.007026427    0.012406836   -0.005825789
     11        6          -0.008060523    0.010577120    0.013716160
     12        6          -0.006165815    0.012531155    0.002384051
     13        6           0.000561362   -0.001163040   -0.000083034
     14        6           0.001693141   -0.001386128   -0.001049747
     15        6          -0.001934771    0.000690170    0.002643665
     16        6           0.001073022    0.001059093   -0.002530862
     17        6          -0.000747694    0.000504297    0.003486767
     18        6           0.008456945   -0.001434352   -0.004999294
     19        6           0.000549683    0.001235058    0.002897261
     20        6           0.000560004   -0.001276091   -0.003223269
     21        6          -0.000242464   -0.000057500    0.001882849
     22        6          -0.002439580    0.001358106   -0.000798265
     23        1          -0.004000619    0.008127233    0.002328326
     24        1          -0.005821619    0.004978005    0.000340945
     25        1          -0.000923346   -0.006479031   -0.002239370
     26        1           0.003067775   -0.009049550   -0.002977949
     27        1          -0.000088322   -0.000430735   -0.001985468
     28        1           0.000592903    0.000057754   -0.000371542
     29        1           0.000164683    0.000053431   -0.000051170
     30        1           0.000328072   -0.000239301   -0.000494605
     31        1           0.001300005   -0.002518906    0.000051071
     32        1           0.009072035   -0.005967494   -0.005754067
     33        1          -0.000119021    0.000368485    0.000736153
     34        1           0.000071087   -0.000032145    0.000049252
     35        1           0.000013566    0.000235230    0.000768496
     36        1          -0.001003558    0.000644612    0.001217169
 -------------------------------------------------------------------
 Cartesian Forces:  Max     0.076899411 RMS     0.013578254
 FormGI is forming the generalized inverse of G from B-inverse, IUseBI=4.

 GradGradGradGradGradGradGradGradGradGradGradGradGradGradGradGradGradGrad
 Berny optimization.
 Internal  Forces:  Max     0.071162857 RMS     0.013333419
 Search for a local minimum.
 Step number   1 out of a maximum of  180
 All quantities printed in internal units (Hartrees-Bohrs-Radians)
 Mixed Optimization -- RFO/linear search
 Second derivative matrix not updated -- analytic derivatives used.
 ITU=  0
     Eigenvalues ---   -0.02110  -0.00651  -0.00289   0.00171   0.00597
     Eigenvalues ---    0.00999   0.01368   0.01570   0.01703   0.01706
     Eigenvalues ---    0.01742   0.01760   0.01978   0.02142   0.02205
     Eigenvalues ---    0.02302   0.02331   0.02383   0.02482   0.02656
     Eigenvalues ---    0.02665   0.02754   0.02776   0.02804   0.02835
     Eigenvalues ---    0.03347   0.06319   0.06508   0.07082   0.07608
     Eigenvalues ---    0.07864   0.09997   0.10303   0.10410   0.11114
     Eigenvalues ---    0.11123   0.11634   0.11662   0.11900   0.12061
     Eigenvalues ---    0.12140   0.12541   0.12553   0.12992   0.12996
     Eigenvalues ---    0.13031   0.13581   0.18007   0.18953   0.19157
     Eigenvalues ---    0.19187   0.19378   0.19507   0.19755   0.20872
     Eigenvalues ---    0.21491   0.21916   0.23403   0.24677   0.26009
     Eigenvalues ---    0.26467   0.28248   0.28819   0.29220   0.30432
     Eigenvalues ---    0.31071   0.31151   0.32681   0.32933   0.33413
     Eigenvalues ---    0.33497   0.34833   0.34883   0.35515   0.35531
     Eigenvalues ---    0.35764   0.35873   0.35917   0.35939   0.35952
     Eigenvalues ---    0.36157   0.36159   0.36488   0.38611   0.40528
     Eigenvalues ---    0.41488   0.41623   0.42001   0.44791   0.47217
     Eigenvalues ---    0.47260   0.47335   0.47405   0.49540   0.51172
     Eigenvalues ---    0.51323   0.52736   0.72935   0.78561   0.78738
     Eigenvalues ---    0.91195   1.01935
 RFO step:  Lambda=-4.80317695D-02 EMin=-2.10950716D-02
 Linear search not attempted -- first point.
 Maximum step size (   0.300) exceeded in Quadratic search.
    -- Step size scaled by   0.946
 Iteration  1 RMS(Cart)=  0.33542132 RMS(Int)=  0.04605176
 Iteration  2 RMS(Cart)=  0.30608498 RMS(Int)=  0.02260409
 Iteration  3 RMS(Cart)=  0.15189205 RMS(Int)=  0.00366304
[...]
    97    N    7  py     Val( 2p)     1.24031
    98    N    7  py     Ryd( 3p)     0.00434
    99    N    7  pz     Val( 2p)     1.40755
   100    N    7  pz     Ryd( 3p)     0.00449
   101    N    7  dxy    Ryd( 3d)     0.00157
   102    N    7  dxz    Ryd( 3d)     0.00090
   103    N    7  dyz    Ryd( 3d)     0.00218
   104    N    7  dx2y2  Ryd( 3d)     0.00212
   105    N    7  dz2    Ryd( 3d)     0.00093
 
   106    C    8  S      Cor( 1S)     1.99950
   107    C    8  S      Val( 2S)     0.73042
   108    C    8  S      Ryd( 3S)     0.00399
   109    C    8  S      Ryd( 4S)     0.00046
   110    C    8  px     Val( 2p)     0.79635
   111    C    8  px     Ryd( 3p)     0.00614
   112    C    8  py     Val( 2p)     0.78942
   113    C    8  py     Ryd( 3p)     0.00400
   114    C    8  pz     Val( 2p)     0.71538
   115    C    8  pz     Ryd( 3p)     0.02339
   116    C    8  dxy    Ryd( 3d)     0.00148
   117    C    8  dxz    Ryd( 3d)     0.00404
   118    C    8  dyz    Ryd( 3d)     0.00302
   119    C    8  dx2y2  Ryd( 3d)     0.00121
   120    C    8  dz2    Ryd( 3d)     0.00258
 
   121    O    9  S      Cor( 1S)     1.99977
   122    O    9  S      Val( 2S)     1.70706
   123    O    9  S      Ryd( 3S)     0.00088
   124    O    9  S      Ryd( 4S)     0.00013
   125    O    9  px     Val( 2p)     1.74703
   126    O    9  px     Ryd( 3p)     0.00137
   127    O    9  py     Val( 2p)     1.48236
   128    O    9  py     Ryd( 3p)     0.00077
   129    O    9  pz     Val( 2p)     1.60233
   130    O    9  pz     Ryd( 3p)     0.00050
   131    O    9  dxy    Ryd( 3d)     0.00049
   132    O    9  dxz    Ryd( 3d)     0.00513
   133    O    9  dyz    Ryd( 3d)     0.00487
   134    O    9  dx2y2  Ryd( 3d)     0.00038
   135    O    9  dz2    Ryd( 3d)     0.00614
 
   136    O   10  S      Cor( 1S)     1.99973
   137    O   10  S      Val( 2S)     1.62920
   138    O   10  S      Ryd( 3S)     0.00200
   139    O   10  S      Ryd( 4S)     0.00010
   140    O   10  px     Val( 2p)     1.42894
   141    O   10  px     Ryd( 3p)     0.00097
   142    O   10  py     Val( 2p)     1.76537
   143    O   10  py     Ryd( 3p)     0.00181
   144    O   10  pz     Val( 2p)     1.68748
   145    O   10  pz     Ryd( 3p)     0.00150
   146    O   10  dxy    Ryd( 3d)     0.00029
   147    O   10  dxz    Ryd( 3d)     0.00154
   148    O   10  dyz    Ryd( 3d)     0.00200
   149    O   10  dx2y2  Ryd( 3d)     0.00059
   150    O   10  dz2    Ryd( 3d)     0.00147
 
   151    C   11  S      Cor( 1S)     1.99912
   152    C   11  S      Val( 2S)     1.03264
   153    C   11  S      Ryd( 3S)     0.00119
   154    C   11  S      Ryd( 4S)     0.00005
   155    C   11  px     Val( 2p)     0.71423
   156    C   11  px     Ryd( 3p)     0.00285
   157    C   11  py     Val( 2p)     1.10631
   158    C   11  py     Ryd( 3p)     0.00136
   159    C   11  pz     Val( 2p)     1.25200
   160    C   11  pz     Ryd( 3p)     0.00758
   161    C   11  dxy    Ryd( 3d)     0.00127
   162    C   11  dxz    Ryd( 3d)     0.00110
   163    C   11  dyz    Ryd( 3d)     0.00098
   164    C   11  dx2y2  Ryd( 3d)     0.00170
   165    C   11  dz2    Ryd( 3d)     0.00106
 
   166    C   12  S      Cor( 1S)     1.99901
   167    C   12  S      Val( 2S)     0.88903
   168    C   12  S      Ryd( 3S)     0.00070
   169    C   12  S      Ryd( 4S)     0.00006
   170    C   12  px     Val( 2p)     1.03088
   171    C   12  px     Ryd( 3p)     0.00191
   172    C   12  py     Val( 2p)     1.06138
   173    C   12  py     Ryd( 3p)     0.00460
   174    C   12  pz     Val( 2p)     1.09647
   175    C   12  pz     Ryd( 3p)     0.00443
   176    C   12  dxy    Ryd( 3d)     0.00036
   177    C   12  dxz    Ryd( 3d)     0.00057
   178    C   12  dyz    Ryd( 3d)     0.00075
   179    C   12  dx2y2  Ryd( 3d)     0.00053
   180    C   12  dz2    Ryd( 3d)     0.00060
 
   181    C   13  S      Cor( 1S)     1.99903
   182    C   13  S      Val( 2S)     0.95420
   183    C   13  S      Ryd( 3S)     0.00062
   184    C   13  S      Ryd( 4S)     0.00005
   185    C   13  px     Val( 2p)     0.99057
   186    C   13  px     Ryd( 3p)     0.00080
   187    C   13  py     Val( 2p)     1.08083
   188    C   13  py     Ryd( 3p)     0.00393
   189    C   13  pz     Val( 2p)     1.17393
   190    C   13  pz     Ryd( 3p)     0.00500
   191    C   13  dxy    Ryd( 3d)     0.00048
   192    C   13  dxz    Ryd( 3d)     0.00035
   193    C   13  dyz    Ryd( 3d)     0.00076
   194    C   13  dx2y2  Ryd( 3d)     0.00043
   195    C   13  dz2    Ryd( 3d)     0.00076
 
   196    C   14  S      Cor( 1S)     1.99910
   197    C   14  S      Val( 2S)     0.96157
   198    C   14  S      Ryd( 3S)     0.00058
   199    C   14  S      Ryd( 4S)     0.00003
   200    C   14  px     Val( 2p)     1.00605
   201    C   14  px     Ryd( 3p)     0.00089
   202    C   14  py     Val( 2p)     1.10173
   203    C   14  py     Ryd( 3p)     0.00452
   204    C   14  pz     Val( 2p)     1.14829
   205    C   14  pz     Ryd( 3p)     0.00505
   206    C   14  dxy    Ryd( 3d)     0.00045
   207    C   14  dxz    Ryd( 3d)     0.00044
   208    C   14  dyz    Ryd( 3d)     0.00082
   209    C   14  dx2y2  Ryd( 3d)     0.00043
   210    C   14  dz2    Ryd( 3d)     0.00062
 
   211    C   15  S      Cor( 1S)     1.99910
   212    C   15  S      Val( 2S)     0.96502
   213    C   15  S      Ryd( 3S)     0.00053
   214    C   15  S      Ryd( 4S)     0.00003
   215    C   15  px     Val( 2p)     0.99731
   216    C   15  px     Ryd( 3p)     0.00090
   217    C   15  py     Val( 2p)     1.18275
   218    C   15  py     Ryd( 3p)     0.00486
   219    C   15  pz     Val( 2p)     1.06517
   220    C   15  pz     Ryd( 3p)     0.00436
   221    C   15  dxy    Ryd( 3d)     0.00041
   222    C   15  dxz    Ryd( 3d)     0.00052
   223    C   15  dyz    Ryd( 3d)     0.00063
   224    C   15  dx2y2  Ryd( 3d)     0.00061
   225    C   15  dz2    Ryd( 3d)     0.00062
 
   226    C   16  S      Cor( 1S)     1.99910
   227    C   16  S      Val( 2S)     0.96236
   228    C   16  S      Ryd( 3S)     0.00058
   229    C   16  S      Ryd( 4S)     0.00003
   230    C   16  px     Val( 2p)     0.99778
   231    C   16  px     Ryd( 3p)     0.00084
   232    C   16  py     Val( 2p)     1.07644
   233    C   16  py     Ryd( 3p)     0.00440
   234    C   16  pz     Val( 2p)     1.17960
   235    C   16  pz     Ryd( 3p)     0.00522
   236    C   16  dxy    Ryd( 3d)     0.00046
   237    C   16  dxz    Ryd( 3d)     0.00037
   238    C   16  dyz    Ryd( 3d)     0.00073
   239    C   16  dx2y2  Ryd( 3d)     0.00043
   240    C   16  dz2    Ryd( 3d)     0.00078
 
   241    C   17  S      Cor( 1S)     1.99903
   242    C   17  S      Val( 2S)     0.95732
   243    C   17  S      Ryd( 3S)     0.00062
   244    C   17  S      Ryd( 4S)     0.00004
   245    C   17  px     Val( 2p)     0.98582
   246    C   17  px     Ryd( 3p)     0.00092
   247    C   17  py     Val( 2p)     1.10914
   248    C   17  py     Ryd( 3p)     0.00424
   249    C   17  pz     Val( 2p)     1.14704
   250    C   17  pz     Ryd( 3p)     0.00474
   251    C   17  dxy    Ryd( 3d)     0.00047
   252    C   17  dxz    Ryd( 3d)     0.00044
   253    C   17  dyz    Ryd( 3d)     0.00084
   254    C   17  dx2y2  Ryd( 3d)     0.00044
   255    C   17  dz2    Ryd( 3d)     0.00061
 
   256    C   18  S      Cor( 1S)     1.99903
   257    C   18  S      Val( 2S)     0.95753
   258    C   18  S      Ryd( 3S)     0.00062
   259    C   18  S      Ryd( 4S)     0.00004
   260    C   18  px     Val( 2p)     1.00667
   261    C   18  px     Ryd( 3p)     0.00154
   262    C   18  py     Val( 2p)     1.07910
   263    C   18  py     Ryd( 3p)     0.00359
   264    C   18  pz     Val( 2p)     1.15565
   265    C   18  pz     Ryd( 3p)     0.00480
   266    C   18  dxy    Ryd( 3d)     0.00046
   267    C   18  dxz    Ryd( 3d)     0.00051
   268    C   18  dyz    Ryd( 3d)     0.00074
   269    C   18  dx2y2  Ryd( 3d)     0.00044
   270    C   18  dz2    Ryd( 3d)     0.00064
 
   271    C   19  S      Cor( 1S)     1.99910
   272    C   19  S      Val( 2S)     0.96251
   273    C   19  S      Ryd( 3S)     0.00058
   274    C   19  S      Ryd( 4S)     0.00003
   275    C   19  px     Val( 2p)     1.00897
   276    C   19  px     Ryd( 3p)     0.00139
   277    C   19  py     Val( 2p)     1.07204
   278    C   19  py     Ryd( 3p)     0.00391
   279    C   19  pz     Val( 2p)     1.17275
   280    C   19  pz     Ryd( 3p)     0.00518
   281    C   19  dxy    Ryd( 3d)     0.00042
   282    C   19  dxz    Ryd( 3d)     0.00042
   283    C   19  dyz    Ryd( 3d)     0.00072
   284    C   19  dx2y2  Ryd( 3d)     0.00046
   285    C   19  dz2    Ryd( 3d)     0.00074
 
   286    C   20  S      Cor( 1S)     1.99910
   287    C   20  S      Val( 2S)     0.96535
   288    C   20  S      Ryd( 3S)     0.00053
   289    C   20  S      Ryd( 4S)     0.00003
   290    C   20  px     Val( 2p)     1.02534
   291    C   20  px     Ryd( 3p)     0.00152
   292    C   20  py     Val( 2p)     1.15514
   293    C   20  py     Ryd( 3p)     0.00426
   294    C   20  pz     Val( 2p)     1.06292
   295    C   20  pz     Ryd( 3p)     0.00433
   296    C   20  dxy    Ryd( 3d)     0.00056
   297    C   20  dxz    Ryd( 3d)     0.00054
   298    C   20  dyz    Ryd( 3d)     0.00060
   299    C   20  dx2y2  Ryd( 3d)     0.00046
   300    C   20  dz2    Ryd( 3d)     0.00063
 
   301    C   21  S      Cor( 1S)     1.99910
   302    C   21  S      Val( 2S)     0.96186
   303    C   21  S      Ryd( 3S)     0.00058
   304    C   21  S      Ryd( 4S)     0.00003
   305    C   21  px     Val( 2p)     1.02253
   306    C   21  px     Ryd( 3p)     0.00147
   307    C   21  py     Val( 2p)     1.07674
   308    C   21  py     Ryd( 3p)     0.00391
   309    C   21  pz     Val( 2p)     1.15621
   310    C   21  pz     Ryd( 3p)     0.00508
   311    C   21  dxy    Ryd( 3d)     0.00045
   312    C   21  dxz    Ryd( 3d)     0.00051
   313    C   21  dyz    Ryd( 3d)     0.00072
   314    C   21  dx2y2  Ryd( 3d)     0.00043
   315    C   21  dz2    Ryd( 3d)     0.00065
 
   316    C   22  S      Cor( 1S)     1.99903
   317    C   22  S      Val( 2S)     0.95446
   318    C   22  S      Ryd( 3S)     0.00062
   319    C   22  S      Ryd( 4S)     0.00005
   320    C   22  px     Val( 2p)     1.00294
   321    C   22  px     Ryd( 3p)     0.00132
   322    C   22  py     Val( 2p)     1.07499
   323    C   22  py     Ryd( 3p)     0.00351
   324    C   22  pz     Val( 2p)     1.16642
   325    C   22  pz     Ryd( 3p)     0.00491
   326    C   22  dxy    Ryd( 3d)     0.00043
   327    C   22  dxz    Ryd( 3d)     0.00041
   328    C   22  dyz    Ryd( 3d)     0.00075
   329    C   22  dx2y2  Ryd( 3d)     0.00048
   330    C   22  dz2    Ryd( 3d)     0.00071
 
   331    H   23  S      Val( 1S)     0.75701
   332    H   23  S      Ryd( 2S)     0.00119
 
   333    H   24  S      Val( 1S)     0.75508
   334    H   24  S      Ryd( 2S)     0.00215
 
   335    H   25  S      Val( 1S)     0.75581
   336    H   25  S      Ryd( 2S)     0.00222
 
   337    H   26  S      Val( 1S)     0.75750
   338    H   26  S      Ryd( 2S)     0.00114
 
   339    H   27  S      Val( 1S)     0.76196
   340    H   27  S      Ryd( 2S)     0.00106
 
   341    H   28  S      Val( 1S)     0.75979
   342    H   28  S      Ryd( 2S)     0.00085
 
   343    H   29  S      Val( 1S)     0.76070
   344    H   29  S      Ryd( 2S)     0.00082
 
   345    H   30  S      Val( 1S)     0.75898
   346    H   30  S      Ryd( 2S)     0.00084
 
   347    H   31  S      Val( 1S)     0.74690
   348    H   31  S      Ryd( 2S)     0.00135
 
   349    H   32  S      Val( 1S)     0.74713
   350    H   32  S      Ryd( 2S)     0.00141
 
   351    H   33  S      Val( 1S)     0.75837
   352    H   33  S      Ryd( 2S)     0.00083
 
   353    H   34  S      Val( 1S)     0.76011
   354    H   34  S      Ryd( 2S)     0.00082
 
   355    H   35  S      Val( 1S)     0.75922
   356    H   35  S      Ryd( 2S)     0.00084
 
   357    H   36  S      Val( 1S)     0.76124
   358    H   36  S      Ryd( 2S)     0.00106


 Summary of Natural Population Analysis:                  
                                                          
                                       Natural Population 
                Natural  -----------------------------------------------
    Atom  No    Charge         Core      Valence    Rydberg      Total
 -----------------------------------------------------------------------
      C    1   -0.09157      1.99901     4.07803    0.01454     6.09157
      C    2   -0.12514      1.99912     4.10702    0.01900     6.12514
      O    3   -0.52049      1.99973     6.50841    0.01235     8.52049
      C    4    0.92283      1.99950     3.02711    0.05055     5.07717
      O    5   -0.55198      1.99977     6.53158    0.02064     8.55198
      N    6   -0.21242      1.99938     5.18686    0.02618     7.21242
      N    7   -0.21741      1.99938     5.19161    0.02641     7.21741
      C    8    0.91861      1.99950     3.03156    0.05032     5.08139
      O    9   -0.55921      1.99977     6.53878    0.02066     8.55921
      O   10   -0.52299      1.99973     6.51098    0.01228     8.52299
      C   11   -0.12342      1.99912     4.10518    0.01912     6.12342
      C   12   -0.09127      1.99901     4.07776    0.01450     6.09127
      C   13   -0.21173      1.99903     4.19953    0.01317     6.21173
      C   14   -0.23057      1.99910     4.21764    0.01383     6.23057
      C   15   -0.22282      1.99910     4.21025    0.01347     6.22282
      C   16   -0.22911      1.99910     4.21618    0.01383     6.22911
      C   17   -0.21170      1.99903     4.19931    0.01335     6.21170
      C   18   -0.21137      1.99903     4.19894    0.01339     6.21137
      C   19   -0.22924      1.99910     4.21628    0.01386     6.22924
      C   20   -0.22132      1.99910     4.20875    0.01347     6.22132
      C   21   -0.23028      1.99910     4.21734    0.01384     6.23028
      C   22   -0.21102      1.99903     4.19881    0.01318     6.21102
      H   23    0.24180      0.00000     0.75701    0.00119     0.75820
      H   24    0.24277      0.00000     0.75508    0.00215     0.75723
      H   25    0.24197      0.00000     0.75581    0.00222     0.75803
      H   26    0.24136      0.00000     0.75750    0.00114     0.75864
      H   27    0.23698      0.00000     0.76196    0.00106     0.76302
      H   28    0.23936      0.00000     0.75979    0.00085     0.76064
      H   29    0.23847      0.00000     0.76070    0.00082     0.76153
      H   30    0.24019      0.00000     0.75898    0.00084     0.75981
      H   31    0.25175      0.00000     0.74690    0.00135     0.74825
      H   32    0.25146      0.00000     0.74713    0.00141     0.74854
      H   33    0.24080      0.00000     0.75837    0.00083     0.75920
      H   34    0.23907      0.00000     0.76011    0.00082     0.76093
      H   35    0.23994      0.00000     0.75922    0.00084     0.76006
      H   36    0.23770      0.00000     0.76124    0.00106     0.76230
 =======================================================================
   * Total *    0.00000     43.98374   111.57773    0.43853   156.00000

                                 Natural Population      
 --------------------------------------------------------
   Core                      43.98374 ( 99.9630% of  44)
   Valence                  111.57773 ( 99.6230% of 112)
   Natural Minimal Basis    155.56147 ( 99.7189% of 156)
   Natural Rydberg Basis      0.43853 (  0.2811% of 156)
 --------------------------------------------------------

    Atom  No          Natural Electron Configuration
 ----------------------------------------------------------------------------
      C    1      [core]2S( 0.89)2p( 3.19)3p( 0.01)
      C    2      [core]2S( 1.03)2p( 3.07)3p( 0.01)3d( 0.01)
      O    3      [core]2S( 1.63)2p( 4.88)3d( 0.01)
      C    4      [core]2S( 0.73)2p( 2.30)3p( 0.03)3d( 0.01)
      O    5      [core]2S( 1.71)2p( 4.82)3d( 0.02)
      N    6      [core]2S( 1.39)2p( 3.80)3S( 0.01)3p( 0.01)3d( 0.01)
      N    7      [core]2S( 1.39)2p( 3.80)3S( 0.01)3p( 0.01)3d( 0.01)
      C    8      [core]2S( 0.73)2p( 2.30)3p( 0.03)3d( 0.01)
      O    9      [core]2S( 1.71)2p( 4.83)3d( 0.02)
      O   10      [core]2S( 1.63)2p( 4.88)3d( 0.01)
      C   11      [core]2S( 1.03)2p( 3.07)3p( 0.01)3d( 0.01)
      C   12      [core]2S( 0.89)2p( 3.19)3p( 0.01)
      C   13      [core]2S( 0.95)2p( 3.25)3p( 0.01)
      C   14      [core]2S( 0.96)2p( 3.26)3p( 0.01)
      C   15      [core]2S( 0.97)2p( 3.25)3p( 0.01)
      C   16      [core]2S( 0.96)2p( 3.25)3p( 0.01)
      C   17      [core]2S( 0.96)2p( 3.24)3p( 0.01)
      C   18      [core]2S( 0.96)2p( 3.24)3p( 0.01)
      C   19      [core]2S( 0.96)2p( 3.25)3p( 0.01)
      C   20      [core]2S( 0.97)2p( 3.24)3p( 0.01)
      C   21      [core]2S( 0.96)2p( 3.26)3p( 0.01)
      C   22      [core]2S( 0.95)2p( 3.24)3p( 0.01)
      H   23            1S( 0.76)
      H   24            1S( 0.76)
      H   25            1S( 0.76)
      H   26            1S( 0.76)
      H   27            1S( 0.76)
      H   28            1S( 0.76)
      H   29            1S( 0.76)
      H   30            1S( 0.76)
      H   31            1S( 0.75)
      H   32            1S( 0.75)
      H   33            1S( 0.76)
      H   34            1S( 0.76)
      H   35            1S( 0.76)
      H   36            1S( 0.76)


 NBO analysis skipped by request.
 1\1\GINC-DELLA-R4C4N5\SP\RB3LYP TD-FC\6-31G(d)\C16H14N2O4\BJS4\22-Aug-
 2020\0\\# TD(NStates=10, Root=1) B3LYP/6-31G* scf=qc volume pop=NPA de
 nsity=current Geom=AllCheck Guess=Read\\Title Card Required\\0,1\C,0,-
 3.5726514911,-0.8123162544,-1.4141832092\C,0,-4.982080587,-0.656296435
 5,-1.9188368033\O,0,-5.6720860384,0.4609874315,-1.2617277294\C,0,-5.56
 02576341,1.6501112458,-1.8456664778\O,0,-4.9785195149,1.935439626,-2.8
 631228991\N,0,-6.1645108849,2.6709326402,-1.0143072906\N,0,-7.39938212
 94,2.7457825434,-1.1564992031\C,0,-8.0027004888,3.7700008848,-0.327043
 8878\O,0,-8.7131942709,3.4736590878,0.6018994846\O,0,-7.7450118258,4.9
 790615286,-0.8168284246\C,0,-8.4018842281,6.1065046338,-0.1446340256\C
 ,0,-7.5540028822,6.6625933058,0.9678269174\C,0,-6.6104194633,7.6625505
 817,0.7010081226\C,0,-5.8154557729,8.1775940832,1.7245549061\C,0,-5.95
 86493772,7.6960454056,3.0273617711\C,0,-6.8969320657,6.6988920725,3.30
 19438437\C,0,-7.6911968783,6.1835512439,2.2777110864\C,0,-2.5082082511
 ,-0.1685309255,-2.0599144607\C,0,-1.2057313044,-0.3098789235,-1.581077
 0685\C,0,-0.954608577,-1.0945366274,-0.4535920211\C,0,-2.009973803,-1.
 7384105073,0.1957069922\C,0,-3.3119001233,-1.5972056773,-0.2837653489\
 H,0,-5.6004195268,-1.517577706,-1.6613169861\H,0,-5.0143436119,-0.4866
 381776,-2.9962353764\H,0,-9.3733788725,5.7630742602,0.2157503206\H,0,-
 8.5389599771,6.8326747288,-0.9475061976\H,0,-6.4993228785,8.0386227578
 ,-0.3134842205\H,0,-5.0878109604,8.9545316773,1.5064293008\H,0,-5.3418
 060957,8.0981117686,3.8266683297\H,0,-7.0115196408,6.32252777,4.314823
 2526\H,0,-8.4141751643,5.4001898801,2.4855368798\H,0,-2.7084895588,0.4
 494525275,-2.9302979833\H,0,-0.3867170193,0.191671001,-2.0893642574\H,
 0,0.0609143554,-1.2058072062,-0.0829618688\H,0,-1.8190178791,-2.351782
 9844,1.0720708666\H,0,-4.1334555785,-2.1001912608,0.2212836657\\Versio
 n=ES64L-G16RevA.03\State=1-A\HF=-1028.4826391\RMSD=2.485e-09\Dipole=0.
 6336519,0.0333289,0.3570145\Quadrupole=-3.1514786,9.9889617,-6.8374831
 ,-6.4195369,2.8290069,2.6126412\PG=C01 [X(C16H14N2O4)]\\@


 THE BEST WAY TO CONVINCE A FOOL THAT HE IS WRONG 
 IS TO LET HIM HAVE HIS OWN WAY.

                                         JOSH BILLINGS
 Job cpu time:       0 days  0 hours 54 minutes 21.9 seconds.
 Elapsed time:       0 days  0 hours 10 minutes 52.9 seconds.
 File lengths (MBytes):  RWF=   1047 Int=      0 D2E=      0 Chk=    268 Scr=      1
 Normal termination of Gaussian 16 at Sat Aug 22 17:30:16 2020.
