 Entering Gaussian System, Link 0=g16
 Input=azadicarboxylate_5_conf29123.com
 Output=azadicarboxylate_5_conf29123.log
 Initial command:
 /opt/export//g16/l1.exe "/scratch/bjs4/job.166440/Gau-166442.inp" -scrdir="/scratch/bjs4/job.166440/"
 Entering Link 1 = /opt/export//g16/l1.exe PID=    166443.
  
 Copyright (c) 1988,1990,1992,1993,1995,1998,2003,2009,2016,
            Gaussian, Inc.  All Rights Reserved.
  
 This is part of the Gaussian(R) 16 program.  It is based on
 the Gaussian(R) 09 system (copyright 2009, Gaussian, Inc.),
 the Gaussian(R) 03 system (copyright 2003, Gaussian, Inc.),
 the Gaussian(R) 98 system (copyright 1998, Gaussian, Inc.),
 the Gaussian(R) 94 system (copyright 1995, Gaussian, Inc.),
 the Gaussian 92(TM) system (copyright 1992, Gaussian, Inc.),
 the Gaussian 90(TM) system (copyright 1990, Gaussian, Inc.),
 the Gaussian 88(TM) system (copyright 1988, Gaussian, Inc.),
 the Gaussian 86(TM) system (copyright 1986, Carnegie Mellon
 University), and the Gaussian 82(TM) system (copyright 1983,
 Carnegie Mellon University). Gaussian is a federally registered
 trademark of Gaussian, Inc.
  
 This software contains proprietary and confidential information,
 including trade secrets, belonging to Gaussian, Inc.
  
 This software is provided under written license and may be
 used, copied, transmitted, or stored only in accord with that
 written license.
  
 The following legend is applicable only to US Government
 contracts under FAR:
  
                    RESTRICTED RIGHTS LEGEND
  
 Use, reproduction and disclosure by the US Government is
 subject to restrictions as set forth in subparagraphs (a)
 and (c) of the Commercial Computer Software - Restricted
 Rights clause in FAR 52.227-19.
  
 Gaussian, Inc.
 340 Quinnipiac St., Bldg. 40, Wallingford CT 06492
  
  
 ---------------------------------------------------------------
 Warning -- This program may not be used in any manner that
 competes with the business of Gaussian, Inc. or will provide
 assistance to any competitor of Gaussian, Inc.  The licensee
 of this program is prohibited from giving any competitor of
 Gaussian, Inc. access to this program.  By using this program,
 the user acknowledges that Gaussian, Inc. is engaged in the
 business of creating and licensing software in the field of
 computational chemistry and represents and warrants to the
 licensee that it is not a competitor of Gaussian, Inc. and that
 it will not use this program in any manner prohibited above.
 ---------------------------------------------------------------
  

 Cite this work as:
 Gaussian 16, Revision A.03,
 M. J. Frisch, G. W. Trucks, H. B. Schlegel, G. E. Scuseria, 
 M. A. Robb, J. R. Cheeseman, G. Scalmani, V. Barone, 
 G. A. Petersson, H. Nakatsuji, X. Li, M. Caricato, A. V. Marenich, 
 J. Bloino, B. G. Janesko, R. Gomperts, B. Mennucci, H. P. Hratchian, 
 J. V. Ortiz, A. F. Izmaylov, J. L. Sonnenberg, D. Williams-Young, 
 F. Ding, F. Lipparini, F. Egidi, J. Goings, B. Peng, A. Petrone, 
 T. Henderson, D. Ranasinghe, V. G. Zakrzewski, J. Gao, N. Rega, 
 G. Zheng, W. Liang, M. Hada, M. Ehara, K. Toyota, R. Fukuda, 
 J. Hasegawa, M. Ishida, T. Nakajima, Y. Honda, O. Kitao, H. Nakai, 
 T. Vreven, K. Throssell, J. A. Montgomery, Jr., J. E. Peralta, 
 F. Ogliaro, M. J. Bearpark, J. J. Heyd, E. N. Brothers, K. N. Kudin, 
 V. N. Staroverov, T. A. Keith, R. Kobayashi, J. Normand, 
 K. Raghavachari, A. P. Rendell, J. C. Burant, S. S. Iyengar, 
 J. Tomasi, M. Cossi, J. M. Millam, M. Klene, C. Adamo, R. Cammi, 
 J. W. Ochterski, R. L. Martin, K. Morokuma, O. Farkas, 
 J. B. Foresman, and D. J. Fox, Gaussian, Inc., Wallingford CT, 2016.
 
 ******************************************
 Gaussian 16:  ES64L-G16RevA.03 25-Dec-2016
                22-Aug-2020 
 ******************************************
 %nprocshared=5
 Will use up to    5 processors via shared memory.
 %Mem=10GB
 %Chk=azadicarboxylate_5_conf291.chk
 ---------------------------------
 # opt=CalcAll B3LYP/6-31G* scf=qc
 ---------------------------------
 1/10=4,18=20,19=15,26=3,38=1/1,3;
 2/9=110,12=2,17=6,18=5,40=1/2;
 3/5=1,6=6,7=1,11=2,25=1,30=1,71=2,74=-5,140=1/1,2,3;
 4//1;
 5/5=2,8=3,38=5/8;
 8/6=4,10=90,11=11/1;
 11/6=1,8=1,9=11,15=111,16=1/1,2,10;
 10/6=1/2;
 6/7=2,8=2,9=2,10=2,18=1,28=1/1;
 7/10=1,25=1/1,2,3,16;
 1/10=4,18=20,19=15,26=3/3(3);
 2/9=110/2;
 7/8=1,9=1,25=1,44=-1/16;
 99//99;
 2/9=110/2;
 3/5=1,6=6,7=1,11=2,25=1,30=1,71=2,74=-5,140=1/1,2,3;
 4/5=5,16=3,69=1/1;
 5/5=2,8=3,38=5/8;
 8/6=4,10=90,11=11/1;
 11/6=1,8=1,9=11,15=111,16=1/1,2,10;
 10/6=1/2;
 7/10=1,25=1/1,2,3,16;
 1/10=4,18=20,19=15,26=3/3(-8);
 2/9=110/2;
 6/7=2,8=2,9=2,10=2,18=1,19=2,28=1/1;
 7/8=1,9=1,25=1,44=-1/16;
 99//99;
 -------------------
 Title Card Required
 -------------------
 Symbolic Z-matrix:
 Charge =  0 Multiplicity = 1
 C2                    0.8141    0.1461    0.0473 
 O3                    0.32428  -0.8725    0.53916 
 N4                    0.2028    1.3863    0.0651 
 N5                   -1.0496    1.3066    0.0658 
 C6                   -1.6625    2.5457    0.0392 
 O7                   -2.75799   2.76337  -0.48227 
 N8                   -0.95989   3.57693   0.66703 
 C                     0.34209   3.31142   1.26709 
 C                     1.35491   4.38333   0.87096 
 C                     0.83283   5.7841    1.18444 
 C                    -0.5465    6.00683   0.56414 
 C                    -1.5269    4.89733   0.94541 
 N1                    2.05823   0.09881  -0.59168 
 C                     2.78279  -1.16429  -0.67759 
 C                     3.30536  -1.39754  -2.09303 
 C                     4.12566  -0.20699  -2.5858 
 C                     3.33893   1.09635  -2.44651 
 C                     2.79477   1.2825   -1.02994 
 H                     0.72106   2.32729   0.97793 
 H                     0.20592   3.30175   2.35564 
 H                     1.55909   4.30931  -0.20454 
 H                     2.30343   4.21323   1.39273 
 H                     1.53574   6.53481   0.80532 
 H                     0.77415   5.91894   2.27122 
 H                    -0.44451   6.03753  -0.52774 
 H                    -0.94152   6.97898   0.8796 
 H                    -2.47495   5.04946   0.42287 
 H                    -1.73832   4.93704   2.02133 
 H                     2.15322  -2.00746  -0.37792 
 H                     3.61755  -1.11183   0.03214 
 H                     2.45717  -1.55332  -2.77157 
 H                     3.91437  -2.3078   -2.12181 
 H                     4.40778  -0.36006  -3.6339 
 H                     5.05622  -0.13897  -2.00936 
 H                     2.5016    1.08378  -3.15513 
 H                     3.97785   1.94477  -2.71599 
 H                     2.17672   2.18305  -0.98907 
 H                     3.62396   1.42507  -0.32579 
 

 GradGradGradGradGradGradGradGradGradGradGradGradGradGradGradGradGradGrad
 Berny optimization.
 Initialization pass.
                           ----------------------------
                           !    Initial Parameters    !
                           ! (Angstroms and Degrees)  !
 --------------------------                            --------------------------
 ! Name  Definition              Value          Derivative Info.                !
 --------------------------------------------------------------------------------
 ! R1    R(1,2)                  1.2326         calculate D2E/DX2 analytically  !
 ! R2    R(1,3)                  1.3828         calculate D2E/DX2 analytically  !
 ! R3    R(1,13)                 1.3994         calculate D2E/DX2 analytically  !
 ! R4    R(3,4)                  1.2549         calculate D2E/DX2 analytically  !
 ! R5    R(4,5)                  1.3827         calculate D2E/DX2 analytically  !
 ! R6    R(5,6)                  1.2326         calculate D2E/DX2 analytically  !
 ! R7    R(5,7)                  1.3969         calculate D2E/DX2 analytically  !
 ! R8    R(7,8)                  1.458          calculate D2E/DX2 analytically  !
 ! R9    R(7,12)                 1.4637         calculate D2E/DX2 analytically  !
 ! R10   R(8,9)                  1.527          calculate D2E/DX2 analytically  !
 ! R11   R(8,19)                 1.0935         calculate D2E/DX2 analytically  !
 ! R12   R(8,20)                 1.0971         calculate D2E/DX2 analytically  !
 ! R13   R(9,10)                 1.5274         calculate D2E/DX2 analytically  !
 ! R14   R(9,21)                 1.0972         calculate D2E/DX2 analytically  !
 ! R15   R(9,22)                 1.0958         calculate D2E/DX2 analytically  !
 ! R16   R(10,11)                1.5287         calculate D2E/DX2 analytically  !
 ! R17   R(10,23)                1.0961         calculate D2E/DX2 analytically  !
 ! R18   R(10,24)                1.0967         calculate D2E/DX2 analytically  !
 ! R19   R(11,12)                1.5289         calculate D2E/DX2 analytically  !
 ! R20   R(11,25)                1.0971         calculate D2E/DX2 analytically  !
 ! R21   R(11,26)                1.0957         calculate D2E/DX2 analytically  !
 ! R22   R(12,27)                1.0932         calculate D2E/DX2 analytically  !
 ! R23   R(12,28)                1.0972         calculate D2E/DX2 analytically  !
 ! R24   R(13,14)                1.4587         calculate D2E/DX2 analytically  !
 ! R25   R(13,18)                1.4614         calculate D2E/DX2 analytically  !
 ! R26   R(14,15)                1.5267         calculate D2E/DX2 analytically  !
 ! R27   R(14,29)                1.0941         calculate D2E/DX2 analytically  !
 ! R28   R(14,30)                1.0969         calculate D2E/DX2 analytically  !
 ! R29   R(15,16)                1.5275         calculate D2E/DX2 analytically  !
 ! R30   R(15,31)                1.0973         calculate D2E/DX2 analytically  !
 ! R31   R(15,32)                1.0956         calculate D2E/DX2 analytically  !
 ! R32   R(16,17)                1.5287         calculate D2E/DX2 analytically  !
 ! R33   R(16,33)                1.0961         calculate D2E/DX2 analytically  !
 ! R34   R(16,34)                1.0967         calculate D2E/DX2 analytically  !
 ! R35   R(17,18)                1.5289         calculate D2E/DX2 analytically  !
 ! R36   R(17,35)                1.097          calculate D2E/DX2 analytically  !
 ! R37   R(17,36)                1.0957         calculate D2E/DX2 analytically  !
 ! R38   R(18,37)                1.093          calculate D2E/DX2 analytically  !
 ! R39   R(18,38)                1.0971         calculate D2E/DX2 analytically  !
 ! A1    A(2,1,3)              124.0793         calculate D2E/DX2 analytically  !
 ! A2    A(2,1,13)             120.5009         calculate D2E/DX2 analytically  !
 ! A3    A(3,1,13)             115.4172         calculate D2E/DX2 analytically  !
 ! A4    A(1,3,4)              112.5961         calculate D2E/DX2 analytically  !
 ! A5    A(3,4,5)              112.6722         calculate D2E/DX2 analytically  !
 ! A6    A(4,5,6)              124.08           calculate D2E/DX2 analytically  !
 ! A7    A(4,5,7)              115.4665         calculate D2E/DX2 analytically  !
 ! A8    A(6,5,7)              120.4507         calculate D2E/DX2 analytically  !
 ! A9    A(5,7,8)              119.9807         calculate D2E/DX2 analytically  !
 ! A10   A(5,7,12)             123.8205         calculate D2E/DX2 analytically  !
 ! A11   A(8,7,12)             115.5902         calculate D2E/DX2 analytically  !
 ! A12   A(7,8,9)              110.9592         calculate D2E/DX2 analytically  !
 ! A13   A(7,8,19)             111.3795         calculate D2E/DX2 analytically  !
 ! A14   A(7,8,20)             107.4056         calculate D2E/DX2 analytically  !
 ! A15   A(9,8,19)             109.4689         calculate D2E/DX2 analytically  !
 ! A16   A(9,8,20)             110.2377         calculate D2E/DX2 analytically  !
 ! A17   A(19,8,20)            107.3053         calculate D2E/DX2 analytically  !
 ! A18   A(8,9,10)             111.3347         calculate D2E/DX2 analytically  !
 ! A19   A(8,9,21)             109.2905         calculate D2E/DX2 analytically  !
 ! A20   A(8,9,22)             109.976          calculate D2E/DX2 analytically  !
 ! A21   A(10,9,21)            109.0656         calculate D2E/DX2 analytically  !
 ! A22   A(10,9,22)            109.9066         calculate D2E/DX2 analytically  !
 ! A23   A(21,9,22)            107.1678         calculate D2E/DX2 analytically  !
 ! A24   A(9,10,11)            111.0233         calculate D2E/DX2 analytically  !
 ! A25   A(9,10,23)            109.7509         calculate D2E/DX2 analytically  !
 ! A26   A(9,10,24)            109.5378         calculate D2E/DX2 analytically  !
 ! A27   A(11,10,23)           109.7851         calculate D2E/DX2 analytically  !
 ! A28   A(11,10,24)           109.628          calculate D2E/DX2 analytically  !
 ! A29   A(23,10,24)           107.0297         calculate D2E/DX2 analytically  !
 ! A30   A(10,11,12)           111.8185         calculate D2E/DX2 analytically  !
 ! A31   A(10,11,25)           108.9078         calculate D2E/DX2 analytically  !
 ! A32   A(10,11,26)           109.7385         calculate D2E/DX2 analytically  !
 ! A33   A(12,11,25)           109.1546         calculate D2E/DX2 analytically  !
 ! A34   A(12,11,26)           109.9298         calculate D2E/DX2 analytically  !
 ! A35   A(25,11,26)           107.1711         calculate D2E/DX2 analytically  !
 ! A36   A(7,12,11)            111.0265         calculate D2E/DX2 analytically  !
 ! A37   A(7,12,27)            111.7518         calculate D2E/DX2 analytically  !
 ! A38   A(7,12,28)            107.0849         calculate D2E/DX2 analytically  !
 ! A39   A(11,12,27)           109.6292         calculate D2E/DX2 analytically  !
 ! A40   A(11,12,28)           109.9885         calculate D2E/DX2 analytically  !
 ! A41   A(27,12,28)           107.2527         calculate D2E/DX2 analytically  !
 ! A42   A(1,13,14)            119.8512         calculate D2E/DX2 analytically  !
 ! A43   A(1,13,18)            123.8919         calculate D2E/DX2 analytically  !
 ! A44   A(14,13,18)           115.6808         calculate D2E/DX2 analytically  !
 ! A45   A(13,14,15)           110.9104         calculate D2E/DX2 analytically  !
 ! A46   A(13,14,29)           111.4295         calculate D2E/DX2 analytically  !
 ! A47   A(13,14,30)           107.3662         calculate D2E/DX2 analytically  !
 ! A48   A(15,14,29)           109.4594         calculate D2E/DX2 analytically  !
 ! A49   A(15,14,30)           110.284          calculate D2E/DX2 analytically  !
 ! A50   A(29,14,30)           107.3091         calculate D2E/DX2 analytically  !
 ! A51   A(14,15,16)           111.3353         calculate D2E/DX2 analytically  !
 ! A52   A(14,15,31)           109.2931         calculate D2E/DX2 analytically  !
 ! A53   A(14,15,32)           109.9715         calculate D2E/DX2 analytically  !
 ! A54   A(16,15,31)           109.0428         calculate D2E/DX2 analytically  !
 ! A55   A(16,15,32)           109.9127         calculate D2E/DX2 analytically  !
 ! A56   A(31,15,32)           107.1864         calculate D2E/DX2 analytically  !
 ! A57   A(15,16,17)           111.0231         calculate D2E/DX2 analytically  !
 ! A58   A(15,16,33)           109.7456         calculate D2E/DX2 analytically  !
 ! A59   A(15,16,34)           109.5386         calculate D2E/DX2 analytically  !
 ! A60   A(17,16,33)           109.7933         calculate D2E/DX2 analytically  !
 ! A61   A(17,16,34)           109.6262         calculate D2E/DX2 analytically  !
 ! A62   A(33,16,34)           107.028          calculate D2E/DX2 analytically  !
 ! A63   A(16,17,18)           111.8017         calculate D2E/DX2 analytically  !
 ! A64   A(16,17,35)           108.9161         calculate D2E/DX2 analytically  !
 ! A65   A(16,17,36)           109.7333         calculate D2E/DX2 analytically  !
 ! A66   A(18,17,35)           109.1617         calculate D2E/DX2 analytically  !
 ! A67   A(18,17,36)           109.9458         calculate D2E/DX2 analytically  !
 ! A68   A(35,17,36)           107.1621         calculate D2E/DX2 analytically  !
 ! A69   A(13,18,17)           111.016          calculate D2E/DX2 analytically  !
 ! A70   A(13,18,37)           111.7866         calculate D2E/DX2 analytically  !
 ! A71   A(13,18,38)           107.079          calculate D2E/DX2 analytically  !
 ! A72   A(17,18,37)           109.6471         calculate D2E/DX2 analytically  !
 ! A73   A(17,18,38)           109.9676         calculate D2E/DX2 analytically  !
 ! A74   A(37,18,38)           107.2354         calculate D2E/DX2 analytically  !
 ! D1    D(2,1,3,4)            -29.6469         calculate D2E/DX2 analytically  !
 ! D2    D(13,1,3,4)           149.7635         calculate D2E/DX2 analytically  !
 ! D3    D(2,1,13,14)            0.0007         calculate D2E/DX2 analytically  !
 ! D4    D(2,1,13,18)         -170.9102         calculate D2E/DX2 analytically  !
 ! D5    D(3,1,13,14)         -179.4325         calculate D2E/DX2 analytically  !
 ! D6    D(3,1,13,18)            9.6565         calculate D2E/DX2 analytically  !
 ! D7    D(1,3,4,5)           -178.0064         calculate D2E/DX2 analytically  !
 ! D8    D(3,4,5,6)            149.647          calculate D2E/DX2 analytically  !
 ! D9    D(3,4,5,7)            -30.9646         calculate D2E/DX2 analytically  !
 ! D10   D(4,5,7,8)              1.2932         calculate D2E/DX2 analytically  !
 ! D11   D(4,5,7,12)          -169.3588         calculate D2E/DX2 analytically  !
 ! D12   D(6,5,7,8)           -179.2945         calculate D2E/DX2 analytically  !
 ! D13   D(6,5,7,12)            10.0535         calculate D2E/DX2 analytically  !
 ! D14   D(5,7,8,9)            133.4709         calculate D2E/DX2 analytically  !
 ! D15   D(5,7,8,19)            11.2462         calculate D2E/DX2 analytically  !
 ! D16   D(5,7,8,20)          -105.9797         calculate D2E/DX2 analytically  !
 ! D17   D(12,7,8,9)           -55.134          calculate D2E/DX2 analytically  !
 ! D18   D(12,7,8,19)         -177.3587         calculate D2E/DX2 analytically  !
 ! D19   D(12,7,8,20)           65.4153         calculate D2E/DX2 analytically  !
 ! D20   D(5,7,12,11)         -134.806          calculate D2E/DX2 analytically  !
 ! D21   D(5,7,12,27)          -12.064          calculate D2E/DX2 analytically  !
 ! D22   D(5,7,12,28)          105.1101         calculate D2E/DX2 analytically  !
 ! D23   D(8,7,12,11)           54.1687         calculate D2E/DX2 analytically  !
 ! D24   D(8,7,12,27)          176.9107         calculate D2E/DX2 analytically  !
 ! D25   D(8,7,12,28)          -65.9152         calculate D2E/DX2 analytically  !
 ! D26   D(7,8,9,10)            53.4582         calculate D2E/DX2 analytically  !
 ! D27   D(7,8,9,21)           -67.0891         calculate D2E/DX2 analytically  !
 ! D28   D(7,8,9,22)           175.5254         calculate D2E/DX2 analytically  !
 ! D29   D(19,8,9,10)          176.7879         calculate D2E/DX2 analytically  !
 ! D30   D(19,8,9,21)           56.2406         calculate D2E/DX2 analytically  !
 ! D31   D(19,8,9,22)          -61.1449         calculate D2E/DX2 analytically  !
 ! D32   D(20,8,9,10)          -65.3988         calculate D2E/DX2 analytically  !
 ! D33   D(20,8,9,21)          174.0539         calculate D2E/DX2 analytically  !
 ! D34   D(20,8,9,22)           56.6684         calculate D2E/DX2 analytically  !
 ! D35   D(8,9,10,11)          -53.1495         calculate D2E/DX2 analytically  !
 ! D36   D(8,9,10,23)         -174.7031         calculate D2E/DX2 analytically  !
 ! D37   D(8,9,10,24)           68.0646         calculate D2E/DX2 analytically  !
 ! D38   D(21,9,10,11)          67.5299         calculate D2E/DX2 analytically  !
 ! D39   D(21,9,10,23)         -54.0236         calculate D2E/DX2 analytically  !
 ! D40   D(21,9,10,24)        -171.2559         calculate D2E/DX2 analytically  !
 ! D41   D(22,9,10,11)        -175.2569         calculate D2E/DX2 analytically  !
 ! D42   D(22,9,10,23)          63.1896         calculate D2E/DX2 analytically  !
 ! D43   D(22,9,10,24)         -54.0428         calculate D2E/DX2 analytically  !
 ! D44   D(9,10,11,12)          52.4205         calculate D2E/DX2 analytically  !
 ! D45   D(9,10,11,25)         -68.2917         calculate D2E/DX2 analytically  !
 ! D46   D(9,10,11,26)         174.6789         calculate D2E/DX2 analytically  !
 ! D47   D(23,10,11,12)        173.9539         calculate D2E/DX2 analytically  !
 ! D48   D(23,10,11,25)         53.2418         calculate D2E/DX2 analytically  !
 ! D49   D(23,10,11,26)        -63.7876         calculate D2E/DX2 analytically  !
 ! D50   D(24,10,11,12)        -68.7407         calculate D2E/DX2 analytically  !
 ! D51   D(24,10,11,25)        170.5472         calculate D2E/DX2 analytically  !
 ! D52   D(24,10,11,26)         53.5178         calculate D2E/DX2 analytically  !
 ! D53   D(10,11,12,7)         -51.6939         calculate D2E/DX2 analytically  !
 ! D54   D(10,11,12,27)       -175.654          calculate D2E/DX2 analytically  !
 ! D55   D(10,11,12,28)         66.6487         calculate D2E/DX2 analytically  !
 ! D56   D(25,11,12,7)          68.8746         calculate D2E/DX2 analytically  !
 ! D57   D(25,11,12,27)        -55.0855         calculate D2E/DX2 analytically  !
 ! D58   D(25,11,12,28)       -172.7829         calculate D2E/DX2 analytically  !
 ! D59   D(26,11,12,7)        -173.8427         calculate D2E/DX2 analytically  !
 ! D60   D(26,11,12,27)         62.1972         calculate D2E/DX2 analytically  !
 ! D61   D(26,11,12,28)        -55.5002         calculate D2E/DX2 analytically  !
 ! D62   D(1,13,14,15)         133.2486         calculate D2E/DX2 analytically  !
 ! D63   D(1,13,14,29)          11.0354         calculate D2E/DX2 analytically  !
 ! D64   D(1,13,14,30)        -106.199          calculate D2E/DX2 analytically  !
 ! D65   D(18,13,14,15)        -55.1177         calculate D2E/DX2 analytically  !
 ! D66   D(18,13,14,29)       -177.3309         calculate D2E/DX2 analytically  !
 ! D67   D(18,13,14,30)         65.4347         calculate D2E/DX2 analytically  !
 ! D68   D(1,13,18,17)        -134.5527         calculate D2E/DX2 analytically  !
 ! D69   D(1,13,18,37)         -11.7702         calculate D2E/DX2 analytically  !
 ! D70   D(1,13,18,38)         105.3986         calculate D2E/DX2 analytically  !
 ! D71   D(14,13,18,17)         54.1917         calculate D2E/DX2 analytically  !
 ! D72   D(14,13,18,37)        176.9742         calculate D2E/DX2 analytically  !
 ! D73   D(14,13,18,38)        -65.857          calculate D2E/DX2 analytically  !
 ! D74   D(13,14,15,16)         53.3813         calculate D2E/DX2 analytically  !
 ! D75   D(13,14,15,31)        -67.1396         calculate D2E/DX2 analytically  !
 ! D76   D(13,14,15,32)        175.4535         calculate D2E/DX2 analytically  !
 ! D77   D(29,14,15,16)        176.7348         calculate D2E/DX2 analytically  !
 ! D78   D(29,14,15,31)         56.2139         calculate D2E/DX2 analytically  !
 ! D79   D(29,14,15,32)        -61.193          calculate D2E/DX2 analytically  !
 ! D80   D(30,14,15,16)        -65.4255         calculate D2E/DX2 analytically  !
 ! D81   D(30,14,15,31)        174.0536         calculate D2E/DX2 analytically  !
 ! D82   D(30,14,15,32)         56.6466         calculate D2E/DX2 analytically  !
 ! D83   D(14,15,16,17)        -53.1541         calculate D2E/DX2 analytically  !
 ! D84   D(14,15,16,33)       -174.7142         calculate D2E/DX2 analytically  !
 ! D85   D(14,15,16,34)         68.0582         calculate D2E/DX2 analytically  !
 ! D86   D(31,15,16,17)         67.514          calculate D2E/DX2 analytically  !
 ! D87   D(31,15,16,33)        -54.0461         calculate D2E/DX2 analytically  !
 ! D88   D(31,15,16,34)       -171.2737         calculate D2E/DX2 analytically  !
 ! D89   D(32,15,16,17)       -175.2603         calculate D2E/DX2 analytically  !
 ! D90   D(32,15,16,33)         63.1797         calculate D2E/DX2 analytically  !
 ! D91   D(32,15,16,34)        -54.048          calculate D2E/DX2 analytically  !
 ! D92   D(15,16,17,18)         52.4337         calculate D2E/DX2 analytically  !
 ! D93   D(15,16,17,35)        -68.2821         calculate D2E/DX2 analytically  !
 ! D94   D(15,16,17,36)        174.6975         calculate D2E/DX2 analytically  !
 ! D95   D(33,16,17,18)        173.9659         calculate D2E/DX2 analytically  !
 ! D96   D(33,16,17,35)         53.25           calculate D2E/DX2 analytically  !
 ! D97   D(33,16,17,36)        -63.7704         calculate D2E/DX2 analytically  !
 ! D98   D(34,16,17,18)        -68.7271         calculate D2E/DX2 analytically  !
 ! D99   D(34,16,17,35)        170.5571         calculate D2E/DX2 analytically  !
 ! D100  D(34,16,17,36)         53.5367         calculate D2E/DX2 analytically  !
 ! D101  D(16,17,18,13)        -51.7105         calculate D2E/DX2 analytically  !
 ! D102  D(16,17,18,37)       -175.7204         calculate D2E/DX2 analytically  !
 ! D103  D(16,17,18,38)         66.6051         calculate D2E/DX2 analytically  !
 ! D104  D(35,17,18,13)         68.8623         calculate D2E/DX2 analytically  !
 ! D105  D(35,17,18,37)        -55.1476         calculate D2E/DX2 analytically  !
 ! D106  D(35,17,18,38)       -172.8222         calculate D2E/DX2 analytically  !
 ! D107  D(36,17,18,13)       -173.8525         calculate D2E/DX2 analytically  !
 ! D108  D(36,17,18,37)         62.1376         calculate D2E/DX2 analytically  !
 ! D109  D(36,17,18,38)        -55.5369         calculate D2E/DX2 analytically  !
 --------------------------------------------------------------------------------
 Trust Radius=3.00D-01 FncErr=1.00D-07 GrdErr=1.00D-06 EigMax=2.50D+02 EigMin=1.00D-04
 Number of steps in this run=    228 maximum allowed number of steps=    228.
 GradGradGradGradGradGradGradGradGradGradGradGradGradGradGradGradGradGrad

                          Input orientation:                          
 ---------------------------------------------------------------------
 Center     Atomic      Atomic             Coordinates (Angstroms)
 Number     Number       Type             X           Y           Z
 ---------------------------------------------------------------------
      1          6           0        0.814100    0.146100    0.047300
      2          8           0        0.324280   -0.872500    0.539160
      3          7           0        0.202800    1.386300    0.065100
      4          7           0       -1.049600    1.306600    0.065800
      5          6           0       -1.662500    2.545700    0.039200
      6          8           0       -2.757990    2.763370   -0.482270
      7          7           0       -0.959890    3.576930    0.667030
      8          6           0        0.342090    3.311420    1.267090
      9          6           0        1.354910    4.383330    0.870960
     10          6           0        0.832830    5.784100    1.184440
     11          6           0       -0.546500    6.006830    0.564140
     12          6           0       -1.526900    4.897330    0.945410
     13          7           0        2.058230    0.098810   -0.591680
     14          6           0        2.782790   -1.164290   -0.677590
     15          6           0        3.305360   -1.397540   -2.093030
     16          6           0        4.125660   -0.206990   -2.585800
     17          6           0        3.338930    1.096350   -2.446510
     18          6           0        2.794770    1.282500   -1.029940
     19          1           0        0.721060    2.327290    0.977930
     20          1           0        0.205920    3.301750    2.355640
     21          1           0        1.559090    4.309310   -0.204540
     22          1           0        2.303430    4.213230    1.392730
     23          1           0        1.535740    6.534810    0.805320
     24          1           0        0.774150    5.918940    2.271220
     25          1           0       -0.444510    6.037530   -0.527740
     26          1           0       -0.941520    6.978980    0.879600
     27          1           0       -2.474950    5.049460    0.422870
     28          1           0       -1.738320    4.937040    2.021330
     29          1           0        2.153220   -2.007460   -0.377920
     30          1           0        3.617550   -1.111830    0.032140
     31          1           0        2.457170   -1.553320   -2.771570
     32          1           0        3.914370   -2.307800   -2.121810
     33          1           0        4.407780   -0.360060   -3.633900
     34          1           0        5.056220   -0.138970   -2.009360
     35          1           0        2.501600    1.083780   -3.155130
     36          1           0        3.977850    1.944770   -2.715990
     37          1           0        2.176720    2.183050   -0.989070
     38          1           0        3.623960    1.425070   -0.325790
 ---------------------------------------------------------------------
                    Distance matrix (angstroms):
                    1          2          3          4          5
     1  C    0.000000
     2  O    1.232638   0.000000
     3  N    1.382787   2.311205   0.000000
     4  N    2.195559   2.619178   1.254934   0.000000
     5  C    3.448433   3.985141   2.196411   1.382651   0.000000
     6  O    4.459863   4.874757   3.310923   2.311094   1.232643
     7  N    3.911739   4.632804   2.552063   2.350303   1.396877
     8  C    3.424899   4.246809   2.273822   2.720147   2.472331
     9  C    4.350288   5.366194   3.310431   3.987006   3.629528
    10  C    5.751563   6.707111   4.581540   4.984266   4.245643
    11  C    6.038751   6.934267   4.707418   4.753274   3.674294
    12  C    5.372250   6.073125   4.011750   3.727582   2.523840
    13  N    1.399425   2.286662   2.351938   3.398477   4.497679
    14  C    2.473525   2.758604   3.703167   4.620080   5.834245
    15  C    3.629079   4.011350   4.693950   5.562247   6.691426
    16  C    4.245506   4.965760   4.995465   6.008765   6.926090
    17  C    3.673803   4.677468   4.028345   5.061136   5.770067
    18  C    2.524857   3.634477   2.815705   3.997550   4.754576
    19  H    2.373251   3.254014   1.409721   2.238085   2.571046
    20  H    3.956822   4.553896   2.985889   3.286384   3.070586
    21  H    4.236833   5.378569   3.233607   3.986805   3.680811
    22  H    4.535398   5.523610   3.763878   4.631636   4.510133
    23  H    6.473869   7.510441   5.369526   5.879205   5.169978
    24  H    6.186526   7.023252   5.073286   5.428040   4.722068
    25  H    6.051753   7.034048   4.733330   4.806259   3.741363
    26  H    7.103744   7.960144   5.766364   5.731479   4.569470
    27  H    5.916235   6.551246   4.551603   4.020960   2.660092
    28  H    5.776223   6.340497   4.494723   4.180733   3.106943
    29  H    2.571357   2.339699   3.939291   4.630112   5.955248
    30  H    3.072776   3.340655   4.231106   5.256636   6.423123
    31  H    3.678823   3.996707   4.665860   5.341090   6.455546
    32  H    4.509805   4.693569   5.674919   6.518476   7.702461
    33  H    5.169329   5.861058   5.866364   6.800627   7.667034
    34  H    4.722997   5.424415   5.494135   6.608858   7.519658
    35  H    3.739312   4.713336   3.968108   4.799485   5.447998
    36  H    4.569497   5.646378   4.722007   5.781079   6.306008
    37  H    2.660820   3.886310   2.375383   3.505718   3.991048
    38  H    3.109706   4.112767   3.443637   4.691433   5.416243
                    6          7          8          9         10
     6  O    0.000000
     7  N    2.283842   0.000000
     8  C    3.601543   1.457985   0.000000
     9  C    4.622926   2.459709   1.526995   0.000000
    10  C    4.979631   2.890183   2.522262   1.527414   0.000000
    11  C    4.062720   2.466960   2.923861   2.518978   1.528703
    12  C    2.847391   1.463712   2.472188   2.928236   2.532158
    13  N    5.505254   4.773962   4.089135   4.581603   6.081014
    14  C    6.794476   6.188281   5.456260   5.934049   7.453162
    15  C    7.528076   7.110249   6.499668   6.782916   8.272313
    16  C    7.786688   7.124730   6.445105   6.379442   7.807086
    17  C    6.618884   5.858947   5.261027   5.074069   6.437339
    18  C    5.772873   4.716099   3.925367   3.911747   5.386751
    19  H    3.798176   2.117511   1.093501   2.154184   3.464776
    20  H    4.138641   2.070324   1.097077   2.166626   2.815455
    21  H    4.593936   2.764286   2.154662   1.097209   2.152144
    22  H    5.588890   3.403054   2.162383   1.095841   2.161870
    23  H    5.858137   3.872512   3.468180   2.160063   1.096075
    24  H    5.478626   3.326459   2.827386   2.157802   1.096684
    25  H    4.009287   2.783459   3.357355   2.816141   2.151136
    26  H    4.788071   3.408734   3.904971   3.465698   2.160783
    27  H    2.474994   2.126821   3.416022   3.913099   3.472908
    28  H    3.468801   2.071227   2.745838   3.346344   2.833497
    29  H    6.847751   6.478332   5.854634   6.560427   8.055607
    30  H    7.478590   6.583351   5.640823   6.001662   7.525710
    31  H    7.146510   7.058310   6.667086   7.051724   8.492716
    32  H    8.539628   8.134254   7.471376   7.763938   9.268550
    33  H    8.428336   7.925262   7.350463   7.218970   8.587629
    34  H    8.474518   7.560725   6.698010   6.515147   7.944818
    35  H    6.134207   5.727706   5.402027   5.330228   6.611329
    36  H    7.143609   6.204035   5.563399   5.068787   6.312286
    37  H    4.994495   3.811022   3.119190   2.996050   4.415625
    38  H    6.522639   5.160220   4.106854   3.915623   5.391878
                   11         12         13         14         15
    11  C    0.000000
    12  C    1.528902   0.000000
    13  N    6.559363   6.183979   0.000000
    14  C    8.003189   7.612542   1.458694   0.000000
    15  C    8.759114   8.497543   2.459359   1.526747   0.000000
    16  C    8.388251   8.394937   2.888649   2.522100   1.527457
    17  C    6.947906   7.044776   2.464888   2.923844   2.519040
    18  C    6.002039   5.970413   1.461398   2.472059   2.928050
    19  H    3.913687   3.414599   3.036087   4.379795   5.475743
    20  H    3.330625   2.745412   4.730388   5.982162   7.174993
    21  H    2.811753   3.345368   4.257620   5.628633   6.259712
    22  H    3.467804   3.916569   4.574545   5.782191   6.680953
    23  H    2.161632   3.475734   6.606565   7.939162   8.628683
    24  H    2.160084   2.845398   6.612032   7.931095   8.887327
    25  H    1.097063   2.154483   6.444858   7.893297   8.473011
    26  H    1.095733   2.163393   7.648523   9.088904   9.850818
    27  H    2.157645   1.093156   6.788812   8.213740   9.016959
    28  H    2.165246   1.097214   6.682072   8.059208   9.082597
    29  H    8.509102   7.935402   2.119219   1.094119   2.154305
    30  H    8.264240   7.963004   2.070333   1.096947   2.166896
    31  H    8.792318   8.443911   2.764165   2.154559   1.097320
    32  H    9.810543   9.535678   3.402694   2.161911   1.095580
    33  H    9.094268   9.155908   3.871182   3.468018   2.160087
    34  H    8.705414   8.799571   3.324801   2.827256   2.157895
    35  H    6.881882   6.898290   2.781729   3.357245   2.816209
    36  H    6.908641   7.240562   3.406641   3.905060   3.465741
    37  H    4.944662   4.982603   2.125092   3.415996   3.913206
    38  H    6.259172   6.340654   2.069100   2.745199   3.345410
                   16         17         18         19         20
    16  C    0.000000
    17  C    1.528738   0.000000
    18  C    2.531906   1.528866   0.000000
    19  H    5.542026   4.482772   3.069756   0.000000
    20  H    7.217579   6.143304   4.716107   1.764377   0.000000
    21  H    5.714424   4.303182   3.371909   2.455389   3.066067
    22  H    6.219933   5.052422   3.834048   2.496542   2.481439
    23  H    7.978675   6.588076   5.704393   4.289140   3.824211
    24  H    8.505897   7.217510   6.039631   3.817770   2.679495
    25  H    8.007253   6.512400   5.775418   4.170309   4.027584
    26  H    9.451110   7.999412   7.075033   4.940856   4.125207
    27  H    8.958260   7.593525   6.638569   4.234711   3.738603
    28  H    9.059412   7.777594   6.573798   3.734706   2.562422
    29  H    3.465104   3.913900   3.414755   4.762297   6.281086
    30  H    2.816118   3.331275   2.745505   4.594749   6.042976
    31  H    2.151970   2.811390   3.345015   5.668506   7.411350
    32  H    2.161789   3.467679   3.916113   6.425704   8.078812
    33  H    1.096146   2.161820   3.475689   6.487120   8.181630
    34  H    1.096746   2.160139   2.844995   5.813773   7.376801
    35  H    2.151231   1.097006   2.154500   4.668921   6.368526
    36  H    2.160756   1.095744   2.163572   4.939438   6.464540
    37  H    3.472781   2.157726   1.092999   2.451294   4.040127
    38  H    2.832484   2.164891   1.097137   3.307645   4.732335
                   21         22         23         24         25
    21  H    0.000000
    22  H    1.764807   0.000000
    23  H    2.444016   2.514783   0.000000
    24  H    3.055557   2.453546   1.763003   0.000000
    25  H    2.665636   3.816733   2.438386   3.055057   0.000000
    26  H    3.815173   4.294459   2.517861   2.450268   1.764640
    27  H    4.149090   4.947002   4.293969   3.837844   2.450026
    28  H    4.027587   4.153888   3.840705   2.709073   3.063132
    29  H    6.347018   6.469525   8.645907   8.470395   8.455324
    30  H    5.803622   5.651051   7.962590   7.907599   8.241793
    31  H    6.462710   7.114642   8.891627   9.170439   8.430630
    32  H    7.280756   7.580960   9.613414   9.840678   9.549106
    33  H    6.455894   7.114090   8.688758   9.354119   8.609420
    34  H    5.939233   6.172011   8.053294   8.564915   8.402522
    35  H    4.471952   5.524107   6.806745   7.470484   6.334223
    36  H    4.212936   4.983089   6.279490   7.136525   6.410647
    37  H    2.349029   3.132197   4.750632   5.153015   4.684089
    38  H    3.549258   3.531423   5.634671   5.921211   6.153700
                   26         27         28         29         30
    26  H    0.000000
    27  H    2.506603   0.000000
    28  H    2.471428   1.763615   0.000000
    29  H    9.587225   8.477107   8.314239   0.000000
    30  H    9.325477   8.673680   8.320520   1.764813   0.000000
    31  H    9.883435   8.838946   9.093888   2.455237   3.066298
    32  H   10.901028  10.071151  10.079991   2.496599   2.481521
    33  H   10.141410   9.648433   9.890169   4.289333   3.824849
    34  H    9.745983   9.463301   9.390320   3.818411   2.680289
    35  H    7.930164   7.300325   7.721416   4.170135   4.027994
    36  H    7.903907   7.818579   8.004404   4.941252   4.126117
    37  H    6.017997   5.643396   5.654601   4.234906   3.738328
    38  H    7.289890   7.133961   6.826196   3.734710   2.562034
                   31         32         33         34         35
    31  H    0.000000
    32  H    1.764897   0.000000
    33  H    2.443842   2.514669   0.000000
    34  H    3.055554   2.453628   1.763090   0.000000
    35  H    2.665218   3.816606   2.438733   3.055158   0.000000
    36  H    3.814733   4.294349   2.517864   2.450343   1.764500
    37  H    4.149267   4.946742   4.294201   3.837224   2.450665
    38  H    4.026667   4.152631   3.839877   2.707766   3.062897
                   36         37         38
    36  H    0.000000
    37  H    2.506611   0.000000
    38  H    2.471514   1.763229   0.000000
 Stoichiometry    C12H20N4O2
 Framework group  C1[X(C12H20N4O2)]
 Deg. of freedom   108
 Full point group                 C1      NOp   1
 Largest Abelian subgroup         C1      NOp   1
 Largest concise Abelian subgroup C1      NOp   1
                         Standard orientation:                         
 ---------------------------------------------------------------------
 Center     Atomic      Atomic             Coordinates (Angstroms)
 Number     Number       Type             X           Y           Z
 ---------------------------------------------------------------------
      1          6           0       -1.279463   -1.198481   -0.583340
      2          8           0       -1.605759   -2.277038   -1.082981
      3          7           0        0.005935   -0.889735   -0.177719
      4          7           0        0.650604   -1.900709    0.192674
      5          6           0        1.921044   -1.588266    0.639981
      6          8           0        2.525009   -2.225812    1.504949
      7          7           0        2.516140   -0.480146    0.032365
      8          6           0        1.786527    0.275780   -0.978556
      9          6           0        1.891218    1.776968   -0.719350
     10          6           0        3.347620    2.217741   -0.586669
     11          6           0        4.081628    1.378134    0.458904
     12          6           0        3.925315   -0.119945    0.196475
     13          7           0       -2.231305   -0.192983   -0.379965
     14          6           0       -3.620746   -0.420630   -0.761308
     15          6           0       -4.569744    0.012590    0.353447
     16          6           0       -4.299969    1.452924    0.784473
     17          6           0       -2.827134    1.651433    1.142793
     18          6           0       -1.901135    1.171886    0.024762
     19          1           0        0.733134   -0.015834   -1.011262
     20          1           0        2.224276    0.027557   -1.953408
     21          1           0        1.356498    2.023082    0.206594
     22          1           0        1.405915    2.331646   -1.530326
     23          1           0        3.390131    3.277035   -0.308336
     24          1           0        3.850182    2.120068   -1.556518
     25          1           0        3.677842    1.613782    1.451363
     26          1           0        5.143915    1.646574    0.469777
     27          1           0        4.396538   -0.685466    1.004637
     28          1           0        4.438370   -0.393243   -0.734096
     29          1           0       -3.801148   -1.471761   -1.005595
     30          1           0       -3.810556    0.162970   -1.670525
     31          1           0       -4.439756   -0.650235    1.218245
     32          1           0       -5.608697   -0.089028    0.020963
     33          1           0       -4.928888    1.705649    1.645941
     34          1           0       -4.577050    2.136660   -0.027057
     35          1           0       -2.605414    1.090807    2.059286
     36          1           0       -2.637814    2.709219    1.357037
     37          1           0       -0.860329    1.258934    0.346929
     38          1           0       -2.021731    1.808589   -0.860549
 ---------------------------------------------------------------------
 Rotational constants (GHZ):           0.7460466           0.2346564           0.1999736
 Standard basis: 6-31G(d) (6D, 7F)
 There are   310 symmetry adapted cartesian basis functions of A   symmetry.
 There are   310 symmetry adapted basis functions of A   symmetry.
   310 basis functions,   584 primitive gaussians,   310 cartesian basis functions
    68 alpha electrons       68 beta electrons
       nuclear repulsion energy      1404.2078423287 Hartrees.
 NAtoms=   38 NActive=   38 NUniq=   38 SFac= 1.00D+00 NAtFMM=   60 NAOKFM=F Big=F
 Integral buffers will be    131072 words long.
 Raffenetti 2 integral format.
 Two-electron integral symmetry is turned on.
 One-electron integrals computed using PRISM.
 NBasis=   310 RedAO= T EigKep=  1.87D-03  NBF=   310
 NBsUse=   310 1.00D-06 EigRej= -1.00D+00 NBFU=   310
 ExpMin= 1.61D-01 ExpMax= 5.48D+03 ExpMxC= 8.25D+02 IAcc=3 IRadAn=         5 AccDes= 0.00D+00
 Harris functional with IExCor=  402 and IRadAn=       5 diagonalized for initial guess.
 HarFok:  IExCor=  402 AccDes= 0.00D+00 IRadAn=         5 IDoV= 1 UseB2=F ITyADJ=14
 ICtDFT=  3500011 ScaDFX=  1.000000  1.000000  1.000000  1.000000
 FoFCou: FMM=F IPFlag=           0 FMFlag=      100000 FMFlg1=           0
         NFxFlg=           0 DoJE=T BraDBF=F KetDBF=T FulRan=T
         wScrn=  0.000000 ICntrl=       500 IOpCl=  0 I1Cent=   200000004 NGrid=           0
         NMat0=    1 NMatS0=      1 NMatT0=    0 NMatD0=    1 NMtDS0=    0 NMtDT0=    0
 Petite list used in FoFCou.
 Gradient too large for Newton-Raphson -- use scaled steepest descent instead.
     Minimum is close to point  2 DX=  3.08D-02 DF= -4.01D-03 DXR=  9.31D-02 DFR=  8.75D-03 which will be used.
 Gradient too large for Newton-Raphson -- use scaled steepest descent instead.
     Minimum is close to point  3 DX=  6.83D-03 DF= -1.07D-05 DXR=  1.35D-02 DFR=  1.81D-04 which will be used.
 Gradient too large for Newton-Raphson -- use scaled steepest descent instead.
     Accept linear search using points  1 and  2.
 Gradient too large for Newton-Raphson -- use scaled steepest descent instead.
     Accept linear search using points  2 and  3.
 Gradient too large for Newton-Raphson -- use scaled steepest descent instead.
     Accept linear search using points  1 and  2.
 Gradient too large for Newton-Raphson -- use scaled steepest descent instead.
     Accept linear search using points  1 and  2.
 LinEq1:  Iter=  0 NonCon=     1 RMS=8.39D-05 Max=4.58D-03 NDo=     1
 AX will form     1 AO Fock derivatives at one time.
 LinEq1:  Iter=  1 NonCon=     1 RMS=1.09D-04 Max=7.18D-03 NDo=     1
 LinEq1:  Iter=  2 NonCon=     1 RMS=4.83D-05 Max=1.52D-03 NDo=     1
 LinEq1:  Iter=  3 NonCon=     1 RMS=4.47D-05 Max=3.64D-03 NDo=     1
 LinEq1:  Iter=  4 NonCon=     1 RMS=3.11D-05 Max=1.40D-03 NDo=     1
 LinEq1:  Iter=  5 NonCon=     1 RMS=1.76D-05 Max=7.01D-04 NDo=     1
 LinEq1:  Iter=  6 NonCon=     1 RMS=1.96D-05 Max=8.31D-04 NDo=     1
 LinEq1:  Iter=  7 NonCon=     1 RMS=7.22D-06 Max=4.31D-04 NDo=     1
 LinEq1:  Iter=  8 NonCon=     1 RMS=8.49D-06 Max=5.45D-04 NDo=     1
 LinEq1:  Iter=  9 NonCon=     1 RMS=4.20D-06 Max=9.69D-05 NDo=     1
 LinEq1:  Iter= 10 NonCon=     1 RMS=1.96D-06 Max=6.74D-05 NDo=     1
 LinEq1:  Iter= 11 NonCon=     1 RMS=8.83D-07 Max=2.02D-05 NDo=     1
 LinEq1:  Iter= 12 NonCon=     1 RMS=3.55D-07 Max=9.17D-06 NDo=     1
 LinEq1:  Iter= 13 NonCon=     1 RMS=1.87D-07 Max=7.33D-06 NDo=     1
 LinEq1:  Iter= 14 NonCon=     1 RMS=9.93D-08 Max=2.57D-06 NDo=     1
 LinEq1:  Iter= 15 NonCon=     1 RMS=5.81D-08 Max=2.42D-06 NDo=     1
 LinEq1:  Iter= 16 NonCon=     1 RMS=2.66D-08 Max=8.27D-07 NDo=     1
 LinEq1:  Iter= 17 NonCon=     1 RMS=1.07D-08 Max=3.23D-07 NDo=     1
 LinEq1:  Iter= 18 NonCon=     0 RMS=4.34D-09 Max=1.03D-07 NDo=     1
 Linear equations converged to 1.814D-08 1.814D-07 after    18 iterations.
     Accept linear search using points  1 and  2.
     Minimum is close to point  2 DX= -2.20D-03 DF= -2.73D-10 DXR=  2.20D-03 DFR=  4.85D-06 which will be used.
 LinEq1:  Iter=  0 NonCon=     1 RMS=5.50D-07 Max=4.45D-05 NDo=     1
 LinEq1:  Iter=  1 NonCon=     1 RMS=5.68D-07 Max=3.65D-05 NDo=     1
 LinEq1:  Iter=  2 NonCon=     1 RMS=2.65D-07 Max=2.13D-05 NDo=     1
 LinEq1:  Iter=  3 NonCon=     1 RMS=1.77D-07 Max=8.90D-06 NDo=     1
 LinEq1:  Iter=  4 NonCon=     1 RMS=1.43D-07 Max=4.43D-06 NDo=     1
 LinEq1:  Iter=  5 NonCon=     1 RMS=1.22D-07 Max=7.26D-06 NDo=     1
 LinEq1:  Iter=  6 NonCon=     1 RMS=7.43D-08 Max=3.47D-06 NDo=     1
 LinEq1:  Iter=  7 NonCon=     1 RMS=6.81D-08 Max=4.37D-06 NDo=     1
 LinEq1:  Iter=  8 NonCon=     1 RMS=6.43D-08 Max=4.61D-06 NDo=     1
 LinEq1:  Iter=  9 NonCon=     1 RMS=4.10D-08 Max=1.30D-06 NDo=     1
 LinEq1:  Iter= 10 NonCon=     1 RMS=1.74D-08 Max=4.95D-07 NDo=     1
 LinEq1:  Iter= 11 NonCon=     1 RMS=7.88D-09 Max=1.99D-07 NDo=     1
 LinEq1:  Iter= 12 NonCon=     1 RMS=3.57D-09 Max=1.33D-07 NDo=     1
 LinEq1:  Iter= 13 NonCon=     1 RMS=1.62D-09 Max=3.57D-08 NDo=     1
 LinEq1:  Iter= 14 NonCon=     1 RMS=8.79D-10 Max=2.26D-08 NDo=     1
 LinEq1:  Iter= 15 NonCon=     1 RMS=4.80D-10 Max=1.25D-08 NDo=     1
 LinEq1:  Iter= 16 NonCon=     1 RMS=1.91D-10 Max=4.79D-09 NDo=     1
 LinEq1:  Iter= 17 NonCon=     0 RMS=8.72D-11 Max=2.25D-09 NDo=     1
 Linear equations converged to 3.330D-10 3.330D-09 after    17 iterations.
 SCF Done:  E(RB3LYP) =  -838.680676234     a.u. after    9 cycles
            Convg  =    0.5476D-08                    52 Fock formations.
              S**2 =  0.0000                  -V/T =  2.0088
 DoSCS=F DFT=T ScalE2(SS,OS)=  1.000000  1.000000
 Range of M.O.s used for correlation:     1   310
 NBasis=   310 NAE=    68 NBE=    68 NFC=     0 NFV=     0
 NROrb=    310 NOA=    68 NOB=    68 NVA=   242 NVB=   242
 Symmetrizing basis deriv contribution to polar:
 IMax=3 JMax=2 DiffMx= 0.00D+00
 G2DrvN: will do    39 centers at a time, making    1 passes.
 Calling FoFCou, ICntrl=  3107 FMM=F I1Cent=   0 AccDes= 0.00D+00.
 End of G2Drv F.D. properties file   721 does not exist.
 End of G2Drv F.D. properties file   722 does not exist.
 End of G2Drv F.D. properties file   788 does not exist.
          IDoAtm=11111111111111111111111111111111111111
          Differentiating once with respect to electric field.
                with respect to dipole field.
          Differentiating once with respect to nuclear coordinates.
 Keep R1 ints in memory in canonical form, NReq=1176942798.
          There are   117 degrees of freedom in the 1st order CPHF.  IDoFFX=6 NUNeed=     3.
    114 vectors produced by pass  0 Test12= 1.65D-14 1.00D-09 XBig12= 1.92D+02 5.08D+00.
 AX will form   114 AO Fock derivatives at one time.
    114 vectors produced by pass  1 Test12= 1.65D-14 1.00D-09 XBig12= 4.89D+01 1.25D+00.
    114 vectors produced by pass  2 Test12= 1.65D-14 1.00D-09 XBig12= 3.65D-01 7.34D-02.
    114 vectors produced by pass  3 Test12= 1.65D-14 1.00D-09 XBig12= 1.45D-03 5.13D-03.
    114 vectors produced by pass  4 Test12= 1.65D-14 1.00D-09 XBig12= 2.28D-06 1.28D-04.
     70 vectors produced by pass  5 Test12= 1.65D-14 1.00D-09 XBig12= 1.90D-09 3.30D-06.
     11 vectors produced by pass  6 Test12= 1.65D-14 1.00D-09 XBig12= 1.41D-12 8.88D-08.
      3 vectors produced by pass  7 Test12= 1.65D-14 1.00D-09 XBig12= 1.12D-15 2.90D-09.
 InvSVY:  IOpt=1 It=  1 EMax= 1.42D-14
 Solved reduced A of dimension   654 with   117 vectors.
 Isotropic polarizability for W=    0.000000      166.11 Bohr**3.
 End of Minotr F.D. properties file   721 does not exist.
 End of Minotr F.D. properties file   722 does not exist.
 End of Minotr F.D. properties file   788 does not exist.

 **********************************************************************

            Population analysis using the SCF density.

 **********************************************************************

 Orbital symmetries:
       Occupied  (A) (A) (A) (A) (A) (A) (A) (A) (A) (A) (A) (A)
                 (A) (A) (A) (A) (A) (A) (A) (A) (A) (A) (A) (A)
                 (A) (A) (A) (A) (A) (A) (A) (A) (A) (A) (A) (A)
                 (A) (A) (A) (A) (A) (A) (A) (A) (A) (A) (A) (A)
                 (A) (A) (A) (A) (A) (A) (A) (A) (A) (A) (A) (A)
                 (A) (A) (A) (A) (A) (A) (A) (A)
       Virtual   (A) (A) (A) (A) (A) (A) (A) (A) (A) (A) (A) (A)
                 (A) (A) (A) (A) (A) (A) (A) (A) (A) (A) (A) (A)
                 (A) (A) (A) (A) (A) (A) (A) (A) (A) (A) (A) (A)
                 (A) (A) (A) (A) (A) (A) (A) (A) (A) (A) (A) (A)
                 (A) (A) (A) (A) (A) (A) (A) (A) (A) (A) (A) (A)
                 (A) (A) (A) (A) (A) (A) (A) (A) (A) (A) (A) (A)
                 (A) (A) (A) (A) (A) (A) (A) (A) (A) (A) (A) (A)
                 (A) (A) (A) (A) (A) (A) (A) (A) (A) (A) (A) (A)
                 (A) (A) (A) (A) (A) (A) (A) (A) (A) (A) (A) (A)
                 (A) (A) (A) (A) (A) (A) (A) (A) (A) (A) (A) (A)
                 (A) (A) (A) (A) (A) (A) (A) (A) (A) (A) (A) (A)
                 (A) (A) (A) (A) (A) (A) (A) (A) (A) (A) (A) (A)
                 (A) (A) (A) (A) (A) (A) (A) (A) (A) (A) (A) (A)
                 (A) (A) (A) (A) (A) (A) (A) (A) (A) (A) (A) (A)
                 (A) (A) (A) (A) (A) (A) (A) (A) (A) (A) (A) (A)
                 (A) (A) (A) (A) (A) (A) (A) (A) (A) (A) (A) (A)
                 (A) (A) (A) (A) (A) (A) (A) (A) (A) (A) (A) (A)
                 (A) (A) (A) (A) (A) (A) (A) (A) (A) (A) (A) (A)
                 (A) (A) (A) (A) (A) (A) (A) (A) (A) (A) (A) (A)
                 (A) (A) (A) (A) (A) (A) (A) (A) (A) (A) (A) (A)
                 (A) (A)
 The electronic state is 1-A.
 Alpha  occ. eigenvalues --  -19.12160 -19.11773 -14.41110 -14.40718 -14.38193
 Alpha  occ. eigenvalues --  -14.36805 -10.31606 -10.30944 -10.23546 -10.22717
 Alpha  occ. eigenvalues --  -10.22438 -10.20648 -10.19881 -10.19522 -10.19519
 Alpha  occ. eigenvalues --  -10.19469 -10.19265 -10.19138  -1.10432  -1.04257
 Alpha  occ. eigenvalues --   -1.01114  -0.94959  -0.93807  -0.83022  -0.80951
 Alpha  occ. eigenvalues --   -0.79305  -0.77454  -0.77167  -0.69338  -0.66791
 Alpha  occ. eigenvalues --   -0.65120  -0.64683  -0.61394  -0.59370  -0.57489
 Alpha  occ. eigenvalues --   -0.56495  -0.54482  -0.51047  -0.48886  -0.47799
 Alpha  occ. eigenvalues --   -0.47130  -0.47009  -0.46648  -0.45135  -0.44754
 Alpha  occ. eigenvalues --   -0.44142  -0.43883  -0.43386  -0.42661  -0.41390
 Alpha  occ. eigenvalues --   -0.40775  -0.40170  -0.39120  -0.37910  -0.36898
 Alpha  occ. eigenvalues --   -0.36109  -0.35325  -0.34363  -0.34220  -0.33818
 Alpha  occ. eigenvalues --   -0.33429  -0.33251  -0.32711  -0.27717  -0.26851
 Alpha  occ. eigenvalues --   -0.24752  -0.23863  -0.22239
 Alpha virt. eigenvalues --   -0.11748   0.03411   0.05319   0.07416   0.09056
 Alpha virt. eigenvalues --    0.09874   0.10446   0.11377   0.12331   0.12711
 Alpha virt. eigenvalues --    0.13384   0.13990   0.14472   0.15132   0.15510
 Alpha virt. eigenvalues --    0.15860   0.16042   0.16206   0.16654   0.16904
 Alpha virt. eigenvalues --    0.17461   0.18038   0.18572   0.19741   0.20299
 Alpha virt. eigenvalues --    0.21299   0.21896   0.22498   0.23641   0.24268
 Alpha virt. eigenvalues --    0.25144   0.25448   0.25854   0.26307   0.27055
 Alpha virt. eigenvalues --    0.28151   0.29212   0.32006   0.35105   0.37443
 Alpha virt. eigenvalues --    0.41198   0.43269   0.48337   0.49319   0.49838
 Alpha virt. eigenvalues --    0.50368   0.51201   0.52155   0.52736   0.53226
 Alpha virt. eigenvalues --    0.54759   0.55077   0.55949   0.57239   0.57611
 Alpha virt. eigenvalues --    0.58573   0.59511   0.60326   0.60893   0.62861
 Alpha virt. eigenvalues --    0.63357   0.63851   0.64040   0.64407   0.65652
 Alpha virt. eigenvalues --    0.66377   0.68065   0.70075   0.70690   0.71871
 Alpha virt. eigenvalues --    0.72522   0.74071   0.75687   0.77006   0.77540
 Alpha virt. eigenvalues --    0.78743   0.79939   0.80091   0.81326   0.82239
 Alpha virt. eigenvalues --    0.82949   0.83579   0.83703   0.85258   0.86015
 Alpha virt. eigenvalues --    0.86653   0.86847   0.86910   0.87170   0.87774
 Alpha virt. eigenvalues --    0.89308   0.89661   0.90517   0.91311   0.91483
 Alpha virt. eigenvalues --    0.92188   0.92958   0.94193   0.94560   0.95338
 Alpha virt. eigenvalues --    0.95516   0.96266   0.98031   1.00467   1.00670
 Alpha virt. eigenvalues --    1.01113   1.04636   1.07133   1.07448   1.10470
 Alpha virt. eigenvalues --    1.13126   1.13651   1.15959   1.16593   1.17819
 Alpha virt. eigenvalues --    1.19430   1.24075   1.25667   1.27233   1.31089
 Alpha virt. eigenvalues --    1.31558   1.33261   1.35062   1.36006   1.37986
 Alpha virt. eigenvalues --    1.38748   1.39848   1.41135   1.44148   1.45724
 Alpha virt. eigenvalues --    1.47907   1.52949   1.53758   1.55663   1.57457
 Alpha virt. eigenvalues --    1.58277   1.59791   1.59962   1.63723   1.67076
 Alpha virt. eigenvalues --    1.68483   1.69947   1.70457   1.72121   1.74910
 Alpha virt. eigenvalues --    1.76646   1.77657   1.78576   1.80566   1.82153
 Alpha virt. eigenvalues --    1.83115   1.84369   1.86117   1.87367   1.87803
 Alpha virt. eigenvalues --    1.88068   1.89664   1.90588   1.91809   1.92324
 Alpha virt. eigenvalues --    1.93355   1.94545   1.96513   1.98004   1.98232
 Alpha virt. eigenvalues --    1.99042   1.99920   1.99937   2.00771   2.01207
 Alpha virt. eigenvalues --    2.03916   2.05313   2.06616   2.10234   2.10464
 Alpha virt. eigenvalues --    2.10709   2.15397   2.15506   2.16850   2.17611
 Alpha virt. eigenvalues --    2.21339   2.27030   2.27343   2.28855   2.29540
 Alpha virt. eigenvalues --    2.31890   2.32135   2.33049   2.33994   2.34523
 Alpha virt. eigenvalues --    2.35294   2.37356   2.38109   2.39961   2.40402
 Alpha virt. eigenvalues --    2.40476   2.42386   2.46148   2.48342   2.50815
 Alpha virt. eigenvalues --    2.56022   2.57605   2.60110   2.60809   2.61099
 Alpha virt. eigenvalues --    2.62556   2.64574   2.66089   2.67154   2.70401
 Alpha virt. eigenvalues --    2.71617   2.72402   2.73721   2.73936   2.75621
 Alpha virt. eigenvalues --    2.79140   2.82104   2.86749   2.94285   2.95049
 Alpha virt. eigenvalues --    3.08368   3.13887   3.21782   3.24929   3.85185
 Alpha virt. eigenvalues --    3.97421   4.00247   4.08633   4.14119   4.16554
 Alpha virt. eigenvalues --    4.17448   4.18472   4.24768   4.25822   4.39447
 Alpha virt. eigenvalues --    4.42269   4.50019   4.54104   4.54601   4.56612
 Alpha virt. eigenvalues --    4.59497   4.61464
          Condensed to atoms (all electrons):
               1          2          3          4          5          6
     1  C    4.329169   0.580297   0.165686  -0.056196   0.004000  -0.000209
     2  O    0.580297   8.069017  -0.087012   0.001330   0.000796   0.000001
     3  N    0.165686  -0.087012   7.446191   0.197928  -0.032933   0.001864
     4  N   -0.056196   0.001330   0.197928   6.990737   0.228756  -0.070314
     5  C    0.004000   0.000796  -0.032933   0.228756   4.274735   0.592974
     6  O   -0.000209   0.000001   0.001864  -0.070314   0.592974   8.066883
     7  N    0.000449  -0.000007  -0.002534  -0.111085   0.280753  -0.111386
     8  C    0.007532  -0.000345  -0.183122  -0.001334  -0.030106   0.002715
     9  C   -0.000440   0.000001   0.001400   0.000935   0.001405  -0.000051
    10  C    0.000001  -0.000000  -0.000172  -0.000024  -0.000089  -0.000008
    11  C   -0.000000   0.000000  -0.000088  -0.000106   0.001075   0.000098
    12  C    0.000021   0.000000  -0.001000   0.004705  -0.017515  -0.000452
    13  N    0.302871  -0.101390  -0.106257   0.001977  -0.000213   0.000001
    14  C   -0.026148  -0.004723   0.003750  -0.000055   0.000003  -0.000000
    15  C    0.002383   0.000325  -0.000097   0.000008  -0.000000  -0.000000
    16  C   -0.000043  -0.000017  -0.000018   0.000001   0.000000  -0.000000
    17  C    0.001998  -0.000058  -0.000380   0.000024   0.000002  -0.000000
    18  C   -0.026203   0.002468  -0.005358   0.000788  -0.000028  -0.000000
    19  H    0.005685  -0.000715  -0.066007  -0.008190  -0.014134  -0.000184
    20  H   -0.000021   0.000015   0.009315  -0.000991   0.000130  -0.000079
    21  H   -0.000125   0.000000   0.003256  -0.000328   0.000436  -0.000023
    22  H    0.000048   0.000000   0.000358  -0.000018  -0.000059   0.000000
    23  H   -0.000000   0.000000   0.000005   0.000000   0.000011   0.000000
    24  H   -0.000000  -0.000000   0.000004  -0.000001  -0.000020   0.000000
    25  H    0.000000  -0.000000   0.000014  -0.000013   0.000596   0.000038
    26  H    0.000000  -0.000000   0.000000   0.000001  -0.000037  -0.000006
    27  H    0.000001   0.000000  -0.000011   0.000462  -0.001478   0.013817
    28  H    0.000002  -0.000000   0.000093  -0.000160   0.000700   0.000639
    29  H   -0.002040   0.017072   0.000654  -0.000010   0.000000  -0.000000
    30  H   -0.000491   0.001066  -0.000129  -0.000005  -0.000000   0.000000
    31  H    0.000602   0.000039  -0.000010  -0.000003  -0.000000   0.000000
    32  H   -0.000085  -0.000008   0.000002  -0.000000   0.000000  -0.000000
    33  H    0.000013   0.000000  -0.000000   0.000000  -0.000000  -0.000000
    34  H   -0.000028   0.000000  -0.000000  -0.000000  -0.000000   0.000000
    35  H    0.000310  -0.000012   0.000130  -0.000020  -0.000001   0.000000
    36  H   -0.000069   0.000001   0.000008  -0.000000  -0.000000   0.000000
    37  H   -0.009950   0.000125   0.012484   0.000031   0.000043   0.000000
    38  H   -0.000447   0.000023   0.000422  -0.000057  -0.000004   0.000000
               7          8          9         10         11         12
     1  C    0.000449   0.007532  -0.000440   0.000001  -0.000000   0.000021
     2  O   -0.000007  -0.000345   0.000001  -0.000000   0.000000   0.000000
     3  N   -0.002534  -0.183122   0.001400  -0.000172  -0.000088  -0.001000
     4  N   -0.111085  -0.001334   0.000935  -0.000024  -0.000106   0.004705
     5  C    0.280753  -0.030106   0.001405  -0.000089   0.001075  -0.017515
     6  O   -0.111386   0.002715  -0.000051  -0.000008   0.000098  -0.000452
     7  N    7.096207   0.285350  -0.053015  -0.014032  -0.043886   0.282327
     8  C    0.285350   5.130244   0.371108  -0.041800  -0.015167  -0.045080
     9  C   -0.053015   0.371108   5.032889   0.384854  -0.046190  -0.012562
    10  C   -0.014032  -0.041800   0.384854   5.016568   0.383443  -0.040830
    11  C   -0.043886  -0.015167  -0.046190   0.383443   5.028930   0.374238
    12  C    0.282327  -0.045080  -0.012562  -0.040830   0.374238   4.911962
    13  N   -0.000005  -0.000298   0.000049  -0.000001  -0.000000  -0.000000
    14  C    0.000000  -0.000004  -0.000000   0.000000   0.000000   0.000000
    15  C    0.000000   0.000000  -0.000000   0.000000   0.000000  -0.000000
    16  C    0.000000   0.000000  -0.000000   0.000000  -0.000000   0.000000
    17  C   -0.000000   0.000004   0.000008  -0.000001   0.000000  -0.000000
    18  C    0.000027   0.000644  -0.001097   0.000047   0.000000   0.000001
    19  H   -0.027456   0.383990  -0.023164   0.003827   0.000267   0.003460
    20  H   -0.061602   0.343019  -0.045705  -0.009631  -0.001319  -0.004899
    21  H    0.000105  -0.042474   0.363692  -0.044738  -0.004176  -0.000823
    22  H    0.004447  -0.030324   0.361146  -0.033712   0.005213   0.000049
    23  H   -0.000102   0.005229  -0.034658   0.371907  -0.033494   0.004954
    24  H   -0.000921  -0.003457  -0.040670   0.369941  -0.041276  -0.003157
    25  H   -0.000078  -0.000416  -0.004400  -0.043115   0.370738  -0.038009
    26  H    0.004019   0.000025   0.005226  -0.034070   0.366936  -0.031927
    27  H   -0.031972   0.004059   0.000011   0.004062  -0.029469   0.373238
    28  H   -0.055763  -0.001860  -0.001388  -0.007020  -0.048610   0.373450
    29  H    0.000000   0.000001  -0.000000  -0.000000   0.000000   0.000000
    30  H   -0.000000   0.000003  -0.000000   0.000000  -0.000000   0.000000
    31  H    0.000000   0.000000  -0.000000  -0.000000  -0.000000  -0.000000
    32  H   -0.000000  -0.000000   0.000000   0.000000  -0.000000   0.000000
    33  H   -0.000000  -0.000000   0.000000  -0.000000   0.000000  -0.000000
    34  H    0.000000  -0.000000  -0.000000  -0.000000  -0.000000  -0.000000
    35  H    0.000000  -0.000004   0.000001   0.000000  -0.000000  -0.000000
    36  H    0.000000   0.000000   0.000001  -0.000000   0.000000   0.000000
    37  H    0.000088  -0.002269   0.002164  -0.000073  -0.000003  -0.000010
    38  H   -0.000000  -0.000199   0.000131   0.000000   0.000000  -0.000000
              13         14         15         16         17         18
     1  C    0.302871  -0.026148   0.002383  -0.000043   0.001998  -0.026203
     2  O   -0.101390  -0.004723   0.000325  -0.000017  -0.000058   0.002468
     3  N   -0.106257   0.003750  -0.000097  -0.000018  -0.000380  -0.005358
     4  N    0.001977  -0.000055   0.000008   0.000001   0.000024   0.000788
     5  C   -0.000213   0.000003  -0.000000   0.000000   0.000002  -0.000028
     6  O    0.000001  -0.000000  -0.000000  -0.000000  -0.000000  -0.000000
     7  N   -0.000005   0.000000   0.000000   0.000000  -0.000000   0.000027
     8  C   -0.000298  -0.000004   0.000000   0.000000   0.000004   0.000644
     9  C    0.000049  -0.000000  -0.000000  -0.000000   0.000008  -0.001097
    10  C   -0.000001   0.000000   0.000000   0.000000  -0.000001   0.000047
    11  C   -0.000000   0.000000   0.000000  -0.000000   0.000000   0.000000
    12  C   -0.000000   0.000000  -0.000000   0.000000  -0.000000   0.000001
    13  N    7.042991   0.285326  -0.046101  -0.013561  -0.051393   0.284525
    14  C    0.285326   4.928519   0.372644  -0.039966  -0.013531  -0.043005
    15  C   -0.046101   0.372644   5.026412   0.378858  -0.045585  -0.014089
    16  C   -0.013561  -0.039966   0.378858   5.012162   0.387243  -0.042151
    17  C   -0.051393  -0.013531  -0.045585   0.387243   5.039977   0.367280
    18  C    0.284525  -0.043005  -0.014089  -0.042151   0.367280   4.955834
    19  H    0.000033   0.000029   0.000002   0.000001   0.000012   0.001777
    20  H    0.000006  -0.000000  -0.000000  -0.000000  -0.000000  -0.000047
    21  H    0.000031   0.000000  -0.000000  -0.000000   0.000003  -0.001521
    22  H   -0.000016   0.000000  -0.000000   0.000000  -0.000003   0.000217
    23  H   -0.000000  -0.000000  -0.000000  -0.000000   0.000000  -0.000001
    24  H    0.000000  -0.000000  -0.000000  -0.000000   0.000000  -0.000001
    25  H    0.000000   0.000000  -0.000000  -0.000000   0.000000  -0.000001
    26  H    0.000000   0.000000  -0.000000   0.000000  -0.000000   0.000000
    27  H   -0.000000   0.000000  -0.000000  -0.000000  -0.000000  -0.000000
    28  H    0.000000   0.000000  -0.000000  -0.000000  -0.000000  -0.000000
    29  H   -0.031291   0.372140  -0.027760   0.003975   0.000055   0.003594
    30  H   -0.054989   0.374697  -0.047057  -0.006813  -0.001616  -0.001419
    31  H   -0.000857  -0.038231   0.373360  -0.042716  -0.004433  -0.000175
    32  H    0.004163  -0.032132   0.367359  -0.033564   0.005097   0.000124
    33  H   -0.000090   0.004954  -0.032900   0.374910  -0.033148   0.004849
    34  H   -0.000961  -0.003611  -0.041859   0.370705  -0.042626  -0.003196
    35  H    0.000695  -0.000781  -0.003723  -0.042253   0.369196  -0.037342
    36  H    0.004078   0.000029   0.005198  -0.034034   0.363699  -0.030776
    37  H   -0.027526   0.003567   0.000018   0.003957  -0.027584   0.370653
    38  H   -0.057865  -0.002920  -0.001075  -0.006974  -0.052060   0.370207
              19         20         21         22         23         24
     1  C    0.005685  -0.000021  -0.000125   0.000048  -0.000000  -0.000000
     2  O   -0.000715   0.000015   0.000000   0.000000   0.000000  -0.000000
     3  N   -0.066007   0.009315   0.003256   0.000358   0.000005   0.000004
     4  N   -0.008190  -0.000991  -0.000328  -0.000018   0.000000  -0.000001
     5  C   -0.014134   0.000130   0.000436  -0.000059   0.000011  -0.000020
     6  O   -0.000184  -0.000079  -0.000023   0.000000   0.000000   0.000000
     7  N   -0.027456  -0.061602   0.000105   0.004447  -0.000102  -0.000921
     8  C    0.383990   0.343019  -0.042474  -0.030324   0.005229  -0.003457
     9  C   -0.023164  -0.045705   0.363692   0.361146  -0.034658  -0.040670
    10  C    0.003827  -0.009631  -0.044738  -0.033712   0.371907   0.369941
    11  C    0.000267  -0.001319  -0.004176   0.005213  -0.033494  -0.041276
    12  C    0.003460  -0.004899  -0.000823   0.000049   0.004954  -0.003157
    13  N    0.000033   0.000006   0.000031  -0.000016  -0.000000   0.000000
    14  C    0.000029  -0.000000   0.000000   0.000000  -0.000000  -0.000000
    15  C    0.000002  -0.000000  -0.000000  -0.000000  -0.000000  -0.000000
    16  C    0.000001  -0.000000  -0.000000   0.000000  -0.000000  -0.000000
    17  C    0.000012  -0.000000   0.000003  -0.000003   0.000000   0.000000
    18  C    0.001777  -0.000047  -0.001521   0.000217  -0.000001  -0.000001
    19  H    0.512676  -0.031640  -0.005197  -0.002590  -0.000142  -0.000034
    20  H   -0.031640   0.655125   0.007106  -0.000940   0.000022   0.005506
    21  H   -0.005197   0.007106   0.608262  -0.033682  -0.004577   0.006161
    22  H   -0.002590  -0.000940  -0.033682   0.600302  -0.002318  -0.004370
    23  H   -0.000142   0.000022  -0.004577  -0.002318   0.597378  -0.035609
    24  H   -0.000034   0.005506   0.006161  -0.004370  -0.035609   0.606104
    25  H   -0.000030   0.000239   0.005228  -0.000001  -0.005062   0.006091
    26  H    0.000006   0.000041  -0.000013  -0.000149  -0.002256  -0.004410
    27  H   -0.000162  -0.000129  -0.000027   0.000010  -0.000138  -0.000055
    28  H   -0.000107   0.008767   0.000256   0.000052  -0.000070   0.005070
    29  H    0.000002  -0.000000  -0.000000  -0.000000  -0.000000   0.000000
    30  H   -0.000018   0.000000   0.000000   0.000000  -0.000000   0.000000
    31  H   -0.000000   0.000000   0.000000   0.000000  -0.000000   0.000000
    32  H   -0.000000   0.000000   0.000000   0.000000   0.000000  -0.000000
    33  H   -0.000000   0.000000   0.000000  -0.000000   0.000000   0.000000
    34  H   -0.000000   0.000000  -0.000000   0.000000   0.000000   0.000000
    35  H    0.000003   0.000000   0.000001   0.000000   0.000000   0.000000
    36  H   -0.000002   0.000000   0.000020   0.000001  -0.000000   0.000000
    37  H   -0.002052   0.000115   0.006077  -0.000161   0.000006   0.000003
    38  H    0.000028   0.000008   0.000029   0.000221   0.000000   0.000000
              25         26         27         28         29         30
     1  C    0.000000   0.000000   0.000001   0.000002  -0.002040  -0.000491
     2  O   -0.000000  -0.000000   0.000000  -0.000000   0.017072   0.001066
     3  N    0.000014   0.000000  -0.000011   0.000093   0.000654  -0.000129
     4  N   -0.000013   0.000001   0.000462  -0.000160  -0.000010  -0.000005
     5  C    0.000596  -0.000037  -0.001478   0.000700   0.000000  -0.000000
     6  O    0.000038  -0.000006   0.013817   0.000639  -0.000000   0.000000
     7  N   -0.000078   0.004019  -0.031972  -0.055763   0.000000  -0.000000
     8  C   -0.000416   0.000025   0.004059  -0.001860   0.000001   0.000003
     9  C   -0.004400   0.005226   0.000011  -0.001388  -0.000000  -0.000000
    10  C   -0.043115  -0.034070   0.004062  -0.007020  -0.000000   0.000000
    11  C    0.370738   0.366936  -0.029469  -0.048610   0.000000  -0.000000
    12  C   -0.038009  -0.031927   0.373238   0.373450   0.000000   0.000000
    13  N    0.000000   0.000000  -0.000000   0.000000  -0.031291  -0.054989
    14  C    0.000000   0.000000   0.000000   0.000000   0.372140   0.374697
    15  C   -0.000000  -0.000000  -0.000000  -0.000000  -0.027760  -0.047057
    16  C   -0.000000   0.000000  -0.000000  -0.000000   0.003975  -0.006813
    17  C    0.000000  -0.000000  -0.000000  -0.000000   0.000055  -0.001616
    18  C   -0.000001   0.000000  -0.000000  -0.000000   0.003594  -0.001419
    19  H   -0.000030   0.000006  -0.000162  -0.000107   0.000002  -0.000018
    20  H    0.000239   0.000041  -0.000129   0.008767  -0.000000   0.000000
    21  H    0.005228  -0.000013  -0.000027   0.000256  -0.000000   0.000000
    22  H   -0.000001  -0.000149   0.000010   0.000052  -0.000000   0.000000
    23  H   -0.005062  -0.002256  -0.000138  -0.000070  -0.000000  -0.000000
    24  H    0.006091  -0.004410  -0.000055   0.005070   0.000000   0.000000
    25  H    0.592248  -0.032149  -0.004546   0.006124   0.000000   0.000000
    26  H   -0.032149   0.587825  -0.001091  -0.001777   0.000000   0.000000
    27  H   -0.004546  -0.001091   0.514012  -0.032162   0.000000  -0.000000
    28  H    0.006124  -0.001777  -0.032162   0.608168   0.000000   0.000000
    29  H    0.000000   0.000000   0.000000   0.000000   0.500543  -0.031273
    30  H    0.000000   0.000000  -0.000000   0.000000  -0.031273   0.604388
    31  H    0.000000   0.000000  -0.000000   0.000000  -0.004275   0.005959
    32  H    0.000000   0.000000   0.000000   0.000000  -0.001428  -0.001600
    33  H    0.000000  -0.000000   0.000000  -0.000000  -0.000138  -0.000090
    34  H    0.000000   0.000000  -0.000000   0.000000  -0.000049   0.005344
    35  H    0.000000  -0.000000  -0.000000   0.000000  -0.000033   0.000235
    36  H    0.000000   0.000000  -0.000000   0.000000   0.000010   0.000041
    37  H   -0.000000  -0.000000   0.000000   0.000000  -0.000141  -0.000062
    38  H    0.000000  -0.000000  -0.000000   0.000000  -0.000180   0.008155
              31         32         33         34         35         36
     1  C    0.000602  -0.000085   0.000013  -0.000028   0.000310  -0.000069
     2  O    0.000039  -0.000008   0.000000   0.000000  -0.000012   0.000001
     3  N   -0.000010   0.000002  -0.000000  -0.000000   0.000130   0.000008
     4  N   -0.000003  -0.000000   0.000000  -0.000000  -0.000020  -0.000000
     5  C   -0.000000   0.000000  -0.000000  -0.000000  -0.000001  -0.000000
     6  O    0.000000  -0.000000  -0.000000   0.000000   0.000000   0.000000
     7  N    0.000000  -0.000000  -0.000000   0.000000   0.000000   0.000000
     8  C    0.000000  -0.000000  -0.000000  -0.000000  -0.000004   0.000000
     9  C   -0.000000   0.000000   0.000000  -0.000000   0.000001   0.000001
    10  C   -0.000000   0.000000  -0.000000  -0.000000   0.000000  -0.000000
    11  C   -0.000000  -0.000000   0.000000  -0.000000  -0.000000   0.000000
    12  C   -0.000000   0.000000  -0.000000  -0.000000  -0.000000   0.000000
    13  N   -0.000857   0.004163  -0.000090  -0.000961   0.000695   0.004078
    14  C   -0.038231  -0.032132   0.004954  -0.003611  -0.000781   0.000029
    15  C    0.373360   0.367359  -0.032900  -0.041859  -0.003723   0.005198
    16  C   -0.042716  -0.033564   0.374910   0.370705  -0.042253  -0.034034
    17  C   -0.004433   0.005097  -0.033148  -0.042626   0.369196   0.363699
    18  C   -0.000175   0.000124   0.004849  -0.003196  -0.037342  -0.030776
    19  H   -0.000000  -0.000000  -0.000000  -0.000000   0.000003  -0.000002
    20  H    0.000000   0.000000   0.000000   0.000000   0.000000   0.000000
    21  H    0.000000   0.000000   0.000000  -0.000000   0.000001   0.000020
    22  H    0.000000   0.000000  -0.000000   0.000000   0.000000   0.000001
    23  H   -0.000000   0.000000   0.000000   0.000000   0.000000  -0.000000
    24  H    0.000000  -0.000000   0.000000   0.000000   0.000000   0.000000
    25  H    0.000000   0.000000   0.000000   0.000000   0.000000   0.000000
    26  H    0.000000   0.000000  -0.000000   0.000000  -0.000000   0.000000
    27  H   -0.000000   0.000000   0.000000  -0.000000  -0.000000  -0.000000
    28  H    0.000000   0.000000  -0.000000   0.000000   0.000000   0.000000
    29  H   -0.004275  -0.001428  -0.000138  -0.000049  -0.000033   0.000010
    30  H    0.005959  -0.001600  -0.000090   0.005344   0.000235   0.000041
    31  H    0.585669  -0.031654  -0.004936   0.006076   0.004975  -0.000007
    32  H   -0.031654   0.586088  -0.002547  -0.004337  -0.000001  -0.000148
    33  H   -0.004936  -0.002547   0.588665  -0.035304  -0.005305  -0.002392
    34  H    0.006076  -0.004337  -0.035304   0.610148   0.006106  -0.004393
    35  H    0.004975  -0.000001  -0.005305   0.006106   0.589663  -0.031609
    36  H   -0.000007  -0.000148  -0.002392  -0.004393  -0.031609   0.590870
    37  H   -0.000022   0.000010  -0.000138  -0.000039  -0.004614  -0.001304
    38  H    0.000229   0.000053  -0.000113   0.005208   0.006342  -0.001301
              37         38
     1  C   -0.009950  -0.000447
     2  O    0.000125   0.000023
     3  N    0.012484   0.000422
     4  N    0.000031  -0.000057
     5  C    0.000043  -0.000004
     6  O    0.000000   0.000000
     7  N    0.000088  -0.000000
     8  C   -0.002269  -0.000199
     9  C    0.002164   0.000131
    10  C   -0.000073   0.000000
    11  C   -0.000003   0.000000
    12  C   -0.000010  -0.000000
    13  N   -0.027526  -0.057865
    14  C    0.003567  -0.002920
    15  C    0.000018  -0.001075
    16  C    0.003957  -0.006974
    17  C   -0.027584  -0.052060
    18  C    0.370653   0.370207
    19  H   -0.002052   0.000028
    20  H    0.000115   0.000008
    21  H    0.006077   0.000029
    22  H   -0.000161   0.000221
    23  H    0.000006   0.000000
    24  H    0.000003   0.000000
    25  H   -0.000000   0.000000
    26  H   -0.000000  -0.000000
    27  H    0.000000  -0.000000
    28  H    0.000000   0.000000
    29  H   -0.000141  -0.000180
    30  H   -0.000062   0.008155
    31  H   -0.000022   0.000229
    32  H    0.000010   0.000053
    33  H   -0.000138  -0.000113
    34  H   -0.000039   0.005208
    35  H   -0.004614   0.006342
    36  H   -0.001304  -0.001301
    37  H    0.522623  -0.034767
    38  H   -0.034767   0.624587
 Mulliken charges:
               1
     1  C    0.721426
     2  O   -0.478289
     3  N   -0.358436
     4  N   -0.178773
     5  C    0.710202
     6  O   -0.496319
     7  N   -0.439927
     8  C   -0.135665
     9  C   -0.261681
    10  C   -0.265336
    11  C   -0.267154
    12  C   -0.132139
    13  N   -0.433931
    14  C   -0.140554
    15  C   -0.266321
    16  C   -0.269702
    17  C   -0.262179
    18  C   -0.156626
    19  H    0.270024
    20  H    0.127588
    21  H    0.137040
    22  H    0.136276
    23  H    0.138915
    24  H    0.135099
    25  H    0.146506
    26  H    0.143806
    27  H    0.191568
    28  H    0.145596
    29  H    0.200573
    30  H    0.145675
    31  H    0.150411
    32  H    0.144608
    33  H    0.143710
    34  H    0.132814
    35  H    0.148043
    36  H    0.142081
    37  H    0.188750
    38  H    0.142320
 Sum of Mulliken charges =  -0.00000
 Mulliken charges with hydrogens summed into heavy atoms:
               1
     1  C    0.721426
     2  O   -0.478289
     3  N   -0.358436
     4  N   -0.178773
     5  C    0.710202
     6  O   -0.496319
     7  N   -0.439927
     8  C    0.261947
     9  C    0.011636
    10  C    0.008678
    11  C    0.023158
    12  C    0.205025
    13  N   -0.433931
    14  C    0.205694
    15  C    0.028698
    16  C    0.006823
    17  C    0.027945
    18  C    0.174444
 APT charges:
               1
     1  C    1.108790
     2  O   -0.744995
     3  N    0.001394
     4  N   -0.165070
     5  C    0.889662
     6  O   -0.680159
     7  N   -0.697687
     8  C    0.193847
     9  C    0.068819
    10  C    0.120876
    11  C    0.083911
    12  C    0.362254
    13  N   -0.736596
    14  C    0.318544
    15  C    0.110165
    16  C    0.115562
    17  C    0.102329
    18  C    0.311042
    19  H    0.045386
    20  H   -0.080502
    21  H   -0.041806
    22  H   -0.048177
    23  H   -0.062766
    24  H   -0.049716
    25  H   -0.033767
    26  H   -0.048282
    27  H    0.016661
    28  H   -0.068201
    29  H    0.034586
    30  H   -0.082165
    31  H   -0.031396
    32  H   -0.053293
    33  H   -0.054039
    34  H   -0.046518
    35  H   -0.035269
    36  H   -0.050743
    37  H   -0.002785
    38  H   -0.069894
 Sum of APT charges =  -0.00000
 APT charges with hydrogens summed into heavy atoms:
               1
     1  C    1.108790
     2  O   -0.744995
     3  N    0.001394
     4  N   -0.165070
     5  C    0.889662
     6  O   -0.680159
     7  N   -0.697687
     8  C    0.158731
     9  C   -0.021164
    10  C    0.008394
    11  C    0.001862
    12  C    0.310714
    13  N   -0.736596
    14  C    0.270964
    15  C    0.025476
    16  C    0.015006
    17  C    0.016316
    18  C    0.238363
 Electronic spatial extent (au):  <R**2>=           5633.6462
 Charge=             -0.0000 electrons
 Dipole moment (field-independent basis, Debye):
    X=             -1.5602    Y=              6.6966    Z=             -1.1555  Tot=              6.9724
 Quadrupole moment (field-independent basis, Debye-Ang):
   XX=            -93.2107   YY=           -121.9860   ZZ=           -110.2844
   XY=              2.7860   XZ=             -7.0034   YZ=              2.0883
 Traceless Quadrupole moment (field-independent basis, Debye-Ang):
[...]
    53    N    4  py     Ryd( 3p)     0.00412
    54    N    4  pz     Val( 2p)     1.26262
    55    N    4  pz     Ryd( 3p)     0.00447
    56    N    4  dxy    Ryd( 3d)     0.00074
    57    N    4  dxz    Ryd( 3d)     0.00181
    58    N    4  dyz    Ryd( 3d)     0.00202
    59    N    4  dx2y2  Ryd( 3d)     0.00080
    60    N    4  dz2    Ryd( 3d)     0.00215
 
    61    C    5  S      Cor( 1S)     1.99934
    62    C    5  S      Val( 2S)     0.73345
    63    C    5  S      Ryd( 3S)     0.00457
    64    C    5  S      Ryd( 4S)     0.00039
    65    C    5  px     Val( 2p)     0.83080
    66    C    5  px     Ryd( 3p)     0.00782
    67    C    5  py     Val( 2p)     0.77840
    68    C    5  py     Ryd( 3p)     0.01857
    69    C    5  pz     Val( 2p)     0.81438
    70    C    5  pz     Ryd( 3p)     0.00545
    71    C    5  dxy    Ryd( 3d)     0.00311
    72    C    5  dxz    Ryd( 3d)     0.00200
    73    C    5  dyz    Ryd( 3d)     0.00180
    74    C    5  dx2y2  Ryd( 3d)     0.00217
    75    C    5  dz2    Ryd( 3d)     0.00090
 
    76    O    6  S      Cor( 1S)     1.99979
    77    O    6  S      Val( 2S)     1.70370
    78    O    6  S      Ryd( 3S)     0.00078
    79    O    6  S      Ryd( 4S)     0.00009
    80    O    6  px     Val( 2p)     1.75086
    81    O    6  px     Ryd( 3p)     0.00140
    82    O    6  py     Val( 2p)     1.56753
    83    O    6  py     Ryd( 3p)     0.00042
    84    O    6  pz     Val( 2p)     1.53165
    85    O    6  pz     Ryd( 3p)     0.00093
    86    O    6  dxy    Ryd( 3d)     0.00406
    87    O    6  dxz    Ryd( 3d)     0.00050
    88    O    6  dyz    Ryd( 3d)     0.00443
    89    O    6  dx2y2  Ryd( 3d)     0.00410
    90    O    6  dz2    Ryd( 3d)     0.00181
 
    91    N    7  S      Cor( 1S)     1.99928
    92    N    7  S      Val( 2S)     1.20566
    93    N    7  S      Ryd( 3S)     0.00173
    94    N    7  S      Ryd( 4S)     0.00007
    95    N    7  px     Val( 2p)     1.29979
    96    N    7  px     Ryd( 3p)     0.00161
    97    N    7  py     Val( 2p)     1.32511
    98    N    7  py     Ryd( 3p)     0.00189
    99    N    7  pz     Val( 2p)     1.62737
   100    N    7  pz     Ryd( 3p)     0.00449
   101    N    7  dxy    Ryd( 3d)     0.00073
   102    N    7  dxz    Ryd( 3d)     0.00071
   103    N    7  dyz    Ryd( 3d)     0.00043
   104    N    7  dx2y2  Ryd( 3d)     0.00065
   105    N    7  dz2    Ryd( 3d)     0.00060
 
   106    C    8  S      Cor( 1S)     1.99930
   107    C    8  S      Val( 2S)     1.01833
   108    C    8  S      Ryd( 3S)     0.00128
   109    C    8  S      Ryd( 4S)     0.00003
   110    C    8  px     Val( 2p)     1.22265
   111    C    8  px     Ryd( 3p)     0.00605
   112    C    8  py     Val( 2p)     0.86119
   113    C    8  py     Ryd( 3p)     0.00278
   114    C    8  pz     Val( 2p)     1.14364
   115    C    8  pz     Ryd( 3p)     0.00141
   116    C    8  dxy    Ryd( 3d)     0.00073
   117    C    8  dxz    Ryd( 3d)     0.00079
   118    C    8  dyz    Ryd( 3d)     0.00089
   119    C    8  dx2y2  Ryd( 3d)     0.00124
   120    C    8  dz2    Ryd( 3d)     0.00118
 
   121    C    9  S      Cor( 1S)     1.99932
   122    C    9  S      Val( 2S)     1.04170
   123    C    9  S      Ryd( 3S)     0.00066
   124    C    9  S      Ryd( 4S)     0.00002
   125    C    9  px     Val( 2p)     1.07398
   126    C    9  px     Ryd( 3p)     0.00201
   127    C    9  py     Val( 2p)     1.17593
   128    C    9  py     Ryd( 3p)     0.00295
   129    C    9  pz     Val( 2p)     1.16957
   130    C    9  pz     Ryd( 3p)     0.00235
   131    C    9  dxy    Ryd( 3d)     0.00050
   132    C    9  dxz    Ryd( 3d)     0.00096
   133    C    9  dyz    Ryd( 3d)     0.00047
   134    C    9  dx2y2  Ryd( 3d)     0.00083
   135    C    9  dz2    Ryd( 3d)     0.00072
 
   136    C   10  S      Cor( 1S)     1.99933
   137    C   10  S      Val( 2S)     1.03672
   138    C   10  S      Ryd( 3S)     0.00060
   139    C   10  S      Ryd( 4S)     0.00002
   140    C   10  px     Val( 2p)     1.12351
   141    C   10  px     Ryd( 3p)     0.00179
   142    C   10  py     Val( 2p)     1.06078
   143    C   10  py     Ryd( 3p)     0.00194
   144    C   10  pz     Val( 2p)     1.23374
   145    C   10  pz     Ryd( 3p)     0.00365
   146    C   10  dxy    Ryd( 3d)     0.00066
   147    C   10  dxz    Ryd( 3d)     0.00113
   148    C   10  dyz    Ryd( 3d)     0.00052
   149    C   10  dx2y2  Ryd( 3d)     0.00061
   150    C   10  dz2    Ryd( 3d)     0.00063
 
   151    C   11  S      Cor( 1S)     1.99932
   152    C   11  S      Val( 2S)     1.04118
   153    C   11  S      Ryd( 3S)     0.00063
   154    C   11  S      Ryd( 4S)     0.00002
   155    C   11  px     Val( 2p)     1.18453
   156    C   11  px     Ryd( 3p)     0.00359
   157    C   11  py     Val( 2p)     1.07702
   158    C   11  py     Ryd( 3p)     0.00188
   159    C   11  pz     Val( 2p)     1.15851
   160    C   11  pz     Ryd( 3p)     0.00171
   161    C   11  dxy    Ryd( 3d)     0.00088
   162    C   11  dxz    Ryd( 3d)     0.00074
   163    C   11  dyz    Ryd( 3d)     0.00040
   164    C   11  dx2y2  Ryd( 3d)     0.00054
   165    C   11  dz2    Ryd( 3d)     0.00091
 
   166    C   12  S      Cor( 1S)     1.99932
   167    C   12  S      Val( 2S)     1.01834
   168    C   12  S      Ryd( 3S)     0.00118
   169    C   12  S      Ryd( 4S)     0.00003
   170    C   12  px     Val( 2p)     0.92243
   171    C   12  px     Ryd( 3p)     0.00373
   172    C   12  py     Val( 2p)     1.13460
   173    C   12  py     Ryd( 3p)     0.00399
   174    C   12  pz     Val( 2p)     1.16843
   175    C   12  pz     Ryd( 3p)     0.00235
   176    C   12  dxy    Ryd( 3d)     0.00113
   177    C   12  dxz    Ryd( 3d)     0.00128
   178    C   12  dyz    Ryd( 3d)     0.00050
   179    C   12  dx2y2  Ryd( 3d)     0.00087
   180    C   12  dz2    Ryd( 3d)     0.00110
 
   181    N   13  S      Cor( 1S)     1.99928
   182    N   13  S      Val( 2S)     1.20566
   183    N   13  S      Ryd( 3S)     0.00173
   184    N   13  S      Ryd( 4S)     0.00007
   185    N   13  px     Val( 2p)     1.29978
   186    N   13  px     Ryd( 3p)     0.00161
   187    N   13  py     Val( 2p)     1.32511
   188    N   13  py     Ryd( 3p)     0.00189
   189    N   13  pz     Val( 2p)     1.62740
   190    N   13  pz     Ryd( 3p)     0.00449
   191    N   13  dxy    Ryd( 3d)     0.00073
   192    N   13  dxz    Ryd( 3d)     0.00071
   193    N   13  dyz    Ryd( 3d)     0.00043
   194    N   13  dx2y2  Ryd( 3d)     0.00065
   195    N   13  dz2    Ryd( 3d)     0.00060
 
   196    C   14  S      Cor( 1S)     1.99932
   197    C   14  S      Val( 2S)     1.01834
   198    C   14  S      Ryd( 3S)     0.00118
   199    C   14  S      Ryd( 4S)     0.00003
   200    C   14  px     Val( 2p)     0.92242
   201    C   14  px     Ryd( 3p)     0.00373
   202    C   14  py     Val( 2p)     1.13462
   203    C   14  py     Ryd( 3p)     0.00399
   204    C   14  pz     Val( 2p)     1.16842
   205    C   14  pz     Ryd( 3p)     0.00235
   206    C   14  dxy    Ryd( 3d)     0.00113
   207    C   14  dxz    Ryd( 3d)     0.00128
   208    C   14  dyz    Ryd( 3d)     0.00050
   209    C   14  dx2y2  Ryd( 3d)     0.00087
   210    C   14  dz2    Ryd( 3d)     0.00110
 
   211    C   15  S      Cor( 1S)     1.99932
   212    C   15  S      Val( 2S)     1.04118
   213    C   15  S      Ryd( 3S)     0.00063
   214    C   15  S      Ryd( 4S)     0.00002
   215    C   15  px     Val( 2p)     1.18454
   216    C   15  px     Ryd( 3p)     0.00359
   217    C   15  py     Val( 2p)     1.07702
   218    C   15  py     Ryd( 3p)     0.00188
   219    C   15  pz     Val( 2p)     1.15850
   220    C   15  pz     Ryd( 3p)     0.00171
   221    C   15  dxy    Ryd( 3d)     0.00088
   222    C   15  dxz    Ryd( 3d)     0.00074
   223    C   15  dyz    Ryd( 3d)     0.00040
   224    C   15  dx2y2  Ryd( 3d)     0.00055
   225    C   15  dz2    Ryd( 3d)     0.00091
 
   226    C   16  S      Cor( 1S)     1.99933
   227    C   16  S      Val( 2S)     1.03672
   228    C   16  S      Ryd( 3S)     0.00060
   229    C   16  S      Ryd( 4S)     0.00002
   230    C   16  px     Val( 2p)     1.12350
   231    C   16  px     Ryd( 3p)     0.00179
   232    C   16  py     Val( 2p)     1.06078
   233    C   16  py     Ryd( 3p)     0.00194
   234    C   16  pz     Val( 2p)     1.23374
   235    C   16  pz     Ryd( 3p)     0.00365
   236    C   16  dxy    Ryd( 3d)     0.00066
   237    C   16  dxz    Ryd( 3d)     0.00113
   238    C   16  dyz    Ryd( 3d)     0.00052
   239    C   16  dx2y2  Ryd( 3d)     0.00061
   240    C   16  dz2    Ryd( 3d)     0.00063
 
   241    C   17  S      Cor( 1S)     1.99932
   242    C   17  S      Val( 2S)     1.04170
   243    C   17  S      Ryd( 3S)     0.00066
   244    C   17  S      Ryd( 4S)     0.00002
   245    C   17  px     Val( 2p)     1.07398
   246    C   17  px     Ryd( 3p)     0.00201
   247    C   17  py     Val( 2p)     1.17593
   248    C   17  py     Ryd( 3p)     0.00295
   249    C   17  pz     Val( 2p)     1.16956
   250    C   17  pz     Ryd( 3p)     0.00235
   251    C   17  dxy    Ryd( 3d)     0.00050
   252    C   17  dxz    Ryd( 3d)     0.00096
   253    C   17  dyz    Ryd( 3d)     0.00047
   254    C   17  dx2y2  Ryd( 3d)     0.00083
   255    C   17  dz2    Ryd( 3d)     0.00072
 
   256    C   18  S      Cor( 1S)     1.99930
   257    C   18  S      Val( 2S)     1.01833
   258    C   18  S      Ryd( 3S)     0.00128
   259    C   18  S      Ryd( 4S)     0.00003
   260    C   18  px     Val( 2p)     1.22266
   261    C   18  px     Ryd( 3p)     0.00605
   262    C   18  py     Val( 2p)     0.86117
   263    C   18  py     Ryd( 3p)     0.00278
   264    C   18  pz     Val( 2p)     1.14363
   265    C   18  pz     Ryd( 3p)     0.00141
   266    C   18  dxy    Ryd( 3d)     0.00073
   267    C   18  dxz    Ryd( 3d)     0.00079
   268    C   18  dyz    Ryd( 3d)     0.00089
   269    C   18  dx2y2  Ryd( 3d)     0.00124
   270    C   18  dz2    Ryd( 3d)     0.00118
 
   271    H   19  S      Val( 1S)     0.72451
   272    H   19  S      Ryd( 2S)     0.00249
 
   273    H   20  S      Val( 1S)     0.77273
   274    H   20  S      Ryd( 2S)     0.00217
 
   275    H   21  S      Val( 1S)     0.75957
   276    H   21  S      Ryd( 2S)     0.00200
 
   277    H   22  S      Val( 1S)     0.75286
   278    H   22  S      Ryd( 2S)     0.00112
 
   279    H   23  S      Val( 1S)     0.75438
   280    H   23  S      Ryd( 2S)     0.00111
 
   281    H   24  S      Val( 1S)     0.77232
   282    H   24  S      Ryd( 2S)     0.00194
 
   283    H   25  S      Val( 1S)     0.76099
   284    H   25  S      Ryd( 2S)     0.00189
 
   285    H   26  S      Val( 1S)     0.75442
   286    H   26  S      Ryd( 2S)     0.00113
 
   287    H   27  S      Val( 1S)     0.73020
   288    H   27  S      Ryd( 2S)     0.00207
 
   289    H   28  S      Val( 1S)     0.77219
   290    H   28  S      Ryd( 2S)     0.00204
 
   291    H   29  S      Val( 1S)     0.73020
   292    H   29  S      Ryd( 2S)     0.00207
 
   293    H   30  S      Val( 1S)     0.77219
   294    H   30  S      Ryd( 2S)     0.00204
 
   295    H   31  S      Val( 1S)     0.76099
   296    H   31  S      Ryd( 2S)     0.00189
 
   297    H   32  S      Val( 1S)     0.75442
   298    H   32  S      Ryd( 2S)     0.00113
 
   299    H   33  S      Val( 1S)     0.75438
   300    H   33  S      Ryd( 2S)     0.00111
 
   301    H   34  S      Val( 1S)     0.77232
   302    H   34  S      Ryd( 2S)     0.00194
 
   303    H   35  S      Val( 1S)     0.75957
   304    H   35  S      Ryd( 2S)     0.00201
 
   305    H   36  S      Val( 1S)     0.75286
   306    H   36  S      Ryd( 2S)     0.00112
 
   307    H   37  S      Val( 1S)     0.72451
   308    H   37  S      Ryd( 2S)     0.00249
 
   309    H   38  S      Val( 1S)     0.77273
   310    H   38  S      Ryd( 2S)     0.00217


 Summary of Natural Population Analysis:                  
                                                          
                                       Natural Population 
                Natural  -----------------------------------------------
    Atom  No    Charge         Core      Valence    Rydberg      Total
 -----------------------------------------------------------------------
      C    1    0.79687      1.99934     3.15702    0.04677     5.20313
      O    2   -0.57204      1.99979     6.55373    0.01853     8.57204
      N    3   -0.25232      1.99941     5.22695    0.02596     7.25232
      N    4   -0.25233      1.99941     5.22696    0.02596     7.25233
      C    5    0.79686      1.99934     3.15703    0.04677     5.20314
      O    6   -0.57205      1.99979     6.55374    0.01853     8.57205
      N    7   -0.47011      1.99928     5.45794    0.01290     7.47011
      C    8   -0.26148      1.99930     4.24580    0.01637     6.26148
      C    9   -0.47198      1.99932     4.46118    0.01147     6.47198
      C   10   -0.46563      1.99933     4.45475    0.01155     6.46563
      C   11   -0.47189      1.99932     4.46124    0.01132     6.47189
      C   12   -0.25927      1.99932     4.24380    0.01615     6.25927
      N   13   -0.47012      1.99928     5.45794    0.01290     7.47012
      C   14   -0.25927      1.99932     4.24380    0.01615     6.25927
      C   15   -0.47189      1.99932     4.46124    0.01132     6.47189
      C   16   -0.46563      1.99933     4.45475    0.01155     6.46563
      C   17   -0.47198      1.99932     4.46118    0.01147     6.47198
      C   18   -0.26147      1.99930     4.24580    0.01637     6.26147
      H   19    0.27299      0.00000     0.72451    0.00249     0.72701
      H   20    0.22510      0.00000     0.77273    0.00217     0.77490
      H   21    0.23843      0.00000     0.75957    0.00200     0.76157
      H   22    0.24603      0.00000     0.75286    0.00112     0.75397
      H   23    0.24451      0.00000     0.75438    0.00111     0.75549
      H   24    0.22574      0.00000     0.77232    0.00194     0.77426
      H   25    0.23712      0.00000     0.76099    0.00189     0.76288
      H   26    0.24445      0.00000     0.75442    0.00113     0.75555
      H   27    0.26773      0.00000     0.73020    0.00207     0.73227
      H   28    0.22578      0.00000     0.77219    0.00204     0.77422
      H   29    0.26773      0.00000     0.73020    0.00207     0.73227
      H   30    0.22577      0.00000     0.77219    0.00204     0.77423
      H   31    0.23712      0.00000     0.76099    0.00189     0.76288
      H   32    0.24445      0.00000     0.75442    0.00113     0.75555
      H   33    0.24451      0.00000     0.75438    0.00111     0.75549
      H   34    0.22574      0.00000     0.77232    0.00194     0.77426
      H   35    0.23843      0.00000     0.75957    0.00201     0.76157
      H   36    0.24603      0.00000     0.75286    0.00112     0.75397
      H   37    0.27299      0.00000     0.72451    0.00249     0.72701
      H   38    0.22510      0.00000     0.77273    0.00217     0.77490
 =======================================================================
   * Total *   -0.00000     35.98882    99.63320    0.37798   136.00000

                                 Natural Population      
 --------------------------------------------------------
   Core                      35.98882 ( 99.9689% of  36)
   Valence                   99.63320 ( 99.6332% of 100)
   Natural Minimal Basis    135.62202 ( 99.7221% of 136)
   Natural Rydberg Basis      0.37798 (  0.2779% of 136)
 --------------------------------------------------------

    Atom  No          Natural Electron Configuration
 ----------------------------------------------------------------------------
      C    1      [core]2S( 0.73)2p( 2.42)3p( 0.03)3d( 0.01)
      O    2      [core]2S( 1.70)2p( 4.85)3d( 0.01)
      N    3      [core]2S( 1.40)2p( 3.83)3S( 0.01)3p( 0.01)3d( 0.01)
      N    4      [core]2S( 1.40)2p( 3.83)3S( 0.01)3p( 0.01)3d( 0.01)
      C    5      [core]2S( 0.73)2p( 2.42)3p( 0.03)3d( 0.01)
      O    6      [core]2S( 1.70)2p( 4.85)3d( 0.01)
      N    7      [core]2S( 1.21)2p( 4.25)3p( 0.01)
      C    8      [core]2S( 1.02)2p( 3.23)3p( 0.01)
      C    9      [core]2S( 1.04)2p( 3.42)3p( 0.01)
      C   10      [core]2S( 1.04)2p( 3.42)3p( 0.01)
      C   11      [core]2S( 1.04)2p( 3.42)3p( 0.01)
      C   12      [core]2S( 1.02)2p( 3.23)3p( 0.01)
      N   13      [core]2S( 1.21)2p( 4.25)3p( 0.01)
      C   14      [core]2S( 1.02)2p( 3.23)3p( 0.01)
      C   15      [core]2S( 1.04)2p( 3.42)3p( 0.01)
      C   16      [core]2S( 1.04)2p( 3.42)3p( 0.01)
      C   17      [core]2S( 1.04)2p( 3.42)3p( 0.01)
      C   18      [core]2S( 1.02)2p( 3.23)3p( 0.01)
      H   19            1S( 0.72)
      H   20            1S( 0.77)
      H   21            1S( 0.76)
      H   22            1S( 0.75)
      H   23            1S( 0.75)
      H   24            1S( 0.77)
      H   25            1S( 0.76)
      H   26            1S( 0.75)
      H   27            1S( 0.73)
      H   28            1S( 0.77)
      H   29            1S( 0.73)
      H   30            1S( 0.77)
      H   31            1S( 0.76)
      H   32            1S( 0.75)
      H   33            1S( 0.75)
      H   34            1S( 0.77)
      H   35            1S( 0.76)
      H   36            1S( 0.75)
      H   37            1S( 0.72)
      H   38            1S( 0.77)


 NBO analysis skipped by request.
 1\1\GINC-DELLA-R2C1N14\SP\RB3LYP TD-FC\6-31G(d)\C12H20N4O2\BJS4\22-Aug
 -2020\0\\# TD(NStates=10, Root=1) B3LYP/6-31G* scf=qc volume pop=NPA d
 ensity=current Geom=AllCheck Guess=Read\\Title Card Required\\0,1\C,0,
 2.5826183857,0.9929261208,-0.0022264983\O,0,2.6433939475,0.6254228118,
 1.160659592\N,0,1.9138734345,2.25866722,-0.2997189851\N,0,0.6737570356
 ,2.1472144628,-0.2962229941\C,0,0.0050151583,3.4129303633,-0.593754922
 8\O,0,-0.0556143132,3.7804415399,-1.7566472163\N,0,-0.5828715627,3.996
 3403667,0.4772905443\C,0,-0.4299633488,3.5348166198,1.8620521967\C,0,0
 .2077786037,4.6313350822,2.7261089409\C,0,-0.5708066132,5.9510307312,2
 .6056570294\C,0,-0.7258756401,6.3682669375,1.1344515182\C,0,-1.3420376
 51,5.2370613259,0.3006010324\N,0,3.1702889769,0.4094259039,-1.07335857
 28\C,0,3.9294310568,-0.8313208184,-0.8967415138\C,0,3.3131815306,-1.96
 25068121,-1.7305537435\C,0,3.1580223996,-1.5452540249,-3.2017453122\C,
 0,2.3794669883,-0.225534961,-3.322121337\C,0,3.0173056455,0.8709634648
 ,-2.4581106394\H,0,0.1667667455,2.6220174938,1.8769813752\H,0,-1.42827
 86844,3.2850809897,2.2515989587\H,0,1.2457249992,4.7779098161,2.399640
 1565\H,0,0.2403710039,4.2930702625,3.7689438979\H,0,-0.0691183886,6.74
 21620494,3.1754829723\H,0,-1.5677326485,5.8249854568,3.0538308997\H,0,
 0.2564540299,6.6215493108,0.7144665879\H,0,-1.3545530375,7.2632959313,
 1.0498479072\H,0,-1.3479186319,5.4702975135,-0.7647899146\H,0,-2.37948
 56833,5.0558982087,0.6196600444\H,0,3.9353931709,-1.0645676084,0.16864
 57457\H,0,4.9668592903,-0.6501880278,-1.2158853834\H,0,2.3308750853,-2
 .2157706127,-1.3105031658\H,0,3.9418453921,-2.8575498756,-1.6459973005
 \H,0,2.6562721624,-2.3363654295,-3.7715445755\H,0,4.1549210573,-1.4192
 303612,-3.6499860667\H,0,1.3415446402,-0.3720839057,-2.9955647975\H,0,
 2.3467964264,0.1127421327,-4.3649497811\H,0,2.4205946757,1.783773745,-
 2.4730028498\H,0,4.015604361,1.1206665764,-2.8477238294\\Version=ES64L
 -G16RevA.03\State=1-A\HF=-838.7633566\RMSD=1.929e-09\Dipole=-0.0002021
 ,-0.0000353,-0.0000204\Quadrupole=0.5338319,3.7992661,-4.3330979,-6.57
 83794,-8.6115987,10.4695458\PG=C01 [X(C12H20N4O2)]\\@


 A BIRD IN THE HAND IS SAFER THAN ONE OVERHEAD.

                       -- NEWTON'S SEVENTH LAW
 Job cpu time:       0 days  0 hours 47 minutes 38.9 seconds.
 Elapsed time:       0 days  0 hours  9 minutes 33.5 seconds.
 File lengths (MBytes):  RWF=    821 Int=      0 D2E=      0 Chk=    268 Scr=      1
 Normal termination of Gaussian 16 at Sat Aug 22 18:21:35 2020.
