 Entering Gaussian System, Link 0=g16
 Input=azadicarboxylate_3_conf3123.com
 Output=azadicarboxylate_3_conf3123.log
 Initial command:
 /opt/export//g16/l1.exe "/scratch/bjs4/job.11629/Gau-11631.inp" -scrdir="/scratch/bjs4/job.11629/"
 Entering Link 1 = /opt/export//g16/l1.exe PID=     11633.
  
 Copyright (c) 1988,1990,1992,1993,1995,1998,2003,2009,2016,
            Gaussian, Inc.  All Rights Reserved.
  
 This is part of the Gaussian(R) 16 program.  It is based on
 the Gaussian(R) 09 system (copyright 2009, Gaussian, Inc.),
 the Gaussian(R) 03 system (copyright 2003, Gaussian, Inc.),
 the Gaussian(R) 98 system (copyright 1998, Gaussian, Inc.),
 the Gaussian(R) 94 system (copyright 1995, Gaussian, Inc.),
 the Gaussian 92(TM) system (copyright 1992, Gaussian, Inc.),
 the Gaussian 90(TM) system (copyright 1990, Gaussian, Inc.),
 the Gaussian 88(TM) system (copyright 1988, Gaussian, Inc.),
 the Gaussian 86(TM) system (copyright 1986, Carnegie Mellon
 University), and the Gaussian 82(TM) system (copyright 1983,
 Carnegie Mellon University). Gaussian is a federally registered
 trademark of Gaussian, Inc.
  
 This software contains proprietary and confidential information,
 including trade secrets, belonging to Gaussian, Inc.
  
 This software is provided under written license and may be
 used, copied, transmitted, or stored only in accord with that
 written license.
  
 The following legend is applicable only to US Government
 contracts under FAR:
  
                    RESTRICTED RIGHTS LEGEND
  
 Use, reproduction and disclosure by the US Government is
 subject to restrictions as set forth in subparagraphs (a)
 and (c) of the Commercial Computer Software - Restricted
 Rights clause in FAR 52.227-19.
  
 Gaussian, Inc.
 340 Quinnipiac St., Bldg. 40, Wallingford CT 06492
  
  
 ---------------------------------------------------------------
 Warning -- This program may not be used in any manner that
 competes with the business of Gaussian, Inc. or will provide
 assistance to any competitor of Gaussian, Inc.  The licensee
 of this program is prohibited from giving any competitor of
 Gaussian, Inc. access to this program.  By using this program,
 the user acknowledges that Gaussian, Inc. is engaged in the
 business of creating and licensing software in the field of
 computational chemistry and represents and warrants to the
 licensee that it is not a competitor of Gaussian, Inc. and that
 it will not use this program in any manner prohibited above.
 ---------------------------------------------------------------
  

 Cite this work as:
 Gaussian 16, Revision A.03,
 M. J. Frisch, G. W. Trucks, H. B. Schlegel, G. E. Scuseria, 
 M. A. Robb, J. R. Cheeseman, G. Scalmani, V. Barone, 
 G. A. Petersson, H. Nakatsuji, X. Li, M. Caricato, A. V. Marenich, 
 J. Bloino, B. G. Janesko, R. Gomperts, B. Mennucci, H. P. Hratchian, 
 J. V. Ortiz, A. F. Izmaylov, J. L. Sonnenberg, D. Williams-Young, 
 F. Ding, F. Lipparini, F. Egidi, J. Goings, B. Peng, A. Petrone, 
 T. Henderson, D. Ranasinghe, V. G. Zakrzewski, J. Gao, N. Rega, 
 G. Zheng, W. Liang, M. Hada, M. Ehara, K. Toyota, R. Fukuda, 
 J. Hasegawa, M. Ishida, T. Nakajima, Y. Honda, O. Kitao, H. Nakai, 
 T. Vreven, K. Throssell, J. A. Montgomery, Jr., J. E. Peralta, 
 F. Ogliaro, M. J. Bearpark, J. J. Heyd, E. N. Brothers, K. N. Kudin, 
 V. N. Staroverov, T. A. Keith, R. Kobayashi, J. Normand, 
 K. Raghavachari, A. P. Rendell, J. C. Burant, S. S. Iyengar, 
 J. Tomasi, M. Cossi, J. M. Millam, M. Klene, C. Adamo, R. Cammi, 
 J. W. Ochterski, R. L. Martin, K. Morokuma, O. Farkas, 
 J. B. Foresman, and D. J. Fox, Gaussian, Inc., Wallingford CT, 2016.
 
 ******************************************
 Gaussian 16:  ES64L-G16RevA.03 25-Dec-2016
                22-Aug-2020 
 ******************************************
 %nprocshared=5
 Will use up to    5 processors via shared memory.
 %Mem=10GB
 %Chk=azadicarboxylate_3_conf31.chk
 ---------------------------------
 # opt=CalcAll B3LYP/6-31G* scf=qc
 ---------------------------------
 1/10=4,18=20,19=15,26=3,38=1/1,3;
 2/9=110,12=2,17=6,18=5,40=1/2;
 3/5=1,6=6,7=1,11=2,25=1,30=1,71=2,74=-5,140=1/1,2,3;
 4//1;
 5/5=2,8=3,38=5/8;
 8/6=4,10=90,11=11/1;
 11/6=1,8=1,9=11,15=111,16=1/1,2,10;
 10/6=1/2;
 6/7=2,8=2,9=2,10=2,18=1,28=1/1;
 7/10=1,25=1/1,2,3,16;
 1/10=4,18=20,19=15,26=3/3(3);
 2/9=110/2;
 7/8=1,9=1,25=1,44=-1/16;
 99//99;
 2/9=110/2;
 3/5=1,6=6,7=1,11=2,25=1,30=1,71=2,74=-5,140=1/1,2,3;
 4/5=5,16=3,69=1/1;
 5/5=2,8=3,38=5/8;
 8/6=4,10=90,11=11/1;
 11/6=1,8=1,9=11,15=111,16=1/1,2,10;
 10/6=1/2;
 7/10=1,25=1/1,2,3,16;
 1/10=4,18=20,19=15,26=3/3(-8);
 2/9=110/2;
 6/7=2,8=2,9=2,10=2,18=1,19=2,28=1/1;
 7/8=1,9=1,25=1,44=-1/16;
 99//99;
 -------------------
 Title Card Required
 -------------------
 Symbolic Z-matrix:
 Charge =  0 Multiplicity = 1
 C                    -1.92131  -0.10382   0.01867 
 C                    -3.33858  -0.06653   0.54697 
 O1                   -3.88531   1.2542    0.43219 
 C2                   -5.0041    1.3932   -0.331 
 O3                   -5.55839   0.46837  -0.91564 
 N4                   -5.404     2.7122   -0.3088 
 N5                   -6.6449    2.8402   -0.4308 
 C6                   -7.0458    4.1568   -0.3655 
 O7                   -6.39557   5.13885  -0.70591 
 O8                   -8.29625   4.21763   0.16915 
 C                    -8.86721   5.52287   0.33463 
 C                    -8.33313   6.18162   1.58728 
 C                    -7.4068    5.5335    2.41913 
 C                    -6.92574   6.15907   3.57275 
 C                    -7.35284   7.44502   3.89331 
 C                    -8.24329   8.11786   3.06072 
 C                    -8.72698   7.49054   1.90903 
 Cl                   -6.77902   8.20606   5.32558 
 C                    -1.30018   1.04449  -0.4969 
 C                     0.01044   0.98924  -0.9799 
 C                     0.71632  -0.2103   -0.93399 
 C                     0.12896  -1.35088  -0.39284 
 C                    -1.1826   -1.29614   0.087 
 Cl                    2.32107  -0.2843   -1.54985 
 H                    -3.3211   -0.32635   1.61143 
 H                    -3.94754  -0.82029   0.03565 
 H                    -9.962     5.50265   0.36217 
 H                    -8.5713    6.12545  -0.53124 
 H                    -7.05831   4.53035   2.17986 
 H                    -6.22248   5.6365    4.21573 
 H                    -8.5679    9.12636   3.30311 
 H                    -9.42152   8.03134   1.26859 
 H                    -1.83594   1.9913   -0.53474 
 H                     0.47114   1.88318  -1.39221 
 H                     0.68289  -2.28483  -0.3449 
 H                    -1.62582  -2.19668   0.5083 
 

 GradGradGradGradGradGradGradGradGradGradGradGradGradGradGradGradGradGrad
 Berny optimization.
 Initialization pass.
                           ----------------------------
                           !    Initial Parameters    !
                           ! (Angstroms and Degrees)  !
 --------------------------                            --------------------------
 ! Name  Definition              Value          Derivative Info.                !
 --------------------------------------------------------------------------------
 ! R1    R(1,2)                  1.513          calculate D2E/DX2 analytically  !
 ! R2    R(1,19)                 1.4036         calculate D2E/DX2 analytically  !
 ! R3    R(1,23)                 1.4043         calculate D2E/DX2 analytically  !
 ! R4    R(2,3)                  1.434          calculate D2E/DX2 analytically  !
 ! R5    R(2,25)                 1.0958         calculate D2E/DX2 analytically  !
 ! R6    R(2,26)                 1.0956         calculate D2E/DX2 analytically  !
 ! R7    R(3,4)                  1.3614         calculate D2E/DX2 analytically  !
 ! R8    R(4,5)                  1.2265         calculate D2E/DX2 analytically  !
 ! R9    R(4,6)                  1.3785         calculate D2E/DX2 analytically  !
 ! R10   R(6,7)                  1.2534         calculate D2E/DX2 analytically  !
 ! R11   R(7,8)                  1.3778         calculate D2E/DX2 analytically  !
 ! R12   R(8,9)                  1.226          calculate D2E/DX2 analytically  !
 ! R13   R(8,10)                 1.3613         calculate D2E/DX2 analytically  !
 ! R14   R(10,11)                1.4342         calculate D2E/DX2 analytically  !
 ! R15   R(11,12)                1.5127         calculate D2E/DX2 analytically  !
 ! R16   R(11,27)                1.0953         calculate D2E/DX2 analytically  !
 ! R17   R(11,28)                1.0956         calculate D2E/DX2 analytically  !
 ! R18   R(12,13)                1.4036         calculate D2E/DX2 analytically  !
 ! R19   R(12,17)                1.4042         calculate D2E/DX2 analytically  !
 ! R20   R(13,14)                1.3977         calculate D2E/DX2 analytically  !
 ! R21   R(13,29)                1.0886         calculate D2E/DX2 analytically  !
 ! R22   R(14,15)                1.3924         calculate D2E/DX2 analytically  !
 ! R23   R(14,30)                1.0868         calculate D2E/DX2 analytically  !
 ! R24   R(15,16)                1.3924         calculate D2E/DX2 analytically  !
 ! R25   R(15,18)                1.7204         calculate D2E/DX2 analytically  !
 ! R26   R(16,17)                1.3978         calculate D2E/DX2 analytically  !
 ! R27   R(16,31)                1.0868         calculate D2E/DX2 analytically  !
 ! R28   R(17,32)                1.0886         calculate D2E/DX2 analytically  !
 ! R29   R(19,20)                1.3979         calculate D2E/DX2 analytically  !
 ! R30   R(19,33)                1.0885         calculate D2E/DX2 analytically  !
 ! R31   R(20,21)                1.3926         calculate D2E/DX2 analytically  !
 ! R32   R(20,34)                1.0869         calculate D2E/DX2 analytically  !
 ! R33   R(21,22)                1.3924         calculate D2E/DX2 analytically  !
 ! R34   R(21,24)                1.7205         calculate D2E/DX2 analytically  !
 ! R35   R(22,23)                1.3977         calculate D2E/DX2 analytically  !
 ! R36   R(22,35)                1.0869         calculate D2E/DX2 analytically  !
 ! R37   R(23,36)                1.0885         calculate D2E/DX2 analytically  !
 ! A1    A(2,1,19)             121.5072         calculate D2E/DX2 analytically  !
 ! A2    A(2,1,23)             119.7818         calculate D2E/DX2 analytically  !
 ! A3    A(19,1,23)            118.666          calculate D2E/DX2 analytically  !
 ! A4    A(1,2,3)              110.6028         calculate D2E/DX2 analytically  !
 ! A5    A(1,2,25)             108.5655         calculate D2E/DX2 analytically  !
 ! A6    A(1,2,26)             109.9212         calculate D2E/DX2 analytically  !
 ! A7    A(3,2,25)             107.5894         calculate D2E/DX2 analytically  !
 ! A8    A(3,2,26)             112.6036         calculate D2E/DX2 analytically  !
 ! A9    A(25,2,26)            107.4018         calculate D2E/DX2 analytically  !
 ! A10   A(2,3,4)              116.8857         calculate D2E/DX2 analytically  !
 ! A11   A(3,4,5)              124.1668         calculate D2E/DX2 analytically  !
 ! A12   A(3,4,6)              109.091          calculate D2E/DX2 analytically  !
 ! A13   A(5,4,6)              126.7318         calculate D2E/DX2 analytically  !
 ! A14   A(4,6,7)              112.5413         calculate D2E/DX2 analytically  !
 ! A15   A(6,7,8)              112.397          calculate D2E/DX2 analytically  !
 ! A16   A(7,8,9)              126.7225         calculate D2E/DX2 analytically  !
 ! A17   A(7,8,10)             109.1827         calculate D2E/DX2 analytically  !
 ! A18   A(9,8,10)             124.0853         calculate D2E/DX2 analytically  !
 ! A19   A(8,10,11)            116.8498         calculate D2E/DX2 analytically  !
 ! A20   A(10,11,12)           110.5668         calculate D2E/DX2 analytically  !
 ! A21   A(10,11,27)           112.5817         calculate D2E/DX2 analytically  !
 ! A22   A(10,11,28)           107.5669         calculate D2E/DX2 analytically  !
 ! A23   A(12,11,27)           109.8833         calculate D2E/DX2 analytically  !
 ! A24   A(12,11,28)           108.6367         calculate D2E/DX2 analytically  !
 ! A25   A(27,11,28)           107.4561         calculate D2E/DX2 analytically  !
 ! A26   A(11,12,13)           121.5125         calculate D2E/DX2 analytically  !
 ! A27   A(11,12,17)           119.7768         calculate D2E/DX2 analytically  !
 ! A28   A(13,12,17)           118.6667         calculate D2E/DX2 analytically  !
 ! A29   A(12,13,14)           120.6392         calculate D2E/DX2 analytically  !
 ! A30   A(12,13,29)           120.4327         calculate D2E/DX2 analytically  !
 ! A31   A(14,13,29)           118.9258         calculate D2E/DX2 analytically  !
 ! A32   A(13,14,15)           119.8537         calculate D2E/DX2 analytically  !
 ! A33   A(13,14,30)           119.7244         calculate D2E/DX2 analytically  !
 ! A34   A(15,14,30)           120.4216         calculate D2E/DX2 analytically  !
 ! A35   A(14,15,16)           120.3158         calculate D2E/DX2 analytically  !
 ! A36   A(14,15,18)           119.8602         calculate D2E/DX2 analytically  !
 ! A37   A(16,15,18)           119.824          calculate D2E/DX2 analytically  !
 ! A38   A(15,16,17)           119.8076         calculate D2E/DX2 analytically  !
 ! A39   A(15,16,31)           120.4003         calculate D2E/DX2 analytically  !
 ! A40   A(17,16,31)           119.7916         calculate D2E/DX2 analytically  !
 ! A41   A(12,17,16)           120.6673         calculate D2E/DX2 analytically  !
 ! A42   A(12,17,32)           120.4784         calculate D2E/DX2 analytically  !
 ! A43   A(16,17,32)           118.8526         calculate D2E/DX2 analytically  !
 ! A44   A(1,19,20)            120.6283         calculate D2E/DX2 analytically  !
 ! A45   A(1,19,33)            120.4339         calculate D2E/DX2 analytically  !
 ! A46   A(20,19,33)           118.9356         calculate D2E/DX2 analytically  !
 ! A47   A(19,20,21)           119.8612         calculate D2E/DX2 analytically  !
 ! A48   A(19,20,34)           119.7336         calculate D2E/DX2 analytically  !
 ! A49   A(21,20,34)           120.4049         calculate D2E/DX2 analytically  !
 ! A50   A(20,21,22)           120.3042         calculate D2E/DX2 analytically  !
 ! A51   A(20,21,24)           119.8708         calculate D2E/DX2 analytically  !
 ! A52   A(22,21,24)           119.825          calculate D2E/DX2 analytically  !
 ! A53   A(21,22,23)           119.8148         calculate D2E/DX2 analytically  !
 ! A54   A(21,22,35)           120.3995         calculate D2E/DX2 analytically  !
 ! A55   A(23,22,35)           119.7853         calculate D2E/DX2 analytically  !
 ! A56   A(1,23,22)            120.6764         calculate D2E/DX2 analytically  !
 ! A57   A(1,23,36)            120.4688         calculate D2E/DX2 analytically  !
 ! A58   A(22,23,36)           118.853          calculate D2E/DX2 analytically  !
 ! D1    D(19,1,2,3)            -0.0006         calculate D2E/DX2 analytically  !
 ! D2    D(19,1,2,25)         -117.8291         calculate D2E/DX2 analytically  !
 ! D3    D(19,1,2,26)          124.9585         calculate D2E/DX2 analytically  !
 ! D4    D(23,1,2,3)           177.5282         calculate D2E/DX2 analytically  !
 ! D5    D(23,1,2,25)           59.6997         calculate D2E/DX2 analytically  !
 ! D6    D(23,1,2,26)          -57.5127         calculate D2E/DX2 analytically  !
 ! D7    D(2,1,19,20)          179.9791         calculate D2E/DX2 analytically  !
 ! D8    D(2,1,19,33)           -0.5608         calculate D2E/DX2 analytically  !
 ! D9    D(23,1,19,20)           2.4235         calculate D2E/DX2 analytically  !
 ! D10   D(23,1,19,33)        -178.1164         calculate D2E/DX2 analytically  !
 ! D11   D(2,1,23,22)         -179.8656         calculate D2E/DX2 analytically  !
 ! D12   D(2,1,23,36)            0.6175         calculate D2E/DX2 analytically  !
 ! D13   D(19,1,23,22)          -2.2668         calculate D2E/DX2 analytically  !
 ! D14   D(19,1,23,36)         178.2164         calculate D2E/DX2 analytically  !
 ! D15   D(1,2,3,4)            120.0002         calculate D2E/DX2 analytically  !
 ! D16   D(25,2,3,4)          -121.5752         calculate D2E/DX2 analytically  !
 ! D17   D(26,2,3,4)            -3.4222         calculate D2E/DX2 analytically  !
 ! D18   D(2,3,4,5)             -0.0795         calculate D2E/DX2 analytically  !
 ! D19   D(2,3,4,6)            178.8168         calculate D2E/DX2 analytically  !
 ! D20   D(3,4,6,7)           -149.647          calculate D2E/DX2 analytically  !
 ! D21   D(5,4,6,7)             29.2135         calculate D2E/DX2 analytically  !
 ! D22   D(4,6,7,8)            178.0638         calculate D2E/DX2 analytically  !
 ! D23   D(6,7,8,9)             29.6469         calculate D2E/DX2 analytically  !
 ! D24   D(6,7,8,10)          -149.257          calculate D2E/DX2 analytically  !
 ! D25   D(7,8,10,11)          178.9397         calculate D2E/DX2 analytically  !
 ! D26   D(9,8,10,11)            0.0005         calculate D2E/DX2 analytically  !
 ! D27   D(8,10,11,12)         -80.4708         calculate D2E/DX2 analytically  !
 ! D28   D(8,10,11,27)         156.1988         calculate D2E/DX2 analytically  !
 ! D29   D(8,10,11,28)          38.0061         calculate D2E/DX2 analytically  !
 ! D30   D(10,11,12,13)         -0.0001         calculate D2E/DX2 analytically  !
 ! D31   D(10,11,12,17)        177.5575         calculate D2E/DX2 analytically  !
 ! D32   D(27,11,12,13)        124.8787         calculate D2E/DX2 analytically  !
 ! D33   D(27,11,12,17)        -57.5637         calculate D2E/DX2 analytically  !
 ! D34   D(28,11,12,13)       -117.8234         calculate D2E/DX2 analytically  !
 ! D35   D(28,11,12,17)         59.7342         calculate D2E/DX2 analytically  !
 ! D36   D(11,12,13,14)       -179.9697         calculate D2E/DX2 analytically  !
 ! D37   D(11,12,13,29)         -0.5269         calculate D2E/DX2 analytically  !
 ! D38   D(17,12,13,14)          2.4463         calculate D2E/DX2 analytically  !
 ! D39   D(17,12,13,29)       -178.1109         calculate D2E/DX2 analytically  !
 ! D40   D(11,12,17,16)       -179.8986         calculate D2E/DX2 analytically  !
 ! D41   D(11,12,17,32)          0.5949         calculate D2E/DX2 analytically  !
 ! D42   D(13,12,17,16)         -2.2716         calculate D2E/DX2 analytically  !
 ! D43   D(13,12,17,32)        178.2219         calculate D2E/DX2 analytically  !
 ! D44   D(12,13,14,15)         -0.9083         calculate D2E/DX2 analytically  !
 ! D45   D(12,13,14,30)        178.8991         calculate D2E/DX2 analytically  !
 ! D46   D(29,13,14,15)        179.6406         calculate D2E/DX2 analytically  !
 ! D47   D(29,13,14,30)         -0.552          calculate D2E/DX2 analytically  !
 ! D48   D(13,14,15,16)         -0.8575         calculate D2E/DX2 analytically  !
 ! D49   D(13,14,15,18)        179.0858         calculate D2E/DX2 analytically  !
 ! D50   D(30,14,15,16)        179.3364         calculate D2E/DX2 analytically  !
 ! D51   D(30,14,15,18)         -0.7203         calculate D2E/DX2 analytically  !
 ! D52   D(14,15,16,17)          1.031          calculate D2E/DX2 analytically  !
 ! D53   D(14,15,16,31)       -179.2321         calculate D2E/DX2 analytically  !
 ! D54   D(18,15,16,17)       -178.9124         calculate D2E/DX2 analytically  !
 ! D55   D(18,15,16,31)          0.8246         calculate D2E/DX2 analytically  !
 ! D56   D(15,16,17,12)          0.5578         calculate D2E/DX2 analytically  !
 ! D57   D(15,16,17,32)       -179.9277         calculate D2E/DX2 analytically  !
 ! D58   D(31,16,17,12)       -179.1807         calculate D2E/DX2 analytically  !
 ! D59   D(31,16,17,32)          0.3337         calculate D2E/DX2 analytically  !
 ! D60   D(1,19,20,21)          -0.888          calculate D2E/DX2 analytically  !
 ! D61   D(1,19,20,34)         178.9152         calculate D2E/DX2 analytically  !
 ! D62   D(33,19,20,21)        179.6439         calculate D2E/DX2 analytically  !
 ! D63   D(33,19,20,34)         -0.5529         calculate D2E/DX2 analytically  !
 ! D64   D(19,20,21,22)         -0.8574         calculate D2E/DX2 analytically  !
 ! D65   D(19,20,21,24)        179.0887         calculate D2E/DX2 analytically  !
 ! D66   D(34,20,21,22)        179.3408         calculate D2E/DX2 analytically  !
 ! D67   D(34,20,21,24)         -0.7131         calculate D2E/DX2 analytically  !
 ! D68   D(20,21,22,23)          1.0135         calculate D2E/DX2 analytically  !
 ! D69   D(20,21,22,35)       -179.2333         calculate D2E/DX2 analytically  !
 ! D70   D(24,21,22,23)       -178.9326         calculate D2E/DX2 analytically  !
 ! D71   D(24,21,22,35)          0.8205         calculate D2E/DX2 analytically  !
 ! D72   D(21,22,23,1)           0.5727         calculate D2E/DX2 analytically  !
 ! D73   D(21,22,23,36)       -179.9028         calculate D2E/DX2 analytically  !
 ! D74   D(35,22,23,1)        -179.182          calculate D2E/DX2 analytically  !
 ! D75   D(35,22,23,36)          0.3425         calculate D2E/DX2 analytically  !
 --------------------------------------------------------------------------------
 Trust Radius=3.00D-01 FncErr=1.00D-07 GrdErr=1.00D-06 EigMax=2.50D+02 EigMin=1.00D-04
 Number of steps in this run=    180 maximum allowed number of steps=    216.
 GradGradGradGradGradGradGradGradGradGradGradGradGradGradGradGradGradGrad

                          Input orientation:                          
 ---------------------------------------------------------------------
 Center     Atomic      Atomic             Coordinates (Angstroms)
 Number     Number       Type             X           Y           Z
 ---------------------------------------------------------------------
      1          6           0       -1.921310   -0.103820    0.018670
      2          6           0       -3.338580   -0.066530    0.546970
      3          8           0       -3.885310    1.254200    0.432190
      4          6           0       -5.004100    1.393200   -0.331000
      5          8           0       -5.558390    0.468370   -0.915640
      6          7           0       -5.404000    2.712200   -0.308800
      7          7           0       -6.644900    2.840200   -0.430800
      8          6           0       -7.045800    4.156800   -0.365500
      9          8           0       -6.395570    5.138850   -0.705910
     10          8           0       -8.296250    4.217630    0.169150
     11          6           0       -8.867210    5.522870    0.334630
     12          6           0       -8.333130    6.181620    1.587280
     13          6           0       -7.406800    5.533500    2.419130
     14          6           0       -6.925740    6.159070    3.572750
     15          6           0       -7.352840    7.445020    3.893310
     16          6           0       -8.243290    8.117860    3.060720
     17          6           0       -8.726980    7.490540    1.909030
     18         17           0       -6.779020    8.206060    5.325580
     19          6           0       -1.300180    1.044490   -0.496900
     20          6           0        0.010440    0.989240   -0.979900
     21          6           0        0.716320   -0.210300   -0.933990
     22          6           0        0.128960   -1.350880   -0.392840
     23          6           0       -1.182600   -1.296140    0.087000
     24         17           0        2.321070   -0.284300   -1.549850
     25          1           0       -3.321100   -0.326350    1.611430
     26          1           0       -3.947540   -0.820290    0.035650
     27          1           0       -9.962000    5.502650    0.362170
     28          1           0       -8.571300    6.125450   -0.531240
     29          1           0       -7.058310    4.530350    2.179860
     30          1           0       -6.222480    5.636500    4.215730
     31          1           0       -8.567900    9.126360    3.303110
     32          1           0       -9.421520    8.031340    1.268590
     33          1           0       -1.835940    1.991300   -0.534740
     34          1           0        0.471140    1.883180   -1.392210
     35          1           0        0.682890   -2.284830   -0.344900
     36          1           0       -1.625820   -2.196680    0.508300
 ---------------------------------------------------------------------
                    Distance matrix (angstroms):
                    1          2          3          4          5
     1  C    0.000000
     2  C    1.512992   0.000000
     3  O    2.423327   1.434021   0.000000
     4  C    3.444841   2.382352   1.361422   0.000000
     5  O    3.798511   2.711624   2.287656   1.226520   0.000000
     6  N    4.490694   3.566461   2.231871   1.378468   2.329563
     7  N    5.584047   4.509641   3.297800   2.189976   2.653517
     8  C    6.675393   5.693206   4.364641   3.436163   4.014917
     9  O    6.930340   6.165296   4.763106   4.013308   4.749552
    10  O    7.703080   6.563175   5.320479   4.366441   4.767557
    11  C    8.944551   7.864619   6.561280   5.693932   6.169233
    12  C    9.114753   8.066421   6.737715   6.139316   6.826787
    13  C    8.223879   7.170476   5.887379   5.520712   6.339783
    14  C    8.769241   7.796227   6.570014   6.453331   7.375592
    15  C   10.074688   9.150719   7.894895   7.745056   8.661391
    16  C   10.808215   9.867085   8.544647   8.198608   9.029664
    17  C   10.371350   9.380798   8.032108   7.486997   8.205461
    18  Cl  10.991576  10.154186   8.980378   9.031185  10.015718
    19  C    1.403649   2.545409   2.755011   3.723996   4.317361
    20  C    2.433841   3.829088   4.152237   5.072462   5.593505
    21  C    2.806420   4.319274   5.018586   5.971433   6.311332
    22  C    2.434770   3.815315   4.856077   5.820834   5.994075
    23  C    1.404275   2.524235   3.732028   4.691603   4.823517
    24  Cl   4.526656   6.039513   6.694372   7.612997   7.940694
    25  H    2.132092   1.095850   2.051116   3.092309   3.467438
    26  H    2.149238   1.095643   2.112966   2.479978   2.271659
    27  H    9.808323   8.655611   7.414876   6.476792   6.809446
    28  H    9.128449   8.178295   6.827575   5.929520   6.420899
    29  H    7.248106   6.134658   4.884203   4.512860   5.322740
    30  H    8.310635   7.368937   6.243564   6.337413   7.313107
    31  H   11.838958  10.929379   9.598944   9.257926  10.090381
    32  H   11.135362  10.153738   8.790837   8.132477   8.768874
    33  H    2.168658   2.768156   2.382895   3.230553   4.039930
    34  H    3.415050   4.698484   4.764736   5.598616   6.211605
    35  H    3.416262   4.678516   5.830699   6.772736   6.845395
    36  H    2.169589   2.733602   4.125489   5.000444   4.959355
                    6          7          8          9         10
     6  N    0.000000
     7  N    1.253436   0.000000
     8  C    2.187599   1.377832   0.000000
     9  O    2.651328   2.328442   1.226010   0.000000
    10  O    3.295431   2.232534   1.361314   2.286255   0.000000
    11  C    4.506406   3.566688   2.381987   2.709096   1.434235
    12  C    4.920548   4.252982   3.093617   3.178086   2.422748
    13  C    4.405967   3.994553   3.127265   3.308203   2.754096
    14  C    5.409532   5.207896   4.419651   4.430447   4.151142
    15  C    6.622333   6.356373   5.389260   5.233317   5.017513
    16  C    6.973980   6.526811   5.372426   5.145490   4.855489
    17  C    6.228443   5.606739   4.371919   4.219458   3.731575
    18  Cl   7.988706   7.870601   6.989712   6.777439   6.693156
    19  C    4.433732   5.638703   6.535739   6.539913   7.710865
    20  C    5.721462   6.929727   7.758959   7.637493   8.985762
    21  C    6.811034   7.984129   8.924419   8.901933  10.101975
    22  C    6.865080   7.965662   9.045024   9.207828  10.114757
    23  C    5.834695   6.871255   8.019752   8.319427   9.000690
    24  Cl   8.378301   9.560512  10.433806  10.300612  11.659752
    25  H    4.154340   5.024479   6.154695   6.685121   6.890576
    26  H    3.836458   4.570833   5.876356   6.484914   6.656556
    27  H    5.386295   4.326730   3.293181   3.740664   2.112642
    28  H    4.661710   3.809721   2.496037   2.395348   2.050848
    29  H    3.497976   3.137365   2.572655   3.022774   2.381857
    30  H    5.449111   5.439483   4.884162   4.949763   4.763247
    31  H    8.012341   7.560147   6.361762   6.057350   5.830191
    32  H    6.849954   6.127437   4.829737   4.628339   4.125456
    33  H    3.647163   4.884417   5.644526   5.543158   6.869324
    34  H    6.031444   7.244185   7.920093   7.630341   9.206228
    35  H    7.875395   8.942585  10.061196  10.263817  11.098252
    36  H    6.248152   7.172394   8.396810   8.833732   9.260293
                   11         12         13         14         15
    11  C    0.000000
    12  C    1.512721   0.000000
    13  C    2.545201   1.403610   0.000000
    14  C    3.828770   2.433793   1.397711   0.000000
    15  C    4.318817   2.806229   2.414545   1.392423   0.000000
    16  C    3.815077   2.434774   2.791105   2.415568   1.392416
    17  C    2.523911   1.404248   2.415178   2.790205   2.414063
    18  Cl   6.039009   4.526423   3.998017   2.698909   1.720421
    19  C    8.832173   8.955239   8.120668   8.623683   9.842531
    20  C   10.054574  10.157085   9.339120   9.775702  10.938152
    21  C   11.239336  11.362482  10.498559  10.921569  12.125102
    22  C   11.344987  11.500713  10.587235  11.040564  12.317316
    23  C   10.276840  10.454559   9.530135  10.035650  11.356396
    24  Cl  12.745670  12.851525  12.009623  12.379885  13.526083
    25  H    8.161062   8.214299   7.189100   7.674691   9.047436
    26  H    8.032946   8.406408   7.616962   8.372110   9.736168
    27  H    1.095323   2.148281   3.280409   4.467391   4.800986
    28  H    1.095626   2.132606   3.226631   4.421734   4.775202
    29  H    2.768048   2.168642   1.088580   2.147195   3.393812
    30  H    4.697919   3.414784   2.154297   1.086774   2.156945
    31  H    4.678312   3.416238   3.877914   3.402088   2.156759
    32  H    2.733489   2.169705   3.409112   3.878591   3.392987
    33  H    7.916221   8.017183   7.232359   7.755504   8.932350
    34  H   10.170256  10.240562   9.482251   9.881695  10.958351
    35  H   12.354204  12.518095  11.584871  12.022424  13.311850
    36  H   10.585809  10.786478   9.840055  10.358502  11.714070
                   16         17         18         19         20
    16  C    0.000000
    17  C    1.397811   0.000000
    18  Cl   2.698417   3.997416   0.000000
    19  C   10.530717  10.124101  10.733455   0.000000
    20  C   11.630473  11.267445  11.744715   1.397879   0.000000
    21  C   12.868200  12.512458  12.891759   2.414916   1.392577
    22  C   13.102621  12.723875  13.105557   2.791248   2.415543
    23  C   12.137535  11.723618  12.208785   2.415225   2.790086
    24  Cl  14.263918  13.945300  14.218628   3.998479   2.699214
    25  H    9.880945   9.508726   9.927444   3.226201   4.420964
    26  H   10.367982   9.768444  10.838618   3.281696   4.468931
    27  H    4.132246   2.805309   6.486542   9.779587  11.028218
    28  H    4.120615   2.800469   6.468659   8.870542  10.011404
    29  H    3.879474   3.408890   4.846071   7.243778   8.514151
    30  H    3.402186   3.876964   2.853794   8.217328   9.350983
    31  H    1.086829   2.155150   2.852618  11.514185  12.575564
    32  H    2.146495   1.088583   4.844843  10.857679  11.983687
    33  H    9.566410   9.148775   9.869176   1.088540   2.147420
    34  H   11.603496  11.267035  11.733385   2.154659   1.086910
    35  H   14.124125  13.754407  14.067452   3.878149   3.402198
    36  H   12.517807  12.092591  12.568956   3.409054   3.878424
                   21         22         23         24         25
    21  C    0.000000
    22  C    1.392393   0.000000
    23  C    2.413994   1.397653   0.000000
    24  Cl   1.720460   2.698446   3.997349   0.000000
    25  H    4.774242   4.119426   2.799565   6.467576   0.000000
    26  H    4.802487   4.133156   2.806058   6.488187   1.766207
    27  H   12.179669  12.221636  11.107526  13.711981   8.924093
    28  H   11.250059  11.472105  10.490715  12.679361   8.589608
    29  H    9.623653   9.636623   8.535339  11.183218   6.154461
    30  H   10.433199  10.507292   9.513585  11.886548   7.124322
    31  H   13.831955  14.109145  13.172491  15.188200  10.942779
    32  H   13.249596  13.490666  12.501114  14.662261  10.352953
    33  H    3.394182   3.879579   3.408911   4.846600   3.490451
    34  H    2.157020   3.402201   3.876983   2.853955   5.318361
    35  H    2.156808   1.086922   2.155017   2.852658   4.867731
    36  H    3.392864   2.146319   1.088536   4.844700   2.754815
                   26         27         28         29         30
    26  H    0.000000
    27  H    8.732692   0.000000
    28  H    8.363242   1.766383   0.000000
    29  H    6.550105   3.561008   3.490494   0.000000
    30  H    8.021132   5.371392   5.318811   2.463117   0.000000
    31  H   11.443770   4.870720   4.869057   4.966272   4.302673
    32  H   10.480265   2.740071   2.755844   4.321123   4.965355
    33  H    3.562196   8.897577   7.902929   6.410068   7.422680
    34  H    5.373292  11.181629  10.025161   8.744130   9.504786
    35  H    4.871404  13.208273  12.506301  10.618252  11.455608
    36  H    2.740115  11.348697  10.889361   8.806758   9.809843
                   31         32         33         34         35
    31  H    0.000000
    32  H    2.463130   0.000000
    33  H   10.533635   9.862814   0.000000
    34  H   12.498557  11.947571   2.463648   0.000000
    35  H   15.136061  14.530169   4.966471   4.302790   0.000000
    36  H   13.572571  12.882677   4.321025   4.965323   2.462897
                   36
    36  H    0.000000
 Stoichiometry    C16H12Cl2N2O4
 Framework group  C1[X(C16H12Cl2N2O4)]
 Deg. of freedom   102
 Full point group                 C1      NOp   1
 Largest Abelian subgroup         C1      NOp   1
 Largest concise Abelian subgroup C1      NOp   1
                         Standard orientation:                         
 ---------------------------------------------------------------------
 Center     Atomic      Atomic             Coordinates (Angstroms)
 Number     Number       Type             X           Y           Z
 ---------------------------------------------------------------------
      1          6           0        4.228892   -0.030824    0.899782
      2          6           0        3.051298   -0.621468    1.643796
      3          8           0        1.858683   -0.533197    0.852408
      4          6           0        1.239680   -1.704558    0.539007
      5          8           0        1.639591   -2.810048    0.888742
      6          7           0        0.105780   -1.432655   -0.196190
      7          7           0       -0.797896   -2.282734   -0.017762
      8          6           0       -1.944863   -1.985110   -0.720832
      9          8           0       -2.016346   -1.379974   -1.784694
     10          8           0       -3.023965   -2.451686   -0.034523
     11          6           0       -4.313917   -2.207882   -0.612117
     12          6           0       -4.772228   -0.797658   -0.312875
     13          6           0       -3.981033    0.087583    0.435777
     14          6           0       -4.422770    1.386650    0.702025
     15          6           0       -5.650604    1.816629    0.205657
     16          6           0       -6.432594    0.964535   -0.569745
     17          6           0       -5.992177   -0.335748   -0.832756
     18         17           0       -6.205229    3.407725    0.553014
     19          6           0        4.086728    0.509854   -0.387730
     20          6           0        5.187290    1.051332   -1.058276
     21          6           0        6.434486    1.073065   -0.439164
     22          6           0        6.586833    0.574088    0.851793
     23          6           0        5.486968    0.029779    1.520717
     24         17           0        7.794026    1.718026   -1.273225
     25          1           0        2.886978   -0.037790    2.556596
     26          1           0        3.279452   -1.648877    1.948445
     27          1           0       -5.069101   -2.924948   -0.272639
     28          1           0       -4.217093   -2.321674   -1.697508
     29          1           0       -3.016081   -0.230828    0.826275
     30          1           0       -3.806144    2.053869    1.298405
     31          1           0       -7.385435    1.302894   -0.968245
     32          1           0       -6.615314   -0.988338   -1.441722
     33          1           0        3.117662    0.505884   -0.883527
     34          1           0        5.064313    1.450141   -2.061870
     35          1           0        7.556958    0.601623    1.341178
     36          1           0        5.623416   -0.354346    2.530043
 ---------------------------------------------------------------------
 Rotational constants (GHZ):           0.3450632           0.0565782           0.0516627
 Standard basis: 6-31G(d) (6D, 7F)
 There are   392 symmetry adapted cartesian basis functions of A   symmetry.
 There are   392 symmetry adapted basis functions of A   symmetry.
   392 basis functions,   768 primitive gaussians,   392 cartesian basis functions
    94 alpha electrons       94 beta electrons
       nuclear repulsion energy      2024.1007997732 Hartrees.
 NAtoms=   36 NActive=   36 NUniq=   36 SFac= 1.00D+00 NAtFMM=   60 NAOKFM=F Big=F
 Integral buffers will be    131072 words long.
 Raffenetti 2 integral format.
 Two-electron integral symmetry is turned on.
 One-electron integrals computed using PRISM.
 NBasis=   392 RedAO= T EigKep=  4.53D-04  NBF=   392
 NBsUse=   392 1.00D-06 EigRej= -1.00D+00 NBFU=   392
 ExpMin= 1.43D-01 ExpMax= 2.52D+04 ExpMxC= 3.78D+03 IAcc=3 IRadAn=         5 AccDes= 0.00D+00
 Harris functional with IExCor=  402 and IRadAn=       5 diagonalized for initial guess.
 HarFok:  IExCor=  402 AccDes= 0.00D+00 IRadAn=         5 IDoV= 1 UseB2=F ITyADJ=14
 ICtDFT=  3500011 ScaDFX=  1.000000  1.000000  1.000000  1.000000
 FoFCou: FMM=F IPFlag=           0 FMFlag=      100000 FMFlg1=           0
         NFxFlg=           0 DoJE=T BraDBF=F KetDBF=T FulRan=T
         wScrn=  0.000000 ICntrl=       500 IOpCl=  0 I1Cent=   200000004 NGrid=           0
         NMat0=    1 NMatS0=      1 NMatT0=    0 NMatD0=    1 NMtDS0=    0 NMtDT0=    0
 Petite list used in FoFCou.
 Gradient too large for Newton-Raphson -- use scaled steepest descent instead.
 Gradient too large for Newton-Raphson -- use scaled steepest descent instead.
 Gradient too large for Newton-Raphson -- use scaled steepest descent instead.
     Minimum is close to point  2 DX=  2.79D-02 DF= -4.32D-05 DXR=  6.53D-02 DFR=  4.28D-03 which will be used.
 Gradient too large for Newton-Raphson -- use scaled steepest descent instead.
 Gradient too large for Newton-Raphson -- use scaled steepest descent instead.
     Accept linear search using points  1 and  2.
 Gradient too large for Newton-Raphson -- use scaled steepest descent instead.
     Minimum is close to point  3 DX=  1.88D-02 DF= -1.42D-07 DXR=  1.84D-02 DFR=  3.40D-04 which will be used.
 LinEq1:  Iter=  0 NonCon=     1 RMS=2.90D-05 Max=1.36D-03 NDo=     1
 AX will form     1 AO Fock derivatives at one time.
 LinEq1:  Iter=  1 NonCon=     1 RMS=3.86D-05 Max=2.24D-03 NDo=     1
 LinEq1:  Iter=  2 NonCon=     1 RMS=1.00D-05 Max=5.97D-04 NDo=     1
 LinEq1:  Iter=  3 NonCon=     1 RMS=7.26D-06 Max=3.25D-04 NDo=     1
 LinEq1:  Iter=  4 NonCon=     1 RMS=5.64D-06 Max=4.17D-04 NDo=     1
 LinEq1:  Iter=  5 NonCon=     1 RMS=5.60D-06 Max=3.89D-04 NDo=     1
 LinEq1:  Iter=  6 NonCon=     1 RMS=3.24D-06 Max=1.97D-04 NDo=     1
 LinEq1:  Iter=  7 NonCon=     1 RMS=1.99D-06 Max=8.54D-05 NDo=     1
 LinEq1:  Iter=  8 NonCon=     1 RMS=1.43D-06 Max=6.75D-05 NDo=     1
 LinEq1:  Iter=  9 NonCon=     1 RMS=9.24D-07 Max=3.54D-05 NDo=     1
 LinEq1:  Iter= 10 NonCon=     1 RMS=4.87D-07 Max=1.82D-05 NDo=     1
 LinEq1:  Iter= 11 NonCon=     1 RMS=3.14D-07 Max=2.73D-05 NDo=     1
 LinEq1:  Iter= 12 NonCon=     1 RMS=2.70D-07 Max=2.01D-05 NDo=     1
 LinEq1:  Iter= 13 NonCon=     1 RMS=1.81D-07 Max=1.43D-05 NDo=     1
 LinEq1:  Iter= 14 NonCon=     1 RMS=9.53D-08 Max=4.58D-06 NDo=     1
 LinEq1:  Iter= 15 NonCon=     1 RMS=4.51D-08 Max=1.91D-06 NDo=     1
 LinEq1:  Iter= 16 NonCon=     1 RMS=3.55D-08 Max=1.94D-06 NDo=     1
 LinEq1:  Iter= 17 NonCon=     1 RMS=1.73D-08 Max=4.67D-07 NDo=     1
 LinEq1:  Iter= 18 NonCon=     1 RMS=8.12D-09 Max=2.99D-07 NDo=     1
 LinEq1:  Iter= 19 NonCon=     0 RMS=4.82D-09 Max=1.73D-07 NDo=     1
 Linear equations converged to 2.367D-08 2.367D-07 after    19 iterations.
     Accept linear search using points  1 and  2.
     Minimum is close to point  2 DX= -3.35D-04 DF= -1.82D-12 DXR=  3.35D-04 DFR=  1.12D-07 which will be used.
 LinEq1:  Iter=  0 NonCon=     1 RMS=4.11D-08 Max=4.62D-06 NDo=     1
 LinEq1:  Iter=  1 NonCon=     1 RMS=4.92D-08 Max=4.24D-06 NDo=     1
 LinEq1:  Iter=  2 NonCon=     1 RMS=2.48D-08 Max=1.39D-06 NDo=     1
 LinEq1:  Iter=  3 NonCon=     1 RMS=1.44D-08 Max=6.39D-07 NDo=     1
 LinEq1:  Iter=  4 NonCon=     1 RMS=1.07D-08 Max=3.70D-07 NDo=     1
 LinEq1:  Iter=  5 NonCon=     1 RMS=6.29D-09 Max=2.59D-07 NDo=     1
 LinEq1:  Iter=  6 NonCon=     1 RMS=4.07D-09 Max=1.95D-07 NDo=     1
 LinEq1:  Iter=  7 NonCon=     1 RMS=3.59D-09 Max=2.74D-07 NDo=     1
 LinEq1:  Iter=  8 NonCon=     1 RMS=3.36D-09 Max=2.34D-07 NDo=     1
 LinEq1:  Iter=  9 NonCon=     1 RMS=2.12D-09 Max=1.72D-07 NDo=     1
 LinEq1:  Iter= 10 NonCon=     1 RMS=1.09D-09 Max=5.55D-08 NDo=     1
 LinEq1:  Iter= 11 NonCon=     1 RMS=7.01D-10 Max=2.43D-08 NDo=     1
 LinEq1:  Iter= 12 NonCon=     1 RMS=4.27D-10 Max=1.76D-08 NDo=     1
 LinEq1:  Iter= 13 NonCon=     1 RMS=3.00D-10 Max=1.20D-08 NDo=     1
 LinEq1:  Iter= 14 NonCon=     1 RMS=1.76D-10 Max=8.33D-09 NDo=     1
 LinEq1:  Iter= 15 NonCon=     1 RMS=1.47D-10 Max=6.21D-09 NDo=     1
 LinEq1:  Iter= 16 NonCon=     1 RMS=7.98D-11 Max=3.52D-09 NDo=     1
 LinEq1:  Iter= 17 NonCon=     1 RMS=4.55D-11 Max=1.54D-09 NDo=     1
 LinEq1:  Iter= 18 NonCon=     1 RMS=1.70D-11 Max=6.27D-10 NDo=     1
 LinEq1:  Iter= 19 NonCon=     1 RMS=1.17D-11 Max=5.45D-10 NDo=     1
 LinEq1:  Iter= 20 NonCon=     0 RMS=6.84D-12 Max=3.17D-10 NDo=     1
 Linear equations converged to 4.138D-11 4.138D-10 after    20 iterations.
 SCF Done:  E(RB3LYP) =  -1947.64755606     a.u. after    9 cycles
            Convg  =    0.2606D-09                    58 Fock formations.
              S**2 =  0.0000                  -V/T =  2.0063
 DoSCS=F DFT=T ScalE2(SS,OS)=  1.000000  1.000000
 Range of M.O.s used for correlation:     1   392
 NBasis=   392 NAE=    94 NBE=    94 NFC=     0 NFV=     0
 NROrb=    392 NOA=    94 NOB=    94 NVA=   298 NVB=   298

 **** Warning!!: The smallest alpha delta epsilon is  0.95225105D-01

 Symmetrizing basis deriv contribution to polar:
 IMax=3 JMax=2 DiffMx= 0.00D+00
 G2DrvN: will do    37 centers at a time, making    1 passes.
 Calling FoFCou, ICntrl=  3107 FMM=F I1Cent=   0 AccDes= 0.00D+00.
 End of G2Drv F.D. properties file   721 does not exist.
 End of G2Drv F.D. properties file   722 does not exist.
 End of G2Drv F.D. properties file   788 does not exist.
          IDoAtm=111111111111111111111111111111111111
          Differentiating once with respect to electric field.
                with respect to dipole field.
          Differentiating once with respect to nuclear coordinates.
 CalDSu exits because no D1Ps are significant.
          There are   111 degrees of freedom in the 1st order CPHF.  IDoFFX=6 NUNeed=     3.
    108 vectors produced by pass  0 Test12= 2.80D-14 1.00D-09 XBig12= 2.72D+02 6.41D+00.
 AX will form   108 AO Fock derivatives at one time.
    108 vectors produced by pass  1 Test12= 2.80D-14 1.00D-09 XBig12= 6.50D+01 1.38D+00.
    108 vectors produced by pass  2 Test12= 2.80D-14 1.00D-09 XBig12= 1.30D+00 1.73D-01.
    108 vectors produced by pass  3 Test12= 2.80D-14 1.00D-09 XBig12= 1.30D-02 1.55D-02.
    108 vectors produced by pass  4 Test12= 2.80D-14 1.00D-09 XBig12= 2.97D-05 5.09D-04.
    105 vectors produced by pass  5 Test12= 2.80D-14 1.00D-09 XBig12= 4.17D-08 1.75D-05.
     30 vectors produced by pass  6 Test12= 2.80D-14 1.00D-09 XBig12= 4.95D-11 5.17D-07.
      3 vectors produced by pass  7 Test12= 2.80D-14 1.00D-09 XBig12= 4.59D-14 1.82D-08.
 InvSVY:  IOpt=1 It=  1 EMax= 1.42D-14
 Solved reduced A of dimension   678 with   111 vectors.
 Isotropic polarizability for W=    0.000000      213.27 Bohr**3.
 End of Minotr F.D. properties file   721 does not exist.
 End of Minotr F.D. properties file   722 does not exist.
 End of Minotr F.D. properties file   788 does not exist.

 **********************************************************************

            Population analysis using the SCF density.

 **********************************************************************

 Orbital symmetries:
       Occupied  (A) (A) (A) (A) (A) (A) (A) (A) (A) (A) (A) (A)
                 (A) (A) (A) (A) (A) (A) (A) (A) (A) (A) (A) (A)
                 (A) (A) (A) (A) (A) (A) (A) (A) (A) (A) (A) (A)
                 (A) (A) (A) (A) (A) (A) (A) (A) (A) (A) (A) (A)
                 (A) (A) (A) (A) (A) (A) (A) (A) (A) (A) (A) (A)
                 (A) (A) (A) (A) (A) (A) (A) (A) (A) (A) (A) (A)
                 (A) (A) (A) (A) (A) (A) (A) (A) (A) (A) (A) (A)
                 (A) (A) (A) (A) (A) (A) (A) (A) (A) (A)
       Virtual   (A) (A) (A) (A) (A) (A) (A) (A) (A) (A) (A) (A)
                 (A) (A) (A) (A) (A) (A) (A) (A) (A) (A) (A) (A)
                 (A) (A) (A) (A) (A) (A) (A) (A) (A) (A) (A) (A)
                 (A) (A) (A) (A) (A) (A) (A) (A) (A) (A) (A) (A)
                 (A) (A) (A) (A) (A) (A) (A) (A) (A) (A) (A) (A)
                 (A) (A) (A) (A) (A) (A) (A) (A) (A) (A) (A) (A)
                 (A) (A) (A) (A) (A) (A) (A) (A) (A) (A) (A) (A)
                 (A) (A) (A) (A) (A) (A) (A) (A) (A) (A) (A) (A)
                 (A) (A) (A) (A) (A) (A) (A) (A) (A) (A) (A) (A)
                 (A) (A) (A) (A) (A) (A) (A) (A) (A) (A) (A) (A)
                 (A) (A) (A) (A) (A) (A) (A) (A) (A) (A) (A) (A)
                 (A) (A) (A) (A) (A) (A) (A) (A) (A) (A) (A) (A)
                 (A) (A) (A) (A) (A) (A) (A) (A) (A) (A) (A) (A)
                 (A) (A) (A) (A) (A) (A) (A) (A) (A) (A) (A) (A)
                 (A) (A) (A) (A) (A) (A) (A) (A) (A) (A) (A) (A)
                 (A) (A) (A) (A) (A) (A) (A) (A) (A) (A) (A) (A)
                 (A) (A) (A) (A) (A) (A) (A) (A) (A) (A) (A) (A)
                 (A) (A) (A) (A) (A) (A) (A) (A) (A) (A) (A) (A)
                 (A) (A) (A) (A) (A) (A) (A) (A) (A) (A) (A) (A)
                 (A) (A) (A) (A) (A) (A) (A) (A) (A) (A) (A) (A)
                 (A) (A) (A) (A) (A) (A) (A) (A) (A) (A) (A) (A)
                 (A) (A) (A) (A) (A) (A) (A) (A) (A) (A) (A) (A)
                 (A) (A) (A) (A) (A) (A) (A) (A) (A) (A) (A) (A)
                 (A) (A) (A) (A) (A) (A) (A) (A) (A) (A) (A) (A)
                 (A) (A) (A) (A) (A) (A) (A) (A) (A) (A)
 The electronic state is 1-A.
 Alpha  occ. eigenvalues -- -101.55326-101.55247 -19.22950 -19.22725 -19.17155
 Alpha  occ. eigenvalues --  -19.17150 -14.44333 -14.44282 -10.36929 -10.36815
 Alpha  occ. eigenvalues --  -10.27287 -10.26987 -10.25609 -10.25520 -10.21929
 Alpha  occ. eigenvalues --  -10.21886 -10.21206 -10.21160 -10.21117 -10.21060
 Alpha  occ. eigenvalues --  -10.21026 -10.20971 -10.20847 -10.20677  -9.47019
 Alpha  occ. eigenvalues --   -9.46940  -7.23407  -7.23327  -7.22445  -7.22409
 Alpha  occ. eigenvalues --   -7.22366  -7.22329  -1.15551  -1.13666  -1.08636
 Alpha  occ. eigenvalues --   -1.04521  -1.03474  -0.90187  -0.90101  -0.86362
 Alpha  occ. eigenvalues --   -0.85227  -0.84298  -0.78705  -0.76994  -0.76492
 Alpha  occ. eigenvalues --   -0.76361  -0.72229  -0.69807  -0.64864  -0.63293
 Alpha  occ. eigenvalues --   -0.62667  -0.60545  -0.59291  -0.57660  -0.56086
 Alpha  occ. eigenvalues --   -0.53641  -0.53170  -0.51918  -0.51577  -0.50277
 Alpha  occ. eigenvalues --   -0.49355  -0.48540  -0.47845  -0.47426  -0.47137
 Alpha  occ. eigenvalues --   -0.46532  -0.45991  -0.45562  -0.44694  -0.43905
 Alpha  occ. eigenvalues --   -0.43725  -0.42318  -0.40563  -0.40385  -0.39579
 Alpha  occ. eigenvalues --   -0.39082  -0.38772  -0.37747  -0.37174  -0.36830
 Alpha  occ. eigenvalues --   -0.36600  -0.33615  -0.33486  -0.33059  -0.32806
 Alpha  occ. eigenvalues --   -0.32625  -0.31671  -0.31577  -0.30725  -0.27818
 Alpha  occ. eigenvalues --   -0.26848  -0.26770  -0.24627  -0.24549
 Alpha virt. eigenvalues --   -0.15027  -0.02280  -0.02195  -0.01773  -0.01623
 Alpha virt. eigenvalues --    0.00210   0.02693   0.03602   0.03739   0.08935
 Alpha virt. eigenvalues --    0.10081   0.10619   0.10707   0.11302   0.11563
 Alpha virt. eigenvalues --    0.11950   0.12154   0.13153   0.13728   0.15917
 Alpha virt. eigenvalues --    0.16296   0.17198   0.17411   0.18726   0.19492
 Alpha virt. eigenvalues --    0.21023   0.21897   0.22097   0.22217   0.26987
 Alpha virt. eigenvalues --    0.27315   0.27405   0.27495   0.27824   0.28443
 Alpha virt. eigenvalues --    0.29627   0.30136   0.31858   0.32682   0.32953
 Alpha virt. eigenvalues --    0.38352   0.39180   0.39831   0.40011   0.40721
 Alpha virt. eigenvalues --    0.41595   0.41743   0.42338   0.43926   0.43992
 Alpha virt. eigenvalues --    0.46292   0.46673   0.47332   0.47966   0.49904
 Alpha virt. eigenvalues --    0.50380   0.52463   0.52854   0.53503   0.53587
 Alpha virt. eigenvalues --    0.53863   0.54970   0.55800   0.56105   0.56552
 Alpha virt. eigenvalues --    0.57305   0.57544   0.57843   0.57961   0.58436
 Alpha virt. eigenvalues --    0.58576   0.59244   0.59760   0.60270   0.60897
 Alpha virt. eigenvalues --    0.61133   0.61846   0.62324   0.62641   0.64207
 Alpha virt. eigenvalues --    0.64483   0.64683   0.65222   0.65849   0.66559
 Alpha virt. eigenvalues --    0.67626   0.69540   0.71729   0.72246   0.72599
 Alpha virt. eigenvalues --    0.73855   0.74334   0.75080   0.75246   0.76671
 Alpha virt. eigenvalues --    0.77297   0.79525   0.80167   0.80379   0.81727
 Alpha virt. eigenvalues --    0.82430   0.82721   0.82928   0.84322   0.84700
 Alpha virt. eigenvalues --    0.84803   0.85236   0.85322   0.86615   0.86846
 Alpha virt. eigenvalues --    0.87197   0.87833   0.89655   0.89873   0.90700
 Alpha virt. eigenvalues --    0.90903   0.91275   0.92663   0.92914   0.93258
 Alpha virt. eigenvalues --    0.94279   0.94799   0.95745   0.98801   0.99013
 Alpha virt. eigenvalues --    0.99913   1.00973   1.01865   1.03065   1.03222
 Alpha virt. eigenvalues --    1.04786   1.05421   1.07587   1.07793   1.09852
 Alpha virt. eigenvalues --    1.10571   1.11654   1.12224   1.12729   1.13481
 Alpha virt. eigenvalues --    1.14664   1.15298   1.16664   1.18667   1.19246
 Alpha virt. eigenvalues --    1.19541   1.20443   1.23572   1.23772   1.25818
 Alpha virt. eigenvalues --    1.29665   1.31348   1.34302   1.34635   1.35266
 Alpha virt. eigenvalues --    1.37206   1.38993   1.40033   1.41215   1.42978
 Alpha virt. eigenvalues --    1.43258   1.43795   1.44594   1.45357   1.45782
 Alpha virt. eigenvalues --    1.46160   1.49340   1.49440   1.50336   1.53175
 Alpha virt. eigenvalues --    1.53324   1.55122   1.55358   1.56212   1.58942
 Alpha virt. eigenvalues --    1.61978   1.62917   1.66086   1.67704   1.69744
 Alpha virt. eigenvalues --    1.70021   1.74881   1.75915   1.76460   1.77324
 Alpha virt. eigenvalues --    1.77519   1.77966   1.79027   1.79702   1.80473
 Alpha virt. eigenvalues --    1.81925   1.82752   1.83545   1.85028   1.85419
 Alpha virt. eigenvalues --    1.86911   1.91192   1.92500   1.92946   1.93893
 Alpha virt. eigenvalues --    1.94333   1.95586   1.96474   1.97986   1.99846
 Alpha virt. eigenvalues --    2.00346   2.01448   2.03123   2.04332   2.05327
 Alpha virt. eigenvalues --    2.06058   2.06148   2.08571   2.09795   2.12040
 Alpha virt. eigenvalues --    2.12340   2.13627   2.13772   2.15076   2.15386
 Alpha virt. eigenvalues --    2.15953   2.19248   2.20392   2.22655   2.23386
 Alpha virt. eigenvalues --    2.23556   2.25500   2.28621   2.28803   2.28963
 Alpha virt. eigenvalues --    2.31809   2.33653   2.35049   2.35757   2.37071
 Alpha virt. eigenvalues --    2.38709   2.40281   2.43493   2.47643   2.49587
 Alpha virt. eigenvalues --    2.55691   2.55971   2.58983   2.59211   2.62059
 Alpha virt. eigenvalues --    2.62399   2.62927   2.63289   2.64454   2.65464
 Alpha virt. eigenvalues --    2.68079   2.69202   2.70331   2.72394   2.73487
 Alpha virt. eigenvalues --    2.74441   2.74706   2.76001   2.78415   2.79453
 Alpha virt. eigenvalues --    2.81849   2.84791   2.86305   2.86403   2.91478
 Alpha virt. eigenvalues --    2.93907   3.03632   3.04941   3.06861   3.08415
 Alpha virt. eigenvalues --    3.18822   3.24594   3.36175   3.36294   3.76795
 Alpha virt. eigenvalues --    3.90356   4.00019   4.03842   4.04962   4.05489
 Alpha virt. eigenvalues --    4.09360   4.09481   4.10493   4.10765   4.21238
 Alpha virt. eigenvalues --    4.22870   4.24947   4.27421   4.29852   4.30822
 Alpha virt. eigenvalues --    4.31319   4.32128   4.35099   4.37048   4.43702
 Alpha virt. eigenvalues --    4.43888   4.68001   4.68317
          Condensed to atoms (all electrons):
               1          2          3          4          5          6
     1  C    4.739733   0.340795  -0.029891  -0.001568  -0.000384  -0.000103
     2  C    0.340795   5.027407   0.192248  -0.019785  -0.009270   0.003473
     3  O   -0.029891   0.192248   8.214847   0.284680  -0.076264  -0.087662
     4  C   -0.001568  -0.019785   0.284680   4.242968   0.542845   0.242086
     5  O   -0.000384  -0.009270  -0.076264   0.542845   8.022584  -0.077720
     6  N   -0.000103   0.003473  -0.087662   0.242086  -0.077720   6.931432
     7  N   -0.000003  -0.000147   0.001762  -0.053604   0.001684   0.243554
     8  C   -0.000000   0.000002  -0.000221   0.006218   0.000359  -0.057189
     9  O   -0.000000   0.000000   0.000000   0.000415  -0.000001   0.001788
    10  O    0.000000  -0.000000   0.000000  -0.000226   0.000000   0.001755
    11  C   -0.000000   0.000000  -0.000000   0.000005   0.000000  -0.000052
    12  C   -0.000000  -0.000000   0.000000   0.000000  -0.000000   0.000031
    13  C    0.000000  -0.000000  -0.000000  -0.000002  -0.000000  -0.000309
    14  C   -0.000000  -0.000000   0.000000  -0.000000  -0.000000  -0.000003
    15  C    0.000000   0.000000  -0.000000   0.000000   0.000000   0.000000
    16  C    0.000000  -0.000000  -0.000000  -0.000000  -0.000000  -0.000000
    17  C   -0.000000   0.000000   0.000000   0.000000   0.000000   0.000000
    18  Cl  -0.000000  -0.000000   0.000000  -0.000000   0.000000   0.000000
    19  C    0.553025  -0.061192  -0.004461   0.000995   0.000123  -0.000307
    20  C   -0.021852   0.006445   0.000329  -0.000007   0.000001  -0.000000
    21  C   -0.032097   0.000425  -0.000003  -0.000001  -0.000000   0.000000
    22  C   -0.013481   0.005225  -0.000065  -0.000000   0.000000  -0.000000
    23  C    0.512997  -0.062079   0.002148   0.000035  -0.000037   0.000001
    24  Cl   0.000685   0.000008   0.000000  -0.000000   0.000000  -0.000000
    25  H   -0.041752   0.364910  -0.032507   0.002914   0.000562  -0.000143
    26  H   -0.033131   0.349149  -0.026599  -0.008417   0.022308   0.000635
    27  H    0.000000  -0.000000   0.000000  -0.000000   0.000000  -0.000001
    28  H    0.000000  -0.000000  -0.000000  -0.000000   0.000000  -0.000011
    29  H   -0.000000   0.000000  -0.000001   0.000005   0.000001   0.001250
    30  H    0.000000   0.000000   0.000000  -0.000000  -0.000000  -0.000002
    31  H    0.000000   0.000000  -0.000000   0.000000  -0.000000  -0.000000
    32  H   -0.000000   0.000000   0.000000  -0.000000   0.000000   0.000000
    33  H   -0.039078  -0.014261   0.011575   0.000329  -0.000043   0.000677
    34  H    0.003626  -0.000177   0.000002   0.000000  -0.000000  -0.000000
    35  H    0.003386  -0.000144   0.000000   0.000000   0.000000   0.000000
    36  H   -0.052243  -0.006863   0.000051  -0.000004  -0.000003  -0.000000
               7          8          9         10         11         12
     1  C   -0.000003  -0.000000  -0.000000   0.000000  -0.000000  -0.000000
     2  C   -0.000147   0.000002   0.000000  -0.000000   0.000000  -0.000000
     3  O    0.001762  -0.000221   0.000000   0.000000  -0.000000   0.000000
     4  C   -0.053604   0.006218   0.000415  -0.000226   0.000005   0.000000
     5  O    0.001684   0.000359  -0.000001   0.000000   0.000000  -0.000000
     6  N    0.243554  -0.057189   0.001788   0.001755  -0.000052   0.000031
     7  N    6.928521   0.241193  -0.077597  -0.087809   0.003985  -0.000312
     8  C    0.241193   4.273896   0.523813   0.279511  -0.020191  -0.002496
     9  O   -0.077597   0.523813   8.039997  -0.078239  -0.001496  -0.001005
    10  O   -0.087809   0.279511  -0.078239   8.216002   0.202890  -0.035377
    11  C    0.003985  -0.020191  -0.001496   0.202890   5.003910   0.327986
    12  C   -0.000312  -0.002496  -0.001005  -0.035377   0.327986   4.758944
    13  C   -0.001118   0.004627   0.000804  -0.003788  -0.059349   0.554483
    14  C   -0.000005  -0.000262  -0.000118   0.000660   0.006540  -0.020437
    15  C    0.000000  -0.000009   0.000000  -0.000009   0.000455  -0.032705
    16  C   -0.000000  -0.000009   0.000011  -0.000065   0.005123  -0.014349
    17  C   -0.000004  -0.000062  -0.000549   0.002286  -0.058988   0.513388
    18  Cl   0.000000  -0.000000  -0.000000   0.000000   0.000009   0.000723
    19  C    0.000002  -0.000000   0.000000  -0.000000  -0.000000   0.000000
    20  C    0.000000   0.000000   0.000000   0.000000  -0.000000  -0.000000
    21  C   -0.000000  -0.000000  -0.000000   0.000000   0.000000  -0.000000
    22  C   -0.000000  -0.000000   0.000000   0.000000  -0.000000   0.000000
    23  C    0.000000   0.000000  -0.000000  -0.000000   0.000000  -0.000000
    24  Cl  -0.000000   0.000000  -0.000000   0.000000  -0.000000  -0.000000
    25  H    0.000018  -0.000000   0.000000  -0.000000  -0.000000  -0.000000
    26  H   -0.000006   0.000000   0.000000  -0.000000  -0.000000   0.000000
    27  H   -0.000048   0.003596   0.000331  -0.024484   0.366302  -0.038565
    28  H    0.000354  -0.009082   0.017209  -0.032117   0.355665  -0.039751
    29  H    0.000717   0.000864  -0.002248   0.008351  -0.013701  -0.044887
    30  H   -0.000000   0.000011  -0.000001   0.000004  -0.000180   0.003740
    31  H    0.000000   0.000000   0.000000   0.000000  -0.000145   0.003432
    32  H   -0.000000  -0.000007  -0.000011   0.000051  -0.006715  -0.052665
    33  H    0.000006  -0.000001   0.000000   0.000000   0.000000  -0.000000
    34  H    0.000000   0.000000  -0.000000  -0.000000  -0.000000   0.000000
    35  H    0.000000   0.000000   0.000000  -0.000000   0.000000  -0.000000
    36  H    0.000000   0.000000  -0.000000  -0.000000   0.000000  -0.000000
              13         14         15         16         17         18
     1  C    0.000000  -0.000000   0.000000   0.000000  -0.000000  -0.000000
     2  C   -0.000000  -0.000000   0.000000  -0.000000   0.000000  -0.000000
     3  O   -0.000000   0.000000  -0.000000  -0.000000   0.000000   0.000000
     4  C   -0.000002  -0.000000   0.000000  -0.000000   0.000000  -0.000000
     5  O   -0.000000  -0.000000   0.000000  -0.000000   0.000000   0.000000
     6  N   -0.000309  -0.000003   0.000000  -0.000000   0.000000   0.000000
     7  N   -0.001118  -0.000005   0.000000  -0.000000  -0.000004   0.000000
     8  C    0.004627  -0.000262  -0.000009  -0.000009  -0.000062  -0.000000
     9  O    0.000804  -0.000118   0.000000   0.000011  -0.000549  -0.000000
    10  O   -0.003788   0.000660  -0.000009  -0.000065   0.002286   0.000000
    11  C   -0.059349   0.006540   0.000455   0.005123  -0.058988   0.000009
    12  C    0.554483  -0.020437  -0.032705  -0.014349   0.513388   0.000723
    13  C    4.922889   0.502925  -0.029177  -0.042277  -0.028833   0.004500
    14  C    0.502925   4.943366   0.530800  -0.034585  -0.043104  -0.071437
    15  C   -0.029177   0.530800   4.931514   0.532138  -0.031622   0.237522
    16  C   -0.042277  -0.034585   0.532138   4.923159   0.512260  -0.071227
    17  C   -0.028833  -0.043104  -0.031622   0.512260   4.966173   0.004618
    18  Cl   0.004500  -0.071437   0.237522  -0.071227   0.004618  16.904463
    19  C    0.000000  -0.000000  -0.000000   0.000000  -0.000000   0.000000
    20  C    0.000000   0.000000  -0.000000  -0.000000   0.000000  -0.000000
    21  C   -0.000000   0.000000   0.000000  -0.000000   0.000000  -0.000000
    22  C    0.000000  -0.000000   0.000000   0.000000   0.000000  -0.000000
    23  C    0.000000  -0.000000  -0.000000   0.000000  -0.000000   0.000000
    24  Cl   0.000000   0.000000  -0.000000   0.000000   0.000000   0.000000
    25  H    0.000000   0.000000  -0.000000   0.000000  -0.000000  -0.000000
    26  H    0.000000  -0.000000  -0.000000   0.000000  -0.000000  -0.000000
    27  H    0.000735  -0.000086   0.000020  -0.000151  -0.001614  -0.000000
    28  H    0.001868  -0.000048   0.000019  -0.000091  -0.002094  -0.000000
    29  H    0.351257  -0.041283   0.004711   0.000358   0.005932  -0.000170
    30  H   -0.035127   0.359736  -0.043594   0.004221   0.000842  -0.000358
    31  H    0.000711   0.004379  -0.042774   0.359853  -0.035443  -0.000316
    32  H    0.005019   0.000512   0.004688  -0.040632   0.362528  -0.000175
    33  H   -0.000000   0.000000   0.000000  -0.000000   0.000000   0.000000
    34  H    0.000000  -0.000000  -0.000000   0.000000  -0.000000   0.000000
    35  H    0.000000  -0.000000   0.000000   0.000000   0.000000   0.000000
    36  H    0.000000  -0.000000  -0.000000   0.000000  -0.000000  -0.000000
              19         20         21         22         23         24
     1  C    0.553025  -0.021852  -0.032097  -0.013481   0.512997   0.000685
     2  C   -0.061192   0.006445   0.000425   0.005225  -0.062079   0.000008
     3  O   -0.004461   0.000329  -0.000003  -0.000065   0.002148   0.000000
     4  C    0.000995  -0.000007  -0.000001  -0.000000   0.000035  -0.000000
     5  O    0.000123   0.000001  -0.000000   0.000000  -0.000037   0.000000
     6  N   -0.000307  -0.000000   0.000000  -0.000000   0.000001  -0.000000
     7  N    0.000002   0.000000  -0.000000  -0.000000   0.000000  -0.000000
     8  C   -0.000000   0.000000  -0.000000  -0.000000   0.000000   0.000000
     9  O    0.000000   0.000000  -0.000000   0.000000  -0.000000  -0.000000
    10  O   -0.000000   0.000000   0.000000   0.000000  -0.000000   0.000000
    11  C   -0.000000  -0.000000   0.000000  -0.000000   0.000000  -0.000000
    12  C    0.000000  -0.000000  -0.000000   0.000000  -0.000000  -0.000000
    13  C    0.000000   0.000000  -0.000000   0.000000   0.000000   0.000000
    14  C   -0.000000   0.000000   0.000000  -0.000000  -0.000000   0.000000
    15  C   -0.000000  -0.000000   0.000000   0.000000  -0.000000  -0.000000
    16  C    0.000000  -0.000000  -0.000000   0.000000   0.000000   0.000000
    17  C   -0.000000   0.000000   0.000000   0.000000  -0.000000   0.000000
    18  Cl   0.000000  -0.000000  -0.000000  -0.000000   0.000000   0.000000
    19  C    4.940618   0.500417  -0.029207  -0.043110  -0.029676   0.004449
    20  C    0.500417   4.945061   0.530790  -0.034391  -0.043458  -0.071651
    21  C   -0.029207   0.530790   4.932353   0.531569  -0.031468   0.237651
    22  C   -0.043110  -0.034391   0.531569   4.924928   0.511043  -0.071327
    23  C   -0.029676  -0.043458  -0.031468   0.511043   4.975339   0.004659
    24  Cl   0.004449  -0.071651   0.237651  -0.071327   0.004659  16.905098
    25  H    0.000310  -0.000095   0.000025  -0.000140  -0.001122  -0.000000
    26  H    0.002324  -0.000053   0.000018  -0.000092  -0.002088  -0.000000
    27  H   -0.000000   0.000000   0.000000  -0.000000  -0.000000   0.000000
    28  H    0.000000  -0.000000  -0.000000   0.000000   0.000000  -0.000000
    29  H   -0.000000  -0.000000   0.000000  -0.000000  -0.000000  -0.000000
    30  H    0.000000   0.000000  -0.000000   0.000000  -0.000000   0.000000
    31  H    0.000000   0.000000   0.000000   0.000000  -0.000000   0.000000
    32  H   -0.000000   0.000000   0.000000   0.000000  -0.000000   0.000000
    33  H    0.358453  -0.042910   0.004473   0.000322   0.005782  -0.000160
    34  H   -0.035130   0.360460  -0.043773   0.004226   0.000831  -0.000387
    35  H    0.000687   0.004378  -0.042763   0.360159  -0.035572  -0.000307
    36  H    0.005288   0.000460   0.004718  -0.041085   0.362034  -0.000174
              25         26         27         28         29         30
     1  C   -0.041752  -0.033131   0.000000   0.000000  -0.000000   0.000000
     2  C    0.364910   0.349149  -0.000000  -0.000000   0.000000   0.000000
     3  O   -0.032507  -0.026599   0.000000  -0.000000  -0.000001   0.000000
     4  C    0.002914  -0.008417  -0.000000  -0.000000   0.000005  -0.000000
     5  O    0.000562   0.022308   0.000000   0.000000   0.000001  -0.000000
     6  N   -0.000143   0.000635  -0.000001  -0.000011   0.001250  -0.000002
     7  N    0.000018  -0.000006  -0.000048   0.000354   0.000717  -0.000000
     8  C   -0.000000   0.000000   0.003596  -0.009082   0.000864   0.000011
     9  O    0.000000   0.000000   0.000331   0.017209  -0.002248  -0.000001
    10  O   -0.000000  -0.000000  -0.024484  -0.032117   0.008351   0.000004
    11  C   -0.000000  -0.000000   0.366302   0.355665  -0.013701  -0.000180
    12  C   -0.000000   0.000000  -0.038565  -0.039751  -0.044887   0.003740
    13  C    0.000000   0.000000   0.000735   0.001868   0.351257  -0.035127
    14  C    0.000000  -0.000000  -0.000086  -0.000048  -0.041283   0.359736
    15  C   -0.000000  -0.000000   0.000020   0.000019   0.004711  -0.043594
    16  C    0.000000   0.000000  -0.000151  -0.000091   0.000358   0.004221
    17  C   -0.000000  -0.000000  -0.001614  -0.002094   0.005932   0.000842
    18  Cl  -0.000000  -0.000000  -0.000000  -0.000000  -0.000170  -0.000358
    19  C    0.000310   0.002324  -0.000000   0.000000  -0.000000   0.000000
    20  C   -0.000095  -0.000053   0.000000  -0.000000  -0.000000   0.000000
    21  C    0.000025   0.000018   0.000000  -0.000000   0.000000  -0.000000
    22  C   -0.000140  -0.000092  -0.000000   0.000000  -0.000000   0.000000
    23  C   -0.001122  -0.002088  -0.000000   0.000000  -0.000000  -0.000000
    24  Cl  -0.000000  -0.000000   0.000000  -0.000000  -0.000000   0.000000
    25  H    0.561851  -0.036318  -0.000000  -0.000000  -0.000000   0.000000
    26  H   -0.036318   0.523973  -0.000000   0.000000  -0.000000   0.000000
    27  H   -0.000000  -0.000000   0.541171  -0.036881   0.000032   0.000003
    28  H   -0.000000   0.000000  -0.036881   0.550220   0.000509   0.000002
    29  H   -0.000000  -0.000000   0.000032   0.000509   0.593325  -0.005619
    30  H    0.000000   0.000000   0.000003   0.000002  -0.005619   0.559882
    31  H   -0.000000   0.000000   0.000002   0.000001   0.000015  -0.000173
    32  H   -0.000000  -0.000000   0.002057   0.002023  -0.000162   0.000016
    33  H    0.000287   0.000303   0.000000  -0.000000   0.000000  -0.000000
    34  H    0.000003   0.000002  -0.000000   0.000000  -0.000000   0.000000
    35  H    0.000001   0.000001  -0.000000  -0.000000  -0.000000  -0.000000
    36  H    0.002068   0.002093   0.000000   0.000000  -0.000000  -0.000000
              31         32         33         34         35         36
     1  C    0.000000  -0.000000  -0.039078   0.003626   0.003386  -0.052243
     2  C    0.000000   0.000000  -0.014261  -0.000177  -0.000144  -0.006863
     3  O   -0.000000   0.000000   0.011575   0.000002   0.000000   0.000051
     4  C    0.000000  -0.000000   0.000329   0.000000   0.000000  -0.000004
     5  O   -0.000000   0.000000  -0.000043  -0.000000   0.000000  -0.000003
     6  N   -0.000000   0.000000   0.000677  -0.000000   0.000000  -0.000000
     7  N    0.000000  -0.000000   0.000006   0.000000   0.000000   0.000000
     8  C    0.000000  -0.000007  -0.000001   0.000000   0.000000   0.000000
     9  O    0.000000  -0.000011   0.000000  -0.000000   0.000000  -0.000000
    10  O    0.000000   0.000051   0.000000  -0.000000  -0.000000  -0.000000
    11  C   -0.000145  -0.006715   0.000000  -0.000000   0.000000   0.000000
    12  C    0.003432  -0.052665  -0.000000   0.000000  -0.000000  -0.000000
    13  C    0.000711   0.005019  -0.000000   0.000000   0.000000   0.000000
    14  C    0.004379   0.000512   0.000000  -0.000000  -0.000000  -0.000000
    15  C   -0.042774   0.004688   0.000000  -0.000000   0.000000  -0.000000
    16  C    0.359853  -0.040632  -0.000000   0.000000   0.000000   0.000000
    17  C   -0.035443   0.362528   0.000000  -0.000000   0.000000  -0.000000
    18  Cl  -0.000316  -0.000175   0.000000   0.000000   0.000000  -0.000000
    19  C    0.000000  -0.000000   0.358453  -0.035130   0.000687   0.005288
    20  C    0.000000   0.000000  -0.042910   0.360460   0.004378   0.000460
    21  C    0.000000   0.000000   0.004473  -0.043773  -0.042763   0.004718
    22  C    0.000000   0.000000   0.000322   0.004226   0.360159  -0.041085
    23  C   -0.000000  -0.000000   0.005782   0.000831  -0.035572   0.362034
    24  Cl   0.000000   0.000000  -0.000160  -0.000387  -0.000307  -0.000174
    25  H   -0.000000  -0.000000   0.000287   0.000003   0.000001   0.002068
    26  H    0.000000  -0.000000   0.000303   0.000002   0.000001   0.002093
    27  H    0.000002   0.002057   0.000000  -0.000000  -0.000000   0.000000
    28  H    0.000001   0.002023  -0.000000   0.000000  -0.000000   0.000000
    29  H    0.000015  -0.000162   0.000000  -0.000000  -0.000000  -0.000000
    30  H   -0.000173   0.000016  -0.000000   0.000000  -0.000000  -0.000000
    31  H    0.559803  -0.005677  -0.000000  -0.000000   0.000000   0.000000
    32  H   -0.005677   0.593289   0.000000  -0.000000   0.000000  -0.000000
    33  H   -0.000000   0.000000   0.560293  -0.005219   0.000014  -0.000152
    34  H   -0.000000  -0.000000  -0.005219   0.557830  -0.000173   0.000016
    35  H    0.000000   0.000000   0.000014  -0.000173   0.559854  -0.005699
    36  H    0.000000  -0.000000  -0.000152   0.000016  -0.005699   0.593228
 Mulliken charges:
               1
     1  C    0.111333
     2  C   -0.116171
     3  O   -0.449970
     4  C    0.760117
     5  O   -0.426747
     6  N   -0.203182
     7  N   -0.201141
     8  C    0.755440
     9  O   -0.423104
    10  O   -0.449399
    11  C   -0.112055
    12  C    0.119821
    13  C   -0.149836
    14  C   -0.137550
    15  C   -0.061977
    16  C   -0.133736
    17  C   -0.165714
    18  Cl  -0.008151
    19  C   -0.163610
    20  C   -0.133925
    21  C   -0.062712
    22  C   -0.133781
    23  C   -0.169370
    24  Cl  -0.008542
    25  H    0.179129
    26  H    0.205897
    27  H    0.187581
    28  H    0.192207
    29  H    0.140745
    30  H    0.156595
    31  H    0.156333
    32  H    0.135862
    33  H    0.159309
    34  H    0.157862
    35  H    0.156177
    36  H    0.136265
 Sum of Mulliken charges =  -0.00000
 Mulliken charges with hydrogens summed into heavy atoms:
               1
     1  C    0.111333
     2  C    0.268855
     3  O   -0.449970
     4  C    0.760117
     5  O   -0.426747
     6  N   -0.203182
     7  N   -0.201141
     8  C    0.755440
     9  O   -0.423104
    10  O   -0.449399
    11  C    0.267732
    12  C    0.119821
    13  C   -0.009092
    14  C    0.019046
    15  C   -0.061977
    16  C    0.022597
    17  C   -0.029852
    18  Cl  -0.008151
    19  C   -0.004302
    20  C    0.023937
    21  C   -0.062712
    22  C    0.022396
    23  C   -0.033105
    24  Cl  -0.008542
 APT charges:
               1
     1  C    0.027739
     2  C    0.550935
     3  O   -0.948365
     4  C    1.379499
     5  O   -0.685528
     6  N   -0.243861
     7  N   -0.218597
     8  C    1.306109
     9  O   -0.644261
    10  O   -0.934468
    11  C    0.588125
    12  C   -0.016962
    13  C   -0.025556
    14  C   -0.086385
    15  C    0.412140
    16  C   -0.102210
    17  C    0.000910
    18  Cl  -0.350904
    19  C   -0.044153
    20  C   -0.086711
    21  C    0.427371
    22  C   -0.106528
    23  C   -0.023212
    24  Cl  -0.363538
    25  H   -0.059641
    26  H    0.009993
    27  H   -0.033888
    28  H   -0.033122
    29  H    0.027444
    30  H    0.045687
    31  H    0.043387
    32  H    0.021014
    33  H    0.058111
    34  H    0.044076
    35  H    0.041347
    36  H    0.024004
 Sum of APT charges =  -0.00000
 APT charges with hydrogens summed into heavy atoms:
               1
     1  C    0.027739
     2  C    0.501288
     3  O   -0.948365
     4  C    1.379499
     5  O   -0.685528
     6  N   -0.243861
     7  N   -0.218597
     8  C    1.306109
     9  O   -0.644261
    10  O   -0.934468
    11  C    0.521115
    12  C   -0.016962
    13  C    0.001887
    14  C   -0.040698
    15  C    0.412140
    16  C   -0.058823
    17  C    0.021924
    18  Cl  -0.350904
    19  C    0.013958
    20  C   -0.042635
    21  C    0.427371
    22  C   -0.065181
    23  C    0.000792
    24  Cl  -0.363538
 Electronic spatial extent (au):  <R**2>=          18797.2357
 Charge=             -0.0000 electrons
 Dipole moment (field-independent basis, Debye):
    X=             -1.4986    Y=             -1.0710    Z=              1.6587  Tot=              2.4787
 Quadrupole moment (field-independent basis, Debye-Ang):
   XX=           -141.7000   YY=           -158.8880   ZZ=           -145.0218
   XY=             11.4176   XZ=             15.5372   YZ=              3.5524
 Traceless Quadrupole moment (field-independent basis, Debye-Ang):
   XX=              6.8366   YY=            -10.3514   ZZ=              3.5148
   XY=             11.4176   XZ=             15.5372   YZ=              3.5524
 Octapole moment (field-independent basis, Debye-Ang**2):
  XXX=           -157.5184  YYY=             -5.7358  ZZZ=             14.9097  XYY=            -26.2303
  XXY=           -117.0274  XXZ=             12.6270  XZZ=             31.4675  YZZ=             -3.3001
  YYZ=            -21.4745  XYZ=            -11.0770
 Hexadecapole moment (field-independent basis, Debye-Ang**3):
 XXXX=         -21197.3377 YYYY=          -2888.9100 ZZZZ=           -889.9576 XXXY=            223.7252
 XXXZ=            860.9941 YYYX=            114.9211 YYYZ=             65.9779 ZZZX=             14.3518
 ZZZY=            -19.9281 XXYY=          -4145.1701 XXZZ=          -3571.6308 YYZZ=           -611.5488
 XXYZ=             17.8460 YYXZ=              8.7718 ZZXY=              4.1355
 N-N= 2.024100799773D+03 E-N=-8.627436737284D+03  KE= 1.935456210954D+03
  Exact polarizability: 292.528  11.810 188.406  19.011  -4.568 158.875
 Approx polarizability: 377.274  19.019 304.546  37.923 -18.210 273.389
 Calling FoFJK, ICntrl=    100127 FMM=F ISym2X=0 I1Cent= 0 IOpClX= 0 NMat=1 NMatS=1 NMatT=0.
 ***** Axes restored to original set *****
 -------------------------------------------------------------------
 Center     Atomic                   Forces (Hartrees/Bohr)
 Number     Number              X              Y              Z
 -------------------------------------------------------------------
      1        6           0.007021830    0.006304503   -0.000745778
      2        6           0.009467422   -0.010310074    0.001915950
      3        8          -0.014918421    0.006537680   -0.007334012
      4        6           0.004973881   -0.079132552   -0.006544347
      5        8           0.012033008    0.024536065    0.007822164
      6        7          -0.010352436    0.044902690    0.005792655
      7        7           0.009762113   -0.046081742    0.002364728
      8        6          -0.007302227    0.080269495    0.001057580
      9        8          -0.014343292   -0.023795986    0.001050639
     10        8          -0.001885980   -0.015917324   -0.009659221
     11        6           0.016248430    0.016746263   -0.000940148
     12        6           0.005828511    0.003374112    0.005826257
     13        6          -0.003772369    0.003753373    0.001624116
     14        6           0.000810984   -0.004928023   -0.002364697
     15        6          -0.004177200   -0.007602905   -0.011866202
     16        6          -0.005386734    0.002024196   -0.005945769
     17        6           0.001924825   -0.003831095    0.004204478
     18       17           0.005993466    0.007837902    0.014196329
     19        6           0.000438221   -0.003241284   -0.001460787
     20        6          -0.003346786    0.003352731    0.000251423
     21        6          -0.013725131    0.002262646    0.004832534
     22        6          -0.005136415   -0.005395051    0.003396043
     23        6           0.000690415    0.003704225   -0.002975571
     24       17           0.016344675   -0.000796545   -0.005847223
     25        1          -0.003570828    0.003809433    0.001455323
     26        1          -0.003892805    0.006865760   -0.000726254
     27        1           0.002074307   -0.015248086   -0.001457901
     28        1          -0.001099293   -0.000077220   -0.000813316
     29        1          -0.002162321    0.003146855    0.002460759
     30        1          -0.000512830    0.001571689   -0.000158039
     31        1           0.001066220   -0.001048498    0.000508227
     32        1           0.000164580   -0.000859759    0.000082491
     33        1           0.000613644   -0.003303774    0.000500984
     34        1           0.000411217   -0.001518793    0.000428293
     35        1           0.000136284    0.001504387   -0.000442775
     36        1          -0.000418964    0.000584707   -0.000488932
 -------------------------------------------------------------------
 Cartesian Forces:  Max     0.080269495 RMS     0.014296820
 FormGI is forming the generalized inverse of G from B-inverse, IUseBI=4.

 GradGradGradGradGradGradGradGradGradGradGradGradGradGradGradGradGradGrad
 Berny optimization.
 Internal  Forces:  Max     0.045193788 RMS     0.007399414
 Search for a local minimum.
 Step number   1 out of a maximum of  180
 All quantities printed in internal units (Hartrees-Bohrs-Radians)
 Mixed Optimization -- RFO/linear search
 Second derivative matrix not updated -- analytic derivatives used.
 ITU=  0
     Eigenvalues ---   -0.00398  -0.00204  -0.00140  -0.00124   0.00007
     Eigenvalues ---    0.01129   0.01564   0.01586   0.01636   0.01714
     Eigenvalues ---    0.01736   0.01771   0.01774   0.02014   0.02046
     Eigenvalues ---    0.02214   0.02231   0.02264   0.02518   0.02538
     Eigenvalues ---    0.02667   0.02669   0.02749   0.02752   0.03029
     Eigenvalues ---    0.03045   0.06063   0.06141   0.07106   0.07185
     Eigenvalues ---    0.07438   0.09748   0.10302   0.10526   0.11393
     Eigenvalues ---    0.11411   0.11508   0.11637   0.11646   0.11973
     Eigenvalues ---    0.11980   0.12844   0.12852   0.14117   0.14208
     Eigenvalues ---    0.17400   0.17425   0.18023   0.18052   0.18912
     Eigenvalues ---    0.19030   0.19419   0.19731   0.20516   0.20684
     Eigenvalues ---    0.21208   0.22517   0.23602   0.23835   0.25138
     Eigenvalues ---    0.25624   0.26739   0.26935   0.28951   0.29056
     Eigenvalues ---    0.29571   0.29613   0.30630   0.31219   0.32994
     Eigenvalues ---    0.33277   0.33378   0.33684   0.34023   0.34477
     Eigenvalues ---    0.35550   0.35554   0.36074   0.36109   0.36181
[...]
   140    O   10  px     Val( 2p)     1.46822
   141    O   10  px     Ryd( 3p)     0.00106
   142    O   10  py     Val( 2p)     1.75957
   143    O   10  py     Ryd( 3p)     0.00180
   144    O   10  pz     Val( 2p)     1.65252
   145    O   10  pz     Ryd( 3p)     0.00145
   146    O   10  dxy    Ryd( 3d)     0.00037
   147    O   10  dxz    Ryd( 3d)     0.00152
   148    O   10  dyz    Ryd( 3d)     0.00188
   149    O   10  dx2y2  Ryd( 3d)     0.00069
   150    O   10  dz2    Ryd( 3d)     0.00142
 
   151    C   11  S      Cor( 1S)     1.99912
   152    C   11  S      Val( 2S)     1.03203
   153    C   11  S      Ryd( 3S)     0.00122
   154    C   11  S      Ryd( 4S)     0.00005
   155    C   11  px     Val( 2p)     0.71418
   156    C   11  px     Ryd( 3p)     0.00285
   157    C   11  py     Val( 2p)     1.10219
   158    C   11  py     Ryd( 3p)     0.00145
   159    C   11  pz     Val( 2p)     1.25820
   160    C   11  pz     Ryd( 3p)     0.00761
   161    C   11  dxy    Ryd( 3d)     0.00132
   162    C   11  dxz    Ryd( 3d)     0.00101
   163    C   11  dyz    Ryd( 3d)     0.00088
   164    C   11  dx2y2  Ryd( 3d)     0.00170
   165    C   11  dz2    Ryd( 3d)     0.00118
 
   166    C   12  S      Cor( 1S)     1.99901
   167    C   12  S      Val( 2S)     0.88835
   168    C   12  S      Ryd( 3S)     0.00069
   169    C   12  S      Ryd( 4S)     0.00006
   170    C   12  px     Val( 2p)     1.03413
   171    C   12  px     Ryd( 3p)     0.00193
   172    C   12  py     Val( 2p)     1.06482
   173    C   12  py     Ryd( 3p)     0.00443
   174    C   12  pz     Val( 2p)     1.09358
   175    C   12  pz     Ryd( 3p)     0.00446
   176    C   12  dxy    Ryd( 3d)     0.00037
   177    C   12  dxz    Ryd( 3d)     0.00055
   178    C   12  dyz    Ryd( 3d)     0.00077
   179    C   12  dx2y2  Ryd( 3d)     0.00052
   180    C   12  dz2    Ryd( 3d)     0.00059
 
   181    C   13  S      Cor( 1S)     1.99903
   182    C   13  S      Val( 2S)     0.95302
   183    C   13  S      Ryd( 3S)     0.00057
   184    C   13  S      Ryd( 4S)     0.00005
   185    C   13  px     Val( 2p)     0.98576
   186    C   13  px     Ryd( 3p)     0.00072
   187    C   13  py     Val( 2p)     1.06956
   188    C   13  py     Ryd( 3p)     0.00385
   189    C   13  pz     Val( 2p)     1.17989
   190    C   13  pz     Ryd( 3p)     0.00505
   191    C   13  dxy    Ryd( 3d)     0.00053
   192    C   13  dxz    Ryd( 3d)     0.00037
   193    C   13  dyz    Ryd( 3d)     0.00071
   194    C   13  dx2y2  Ryd( 3d)     0.00043
   195    C   13  dz2    Ryd( 3d)     0.00078
 
   196    C   14  S      Cor( 1S)     1.99893
   197    C   14  S      Val( 2S)     0.95888
   198    C   14  S      Ryd( 3S)     0.00097
   199    C   14  S      Ryd( 4S)     0.00005
   200    C   14  px     Val( 2p)     1.00595
   201    C   14  px     Ryd( 3p)     0.00101
   202    C   14  py     Val( 2p)     1.11496
   203    C   14  py     Ryd( 3p)     0.00539
   204    C   14  pz     Val( 2p)     1.15012
   205    C   14  pz     Ryd( 3p)     0.00478
   206    C   14  dxy    Ryd( 3d)     0.00044
   207    C   14  dxz    Ryd( 3d)     0.00043
   208    C   14  dyz    Ryd( 3d)     0.00077
   209    C   14  dx2y2  Ryd( 3d)     0.00046
   210    C   14  dz2    Ryd( 3d)     0.00060
 
   211    C   15  S      Cor( 1S)     1.99856
   212    C   15  S      Val( 2S)     0.93300
   213    C   15  S      Ryd( 3S)     0.00060
   214    C   15  S      Ryd( 4S)     0.00009
   215    C   15  px     Val( 2p)     1.04756
   216    C   15  px     Ryd( 3p)     0.00129
   217    C   15  py     Val( 2p)     0.93337
   218    C   15  py     Ryd( 3p)     0.00696
   219    C   15  pz     Val( 2p)     1.10196
   220    C   15  pz     Ryd( 3p)     0.00767
   221    C   15  dxy    Ryd( 3d)     0.00115
   222    C   15  dxz    Ryd( 3d)     0.00069
   223    C   15  dyz    Ryd( 3d)     0.00103
   224    C   15  dx2y2  Ryd( 3d)     0.00131
   225    C   15  dz2    Ryd( 3d)     0.00097
 
   226    C   16  S      Cor( 1S)     1.99894
   227    C   16  S      Val( 2S)     0.95992
   228    C   16  S      Ryd( 3S)     0.00098
   229    C   16  S      Ryd( 4S)     0.00005
   230    C   16  px     Val( 2p)     1.00294
   231    C   16  px     Ryd( 3p)     0.00100
   232    C   16  py     Val( 2p)     1.07691
   233    C   16  py     Ryd( 3p)     0.00520
   234    C   16  pz     Val( 2p)     1.18784
   235    C   16  pz     Ryd( 3p)     0.00500
   236    C   16  dxy    Ryd( 3d)     0.00045
   237    C   16  dxz    Ryd( 3d)     0.00043
   238    C   16  dyz    Ryd( 3d)     0.00077
   239    C   16  dx2y2  Ryd( 3d)     0.00039
   240    C   16  dz2    Ryd( 3d)     0.00066
 
   241    C   17  S      Cor( 1S)     1.99903
   242    C   17  S      Val( 2S)     0.95656
   243    C   17  S      Ryd( 3S)     0.00059
   244    C   17  S      Ryd( 4S)     0.00004
   245    C   17  px     Val( 2p)     0.97312
   246    C   17  px     Ryd( 3p)     0.00077
   247    C   17  py     Val( 2p)     1.10605
   248    C   17  py     Ryd( 3p)     0.00431
   249    C   17  pz     Val( 2p)     1.15122
   250    C   17  pz     Ryd( 3p)     0.00477
   251    C   17  dxy    Ryd( 3d)     0.00049
   252    C   17  dxz    Ryd( 3d)     0.00042
   253    C   17  dyz    Ryd( 3d)     0.00084
   254    C   17  dx2y2  Ryd( 3d)     0.00047
   255    C   17  dz2    Ryd( 3d)     0.00061
 
   256   Cl   18  S      Cor( 1S)     2.00000
   257   Cl   18  S      Cor( 2S)     1.99979
   258   Cl   18  S      Val( 3S)     1.83533
   259   Cl   18  S      Ryd( 4S)     0.00331
   260   Cl   18  S      Ryd( 5S)     0.00000
   261   Cl   18  px     Cor( 2p)     1.99999
   262   Cl   18  px     Val( 3p)     1.88684
   263   Cl   18  px     Ryd( 4p)     0.00176
   264   Cl   18  py     Cor( 2p)     1.99991
   265   Cl   18  py     Val( 3p)     1.29900
   266   Cl   18  py     Ryd( 4p)     0.00378
   267   Cl   18  pz     Cor( 2p)     1.99999
   268   Cl   18  pz     Val( 3p)     1.95776
   269   Cl   18  pz     Ryd( 4p)     0.00157
   270   Cl   18  dxy    Ryd( 3d)     0.00265
   271   Cl   18  dxz    Ryd( 3d)     0.00014
   272   Cl   18  dyz    Ryd( 3d)     0.00132
   273   Cl   18  dx2y2  Ryd( 3d)     0.00345
   274   Cl   18  dz2    Ryd( 3d)     0.00132
 
   275    C   19  S      Cor( 1S)     1.99903
   276    C   19  S      Val( 2S)     0.95317
   277    C   19  S      Ryd( 3S)     0.00058
   278    C   19  S      Ryd( 4S)     0.00005
   279    C   19  px     Val( 2p)     1.01611
   280    C   19  px     Ryd( 3p)     0.00165
   281    C   19  py     Val( 2p)     1.04292
   282    C   19  py     Ryd( 3p)     0.00321
   283    C   19  pz     Val( 2p)     1.17564
   284    C   19  pz     Ryd( 3p)     0.00479
   285    C   19  dxy    Ryd( 3d)     0.00049
   286    C   19  dxz    Ryd( 3d)     0.00051
   287    C   19  dyz    Ryd( 3d)     0.00055
   288    C   19  dx2y2  Ryd( 3d)     0.00051
   289    C   19  dz2    Ryd( 3d)     0.00075
 
   290    C   20  S      Cor( 1S)     1.99893
   291    C   20  S      Val( 2S)     0.95911
   292    C   20  S      Ryd( 3S)     0.00097
   293    C   20  S      Ryd( 4S)     0.00005
   294    C   20  px     Val( 2p)     1.01895
   295    C   20  px     Ryd( 3p)     0.00194
   296    C   20  py     Val( 2p)     1.13926
   297    C   20  py     Ryd( 3p)     0.00488
   298    C   20  pz     Val( 2p)     1.11200
   299    C   20  pz     Ryd( 3p)     0.00437
   300    C   20  dxy    Ryd( 3d)     0.00044
   301    C   20  dxz    Ryd( 3d)     0.00044
   302    C   20  dyz    Ryd( 3d)     0.00070
   303    C   20  dx2y2  Ryd( 3d)     0.00055
   304    C   20  dz2    Ryd( 3d)     0.00057
 
   305    C   21  S      Cor( 1S)     1.99856
   306    C   21  S      Val( 2S)     0.93313
   307    C   21  S      Ryd( 3S)     0.00060
   308    C   21  S      Ryd( 4S)     0.00009
   309    C   21  px     Val( 2p)     1.02240
   310    C   21  px     Ryd( 3p)     0.00262
   311    C   21  py     Val( 2p)     0.97533
   312    C   21  py     Ryd( 3p)     0.00629
   313    C   21  pz     Val( 2p)     1.08450
   314    C   21  pz     Ryd( 3p)     0.00703
   315    C   21  dxy    Ryd( 3d)     0.00131
   316    C   21  dxz    Ryd( 3d)     0.00076
   317    C   21  dyz    Ryd( 3d)     0.00110
   318    C   21  dx2y2  Ryd( 3d)     0.00105
   319    C   21  dz2    Ryd( 3d)     0.00093
 
   320    C   22  S      Cor( 1S)     1.99894
   321    C   22  S      Val( 2S)     0.95991
   322    C   22  S      Ryd( 3S)     0.00098
   323    C   22  S      Ryd( 4S)     0.00005
   324    C   22  px     Val( 2p)     1.03418
   325    C   22  px     Ryd( 3p)     0.00205
   326    C   22  py     Val( 2p)     1.04851
   327    C   22  py     Ryd( 3p)     0.00438
   328    C   22  pz     Val( 2p)     1.18524
   329    C   22  pz     Ryd( 3p)     0.00478
   330    C   22  dxy    Ryd( 3d)     0.00042
   331    C   22  dxz    Ryd( 3d)     0.00057
   332    C   22  dyz    Ryd( 3d)     0.00062
   333    C   22  dx2y2  Ryd( 3d)     0.00044
   334    C   22  dz2    Ryd( 3d)     0.00065
 
   335    C   23  S      Cor( 1S)     1.99903
   336    C   23  S      Val( 2S)     0.95644
   337    C   23  S      Ryd( 3S)     0.00058
   338    C   23  S      Ryd( 4S)     0.00004
   339    C   23  px     Val( 2p)     0.99336
   340    C   23  px     Ryd( 3p)     0.00153
   341    C   23  py     Val( 2p)     1.12913
   342    C   23  py     Ryd( 3p)     0.00415
   343    C   23  pz     Val( 2p)     1.10796
   344    C   23  pz     Ryd( 3p)     0.00413
   345    C   23  dxy    Ryd( 3d)     0.00043
   346    C   23  dxz    Ryd( 3d)     0.00045
   347    C   23  dyz    Ryd( 3d)     0.00083
   348    C   23  dx2y2  Ryd( 3d)     0.00058
   349    C   23  dz2    Ryd( 3d)     0.00054
 
   350   Cl   24  S      Cor( 1S)     2.00000
   351   Cl   24  S      Cor( 2S)     1.99979
   352   Cl   24  S      Val( 3S)     1.83540
   353   Cl   24  S      Ryd( 4S)     0.00331
   354   Cl   24  S      Ryd( 5S)     0.00000
   355   Cl   24  px     Cor( 2p)     1.99997
   356   Cl   24  px     Val( 3p)     1.75685
   357   Cl   24  px     Ryd( 4p)     0.00221
   358   Cl   24  py     Cor( 2p)     1.99993
   359   Cl   24  py     Val( 3p)     1.48144
   360   Cl   24  py     Ryd( 4p)     0.00316
   361   Cl   24  pz     Cor( 2p)     1.99998
   362   Cl   24  pz     Val( 3p)     1.90414
   363   Cl   24  pz     Ryd( 4p)     0.00175
   364   Cl   24  dxy    Ryd( 3d)     0.00318
   365   Cl   24  dxz    Ryd( 3d)     0.00065
   366   Cl   24  dyz    Ryd( 3d)     0.00174
   367   Cl   24  dx2y2  Ryd( 3d)     0.00223
   368   Cl   24  dz2    Ryd( 3d)     0.00108
 
   369    H   25  S      Val( 1S)     0.75633
   370    H   25  S      Ryd( 2S)     0.00106
 
   371    H   26  S      Val( 1S)     0.75439
   372    H   26  S      Ryd( 2S)     0.00208
 
   373    H   27  S      Val( 1S)     0.75649
   374    H   27  S      Ryd( 2S)     0.00112
 
   375    H   28  S      Val( 1S)     0.75391
   376    H   28  S      Ryd( 2S)     0.00217
 
   377    H   29  S      Val( 1S)     0.75632
   378    H   29  S      Ryd( 2S)     0.00101
 
   379    H   30  S      Val( 1S)     0.74298
   380    H   30  S      Ryd( 2S)     0.00102
 
   381    H   31  S      Val( 1S)     0.74150
   382    H   31  S      Ryd( 2S)     0.00100
 
   383    H   32  S      Val( 1S)     0.73958
   384    H   32  S      Ryd( 2S)     0.00135
 
   385    H   33  S      Val( 1S)     0.75567
   386    H   33  S      Ryd( 2S)     0.00101
 
   387    H   34  S      Val( 1S)     0.74253
   388    H   34  S      Ryd( 2S)     0.00102
 
   389    H   35  S      Val( 1S)     0.74123
   390    H   35  S      Ryd( 2S)     0.00100
 
   391    H   36  S      Val( 1S)     0.74063
   392    H   36  S      Ryd( 2S)     0.00127

 WARNING:  1 low occupancy (<1.9990e) core orbital  found on  C   14
           1 low occupancy (<1.9990e) core orbital  found on  C   15
           1 low occupancy (<1.9990e) core orbital  found on  C   16
           1 low occupancy (<1.9990e) core orbital  found on  C   20
           1 low occupancy (<1.9990e) core orbital  found on  C   21
           1 low occupancy (<1.9990e) core orbital  found on  C   22


 Summary of Natural Population Analysis:                  
                                                          
                                       Natural Population 
                Natural  -----------------------------------------------
    Atom  No    Charge         Core      Valence    Rydberg      Total
 -----------------------------------------------------------------------
      C    1   -0.09450      1.99901     4.08108    0.01441     6.09450
      C    2   -0.12711      1.99913     4.10873    0.01926     6.12711
      O    3   -0.51957      1.99973     6.50760    0.01224     8.51957
      C    4    0.91488      1.99951     3.03462    0.05100     5.08512
      O    5   -0.53958      1.99977     6.51914    0.02068     8.53958
      N    6   -0.21386      1.99938     5.18831    0.02617     7.21386
      N    7   -0.21636      1.99939     5.19051    0.02646     7.21636
      C    8    0.92256      1.99951     3.02744    0.05050     5.07744
      O    9   -0.55217      1.99977     6.53165    0.02075     8.55217
      O   10   -0.52289      1.99973     6.51087    0.01229     8.52289
      C   11   -0.12498      1.99912     4.10659    0.01926     6.12498
      C   12   -0.09425      1.99901     4.08087    0.01436     6.09425
      C   13   -0.20031      1.99903     4.18823    0.01306     6.20031
      C   14   -0.24375      1.99893     4.22991    0.01491     6.24375
      C   15   -0.03620      1.99856     4.01589    0.02176     6.03620
      C   16   -0.24147      1.99894     4.22761    0.01493     6.24147
      C   17   -0.19930      1.99903     4.18695    0.01332     6.19930
     Cl   18    0.00209      9.99967     6.97893    0.01930    16.99791
      C   19   -0.19996      1.99903     4.18783    0.01310     6.19996
      C   20   -0.24317      1.99893     4.22932    0.01491     6.24317
      C   21   -0.03569      1.99856     4.01536    0.02178     6.03569
      C   22   -0.24173      1.99894     4.22784    0.01495     6.24173
      C   23   -0.19919      1.99903     4.18689    0.01327     6.19919
     Cl   24    0.00319      9.99967     6.97783    0.01930    16.99681
      H   25    0.24260      0.00000     0.75633    0.00106     0.75740
      H   26    0.24352      0.00000     0.75439    0.00208     0.75648
      H   27    0.24239      0.00000     0.75649    0.00112     0.75761
      H   28    0.24391      0.00000     0.75391    0.00217     0.75609
      H   29    0.24267      0.00000     0.75632    0.00101     0.75733
      H   30    0.25600      0.00000     0.74298    0.00102     0.74400
      H   31    0.25750      0.00000     0.74150    0.00100     0.74250
      H   32    0.25907      0.00000     0.73958    0.00135     0.74093
      H   33    0.24333      0.00000     0.75567    0.00101     0.75667
      H   34    0.25645      0.00000     0.74253    0.00102     0.74355
      H   35    0.25777      0.00000     0.74123    0.00100     0.74223
      H   36    0.25810      0.00000     0.74063    0.00127     0.74190
 =======================================================================
   * Total *   -0.00000     63.98137   123.52156    0.49707   188.00000

                                 Natural Population      
 --------------------------------------------------------
   Core                      63.98137 ( 99.9709% of  64)
   Valence                  123.52156 ( 99.6142% of 124)
   Natural Minimal Basis    187.50293 ( 99.7356% of 188)
   Natural Rydberg Basis      0.49707 (  0.2644% of 188)
 --------------------------------------------------------

    Atom  No          Natural Electron Configuration
 ----------------------------------------------------------------------------
      C    1      [core]2S( 0.89)2p( 3.19)3p( 0.01)
      C    2      [core]2S( 1.03)2p( 3.08)3p( 0.01)3d( 0.01)
      O    3      [core]2S( 1.63)2p( 4.88)3d( 0.01)
      C    4      [core]2S( 0.73)2p( 2.30)3p( 0.03)3d( 0.01)
      O    5      [core]2S( 1.71)2p( 4.81)3d( 0.02)
      N    6      [core]2S( 1.39)2p( 3.79)3S( 0.01)3p( 0.01)3d( 0.01)
      N    7      [core]2S( 1.39)2p( 3.80)3S( 0.01)3p( 0.01)3d( 0.01)
      C    8      [core]2S( 0.73)2p( 2.30)3p( 0.03)3d( 0.01)
      O    9      [core]2S( 1.71)2p( 4.82)3d( 0.02)
      O   10      [core]2S( 1.63)2p( 4.88)3d( 0.01)
      C   11      [core]2S( 1.03)2p( 3.07)3p( 0.01)3d( 0.01)
      C   12      [core]2S( 0.89)2p( 3.19)3p( 0.01)
      C   13      [core]2S( 0.95)2p( 3.24)3p( 0.01)
      C   14      [core]2S( 0.96)2p( 3.27)3p( 0.01)
      C   15      [core]2S( 0.93)2p( 3.08)3p( 0.02)3d( 0.01)
      C   16      [core]2S( 0.96)2p( 3.27)3p( 0.01)
      C   17      [core]2S( 0.96)2p( 3.23)3p( 0.01)
     Cl   18      [core]3S( 1.84)3p( 5.14)3d( 0.01)4p( 0.01)
      C   19      [core]2S( 0.95)2p( 3.23)3p( 0.01)
      C   20      [core]2S( 0.96)2p( 3.27)3p( 0.01)
      C   21      [core]2S( 0.93)2p( 3.08)3p( 0.02)3d( 0.01)
      C   22      [core]2S( 0.96)2p( 3.27)3p( 0.01)
      C   23      [core]2S( 0.96)2p( 3.23)3p( 0.01)
     Cl   24      [core]3S( 1.84)3p( 5.14)3d( 0.01)4p( 0.01)
      H   25            1S( 0.76)
      H   26            1S( 0.75)
      H   27            1S( 0.76)
      H   28            1S( 0.75)
      H   29            1S( 0.76)
      H   30            1S( 0.74)
      H   31            1S( 0.74)
      H   32            1S( 0.74)
      H   33            1S( 0.76)
      H   34            1S( 0.74)
      H   35            1S( 0.74)
      H   36            1S( 0.74)


 NBO analysis skipped by request.
 1\1\GINC-DELLA-R1C4N1\SP\RB3LYP TD-FC\6-31G(d)\C16H12Cl2N2O4\BJS4\22-A
 ug-2020\0\\# TD(NStates=10, Root=1) B3LYP/6-31G* scf=qc volume pop=NPA
  density=current Geom=AllCheck Guess=Read\\Title Card Required\\0,1\C,
 0,-2.2018830113,-0.1265836345,-0.0302921301\C,0,-3.6452292235,-0.53517
 7173,0.0948417714\O,0,-4.5152951668,0.6184216847,0.3412122652\C,0,-4.9
 885226757,1.238647558,-0.7383312285\O,0,-4.7874204422,0.9750631568,-1.
 8973328503\N,0,-5.7260678463,2.4111245751,-0.3035683892\N,0,-6.9401532
 764,2.3373586225,-0.5662387023\C,0,-7.6623300454,3.5503171763,-0.24487
 03275\O,0,-7.9786689265,4.3380148907,-1.101176599\O,0,-7.9919671502,3.
 5564461669,1.0446525288\C,0,-8.8547220615,4.6576360772,1.4866209303\C,
 0,-8.0526895485,5.8456974247,1.9452985884\C,0,-7.6604969536,5.95880839
 05,3.2844325716\C,0,-6.9127444871,7.0497557217,3.7241125606\C,0,-6.555
 7512833,8.0367958821,2.8060803995\C,0,-6.9323926366,7.9479666972,1.466
 0242812\C,0,-7.6801169415,6.8507027155,1.0425427247\Cl,0,-5.6177681676
 ,9.4197803958,3.3492987169\C,0,-1.3926093253,-0.0343996711,1.108663846
 7\C,0,-0.0566250319,0.3500198182,1.0111327797\C,0,0.4705564247,0.64476
 1703,-0.2459470261\C,0,-0.3137739276,0.5622486465,-1.3961978846\C,0,-1
 .6484017709,0.176825791,-1.2813589081\Cl,0,2.155378757,1.1247100864,-0
 .3823796673\H,0,-3.8091493471,-1.165990967,0.9698121881\H,0,-4.0022300
 605,-1.0462574578,-0.8008560088\H,0,-9.4257184149,4.2187419499,2.30623
 59639\H,0,-9.5243002299,4.9121453405,0.663042585\H,0,-7.9427943137,5.1
 87117626,3.9964762457\H,0,-6.6124631057,7.1368998439,4.7626965451\H,0,
 -6.645368682,8.7262843832,0.7672426856\H,0,-7.9687267365,6.7670800919,
 -0.0007800194\H,0,-1.8082202859,-0.2668684484,2.0861157161\H,0,0.56932
 55843,0.4179089787,1.8943098627\H,0,0.1146534012,0.7952518937,-2.36503
 21646\H,0,-2.2704030915,0.1214740636,-2.1694538511\\Version=ES64L-G16R
 evA.03\State=1-A\HF=-1947.6733984\RMSD=5.422e-13\Dipole=-0.5218182,-0.
 8424187,1.2009389\Quadrupole=-0.3736792,1.9062942,-1.532615,-3.9044903
 ,-5.7934523,-4.13908\PG=C01 [X(C16H12Cl2N2O4)]\\@


 EDUCATION WITHOUT COMMON SENSE IS A LOAD OF BOOKS ON THE BACK OF AN ASS.
 Job cpu time:       0 days  1 hours  4 minutes 20.6 seconds.
 Elapsed time:       0 days  0 hours 12 minutes 52.7 seconds.
 File lengths (MBytes):  RWF=   1224 Int=      0 D2E=      0 Chk=    268 Scr=      1
 Normal termination of Gaussian 16 at Sat Aug 22 17:45:57 2020.
