 Entering Gaussian System, Link 0=g16
 Input=azadicarboxylate_6_conf1123.com
 Output=azadicarboxylate_6_conf1123.log
 Initial command:
 /opt/export//g16/l1.exe "/scratch/bjs4/job.8470/Gau-8472.inp" -scrdir="/scratch/bjs4/job.8470/"
 Entering Link 1 = /opt/export//g16/l1.exe PID=      8473.
  
 Copyright (c) 1988,1990,1992,1993,1995,1998,2003,2009,2016,
            Gaussian, Inc.  All Rights Reserved.
  
 This is part of the Gaussian(R) 16 program.  It is based on
 the Gaussian(R) 09 system (copyright 2009, Gaussian, Inc.),
 the Gaussian(R) 03 system (copyright 2003, Gaussian, Inc.),
 the Gaussian(R) 98 system (copyright 1998, Gaussian, Inc.),
 the Gaussian(R) 94 system (copyright 1995, Gaussian, Inc.),
 the Gaussian 92(TM) system (copyright 1992, Gaussian, Inc.),
 the Gaussian 90(TM) system (copyright 1990, Gaussian, Inc.),
 the Gaussian 88(TM) system (copyright 1988, Gaussian, Inc.),
 the Gaussian 86(TM) system (copyright 1986, Carnegie Mellon
 University), and the Gaussian 82(TM) system (copyright 1983,
 Carnegie Mellon University). Gaussian is a federally registered
 trademark of Gaussian, Inc.
  
 This software contains proprietary and confidential information,
 including trade secrets, belonging to Gaussian, Inc.
  
 This software is provided under written license and may be
 used, copied, transmitted, or stored only in accord with that
 written license.
  
 The following legend is applicable only to US Government
 contracts under FAR:
  
                    RESTRICTED RIGHTS LEGEND
  
 Use, reproduction and disclosure by the US Government is
 subject to restrictions as set forth in subparagraphs (a)
 and (c) of the Commercial Computer Software - Restricted
 Rights clause in FAR 52.227-19.
  
 Gaussian, Inc.
 340 Quinnipiac St., Bldg. 40, Wallingford CT 06492
  
  
 ---------------------------------------------------------------
 Warning -- This program may not be used in any manner that
 competes with the business of Gaussian, Inc. or will provide
 assistance to any competitor of Gaussian, Inc.  The licensee
 of this program is prohibited from giving any competitor of
 Gaussian, Inc. access to this program.  By using this program,
 the user acknowledges that Gaussian, Inc. is engaged in the
 business of creating and licensing software in the field of
 computational chemistry and represents and warrants to the
 licensee that it is not a competitor of Gaussian, Inc. and that
 it will not use this program in any manner prohibited above.
 ---------------------------------------------------------------
  

 Cite this work as:
 Gaussian 16, Revision A.03,
 M. J. Frisch, G. W. Trucks, H. B. Schlegel, G. E. Scuseria, 
 M. A. Robb, J. R. Cheeseman, G. Scalmani, V. Barone, 
 G. A. Petersson, H. Nakatsuji, X. Li, M. Caricato, A. V. Marenich, 
 J. Bloino, B. G. Janesko, R. Gomperts, B. Mennucci, H. P. Hratchian, 
 J. V. Ortiz, A. F. Izmaylov, J. L. Sonnenberg, D. Williams-Young, 
 F. Ding, F. Lipparini, F. Egidi, J. Goings, B. Peng, A. Petrone, 
 T. Henderson, D. Ranasinghe, V. G. Zakrzewski, J. Gao, N. Rega, 
 G. Zheng, W. Liang, M. Hada, M. Ehara, K. Toyota, R. Fukuda, 
 J. Hasegawa, M. Ishida, T. Nakajima, Y. Honda, O. Kitao, H. Nakai, 
 T. Vreven, K. Throssell, J. A. Montgomery, Jr., J. E. Peralta, 
 F. Ogliaro, M. J. Bearpark, J. J. Heyd, E. N. Brothers, K. N. Kudin, 
 V. N. Staroverov, T. A. Keith, R. Kobayashi, J. Normand, 
 K. Raghavachari, A. P. Rendell, J. C. Burant, S. S. Iyengar, 
 J. Tomasi, M. Cossi, J. M. Millam, M. Klene, C. Adamo, R. Cammi, 
 J. W. Ochterski, R. L. Martin, K. Morokuma, O. Farkas, 
 J. B. Foresman, and D. J. Fox, Gaussian, Inc., Wallingford CT, 2016.
 
 ******************************************
 Gaussian 16:  ES64L-G16RevA.03 25-Dec-2016
                22-Aug-2020 
 ******************************************
 %nprocshared=3
 Will use up to    3 processors via shared memory.
 %Mem=6GB
 %Chk=azadicarboxylate_6_conf11.chk
 ---------------------------------
 # opt=CalcAll B3LYP/6-31G* scf=qc
 ---------------------------------
 1/10=4,18=20,19=15,26=3,38=1/1,3;
 2/9=110,12=2,17=6,18=5,40=1/2;
 3/5=1,6=6,7=1,11=2,25=1,30=1,71=2,74=-5,140=1/1,2,3;
 4//1;
 5/5=2,8=3,38=5/8;
 8/6=4,10=90,11=11/1;
 11/6=1,8=1,9=11,15=111,16=1/1,2,10;
 10/6=1/2;
 6/7=2,8=2,9=2,10=2,18=1,28=1/1;
 7/10=1,25=1/1,2,3,16;
 1/10=4,18=20,19=15,26=3/3(3);
 2/9=110/2;
 7/8=1,9=1,25=1,44=-1/16;
 99//99;
 2/9=110/2;
 3/5=1,6=6,7=1,11=2,25=1,30=1,71=2,74=-5,140=1/1,2,3;
 4/5=5,16=3,69=1/1;
 5/5=2,8=3,38=5/8;
 8/6=4,10=90,11=11/1;
 11/6=1,8=1,9=11,15=111,16=1/1,2,10;
 10/6=1/2;
 7/10=1,25=1/1,2,3,16;
 1/10=4,18=20,19=15,26=3/3(-8);
 2/9=110/2;
 6/7=2,8=2,9=2,10=2,18=1,19=2,28=1/1;
 7/8=1,9=1,25=1,44=-1/16;
 99//99;
 -------------------
 Title Card Required
 -------------------
 Symbolic Z-matrix:
 Charge =  0 Multiplicity = 1
 C2                    0.8051    0.1255    0.0867 
 O3                    1.90048   0.22376  -0.47028 
 N4                    0.1995    1.147     0.7925 
 N5                   -1.0503    1.0879    0.7508 
 C6                   -1.6557    2.1093    1.4564 
 O7                   -2.74973   2.5979    1.16644 
 N8                   -0.93447   2.57663   2.55813 
 C                     0.36692   2.05626   2.94493 
 C                    -1.48118   3.63683   3.38414 
 N1                    0.08305  -1.06922   0.0363 
 C                    -1.21217  -1.15981   0.68428 
 C                     0.55606  -2.26483  -0.64232 
 H                     0.72244   1.26269   2.28541 
 H                     0.29594   1.66111   3.96297 
 H                     1.09002   2.87734   2.92748 
 H                    -2.45864   3.97728   3.03429 
 H                    -0.78884   4.48399   3.37254 
 H                    -1.5836    3.26682   4.40874 
 H                    -1.50171  -0.22622   1.17237 
 H                    -1.17364  -1.95297   1.43694 
 H                    -1.96492  -1.41126  -0.06875 
 H                     1.53393  -2.1325   -1.10855 
 H                    -0.1681   -2.53586  -1.41671 
 H                     0.62246  -3.07708   0.08796 
 

 GradGradGradGradGradGradGradGradGradGradGradGradGradGradGradGradGradGrad
 Berny optimization.
 Initialization pass.
                           ----------------------------
                           !    Initial Parameters    !
                           ! (Angstroms and Degrees)  !
 --------------------------                            --------------------------
 ! Name  Definition              Value          Derivative Info.                !
 --------------------------------------------------------------------------------
 ! R1    R(1,2)                  1.2328         calculate D2E/DX2 analytically  !
 ! R2    R(1,3)                  1.3814         calculate D2E/DX2 analytically  !
 ! R3    R(1,10)                 1.3969         calculate D2E/DX2 analytically  !
 ! R4    R(3,4)                  1.2519         calculate D2E/DX2 analytically  !
 ! R5    R(4,5)                  1.3812         calculate D2E/DX2 analytically  !
 ! R6    R(5,6)                  1.2328         calculate D2E/DX2 analytically  !
 ! R7    R(5,7)                  1.3973         calculate D2E/DX2 analytically  !
 ! R8    R(7,8)                  1.454          calculate D2E/DX2 analytically  !
 ! R9    R(7,9)                  1.4509         calculate D2E/DX2 analytically  !
 ! R10   R(8,13)                 1.0914         calculate D2E/DX2 analytically  !
 ! R11   R(8,14)                 1.0943         calculate D2E/DX2 analytically  !
 ! R12   R(8,15)                 1.0942         calculate D2E/DX2 analytically  !
 ! R13   R(9,16)                 1.0926         calculate D2E/DX2 analytically  !
 ! R14   R(9,17)                 1.0941         calculate D2E/DX2 analytically  !
 ! R15   R(9,18)                 1.0942         calculate D2E/DX2 analytically  !
 ! R16   R(10,11)                1.4511         calculate D2E/DX2 analytically  !
 ! R17   R(10,12)                1.4539         calculate D2E/DX2 analytically  !
 ! R18   R(11,19)                1.0925         calculate D2E/DX2 analytically  !
 ! R19   R(11,20)                1.0941         calculate D2E/DX2 analytically  !
 ! R20   R(11,21)                1.094          calculate D2E/DX2 analytically  !
 ! R21   R(12,22)                1.0914         calculate D2E/DX2 analytically  !
 ! R22   R(12,23)                1.0943         calculate D2E/DX2 analytically  !
 ! R23   R(12,24)                1.0943         calculate D2E/DX2 analytically  !
 ! A1    A(2,1,3)              124.1543         calculate D2E/DX2 analytically  !
 ! A2    A(2,1,10)             120.7414         calculate D2E/DX2 analytically  !
 ! A3    A(3,1,10)             115.1043         calculate D2E/DX2 analytically  !
 ! A4    A(1,3,4)              112.6888         calculate D2E/DX2 analytically  !
 ! A5    A(3,4,5)              112.6849         calculate D2E/DX2 analytically  !
 ! A6    A(4,5,6)              124.1898         calculate D2E/DX2 analytically  !
 ! A7    A(4,5,7)              115.0812         calculate D2E/DX2 analytically  !
 ! A8    A(6,5,7)              120.7291         calculate D2E/DX2 analytically  !
 ! A9    A(5,7,8)              123.5087         calculate D2E/DX2 analytically  !
 ! A10   A(5,7,9)              119.9192         calculate D2E/DX2 analytically  !
 ! A11   A(8,7,9)              116.5721         calculate D2E/DX2 analytically  !
 ! A12   A(7,8,13)             113.0194         calculate D2E/DX2 analytically  !
 ! A13   A(7,8,14)             108.5818         calculate D2E/DX2 analytically  !
 ! A14   A(7,8,15)             108.5834         calculate D2E/DX2 analytically  !
 ! A15   A(13,8,14)            108.7076         calculate D2E/DX2 analytically  !
 ! A16   A(13,8,15)            108.7058         calculate D2E/DX2 analytically  !
 ! A17   A(14,8,15)            109.1865         calculate D2E/DX2 analytically  !
 ! A18   A(7,9,16)             112.4883         calculate D2E/DX2 analytically  !
 ! A19   A(7,9,17)             108.7414         calculate D2E/DX2 analytically  !
 ! A20   A(7,9,18)             108.7398         calculate D2E/DX2 analytically  !
 ! A21   A(16,9,17)            108.75           calculate D2E/DX2 analytically  !
 ! A22   A(16,9,18)            108.7523         calculate D2E/DX2 analytically  !
 ! A23   A(17,9,18)            109.3288         calculate D2E/DX2 analytically  !
 ! A24   A(1,10,11)            119.9115         calculate D2E/DX2 analytically  !
 ! A25   A(1,10,12)            123.5057         calculate D2E/DX2 analytically  !
 ! A26   A(11,10,12)           116.5828         calculate D2E/DX2 analytically  !
 ! A27   A(10,11,19)           112.5006         calculate D2E/DX2 analytically  !
 ! A28   A(10,11,20)           108.724          calculate D2E/DX2 analytically  !
 ! A29   A(10,11,21)           108.7312         calculate D2E/DX2 analytically  !
 ! A30   A(19,11,20)           108.7519         calculate D2E/DX2 analytically  !
 ! A31   A(19,11,21)           108.7568         calculate D2E/DX2 analytically  !
 ! A32   A(20,11,21)           109.3362         calculate D2E/DX2 analytically  !
 ! A33   A(10,12,22)           113.0289         calculate D2E/DX2 analytically  !
 ! A34   A(10,12,23)           108.5833         calculate D2E/DX2 analytically  !
 ! A35   A(10,12,24)           108.5813         calculate D2E/DX2 analytically  !
 ! A36   A(22,12,23)           108.702          calculate D2E/DX2 analytically  !
 ! A37   A(22,12,24)           108.7066         calculate D2E/DX2 analytically  !
 ! A38   A(23,12,24)           109.1818         calculate D2E/DX2 analytically  !
 ! D1    D(2,1,3,4)            149.7041         calculate D2E/DX2 analytically  !
 ! D2    D(10,1,3,4)           -30.3085         calculate D2E/DX2 analytically  !
 ! D3    D(2,1,10,11)         -179.2353         calculate D2E/DX2 analytically  !
 ! D4    D(2,1,10,12)            0.7663         calculate D2E/DX2 analytically  !
 ! D5    D(3,1,10,11)            0.7768         calculate D2E/DX2 analytically  !
 ! D6    D(3,1,10,12)         -179.2216         calculate D2E/DX2 analytically  !
 ! D7    D(1,3,4,5)           -179.9952         calculate D2E/DX2 analytically  !
 ! D8    D(3,4,5,6)            149.6182         calculate D2E/DX2 analytically  !
 ! D9    D(3,4,5,7)            -30.3878         calculate D2E/DX2 analytically  !
 ! D10   D(4,5,7,8)              0.7858         calculate D2E/DX2 analytically  !
 ! D11   D(4,5,7,9)           -179.2062         calculate D2E/DX2 analytically  !
 ! D12   D(6,5,7,8)           -179.22           calculate D2E/DX2 analytically  !
 ! D13   D(6,5,7,9)              0.788          calculate D2E/DX2 analytically  !
 ! D14   D(5,7,8,13)             0.0099         calculate D2E/DX2 analytically  !
 ! D15   D(5,7,8,14)          -120.6866         calculate D2E/DX2 analytically  !
 ! D16   D(5,7,8,15)           120.7051         calculate D2E/DX2 analytically  !
 ! D17   D(9,7,8,13)          -179.9979         calculate D2E/DX2 analytically  !
 ! D18   D(9,7,8,14)            59.3057         calculate D2E/DX2 analytically  !
 ! D19   D(9,7,8,15)           -59.3027         calculate D2E/DX2 analytically  !
 ! D20   D(5,7,9,16)            -0.012          calculate D2E/DX2 analytically  !
 ! D21   D(5,7,9,17)          -120.5313         calculate D2E/DX2 analytically  !
 ! D22   D(5,7,9,18)           120.5091         calculate D2E/DX2 analytically  !
 ! D23   D(8,7,9,16)           179.9955         calculate D2E/DX2 analytically  !
 ! D24   D(8,7,9,17)            59.4762         calculate D2E/DX2 analytically  !
 ! D25   D(8,7,9,18)           -59.4834         calculate D2E/DX2 analytically  !
 ! D26   D(1,10,11,19)          -0.0045         calculate D2E/DX2 analytically  !
 ! D27   D(1,10,11,20)        -120.5222         calculate D2E/DX2 analytically  !
 ! D28   D(1,10,11,21)         120.5243         calculate D2E/DX2 analytically  !
 ! D29   D(12,10,11,19)        179.994          calculate D2E/DX2 analytically  !
 ! D30   D(12,10,11,20)         59.4762         calculate D2E/DX2 analytically  !
 ! D31   D(12,10,11,21)        -59.4772         calculate D2E/DX2 analytically  !
 ! D32   D(1,10,12,22)          -0.0023         calculate D2E/DX2 analytically  !
 ! D33   D(1,10,12,23)        -120.6988         calculate D2E/DX2 analytically  !
 ! D34   D(1,10,12,24)         120.6986         calculate D2E/DX2 analytically  !
 ! D35   D(11,10,12,22)        179.9993         calculate D2E/DX2 analytically  !
 ! D36   D(11,10,12,23)         59.3027         calculate D2E/DX2 analytically  !
 ! D37   D(11,10,12,24)        -59.2998         calculate D2E/DX2 analytically  !
 --------------------------------------------------------------------------------
 Trust Radius=3.00D-01 FncErr=1.00D-07 GrdErr=1.00D-06 EigMax=2.50D+02 EigMin=1.00D-04
 Number of steps in this run=    108 maximum allowed number of steps=    144.
 GradGradGradGradGradGradGradGradGradGradGradGradGradGradGradGradGradGrad

                          Input orientation:                          
 ---------------------------------------------------------------------
 Center     Atomic      Atomic             Coordinates (Angstroms)
 Number     Number       Type             X           Y           Z
 ---------------------------------------------------------------------
      1          6           0        0.805100    0.125500    0.086700
      2          8           0        1.900480    0.223760   -0.470280
      3          7           0        0.199500    1.147000    0.792500
      4          7           0       -1.050300    1.087900    0.750800
      5          6           0       -1.655700    2.109300    1.456400
      6          8           0       -2.749730    2.597900    1.166440
      7          7           0       -0.934470    2.576630    2.558130
      8          6           0        0.366920    2.056260    2.944930
      9          6           0       -1.481180    3.636830    3.384140
     10          7           0        0.083050   -1.069220    0.036300
     11          6           0       -1.212170   -1.159810    0.684280
     12          6           0        0.556060   -2.264830   -0.642320
     13          1           0        0.722440    1.262690    2.285410
     14          1           0        0.295940    1.661110    3.962970
     15          1           0        1.090020    2.877340    2.927480
     16          1           0       -2.458640    3.977280    3.034290
     17          1           0       -0.788840    4.483990    3.372540
     18          1           0       -1.583600    3.266820    4.408740
     19          1           0       -1.501710   -0.226220    1.172370
     20          1           0       -1.173640   -1.952970    1.436940
     21          1           0       -1.964920   -1.411260   -0.068750
     22          1           0        1.533930   -2.132500   -1.108550
     23          1           0       -0.168100   -2.535860   -1.416710
     24          1           0        0.622460   -3.077080    0.087960
 ---------------------------------------------------------------------
                    Distance matrix (angstroms):
                    1          2          3          4          5
     1  C    0.000000
     2  O    1.232777   0.000000
     3  N    1.381437   2.310913   0.000000
     4  N    2.193115   3.308304   1.251891   0.000000
     5  C    3.444862   4.462485   2.192841   1.381173   0.000000
     6  O    4.462669   5.471732   3.308005   2.311043   1.232765
     7  N    3.891286   4.769089   2.539130   2.344392   1.397276
     8  C    3.476969   4.168156   2.342592   2.785757   2.511877
     9  C    5.331944   6.159645   3.967435   3.690147   2.465763
    10  N    1.396872   2.287241   2.344575   2.539323   3.891391
    11  C    2.465462   3.596646   2.706639   2.254513   3.388210
    12  C    2.511408   2.833751   3.718390   3.970135   5.331934
    13  H    2.476764   3.171905   1.586074   2.351210   2.656982
    14  H    4.200335   4.928918   3.213330   3.529726   3.208219
    15  H    3.965329   4.386696   2.888813   3.538503   3.208261
    16  H    5.846067   6.735937   4.483505   3.942875   2.573674
    17  H    5.686284   6.336345   4.332312   4.298291   3.172096
    18  H    5.852675   6.723382   4.555247   4.290994   3.171965
    19  H    2.573666   3.804692   2.219043   1.452034   2.357762
    20  H    3.171529   4.222068   3.451178   3.119758   4.090819
    21  H    3.171562   4.216140   3.459936   2.784599   3.849161
    22  H    2.656761   2.468544   4.018683   4.528400   5.894538
    23  H    3.207834   3.576347   4.310359   4.313701   5.660850
    24  H    3.207784   3.583366   4.303269   4.537019   5.827622
                    6          7          8          9         10
     6  O    0.000000
     7  N    2.287449   0.000000
     8  C    3.629037   1.453965   0.000000
     9  C    2.758041   1.450934   2.471150   0.000000
    10  N    4.769657   4.548318   4.278941   5.983457   0.000000
    11  C    4.088637   4.189202   4.236410   5.510841   1.451096
    12  C    6.151911   5.992019   5.619249   7.429153   1.453873
    13  H    3.884694   2.132174   1.091382   3.420481   3.302290
    14  H    4.239606   2.079822   1.094343   2.719682   4.787354
    15  H    4.233560   2.079761   1.094235   2.719638   4.994822
    16  H    2.340147   2.124063   3.417908   1.092579   6.396506
    17  H    3.502756   2.079061   2.722591   1.094143   6.536729
    18  H    3.509960   2.079060   2.722632   1.094167   6.379435
    19  H    3.087595   3.177745   3.441433   4.451461   2.124328
    20  H    4.823655   4.672424   4.552064   5.927228   2.078960
    21  H    4.267902   4.885242   5.152033   6.135117   2.078992
    22  H    6.775102   6.458595   5.944605   7.909508   2.132205
    23  H    6.300236   6.521060   6.355920   7.929341   2.079747
    24  H    6.688810   6.363192   5.880371   7.769600   2.079696
                   11         12         13         14         15
    11  C    0.000000
    12  C    2.471351   0.000000
    13  H    3.489246   4.587230   0.000000
    14  H    4.580589   6.057175   1.776189   0.000000
    15  H    5.160485   6.282555   1.776081   1.783821   0.000000
    16  H    5.784974   7.846644   4.248422   3.716827   3.716755
    17  H    6.265655   7.967084   3.720563   3.081235   2.511875
    18  H    5.796949   7.790411   3.720603   2.511909   3.081245
    19  H    1.092545   3.418106   2.898716   3.818509   4.407897
    20  H    1.094114   2.722580   3.828249   4.647802   5.538751
    21  H    1.094036   2.722665   4.462508   5.550289   6.058229
    22  H    3.420735   1.091380   4.868757   6.453248   6.448650
    23  H    2.719881   1.094324   5.378451   6.838921   7.053906
    24  H    2.719814   1.094289   4.865428   6.129662   6.613366
                   16         17         18         19         20
    16  H    0.000000
    17  H    1.777470   0.000000
    18  H    1.777515   1.785177   0.000000
    19  H    4.695942   5.247381   4.762575   0.000000
    20  H    6.274601   6.732687   6.020454   1.777440   0.000000
    21  H    6.237706   6.926732   6.486737   1.777431   1.785126
    22  H    8.392446   8.321861   8.325391   4.248719   3.720576
    23  H    8.214558   8.520594   8.343297   3.717027   3.081264
    24  H    8.242453   8.363612   7.986295   3.716914   2.511841
                   21         22         23         24
    21  H    0.000000
    22  H    3.720662   0.000000
    23  H    2.512028   1.776110   0.000000
    24  H    3.081242   1.776132   1.783798   0.000000
 Stoichiometry    C6H12N4O2
 Framework group  C1[X(C6H12N4O2)]
 Deg. of freedom    66
 Full point group                 C1      NOp   1
 Largest Abelian subgroup         C1      NOp   1
 Largest concise Abelian subgroup C1      NOp   1
                         Standard orientation:                         
 ---------------------------------------------------------------------
 Center     Atomic      Atomic             Coordinates (Angstroms)
 Number     Number       Type             X           Y           Z
 ---------------------------------------------------------------------
      1          6           0        1.569116    0.729983   -0.412720
      2          8           0        2.174626    1.669254   -0.933169
      3          7           0        0.193819    0.599907   -0.410464
      4          7           0       -0.178156   -0.595425   -0.403524
      5          6           0       -1.553200   -0.725384   -0.401378
      6          8           0       -2.160620   -1.669162   -0.911312
      7          7           0       -2.244937    0.309201    0.233849
      8          6           0       -1.591527    1.457844    0.840224
      9          6           0       -3.693204    0.269957    0.312532
     10          7           0        2.262681   -0.297893    0.230468
     11          6           0        1.532614   -1.403380    0.822568
     12          6           0        3.711086   -0.336150    0.350494
     13          1           0       -0.504466    1.428501    0.747750
     14          1           0       -1.852764    1.487070    1.902527
     15          1           0       -1.960702    2.365942    0.353995
     16          1           0       -4.113615   -0.619349   -0.162988
     17          1           0       -4.096409    1.157919   -0.183551
     18          1           0       -3.988362    0.278287    1.366104
     19          1           0        0.451917   -1.307371    0.693993
     20          1           0        1.757641   -1.439865    1.892669
     21          1           0        1.861635   -2.334257    0.351265
     22          1           0        4.200787    0.521470   -0.114041
     23          1           0        4.076603   -1.250243   -0.127393
     24          1           0        3.972520   -0.356594    1.412898
 ---------------------------------------------------------------------
 Rotational constants (GHZ):           1.9682703           0.5469870           0.4844422
 Standard basis: 6-31G(d) (6D, 7F)
 There are   204 symmetry adapted cartesian basis functions of A   symmetry.
 There are   204 symmetry adapted basis functions of A   symmetry.
   204 basis functions,   384 primitive gaussians,   204 cartesian basis functions
    46 alpha electrons       46 beta electrons
       nuclear repulsion energy       755.2125099005 Hartrees.
 NAtoms=   24 NActive=   24 NUniq=   24 SFac= 1.00D+00 NAtFMM=   60 NAOKFM=F Big=F
 Integral buffers will be    131072 words long.
 Raffenetti 2 integral format.
 Two-electron integral symmetry is turned on.
 One-electron integrals computed using PRISM.
 NBasis=   204 RedAO= T EigKep=  1.64D-03  NBF=   204
 NBsUse=   204 1.00D-06 EigRej= -1.00D+00 NBFU=   204
 ExpMin= 1.61D-01 ExpMax= 5.48D+03 ExpMxC= 8.25D+02 IAcc=3 IRadAn=         5 AccDes= 0.00D+00
 Harris functional with IExCor=  402 and IRadAn=       5 diagonalized for initial guess.
 HarFok:  IExCor=  402 AccDes= 0.00D+00 IRadAn=         5 IDoV= 1 UseB2=F ITyADJ=14
 ICtDFT=  3500011 ScaDFX=  1.000000  1.000000  1.000000  1.000000
 FoFCou: FMM=F IPFlag=           0 FMFlag=      100000 FMFlg1=           0
         NFxFlg=           0 DoJE=T BraDBF=F KetDBF=T FulRan=T
         wScrn=  0.000000 ICntrl=       500 IOpCl=  0 I1Cent=   200000004 NGrid=           0
         NMat0=    1 NMatS0=      1 NMatT0=    0 NMatD0=    1 NMtDS0=    0 NMtDT0=    0
 Petite list used in FoFCou.
 Keep R1 ints in memory in canonical form, NReq=222933844.
 Gradient too large for Newton-Raphson -- use scaled steepest descent instead.
     Minimum is close to point  2 DX=  8.53D-03 DF= -2.39D-04 DXR=  2.76D-02 DFR=  7.65D-04 which will be used.
 Gradient too large for Newton-Raphson -- use scaled steepest descent instead.
     Minimum is close to point  3 DX= -8.48D-03 DF= -1.06D-05 DXR=  1.73D-02 DFR=  2.96D-04 which will be used.
 Gradient too large for Newton-Raphson -- use scaled steepest descent instead.
     Accept linear search using points  1 and  2.
 Gradient too large for Newton-Raphson -- use scaled steepest descent instead.
     Accept linear search using points  2 and  3.
 Gradient too large for Newton-Raphson -- use scaled steepest descent instead.
     Accept linear search using points  1 and  2.
 Gradient too large for Newton-Raphson -- use scaled steepest descent instead.
     Accept linear search using points  1 and  2.
 LinEq1:  Iter=  0 NonCon=     1 RMS=1.24D-04 Max=5.39D-03 NDo=     1
 AX will form     1 AO Fock derivatives at one time.
 LinEq1:  Iter=  1 NonCon=     1 RMS=1.42D-04 Max=7.21D-03 NDo=     1
 LinEq1:  Iter=  2 NonCon=     1 RMS=4.26D-05 Max=1.37D-03 NDo=     1
 LinEq1:  Iter=  3 NonCon=     1 RMS=3.72D-05 Max=1.83D-03 NDo=     1
 LinEq1:  Iter=  4 NonCon=     1 RMS=1.88D-05 Max=6.63D-04 NDo=     1
 LinEq1:  Iter=  5 NonCon=     1 RMS=1.57D-05 Max=6.02D-04 NDo=     1
 LinEq1:  Iter=  6 NonCon=     1 RMS=1.98D-05 Max=7.45D-04 NDo=     1
 LinEq1:  Iter=  7 NonCon=     1 RMS=6.46D-06 Max=1.92D-04 NDo=     1
 LinEq1:  Iter=  8 NonCon=     1 RMS=7.45D-06 Max=1.87D-04 NDo=     1
 LinEq1:  Iter=  9 NonCon=     1 RMS=3.90D-06 Max=8.40D-05 NDo=     1
 LinEq1:  Iter= 10 NonCon=     1 RMS=1.91D-06 Max=3.99D-05 NDo=     1
 LinEq1:  Iter= 11 NonCon=     1 RMS=1.13D-06 Max=2.14D-05 NDo=     1
 LinEq1:  Iter= 12 NonCon=     1 RMS=5.57D-07 Max=9.81D-06 NDo=     1
 LinEq1:  Iter= 13 NonCon=     1 RMS=2.43D-07 Max=4.45D-06 NDo=     1
 LinEq1:  Iter= 14 NonCon=     1 RMS=9.79D-08 Max=3.01D-06 NDo=     1
 LinEq1:  Iter= 15 NonCon=     1 RMS=2.82D-08 Max=6.81D-07 NDo=     1
 LinEq1:  Iter= 16 NonCon=     1 RMS=1.11D-08 Max=1.75D-07 NDo=     1
 LinEq1:  Iter= 17 NonCon=     0 RMS=5.09D-09 Max=8.46D-08 NDo=     1
 Linear equations converged to 1.206D-08 1.206D-07 after    17 iterations.
     Accept linear search using points  1 and  2.
     Minimum is close to point  2 DX= -1.66D-03 DF= -1.31D-10 DXR=  1.66D-03 DFR=  2.77D-06 which will be used.
 LinEq1:  Iter=  0 NonCon=     1 RMS=6.25D-07 Max=4.09D-05 NDo=     1
 LinEq1:  Iter=  1 NonCon=     1 RMS=5.86D-07 Max=2.32D-05 NDo=     1
 LinEq1:  Iter=  2 NonCon=     1 RMS=3.54D-07 Max=1.63D-05 NDo=     1
 LinEq1:  Iter=  3 NonCon=     1 RMS=1.92D-07 Max=3.32D-06 NDo=     1
 LinEq1:  Iter=  4 NonCon=     1 RMS=1.32D-07 Max=3.71D-06 NDo=     1
 LinEq1:  Iter=  5 NonCon=     1 RMS=8.40D-08 Max=3.36D-06 NDo=     1
 LinEq1:  Iter=  6 NonCon=     1 RMS=7.85D-08 Max=3.06D-06 NDo=     1
 LinEq1:  Iter=  7 NonCon=     1 RMS=5.67D-08 Max=2.29D-06 NDo=     1
 LinEq1:  Iter=  8 NonCon=     1 RMS=5.10D-08 Max=1.81D-06 NDo=     1
 LinEq1:  Iter=  9 NonCon=     1 RMS=3.78D-08 Max=1.13D-06 NDo=     1
 LinEq1:  Iter= 10 NonCon=     1 RMS=1.44D-08 Max=3.04D-07 NDo=     1
 LinEq1:  Iter= 11 NonCon=     1 RMS=5.17D-09 Max=1.52D-07 NDo=     1
 LinEq1:  Iter= 12 NonCon=     1 RMS=2.53D-09 Max=3.60D-08 NDo=     1
 LinEq1:  Iter= 13 NonCon=     1 RMS=8.36D-10 Max=1.68D-08 NDo=     1
 LinEq1:  Iter= 14 NonCon=     1 RMS=4.73D-10 Max=9.55D-09 NDo=     1
 LinEq1:  Iter= 15 NonCon=     1 RMS=2.46D-10 Max=5.08D-09 NDo=     1
 LinEq1:  Iter= 16 NonCon=     1 RMS=1.19D-10 Max=2.67D-09 NDo=     1
 LinEq1:  Iter= 17 NonCon=     0 RMS=4.72D-11 Max=1.54D-09 NDo=     1
 Linear equations converged to 2.422D-10 2.422D-09 after    17 iterations.
 SCF Done:  E(RB3LYP) =  -605.163172581     a.u. after    9 cycles
            Convg  =    0.3040D-08                    51 Fock formations.
              S**2 =  0.0000                  -V/T =  2.0080
 DoSCS=F DFT=T ScalE2(SS,OS)=  1.000000  1.000000
 Range of M.O.s used for correlation:     1   204
 NBasis=   204 NAE=    46 NBE=    46 NFC=     0 NFV=     0
 NROrb=    204 NOA=    46 NOB=    46 NVA=   158 NVB=   158
 Symmetrizing basis deriv contribution to polar:
 IMax=3 JMax=2 DiffMx= 0.00D+00
 G2DrvN: will do    25 centers at a time, making    1 passes.
 Calling FoFCou, ICntrl=  3107 FMM=F I1Cent=   0 AccDes= 0.00D+00.
 End of G2Drv F.D. properties file   721 does not exist.
 End of G2Drv F.D. properties file   722 does not exist.
 End of G2Drv F.D. properties file   788 does not exist.
          IDoAtm=111111111111111111111111
          Differentiating once with respect to electric field.
                with respect to dipole field.
          Differentiating once with respect to nuclear coordinates.
 Keep R1 ints in memory in canonical form, NReq=222943279.
          There are    75 degrees of freedom in the 1st order CPHF.  IDoFFX=6 NUNeed=     3.
     72 vectors produced by pass  0 Test12= 9.69D-15 1.33D-09 XBig12= 1.71D+02 6.14D+00.
 AX will form    72 AO Fock derivatives at one time.
     72 vectors produced by pass  1 Test12= 9.69D-15 1.33D-09 XBig12= 5.48D+01 1.55D+00.
     72 vectors produced by pass  2 Test12= 9.69D-15 1.33D-09 XBig12= 4.29D-01 1.06D-01.
     72 vectors produced by pass  3 Test12= 9.69D-15 1.33D-09 XBig12= 1.44D-03 5.28D-03.
     72 vectors produced by pass  4 Test12= 9.69D-15 1.33D-09 XBig12= 2.32D-06 1.95D-04.
     48 vectors produced by pass  5 Test12= 9.69D-15 1.33D-09 XBig12= 2.02D-09 5.02D-06.
      9 vectors produced by pass  6 Test12= 9.69D-15 1.33D-09 XBig12= 1.46D-12 1.36D-07.
      3 vectors produced by pass  7 Test12= 9.69D-15 1.33D-09 XBig12= 9.06D-16 2.83D-09.
 InvSVY:  IOpt=1 It=  1 EMax= 5.33D-15
 Solved reduced A of dimension   420 with    75 vectors.
 Isotropic polarizability for W=    0.000000      105.18 Bohr**3.
 End of Minotr F.D. properties file   721 does not exist.
 End of Minotr F.D. properties file   722 does not exist.
 End of Minotr F.D. properties file   788 does not exist.

 **********************************************************************

            Population analysis using the SCF density.

 **********************************************************************

 Orbital symmetries:
       Occupied  (A) (A) (A) (A) (A) (A) (A) (A) (A) (A) (A) (A)
                 (A) (A) (A) (A) (A) (A) (A) (A) (A) (A) (A) (A)
                 (A) (A) (A) (A) (A) (A) (A) (A) (A) (A) (A) (A)
                 (A) (A) (A) (A) (A) (A) (A) (A) (A) (A)
       Virtual   (A) (A) (A) (A) (A) (A) (A) (A) (A) (A) (A) (A)
                 (A) (A) (A) (A) (A) (A) (A) (A) (A) (A) (A) (A)
                 (A) (A) (A) (A) (A) (A) (A) (A) (A) (A) (A) (A)
                 (A) (A) (A) (A) (A) (A) (A) (A) (A) (A) (A) (A)
                 (A) (A) (A) (A) (A) (A) (A) (A) (A) (A) (A) (A)
                 (A) (A) (A) (A) (A) (A) (A) (A) (A) (A) (A) (A)
                 (A) (A) (A) (A) (A) (A) (A) (A) (A) (A) (A) (A)
                 (A) (A) (A) (A) (A) (A) (A) (A) (A) (A) (A) (A)
                 (A) (A) (A) (A) (A) (A) (A) (A) (A) (A) (A) (A)
                 (A) (A) (A) (A) (A) (A) (A) (A) (A) (A) (A) (A)
                 (A) (A) (A) (A) (A) (A) (A) (A) (A) (A) (A) (A)
                 (A) (A) (A) (A) (A) (A) (A) (A) (A) (A) (A) (A)
                 (A) (A) (A) (A) (A) (A) (A) (A) (A) (A) (A) (A)
                 (A) (A)
 The electronic state is 1-A.
 Alpha  occ. eigenvalues --  -19.13159 -19.12756 -14.41838 -14.41466 -14.38171
 Alpha  occ. eigenvalues --  -14.38112 -10.32129 -10.31902 -10.22765 -10.22390
 Alpha  occ. eigenvalues --  -10.21587 -10.21313  -1.12049  -1.05122  -1.02554
 Alpha  occ. eigenvalues --   -0.94677  -0.93857  -0.82583  -0.74170  -0.73417
 Alpha  occ. eigenvalues --   -0.70303  -0.67802  -0.61375  -0.58932  -0.55708
 Alpha  occ. eigenvalues --   -0.50787  -0.50425  -0.48433  -0.48006  -0.47321
 Alpha  occ. eigenvalues --   -0.45242  -0.43821  -0.42717  -0.41817  -0.41353
 Alpha  occ. eigenvalues --   -0.41139  -0.40221  -0.39292  -0.39152  -0.35709
 Alpha  occ. eigenvalues --   -0.34955  -0.28428  -0.28102  -0.24987  -0.24800
 Alpha  occ. eigenvalues --   -0.22727
 Alpha virt. eigenvalues --   -0.12644   0.03252   0.04980   0.08676   0.09061
 Alpha virt. eigenvalues --    0.12927   0.13065   0.13922   0.14505   0.15144
 Alpha virt. eigenvalues --    0.15281   0.15404   0.16136   0.16956   0.17831
 Alpha virt. eigenvalues --    0.19279   0.19656   0.21990   0.22469   0.24592
 Alpha virt. eigenvalues --    0.28874   0.29843   0.32324   0.36552   0.40120
 Alpha virt. eigenvalues --    0.42588   0.44684   0.48038   0.50008   0.50302
 Alpha virt. eigenvalues --    0.51834   0.51943   0.54070   0.56748   0.57115
 Alpha virt. eigenvalues --    0.59797   0.62280   0.62596   0.64044   0.65510
 Alpha virt. eigenvalues --    0.66373   0.67291   0.68539   0.69726   0.71891
 Alpha virt. eigenvalues --    0.73847   0.77181   0.78387   0.79880   0.80896
 Alpha virt. eigenvalues --    0.83581   0.84310   0.84915   0.85535   0.86315
 Alpha virt. eigenvalues --    0.86860   0.88357   0.89123   0.89484   0.90466
 Alpha virt. eigenvalues --    0.93274   0.93662   0.94168   0.95062   0.95673
 Alpha virt. eigenvalues --    0.96609   1.00264   1.02130   1.03020   1.05298
 Alpha virt. eigenvalues --    1.09115   1.10017   1.11488   1.13366   1.16814
 Alpha virt. eigenvalues --    1.20232   1.25327   1.29816   1.36308   1.36537
 Alpha virt. eigenvalues --    1.38641   1.40565   1.41317   1.42225   1.44419
 Alpha virt. eigenvalues --    1.46741   1.48171   1.55508   1.56288   1.58806
 Alpha virt. eigenvalues --    1.61542   1.68934   1.70925   1.76645   1.77858
 Alpha virt. eigenvalues --    1.78433   1.79158   1.79973   1.83331   1.84774
 Alpha virt. eigenvalues --    1.85989   1.87590   1.91220   1.92111   1.93818
 Alpha virt. eigenvalues --    1.94508   1.96496   2.03953   2.04651   2.05134
 Alpha virt. eigenvalues --    2.06059   2.06572   2.06897   2.10132   2.12311
 Alpha virt. eigenvalues --    2.13933   2.19196   2.19712   2.20186   2.26709
 Alpha virt. eigenvalues --    2.27612   2.32293   2.34440   2.35628   2.35798
 Alpha virt. eigenvalues --    2.36881   2.38812   2.41943   2.43544   2.47268
 Alpha virt. eigenvalues --    2.54881   2.58959   2.59381   2.63821   2.66741
 Alpha virt. eigenvalues --    2.67328   2.70500   2.70955   2.80725   2.81868
 Alpha virt. eigenvalues --    2.93096   2.93867   3.09739   3.10076   3.19818
 Alpha virt. eigenvalues --    3.22357   3.87937   3.95342   3.95906   4.06691
 Alpha virt. eigenvalues --    4.08322   4.20054   4.25931   4.26286   4.36060
 Alpha virt. eigenvalues --    4.38387   4.56677   4.62099
          Condensed to atoms (all electrons):
               1          2          3          4          5          6
     1  C    4.296422   0.599485   0.189884  -0.034116   0.000428  -0.000198
     2  O    0.599485   8.060253  -0.071016   0.001574  -0.000207   0.000000
     3  N    0.189884  -0.071016   7.378757   0.096656  -0.040263   0.001292
     4  N   -0.034116   0.001574   0.096656   7.460434   0.182288  -0.069817
     5  C    0.000428  -0.000207  -0.040263   0.182288   4.308208   0.596349
     6  O   -0.000198   0.000000   0.001292  -0.069817   0.596349   8.059032
     7  N    0.000989   0.000011  -0.001775  -0.116689   0.278192  -0.110449
     8  C    0.003481   0.000055  -0.129089  -0.000751  -0.019165   0.003019
     9  C    0.000011   0.000000  -0.001039   0.005016  -0.025660  -0.007527
    10  N    0.279393  -0.110520  -0.114517  -0.002642   0.001060   0.000009
    11  C   -0.024738   0.003161  -0.003033  -0.173003   0.006097   0.000175
    12  C   -0.021875  -0.003667   0.005032  -0.001227   0.000016   0.000000
    13  H    0.006478   0.000444  -0.031924  -0.007589  -0.007736  -0.000097
    14  H    0.000023  -0.000003   0.007699  -0.001186  -0.000774  -0.000067
    15  H   -0.000363   0.000005   0.001634   0.000767   0.000581  -0.000022
    16  H    0.000001  -0.000000  -0.000017   0.000584  -0.002242   0.017366
    17  H   -0.000003  -0.000000  -0.000027  -0.000095   0.001181   0.000631
    18  H    0.000002   0.000000   0.000078  -0.000146   0.000911   0.000536
    19  H   -0.010088  -0.000151  -0.011508  -0.057118   0.009474   0.000518
    20  H   -0.000439  -0.000075  -0.001192   0.009914  -0.000050  -0.000005
    21  H    0.000763  -0.000020   0.001210   0.001285  -0.000476   0.000010
    22  H   -0.000680   0.014048   0.000457  -0.000002   0.000001  -0.000000
    23  H    0.001071   0.000484  -0.000078  -0.000055  -0.000004  -0.000000
    24  H    0.000819   0.000361  -0.000155   0.000097   0.000002   0.000000
               7          8          9         10         11         12
     1  C    0.000989   0.003481   0.000011   0.279393  -0.024738  -0.021875
     2  O    0.000011   0.000055   0.000000  -0.110520   0.003161  -0.003667
     3  N   -0.001775  -0.129089  -0.001039  -0.114517  -0.003033   0.005032
     4  N   -0.116689  -0.000751   0.005016  -0.002642  -0.173003  -0.001227
     5  C    0.278192  -0.019165  -0.025660   0.001060   0.006097   0.000016
     6  O   -0.110449   0.003019  -0.007527   0.000009   0.000175   0.000000
     7  N    7.028528   0.282103   0.291463   0.000011  -0.001009  -0.000000
     8  C    0.282103   5.099026  -0.053433  -0.000610   0.001463   0.000018
     9  C    0.291463  -0.053433   4.979155  -0.000000   0.000025   0.000000
    10  N    0.000011  -0.000610  -0.000000   7.027014   0.285005   0.290074
    11  C   -0.001009   0.001463   0.000025   0.285005   5.144413  -0.053381
    12  C   -0.000000   0.000018   0.000000   0.290074  -0.053381   4.969028
    13  H   -0.024443   0.385178   0.003681   0.000011  -0.000084   0.000014
    14  H   -0.050820   0.347805  -0.004486   0.000007  -0.000096  -0.000001
    15  H   -0.047781   0.380356  -0.000985   0.000010  -0.000015  -0.000000
    16  H   -0.028514   0.003913   0.372775   0.000000  -0.000001  -0.000000
    17  H   -0.047190  -0.001133   0.379956   0.000000  -0.000000  -0.000000
    18  H   -0.047304  -0.000660   0.375974  -0.000000  -0.000001   0.000000
    19  H   -0.000391   0.000243   0.000049  -0.023863   0.389570   0.003743
    20  H    0.000025  -0.000117  -0.000001  -0.052064   0.339481  -0.005108
    21  H    0.000013  -0.000012  -0.000000  -0.048568   0.380711  -0.000641
    22  H    0.000000  -0.000000  -0.000000  -0.028143   0.004046   0.372938
    23  H    0.000000  -0.000000  -0.000000  -0.046637  -0.001532   0.380806
    24  H   -0.000000  -0.000001   0.000000  -0.046824  -0.000566   0.375802
              13         14         15         16         17         18
     1  C    0.006478   0.000023  -0.000363   0.000001  -0.000003   0.000002
     2  O    0.000444  -0.000003   0.000005  -0.000000  -0.000000   0.000000
     3  N   -0.031924   0.007699   0.001634  -0.000017  -0.000027   0.000078
     4  N   -0.007589  -0.001186   0.000767   0.000584  -0.000095  -0.000146
     5  C   -0.007736  -0.000774   0.000581  -0.002242   0.001181   0.000911
     6  O   -0.000097  -0.000067  -0.000022   0.017366   0.000631   0.000536
     7  N   -0.024443  -0.050820  -0.047781  -0.028514  -0.047190  -0.047304
     8  C    0.385178   0.347805   0.380356   0.003913  -0.001133  -0.000660
     9  C    0.003681  -0.004486  -0.000985   0.372775   0.379956   0.375974
    10  N    0.000011   0.000007   0.000010   0.000000   0.000000  -0.000000
    11  C   -0.000084  -0.000096  -0.000015  -0.000001  -0.000000  -0.000001
    12  C    0.000014  -0.000001  -0.000000  -0.000000  -0.000000   0.000000
    13  H    0.486507  -0.026332  -0.022718  -0.000174   0.000053  -0.000006
    14  H   -0.026332   0.623965  -0.040068  -0.000030  -0.001655   0.007568
    15  H   -0.022718  -0.040068   0.555136  -0.000074   0.006544  -0.001739
    16  H   -0.000174  -0.000030  -0.000074   0.476821  -0.024916  -0.024382
    17  H    0.000053  -0.001655   0.006544  -0.024916   0.562116  -0.039436
    18  H   -0.000006   0.007568  -0.001739  -0.024382  -0.039436   0.570410
    19  H   -0.000661   0.000026   0.000012  -0.000000   0.000002  -0.000015
    20  H    0.000080   0.000031   0.000000  -0.000000   0.000000   0.000000
    21  H    0.000008  -0.000000   0.000000  -0.000000   0.000000  -0.000000
    22  H   -0.000000   0.000000  -0.000000   0.000000   0.000000   0.000000
    23  H    0.000001  -0.000000   0.000000   0.000000   0.000000  -0.000000
    24  H   -0.000007   0.000000  -0.000000   0.000000  -0.000000   0.000000
              19         20         21         22         23         24
     1  C   -0.010088  -0.000439   0.000763  -0.000680   0.001071   0.000819
     2  O   -0.000151  -0.000075  -0.000020   0.014048   0.000484   0.000361
     3  N   -0.011508  -0.001192   0.001210   0.000457  -0.000078  -0.000155
     4  N   -0.057118   0.009914   0.001285  -0.000002  -0.000055   0.000097
     5  C    0.009474  -0.000050  -0.000476   0.000001  -0.000004   0.000002
     6  O    0.000518  -0.000005   0.000010  -0.000000  -0.000000   0.000000
     7  N   -0.000391   0.000025   0.000013   0.000000   0.000000  -0.000000
     8  C    0.000243  -0.000117  -0.000012  -0.000000  -0.000000  -0.000001
     9  C    0.000049  -0.000001  -0.000000  -0.000000  -0.000000   0.000000
    10  N   -0.023863  -0.052064  -0.048568  -0.028143  -0.046637  -0.046824
    11  C    0.389570   0.339481   0.380711   0.004046  -0.001532  -0.000566
    12  C    0.003743  -0.005108  -0.000641   0.372938   0.380806   0.375802
    13  H   -0.000661   0.000080   0.000008  -0.000000   0.000001  -0.000007
    14  H    0.000026   0.000031  -0.000000   0.000000  -0.000000   0.000000
    15  H    0.000012   0.000000   0.000000  -0.000000   0.000000  -0.000000
    16  H   -0.000000  -0.000000  -0.000000   0.000000   0.000000   0.000000
    17  H    0.000002   0.000000   0.000000   0.000000   0.000000  -0.000000
    18  H   -0.000015   0.000000  -0.000000   0.000000  -0.000000   0.000000
    19  H    0.492387  -0.025796  -0.023362  -0.000182   0.000069  -0.000015
    20  H   -0.025796   0.635443  -0.040379  -0.000010  -0.001774   0.008050
    21  H   -0.023362  -0.040379   0.556077  -0.000076   0.006596  -0.001785
    22  H   -0.000182  -0.000010  -0.000076   0.481792  -0.025498  -0.024648
    23  H    0.000069  -0.001774   0.006596  -0.025498   0.560780  -0.040116
    24  H   -0.000015   0.008050  -0.001785  -0.024648  -0.040116   0.568746
 Mulliken charges:
               1
     1  C    0.713251
     2  O   -0.494222
     3  N   -0.277067
     4  N   -0.294178
     5  C    0.711790
     6  O   -0.490755
     7  N   -0.404968
     8  C   -0.301689
     9  C   -0.314973
    10  N   -0.408209
    11  C   -0.296688
    12  C   -0.311571
    13  H    0.239315
    14  H    0.138396
    15  H    0.168720
    16  H    0.208891
    17  H    0.163973
    18  H    0.158210
    19  H    0.257059
    20  H    0.133985
    21  H    0.168646
    22  H    0.205958
    23  H    0.165886
    24  H    0.160239
 Sum of Mulliken charges =  -0.00000
 Mulliken charges with hydrogens summed into heavy atoms:
               1
     1  C    0.713251
     2  O   -0.494222
     3  N   -0.277067
     4  N   -0.294178
     5  C    0.711790
     6  O   -0.490755
     7  N   -0.404968
     8  C    0.244742
     9  C    0.216102
    10  N   -0.408209
    11  C    0.263002
    12  C    0.220512
 APT charges:
               1
     1  C    0.906347
     2  O   -0.685508
     3  N   -0.110006
     4  N   -0.007399
     5  C    0.940900
     6  O   -0.692903
     7  N   -0.641641
     8  C    0.230943
     9  C    0.307282
    10  N   -0.646494
    11  C    0.226198
    12  C    0.337496
    13  H    0.067776
    14  H   -0.063927
    15  H   -0.041732
    16  H    0.057688
    17  H   -0.044426
    18  H   -0.037764
    19  H    0.052287
    20  H   -0.072474
    21  H   -0.049165
    22  H    0.048707
    23  H   -0.046524
    24  H   -0.035663
 Sum of APT charges =  -0.00000
 APT charges with hydrogens summed into heavy atoms:
               1
     1  C    0.906347
     2  O   -0.685508
     3  N   -0.110006
     4  N   -0.007399
     5  C    0.940900
     6  O   -0.692903
     7  N   -0.641641
     8  C    0.193060
     9  C    0.282781
    10  N   -0.646494
    11  C    0.156846
    12  C    0.304016
 Electronic spatial extent (au):  <R**2>=           2409.6437
 Charge=             -0.0000 electrons
 Dipole moment (field-independent basis, Debye):
    X=             -0.0278    Y=             -0.0917    Z=              3.6229  Tot=              3.6242
 Quadrupole moment (field-independent basis, Debye-Ang):
   XX=            -62.5422   YY=            -78.4891   ZZ=            -72.9207
   XY=            -12.9713   XZ=              0.2243   YZ=              0.1979
 Traceless Quadrupole moment (field-independent basis, Debye-Ang):
   XX=              8.7751   YY=             -7.1717   ZZ=             -1.6034
   XY=            -12.9713   XZ=              0.2243   YZ=              0.1979
 Octapole moment (field-independent basis, Debye-Ang**2):
  XXX=              2.2439  YYY=              0.0666  ZZZ=             -3.0476  XYY=             -0.4674
  XXY=             -1.1145  XXZ=             14.9010  XZZ=             -0.3981  YZZ=              0.0487
  YYZ=              9.6436  XYZ=             11.7155
 Hexadecapole moment (field-independent basis, Debye-Ang**3):
 XXXX=          -2060.8768 YYYY=           -561.5892 ZZZZ=           -246.9890 XXXY=            -43.5441
 XXXZ=              3.2041 YYYX=            -29.2998 YYYZ=              0.8126 ZZZX=             -0.0816
 ZZZY=              0.5513 XXYY=           -504.7957 XXZZ=           -434.5282 YYZZ=           -144.4388
 XXYZ=              0.7525 YYXZ=              0.2456 ZZXY=             -4.7383
 N-N= 7.552125099005D+02 E-N=-2.921306933701D+03  KE= 6.003843772934D+02
  Exact polarizability: 136.568  -5.085 103.763   0.380  -0.912  75.221
 Approx polarizability: 165.528   7.443 194.461   0.528  -2.648 121.228
 Calling FoFJK, ICntrl=    100127 FMM=F ISym2X=0 I1Cent= 0 IOpClX= 0 NMat=1 NMatS=1 NMatT=0.
 ***** Axes restored to original set *****
 -------------------------------------------------------------------
 Center     Atomic                   Forces (Hartrees/Bohr)
 Number     Number              X              Y              Z
 -------------------------------------------------------------------
      1        6           0.018578039   -0.070726684   -0.050018045
      2        8          -0.009044422    0.015215510    0.013985907
      3        7           0.000026399    0.017928836   -0.049567327
      4        7           0.007135448    0.061004118   -0.045662954
      5        6          -0.012932065    0.068920247    0.054511401
      6        8           0.010402452   -0.019879562   -0.010729783
      7        7          -0.010715901   -0.017671107   -0.024079613
      8        6           0.003086052    0.004820654    0.042464199
      9        6          -0.000424962   -0.000619990    0.003017400
     10        7           0.003286069    0.032938729    0.012934911
     11        6          -0.005154111   -0.061451560    0.011384270
     12        6           0.001246318    0.001029518    0.003317489
     13        1           0.002741347    0.014389541    0.027356178
     14        1           0.000862097    0.004964891    0.008525029
     15        1           0.005507458   -0.001852226   -0.001478426
     16        1           0.003116239   -0.005230890   -0.004043449
     17        1           0.000721575    0.002374623    0.002434559
     18        1           0.000552256    0.002230982    0.003856350
     19        1          -0.008372032   -0.041139744   -0.000301762
     20        1          -0.001460432   -0.011480072   -0.001314931
     21        1          -0.006625528    0.003723642    0.001991928
     22        1          -0.001316217    0.007110513    0.003106995
     23        1          -0.000710030   -0.002555981   -0.001135227
     24        1          -0.000506048   -0.004043988   -0.000555099
 -------------------------------------------------------------------
 Cartesian Forces:  Max     0.070726684 RMS     0.022605571
 FormGI is forming the generalized inverse of G from B-inverse, IUseBI=4.

 GradGradGradGradGradGradGradGradGradGradGradGradGradGradGradGradGradGrad
 Berny optimization.
 Internal  Forces:  Max     0.246324892 RMS     0.060733249
 Search for a local minimum.
 Step number   1 out of a maximum of  108
 All quantities printed in internal units (Hartrees-Bohrs-Radians)
 Mixed Optimization -- RFO/linear search
 Second derivative matrix not updated -- analytic derivatives used.
 ITU=  0
     Eigenvalues ---   -0.24830  -0.15747  -0.07274  -0.04827  -0.02111
     Eigenvalues ---   -0.01377   0.00069   0.00117   0.01820   0.02107
     Eigenvalues ---    0.04858   0.05253   0.06157   0.06378   0.06381
     Eigenvalues ---    0.06412   0.06420   0.06481   0.06766   0.07177
     Eigenvalues ---    0.11795   0.12362   0.12736   0.12928   0.13109
     Eigenvalues ---    0.14181   0.14378   0.15872   0.16676   0.18011
     Eigenvalues ---    0.18097   0.18935   0.19044   0.20537   0.21117
     Eigenvalues ---    0.21769   0.23249   0.23838   0.24743   0.30594
     Eigenvalues ---    0.31271   0.32036   0.32638   0.33274   0.33527
     Eigenvalues ---    0.33583   0.33669   0.33705   0.33778   0.33914
     Eigenvalues ---    0.34047   0.34995   0.35204   0.36374   0.36604
     Eigenvalues ---    0.37282   0.37635   0.39667   0.41787   0.42524
     Eigenvalues ---    0.43496   0.70470   0.78468   0.78990   2.57021
     Eigenvalues ---    3.09239
 RFO step:  Lambda=-2.54551539D-01 EMin=-2.48300048D-01
 I=     1 Eig=   -2.48D-01 Dot1=  1.70D-02
 I=     1 Stepn=  6.00D-01 RXN=   6.00D-01 EDone=F
 I=     2 Eig=   -1.57D-01 Dot1=  4.81D-03
 I=     2 Stepn=  3.00D-01 RXN=   6.71D-01 EDone=F
 I=     3 Eig=   -7.27D-02 Dot1=  6.70D-04
 I=     3 Stepn=  1.50D-01 RXN=   6.87D-01 EDone=F
 Mixed    3 eigenvectors in step.  Raw Step.Grad=  2.25D-02.
 RFO eigenvector is Hessian eigenvector with negative curvature.
 Taking step of  6.00D-01 in eigenvector direction(s).  Step.Grad=  5.43D-02.
 Linear search not attempted -- first point.
 Maximum step size (   0.300) exceeded in Quadratic search.
    -- Step size not scaled.
 Iteration  1 RMS(Cart)=  0.31431279 RMS(Int)=  0.02581523
 Iteration  2 RMS(Cart)=  0.13196831 RMS(Int)=  0.00374264
 Iteration  3 RMS(Cart)=  0.00775368 RMS(Int)=  0.00022327
 Iteration  4 RMS(Cart)=  0.00001781 RMS(Int)=  0.00022312
 Iteration  5 RMS(Cart)=  0.00000000 RMS(Int)=  0.00022312
 Variable       Old X    -DE/DX   Delta X   Delta X   Delta X     New X
                                 (Linear)    (Quad)   (Total)
    R1        2.32961  -0.01314   0.00000   0.00911   0.00911   2.33872
    R2        2.61054   0.09611   0.00000   0.03812   0.03812   2.64866
    R3        2.63971   0.07396   0.00000  -0.03014  -0.03014   2.60957
    R4        2.36573  -0.01726   0.00000  -0.03028  -0.03028   2.33545
    R5        2.61004   0.08953   0.00000  -0.00954  -0.00954   2.60050
    R6        2.32959  -0.01459   0.00000   0.00476   0.00476   2.33435
    R7        2.64047   0.04972   0.00000   0.00009   0.00009   2.64055
    R8        2.74760   0.02338   0.00000  -0.00536  -0.00536   2.74224
    R9        2.74187   0.00059   0.00000   0.00172   0.00172   2.74359
   R10        2.06241  -0.02610   0.00000  -0.00451  -0.00451   2.05790
   R11        2.06801   0.00608   0.00000  -0.00153  -0.00153   2.06648
   R12        2.06780   0.00227   0.00000   0.00223   0.00223   2.07004
   R13        2.06468  -0.00312   0.00000  -0.00034  -0.00034   2.06434
   R14        2.06763   0.00227   0.00000  -0.00018  -0.00018   2.06745
   R15        2.06768   0.00281   0.00000   0.00011   0.00011   2.06779
   R16        2.74217   0.03143   0.00000  -0.02882  -0.02882   2.71335
   R17        2.74742  -0.00389   0.00000   0.00391   0.00391   2.75133
   R18        2.06461  -0.03307   0.00000  -0.01720  -0.01720   2.04741
   R19        2.06757   0.00737   0.00000  -0.00503  -0.00503   2.06254
   R20        2.06743   0.00233   0.00000   0.00659   0.00659   2.07401
   R21        2.06241  -0.00164   0.00000   0.00025   0.00025   2.06266
   R22        2.06797   0.00191   0.00000  -0.00062  -0.00062   2.06735
   R23        2.06791   0.00260   0.00000  -0.00088  -0.00088   2.06703
    A1        2.16690  -0.14424   0.00000  -0.10138  -0.10146   2.06545
    A2        2.10733  -0.10208   0.00000  -0.01617  -0.01626   2.09108
    A3        2.00895   0.24632   0.00000   0.11756   0.11748   2.12643
    A4        1.96679   0.16533   0.00000   0.23523   0.23523   2.20202
    A5        1.96672   0.12913   0.00000   0.05834   0.05834   2.02506
    A6        2.16752  -0.11741   0.00000  -0.02139  -0.02143   2.14609
    A7        2.00855   0.18823   0.00000   0.02885   0.02882   2.03736
    A8        2.10712  -0.07082   0.00000  -0.00746  -0.00749   2.09963
    A9        2.15563   0.15604   0.00000   0.01308   0.01302   2.16866
   A10        2.09298  -0.07787   0.00000  -0.00912  -0.00918   2.08381
   A11        2.03457  -0.07817   0.00000  -0.00395  -0.00400   2.03056
   A12        1.97256   0.02475   0.00000  -0.00936  -0.00942   1.96314
   A13        1.89511  -0.00712   0.00000   0.00877   0.00877   1.90388
   A14        1.89514   0.00236   0.00000  -0.00824  -0.00830   1.88684
   A15        1.89731  -0.00663   0.00000   0.01511   0.01511   1.91242
   A16        1.89727  -0.00983   0.00000  -0.00525  -0.00537   1.89191
   A17        1.90566  -0.00423   0.00000  -0.00090  -0.00089   1.90478
   A18        1.96329  -0.01118   0.00000   0.00212   0.00212   1.96541
   A19        1.89789   0.00427   0.00000  -0.00042  -0.00042   1.89748
   A20        1.89787   0.00558   0.00000  -0.00211  -0.00211   1.89576
   A21        1.89805   0.00241   0.00000  -0.00051  -0.00051   1.89753
   A22        1.89809   0.00243   0.00000   0.00085   0.00085   1.89893
   A23        1.90815  -0.00348   0.00000   0.00004   0.00004   1.90819
   A24        2.09285   0.22539   0.00000  -0.01025  -0.01041   2.08244
   A25        2.15558  -0.12013   0.00000  -0.00502  -0.00518   2.15041
   A26        2.03475  -0.10526   0.00000   0.01527   0.01510   2.04985
   A27        1.96351   0.03751   0.00000  -0.06000  -0.06038   1.90313
   A28        1.89759  -0.01066   0.00000   0.02156   0.02179   1.91938
   A29        1.89772   0.00278   0.00000  -0.01318  -0.01378   1.88394
   A30        1.89808  -0.01151   0.00000   0.05464   0.05505   1.95313
   A31        1.89816  -0.01392   0.00000   0.00206   0.00077   1.89893
   A32        1.90828  -0.00499   0.00000  -0.00433  -0.00432   1.90396
   A33        1.97273  -0.01287   0.00000   0.00818   0.00819   1.98091
   A34        1.89514   0.00418   0.00000  -0.00354  -0.00355   1.89158
   A35        1.89510   0.00584   0.00000  -0.00695  -0.00696   1.88815
   A36        1.89721   0.00302   0.00000  -0.00039  -0.00038   1.89682
   A37        1.89729   0.00288   0.00000   0.00129   0.00130   1.89859
   A38        1.90558  -0.00294   0.00000   0.00131   0.00128   1.90687
    D1        2.61283  -0.06717   0.00000   0.27238   0.27279   2.88562
    D2       -0.52898  -0.08919   0.00000   0.29635   0.29594  -0.23305
    D3       -3.12825  -0.04315   0.00000   0.13265   0.13269  -2.99555
    D4        0.01338  -0.03238   0.00000   0.09811   0.09847   0.11184
    D5        0.01356  -0.02194   0.00000   0.10959   0.10923   0.12279
    D6       -3.12801  -0.01117   0.00000   0.07505   0.07500  -3.05300
    D7       -3.14151  -0.01323   0.00000  -0.00599  -0.00599   3.13569
    D8        2.61133  -0.04895   0.00000   0.10975   0.10970   2.72103
    D9       -0.53037  -0.06744   0.00000   0.09457   0.09462  -0.43575
   D10        0.01371  -0.01365   0.00000   0.08518   0.08522   0.09894
   D11       -3.12774  -0.00636   0.00000   0.06539   0.06539  -3.06234
   D12       -3.12798  -0.03146   0.00000   0.07057   0.07057  -3.05741
   D13        0.01375  -0.02417   0.00000   0.05079   0.05074   0.06450
   D14        0.00017  -0.00234   0.00000   0.02132   0.02122   0.02139
   D15       -2.10638  -0.00495   0.00000   0.00218   0.00212  -2.10426
   D16        2.10670   0.00280   0.00000   0.00296   0.00296   2.10966
   D17       -3.14156  -0.00940   0.00000   0.04049   0.04049  -3.10106
   D18        1.03508  -0.01202   0.00000   0.02135   0.02140   1.05648
   D19       -1.03503  -0.00426   0.00000   0.02213   0.02224  -1.01279
   D20       -0.00021  -0.00354   0.00000   0.00948   0.00941   0.00920
   D21       -2.10367  -0.00234   0.00000   0.00906   0.00898  -2.09468
   D22        2.10328  -0.00383   0.00000   0.01046   0.01039   2.11367
   D23        3.14151   0.00324   0.00000  -0.00896  -0.00888   3.13263
   D24        1.03806   0.00444   0.00000  -0.00938  -0.00931   1.02875
   D25       -1.03818   0.00295   0.00000  -0.00798  -0.00790  -1.04609
   D26       -0.00008  -0.00406   0.00000   0.04490   0.04416   0.04408
   D27       -2.10351  -0.00627   0.00000  -0.00015  -0.00003  -2.10354
   D28        2.10355   0.00427   0.00000   0.00023   0.00075   2.10430
   D29        3.14149  -0.01410   0.00000   0.07710   0.07643  -3.06527
   D30        1.03806  -0.01630   0.00000   0.03205   0.03224   1.07030
   D31       -1.03807  -0.00577   0.00000   0.03244   0.03302  -1.00506
   D32       -0.00004  -0.00539   0.00000   0.01650   0.01658   0.01654
   D33       -2.10659  -0.00382   0.00000   0.01419   0.01427  -2.09232
   D34        2.10659  -0.00598   0.00000   0.01857   0.01863   2.12522
   D35        3.14158   0.00504   0.00000  -0.01697  -0.01705   3.12453
   D36        1.03503   0.00661   0.00000  -0.01929  -0.01935   1.01567
   D37       -1.03498   0.00445   0.00000  -0.01491  -0.01500  -1.04998
         Item               Value     Threshold  Converged?
 Maximum Force            0.246325     0.000450     NO 
 RMS     Force            0.060733     0.000300     NO 
 Maximum Displacement     1.372545     0.001800     NO 
 RMS     Displacement     0.429540     0.001200     NO 
 Predicted change in Energy=-5.972013D-02
 GradGradGradGradGradGradGradGradGradGradGradGradGradGradGradGradGradGrad

                          Input orientation:                          
 ---------------------------------------------------------------------
 Center     Atomic      Atomic             Coordinates (Angstroms)
 Number     Number       Type             X           Y           Z
 ---------------------------------------------------------------------
      1          6           0        0.609703   -0.065781    0.316668
      2          8           0        1.792346    0.134246    0.011731
      3          7           0       -0.090434    0.956278    0.972190
      4          7           0       -1.315928    1.024170    1.116848
      5          6           0       -1.782966    2.120936    1.804379
      6          8           0       -2.929336    2.560805    1.669201
      7          7           0       -0.896713    2.725903    2.699409
      8          6           0        0.495195    2.345574    2.853420
      9          6           0       -1.359733    3.824806    3.527585
     10          7           0        0.008336   -1.263743   -0.015289
     11          6           0       -1.405955   -1.417933    0.178761
     12          6           0        0.731826   -2.384497   -0.598593
     13          1           0        0.785323    1.544168    2.175564
     14          1           0        0.667933    2.031960    3.886678
     15          1           0        1.113933    3.223043    2.636277
     16          1           0       -2.411443    4.065526    3.356417
     17          1           0       -0.756298    4.710035    3.305819
     18          1           0       -1.227337    3.550162    4.578475
     19          1           0       -1.816422   -0.484319    0.544448
     20          1           0       -1.600229   -2.244510    0.864539
     21          1           0       -1.857982   -1.645699   -0.795070
     22          1           0        1.797810   -2.191919   -0.732713
     23          1           0        0.290938   -2.609455   -1.574215
     24          1           0        0.610334   -3.249197    0.060180
 ---------------------------------------------------------------------
                    Distance matrix (angstroms):
                    1          2          3          4          5
     1  C    0.000000
     2  O    1.237595   0.000000
     3  N    1.401608   2.267836   0.000000
     4  N    2.352942   3.416814   1.235869   0.000000
     5  C    3.566493   4.465801   2.216671   1.376124   0.000000
     6  O    4.610107   5.561445   3.334621   2.295523   1.235282
     7  N    3.967397   4.601232   2.600950   2.361384   1.397321
     8  C    3.501835   3.827240   2.410835   2.835835   2.518127
     9  C    5.415286   5.993085   4.045938   3.695556   2.460028
    10  N    1.380924   2.266670   2.431741   2.875753   4.239812
    11  C    2.431092   3.558973   2.827898   2.617628   3.912590
    12  C    2.495809   2.800226   3.782096   4.330709   5.691869
    13  H    2.465415   2.772030   1.600210   2.409675   2.658297
    14  H    4.141121   4.458794   3.197882   3.552929   3.217264
    15  H    4.056007   4.109641   3.059069   3.612192   3.209161
    16  H    5.952738   6.656856   4.554014   3.932642   2.566172
    17  H    5.797361   6.187443   4.469887   4.323238   3.164144
    18  H    5.883261   6.453071   4.585420   4.286181   3.169703
    19  H    2.472476   3.699948   2.288518   1.689281   2.894114
    20  H    3.151321   4.230287   3.540638   3.290707   4.469206
    21  H    3.133938   4.140534   3.608007   3.328280   4.577149
    22  H    2.652030   2.442391   4.047630   4.843498   6.153008
    23  H    3.185487   3.506757   4.398190   4.798653   6.171918
    24  H    3.193733   3.584298   4.359915   4.805070   6.132572
                    6          7          8          9         10
     6  O    0.000000
     7  N    2.284763   0.000000
     8  C    3.629891   1.451130   0.000000
     9  C    2.741340   1.451844   2.466452   0.000000
    10  N    5.108286   4.909784   4.636129   6.349559   0.000000
    11  C    4.513586   4.876922   4.993211   6.221179   1.435845
    12  C    6.557667   6.296439   5.860542   7.743087   1.455943
    13  H    3.884410   2.121357   1.088996   3.410356   3.645259
    14  H    4.258782   2.083095   1.093533   2.730324   5.149959
    15  H    4.209729   2.072156   1.095417   2.697327   5.327700
    16  H    2.319288   2.126183   3.414643   1.092401   6.754616
    17  H    3.466959   2.079478   2.713223   1.094050   6.877532
    18  H    3.512763   2.078366   2.719185   1.094225   6.767809
    19  H    3.431679   3.974323   4.322408   5.260819   2.061687
    20  H    5.050253   5.344781   5.423589   6.632213   2.079299
    21  H    4.991503   5.678584   5.897387   6.989994   2.058420
    22  H    7.120638   6.574564   5.928406   8.020050   2.139725
    23  H    6.900833   6.938330   6.648156   8.375726   2.078715
    24  H    6.991018   6.703622   6.254351   8.120688   2.076084
                   11         12         13         14         15
    11  C    0.000000
    12  C    2.471565   0.000000
    13  H    4.190819   4.809700   0.000000
    14  H    5.472790   6.294985   1.783153   0.000000
    15  H    5.824764   6.484974   1.771683   1.783563   0.000000
    16  H    6.416917   8.192987   4.239218   3.728153   3.695491
    17  H    6.910321   8.233549   3.698214   3.088352   2.481370
    18  H    6.638626   8.115450   3.721397   2.524989   3.059524
    19  H    1.083442   3.377986   3.680268   4.865612   5.167906
    20  H    1.091450   2.756598   4.665161   5.706670   6.356089
    21  H    1.097521   2.700283   5.097742   6.467162   6.656655
    22  H    3.419642   1.091511   4.841648   6.360547   6.414015
    23  H    2.715160   1.093996   5.617637   7.176783   7.240414
    24  H    2.726355   1.093824   5.242311   6.521965   6.984252
                   16         17         18         19         20
    16  H    0.000000
    17  H    1.776923   0.000000
    18  H    1.777958   1.785172   0.000000
    19  H    5.381663   5.977486   5.735628   0.000000
    20  H    6.832575   7.418744   6.892793   1.802074   0.000000
    21  H    7.082319   7.643713   7.501311   1.773369   1.783062
    22  H    8.578719   8.394652   8.386401   4.196393   3.755083
    23  H    8.727506   8.859254   8.837513   3.666866   3.107607
    24  H    8.573301   8.703519   8.367993   3.710554   2.557925
                   21         22         23         24
    21  H    0.000000
    22  H    3.696899   0.000000
    23  H    2.480675   1.775705   0.000000
    24  H    3.065166   1.776687   1.783966   0.000000
 Stoichiometry    C6H12N4O2
 Framework group  C1[X(C6H12N4O2)]
 Deg. of freedom    66
 Full point group                 C1      NOp   1
 Largest Abelian subgroup         C1      NOp   1
 Largest concise Abelian subgroup C1      NOp   1
                         Standard orientation:                         
 ---------------------------------------------------------------------
 Center     Atomic      Atomic             Coordinates (Angstroms)
 Number     Number       Type             X           Y           Z
 ---------------------------------------------------------------------
      1          6           0        1.553088    0.660817   -0.274567
      2          8           0        1.913324    1.775192   -0.674619
      3          7           0        0.184064    0.360548   -0.285363
      4          7           0       -0.317145   -0.762907   -0.167002
      5          6           0       -1.691787   -0.817406   -0.200292
      6          8           0       -2.316513   -1.832528   -0.524587
      7          7           0       -2.376032    0.342176    0.173452
      8          6           0       -1.734168    1.608809    0.472501
      9          6           0       -3.825395    0.319271    0.255143
     10          7           0        2.496919   -0.257248    0.141714
     11          6           0        2.088719   -1.603042    0.431301
     12          6           0        3.913211    0.056130    0.266945
     13          1           0       -0.652570    1.565902    0.353259
     14          1           0       -1.978429    1.900138    1.497820
     15          1           0       -2.128563    2.361842   -0.218393
     16          1           0       -4.244433   -0.659342    0.010068
     17          1           0       -4.228140    1.058649   -0.443471
     18          1           0       -4.122099    0.584723    1.274373
     19          1           0        1.030561   -1.704291    0.221788
     20          1           0        2.323844   -1.848951    1.468368
     21          1           0        2.646678   -2.275823   -0.232476
     22          1           0        4.153876    1.090741    0.015837
     23          1           0        4.473259   -0.605730   -0.400225
     24          1           0        4.214876   -0.134619    1.300900
 ---------------------------------------------------------------------
 Rotational constants (GHZ):           2.0280237           0.5125962           0.4301583
 Standard basis: 6-31G(d) (6D, 7F)
 There are   204 symmetry adapted cartesian basis functions of A   symmetry.
 There are   204 symmetry adapted basis functions of A   symmetry.
   204 basis functions,   384 primitive gaussians,   204 cartesian basis functions
    46 alpha electrons       46 beta electrons
       nuclear repulsion energy       740.8334635225 Hartrees.
 NAtoms=   24 NActive=   24 NUniq=   24 SFac= 1.00D+00 NAtFMM=   60 NAOKFM=F Big=F
 Integral buffers will be    131072 words long.
 Raffenetti 2 integral format.
 Two-electron integral symmetry is turned on.
 One-electron integrals computed using PRISM.
 NBasis=   204 RedAO= T EigKep=  1.73D-03  NBF=   204
 NBsUse=   204 1.00D-06 EigRej= -1.00D+00 NBFU=   204
 Initial guess from the checkpoint file:  "azadicarboxylate_6_conf11.chk"
 B after Tr=     0.000000    0.000000   -0.000000
         Rot=    0.999550    0.018955   -0.011201   -0.020373 Ang=   3.44 deg.
 ExpMin= 1.61D-01 ExpMax= 5.48D+03 ExpMxC= 8.25D+02 IAcc=2 IRadAn=         4 AccDes= 0.00D+00
 Harris functional with IExCor=  402 and IRadAn=       4 diagonalized for initial guess.
 HarFok:  IExCor=  402 AccDes= 0.00D+00 IRadAn=         4 IDoV= 1 UseB2=F ITyADJ=14
 ICtDFT=  3500011 ScaDFX=  1.000000  1.000000  1.000000  1.000000
 FoFCou: FMM=F IPFlag=           0 FMFlag=      100000 FMFlg1=           0
         NFxFlg=           0 DoJE=T BraDBF=F KetDBF=T FulRan=T
         wScrn=  0.000000 ICntrl=       500 IOpCl=  0 I1Cent=   200000004 NGrid=           0
         NMat0=    1 NMatS0=      1 NMatT0=    0 NMatD0=    1 NMtDS0=    0 NMtDT0=    0
 Petite list used in FoFCou.
 Keep R1 ints in memory in canonical form, NReq=222933844.
 Gradient too large for Newton-Raphson -- use scaled steepest descent instead.
     Minimum is close to point  4 DX=  9.68D-02 DF= -9.72D-04 DXR=  7.46D-02 DFR=  5.62D-03 which will be used.
 Gradient too large for Newton-Raphson -- use scaled steepest descent instead.
 Gradient too large for Newton-Raphson -- use scaled steepest descent instead.
     Accept linear search using points  1 and  2.
 Gradient too large for Newton-Raphson -- use scaled steepest descent instead.
     Accept linear search using points  1 and  2.
 Gradient too large for Newton-Raphson -- use scaled steepest descent instead.
 Gradient too large for Newton-Raphson -- use scaled steepest descent instead.
     Accept linear search using points  1 and  2.
 Gradient too large for Newton-Raphson -- use scaled steepest descent instead.
     Accept linear search using points  2 and  3.
 Gradient too large for Newton-Raphson -- use scaled steepest descent instead.
     Accept linear search using points  1 and  2.
 Gradient too large for Newton-Raphson -- use scaled steepest descent instead.
     Minimum is close to point  3 DX=  1.51D-01 DF= -1.08D-05 DXR=  9.13D-02 DFR=  8.41D-03 which will be used.
 Gradient too large for Newton-Raphson -- use scaled steepest descent instead.
     Accept linear search using points  1 and  2.
 Gradient too large for Newton-Raphson -- use scaled steepest descent instead.
     Accept linear search using points  2 and  3.
 Gradient too large for Newton-Raphson -- use scaled steepest descent instead.
     Accept linear search using points  1 and  2.
 Gradient too large for Newton-Raphson -- use scaled steepest descent instead.
     Accept linear search using points  2 and  3.
     Minimum is close to point  3 DX= -5.80D-02 DF= -2.50D-07 DXR=  3.53D-02 DFR=  8.11D-04 which will be used.
 Gradient too large for Newton-Raphson -- use scaled steepest descent instead.
     Accept linear search using points  1 and  2.
 Gradient too large for Newton-Raphson -- use scaled steepest descent instead.
     Minimum is close to point  3 DX=  9.26D-02 DF= -4.65D-07 DXR=  4.89D-02 DFR=  2.40D-03 which will be used.
 Gradient too large for Newton-Raphson -- use scaled steepest descent instead.
     Minimum is close to point  3 DX= -9.30D-03 DF= -5.03D-08 DXR=  1.89D-02 DFR=  3.59D-04 which will be used.
 Gradient too large for Newton-Raphson -- use scaled steepest descent instead.
     Accept linear search using points  2 and  3.
 Gradient too large for Newton-Raphson -- use scaled steepest descent instead.
     Accept linear search using points  1 and  2.
 LinEq1:  Iter=  0 NonCon=     1 RMS=5.13D-04 Max=3.98D-02 NDo=     1
 AX will form     1 AO Fock derivatives at one time.
 LinEq1:  Iter=  1 NonCon=     1 RMS=9.18D-05 Max=4.66D-03 NDo=     1
 LinEq1:  Iter=  2 NonCon=     1 RMS=1.10D-04 Max=3.45D-03 NDo=     1
 LinEq1:  Iter=  3 NonCon=     1 RMS=7.14D-05 Max=1.54D-03 NDo=     1
 LinEq1:  Iter=  4 NonCon=     1 RMS=5.20D-05 Max=1.57D-03 NDo=     1
 LinEq1:  Iter=  5 NonCon=     1 RMS=2.47D-05 Max=6.57D-04 NDo=     1
 LinEq1:  Iter=  6 NonCon=     1 RMS=1.86D-05 Max=5.78D-04 NDo=     1
 LinEq1:  Iter=  7 NonCon=     1 RMS=1.78D-05 Max=5.59D-04 NDo=     1
 LinEq1:  Iter=  8 NonCon=     1 RMS=9.18D-06 Max=1.79D-04 NDo=     1
 LinEq1:  Iter=  9 NonCon=     1 RMS=4.95D-06 Max=1.14D-04 NDo=     1
 LinEq1:  Iter= 10 NonCon=     1 RMS=3.63D-06 Max=9.74D-05 NDo=     1
 LinEq1:  Iter= 11 NonCon=     1 RMS=3.00D-06 Max=1.04D-04 NDo=     1
 LinEq1:  Iter= 12 NonCon=     1 RMS=1.82D-06 Max=4.94D-05 NDo=     1
 LinEq1:  Iter= 13 NonCon=     1 RMS=8.23D-07 Max=2.28D-05 NDo=     1
 LinEq1:  Iter= 14 NonCon=     1 RMS=3.68D-07 Max=9.23D-06 NDo=     1
 LinEq1:  Iter= 15 NonCon=     1 RMS=1.65D-07 Max=4.13D-06 NDo=     1
 LinEq1:  Iter= 16 NonCon=     1 RMS=5.60D-08 Max=1.31D-06 NDo=     1
 LinEq1:  Iter= 17 NonCon=     1 RMS=3.11D-08 Max=5.42D-07 NDo=     1
 LinEq1:  Iter= 18 NonCon=     1 RMS=8.95D-09 Max=1.49D-07 NDo=     1
 LinEq1:  Iter= 19 NonCon=     0 RMS=3.79D-09 Max=6.10D-08 NDo=     1
 Linear equations converged to 1.206D-08 1.206D-07 after    19 iterations.
     Accept linear search using points  1 and  2.
     Minimum is close to point  2 DX= -7.80D-03 DF= -4.45D-08 DXR=  7.86D-03 DFR=  6.21D-05 which will be used.
 LinEq1:  Iter=  0 NonCon=     1 RMS=1.44D-05 Max=7.29D-04 NDo=     1
 LinEq1:  Iter=  1 NonCon=     1 RMS=1.37D-05 Max=6.00D-04 NDo=     1
 LinEq1:  Iter=  2 NonCon=     1 RMS=9.56D-06 Max=3.55D-04 NDo=     1
 LinEq1:  Iter=  3 NonCon=     1 RMS=5.86D-06 Max=2.54D-04 NDo=     1
 LinEq1:  Iter=  4 NonCon=     1 RMS=4.06D-06 Max=1.48D-04 NDo=     1
 LinEq1:  Iter=  5 NonCon=     1 RMS=3.80D-06 Max=1.29D-04 NDo=     1
 LinEq1:  Iter=  6 NonCon=     1 RMS=3.40D-06 Max=1.33D-04 NDo=     1
 LinEq1:  Iter=  7 NonCon=     1 RMS=1.67D-06 Max=3.40D-05 NDo=     1
 LinEq1:  Iter=  8 NonCon=     1 RMS=1.25D-06 Max=3.41D-05 NDo=     1
 LinEq1:  Iter=  9 NonCon=     1 RMS=8.62D-07 Max=2.42D-05 NDo=     1
 LinEq1:  Iter= 10 NonCon=     1 RMS=5.93D-07 Max=1.47D-05 NDo=     1
 LinEq1:  Iter= 11 NonCon=     1 RMS=3.71D-07 Max=1.09D-05 NDo=     1
 LinEq1:  Iter= 12 NonCon=     1 RMS=1.81D-07 Max=3.69D-06 NDo=     1
 LinEq1:  Iter= 13 NonCon=     1 RMS=7.11D-08 Max=1.54D-06 NDo=     1
 LinEq1:  Iter= 14 NonCon=     1 RMS=3.03D-08 Max=5.87D-07 NDo=     1
 LinEq1:  Iter= 15 NonCon=     1 RMS=1.07D-08 Max=2.37D-07 NDo=     1
 LinEq1:  Iter= 16 NonCon=     1 RMS=4.96D-09 Max=1.10D-07 NDo=     1
 LinEq1:  Iter= 17 NonCon=     0 RMS=1.94D-09 Max=4.45D-08 NDo=     1
 Linear equations converged to 1.017D-08 1.017D-07 after    17 iterations.
     Minimum is close to point  2 DX=  2.26D-04 DF= -1.14D-13 DXR=  2.26D-04 DFR=  1.88D-07 which will be used.
 SCF Done:  E(RB3LYP) =  -605.201941330     a.u. after   21 cycles
            Convg  =    0.2266D-06                    85 Fock formations.
              S**2 =  0.0000                  -V/T =  2.0084
 DoSCS=F DFT=T ScalE2(SS,OS)=  1.000000  1.000000
 Range of M.O.s used for correlation:     1   204
 NBasis=   204 NAE=    46 NBE=    46 NFC=     0 NFV=     0
 NROrb=    204 NOA=    46 NOB=    46 NVA=   158 NVB=   158
 Symmetrizing basis deriv contribution to polar:
 IMax=3 JMax=2 DiffMx= 0.00D+00
 G2DrvN: will do    25 centers at a time, making    1 passes.
 Calling FoFCou, ICntrl=  3107 FMM=F I1Cent=   0 AccDes= 0.00D+00.
 End of G2Drv F.D. properties file   721 does not exist.
 End of G2Drv F.D. properties file   722 does not exist.
 End of G2Drv F.D. properties file   788 does not exist.
          IDoAtm=111111111111111111111111
          Differentiating once with respect to electric field.
                with respect to dipole field.
          Differentiating once with respect to nuclear coordinates.
 Keep R1 ints in memory in canonical form, NReq=222943286.
          There are    75 degrees of freedom in the 1st order CPHF.  IDoFFX=6 NUNeed=     3.
     72 vectors produced by pass  0 Test12= 9.69D-15 1.33D-09 XBig12= 1.73D+02 6.00D+00.
 AX will form    72 AO Fock derivatives at one time.
     72 vectors produced by pass  1 Test12= 9.69D-15 1.33D-09 XBig12= 6.28D+01 1.46D+00.
     72 vectors produced by pass  2 Test12= 9.69D-15 1.33D-09 XBig12= 6.15D-01 1.35D-01.
     72 vectors produced by pass  3 Test12= 9.69D-15 1.33D-09 XBig12= 2.51D-03 5.62D-03.
     72 vectors produced by pass  4 Test12= 9.69D-15 1.33D-09 XBig12= 3.49D-06 1.73D-04.
     50 vectors produced by pass  5 Test12= 9.69D-15 1.33D-09 XBig12= 2.70D-09 5.24D-06.
      8 vectors produced by pass  6 Test12= 9.69D-15 1.33D-09 XBig12= 1.96D-12 1.79D-07.
      2 vectors produced by pass  7 Test12= 9.69D-15 1.33D-09 XBig12= 1.31D-15 5.10D-09.
 InvSVY:  IOpt=1 It=  1 EMax= 5.33D-15
 Solved reduced A of dimension   420 with    75 vectors.
 Isotropic polarizability for W=    0.000000      107.22 Bohr**3.
 End of Minotr F.D. properties file   721 does not exist.
 End of Minotr F.D. properties file   722 does not exist.
 End of Minotr F.D. properties file   788 does not exist.
 Calling FoFJK, ICntrl=    100127 FMM=F ISym2X=0 I1Cent= 0 IOpClX= 0 NMat=1 NMatS=1 NMatT=0.
 ***** Axes restored to original set *****
 -------------------------------------------------------------------
 Center     Atomic                   Forces (Hartrees/Bohr)
 Number     Number              X              Y              Z
 -------------------------------------------------------------------
      1        6           0.022071915   -0.059833168   -0.044824558
      2        8          -0.012393492    0.013506221    0.015097973
      3        7           0.002006095    0.014875217   -0.036452172
      4        7          -0.010337999   -0.022561537   -0.012263557
      5        6          -0.005522038    0.076138885    0.044365534
      6        8           0.009604364   -0.021217848   -0.010208387
      7        7          -0.014711425   -0.019860347   -0.021176753
      8        6           0.013367384    0.012148852    0.032561872
      9        6          -0.000528605   -0.000304022    0.002684681
     10        7           0.007345282    0.025193597    0.014265709
     11        6          -0.009206746   -0.019949065   -0.013185315
     12        6           0.000436995    0.002465596    0.000742257
     13        1           0.006357815    0.018572553    0.019515060
     14        1           0.002049401    0.004590922    0.007181360
     15        1           0.004739086   -0.000298167   -0.000368832
     16        1           0.002703180   -0.005240026   -0.004052677
     17        1           0.001013262    0.002654049    0.001984353
     18        1           0.001346819    0.002533165    0.003320031
     19        1          -0.008130247   -0.015887509   -0.002403078
[...]
    19  H    0.471953  -0.021871  -0.023946  -0.000194  -0.000061  -0.000014
    20  H   -0.021871   0.573600  -0.044225  -0.000000  -0.001774   0.006217
    21  H   -0.023946  -0.044225   0.576903  -0.000117   0.005882  -0.001590
    22  H   -0.000194  -0.000000  -0.000117   0.483895  -0.024601  -0.022221
    23  H   -0.000061  -0.001774   0.005882  -0.024601   0.565910  -0.042004
    24  H   -0.000014   0.006217  -0.001590  -0.022221  -0.042004   0.568094
 Mulliken charges:
               1
     1  C    0.704226
     2  O   -0.463689
     3  N   -0.277726
     4  N   -0.277727
     5  C    0.704228
     6  O   -0.463689
     7  N   -0.386804
     8  C   -0.322031
     9  C   -0.320154
    10  N   -0.386803
    11  C   -0.322031
    12  C   -0.320154
    13  H    0.219711
    14  H    0.160693
    15  H    0.158811
    16  H    0.203669
    17  H    0.160978
    18  H    0.162314
    19  H    0.219711
    20  H    0.158811
    21  H    0.160694
    22  H    0.203669
    23  H    0.162314
    24  H    0.160978
 Sum of Mulliken charges =  -0.00000
 Mulliken charges with hydrogens summed into heavy atoms:
               1
     1  C    0.704226
     2  O   -0.463689
     3  N   -0.277726
     4  N   -0.277727
     5  C    0.704228
     6  O   -0.463689
     7  N   -0.386804
     8  C    0.217185
     9  C    0.206806
    10  N   -0.386803
    11  C    0.217185
    12  C    0.206806
 Electronic spatial extent (au):  <R**2>=           2861.8216
 Charge=              0.0000 electrons
 Dipole moment (field-independent basis, Debye):
    X=             -0.0000    Y=             -0.0000    Z=             -0.0001  Tot=              0.0001
 Quadrupole moment (field-independent basis, Debye-Ang):
   XX=            -46.6832   YY=            -77.3291   ZZ=            -70.9913
   XY=            -10.5425   XZ=             -1.1221   YZ=             -0.4909
 Traceless Quadrupole moment (field-independent basis, Debye-Ang):
   XX=             18.3180   YY=            -12.3279   ZZ=             -5.9901
   XY=            -10.5425   XZ=             -1.1221   YZ=             -0.4909
 Octapole moment (field-independent basis, Debye-Ang**2):
  XXX=             -0.0001  YYY=             -0.0001  ZZZ=              0.0000  XYY=             -0.0001
  XXY=             -0.0001  XXZ=             -0.0006  XZZ=             -0.0000  YZZ=              0.0000
  YYZ=             -0.0004  XYZ=             -0.0003
 Hexadecapole moment (field-independent basis, Debye-Ang**3):
 XXXX=          -2587.9360 YYYY=           -646.0332 ZZZZ=           -110.8837 XXXY=              4.1746
 XXXZ=             -3.2774 YYYX=            -33.1071 YYYZ=             -2.8229 ZZZX=             -2.3665
 ZZZY=              2.7734 XXYY=           -593.5568 XXZZ=           -502.7538 YYZZ=           -118.9334
 XXYZ=             -5.7023 YYXZ=              0.6882 ZZXY=              0.7759
 N-N= 7.215934552926D+02 E-N=-2.854461363589D+03  KE= 5.997740881542D+02
 Evaluate density.
 Using the total density.
 Monte-Carlo method of calculating molar volume:
 based on  0.001 e/bohr**3 density envelope.
 Number of points per bohr**3 =   20 CutOff= 1.00D-04
 Using the CI density.
 There are       391 points.  Will hold       391 in memory.
 LenV=   805183220 MDV=   805306368.
 Box volume = 7473.337 fraction occupied=0.171
 Integrated density= 5.9551159658265341D+01 error=-3.2448840341734659D+01
 Molar volume = 1280.597 bohr**3/mol (114.279 cm**3/mol)
 Recommended a0 for SCRF calculation =  4.42 angstrom (  8.36 bohr)
 ******************************Gaussian NBO Version 3.1******************************
             N A T U R A L   A T O M I C   O R B I T A L   A N D
          N A T U R A L   B O N D   O R B I T A L   A N A L Y S I S
 ******************************Gaussian NBO Version 3.1******************************
       /RESON  / : Allow strongly delocalized NBO set

 Analyzing the CI density

 Job title: Title Card Required                                             

 Storage needed:    126804 in NPA ( 805303248 available)


 NATURAL POPULATIONS:  Natural atomic orbital occupancies 
                                                          
   NAO  Atom  No  lang   Type(AO)    Occupancy
 --------------------------------------------
     1    C    1  S      Cor( 1S)     1.99935
     2    C    1  S      Val( 2S)     0.73540
     3    C    1  S      Ryd( 3S)     0.00442
     4    C    1  S      Ryd( 4S)     0.00038
     5    C    1  px     Val( 2p)     0.83532
     6    C    1  px     Ryd( 3p)     0.00861
     7    C    1  py     Val( 2p)     0.76704
     8    C    1  py     Ryd( 3p)     0.01945
     9    C    1  pz     Val( 2p)     0.82498
    10    C    1  pz     Ryd( 3p)     0.00357
    11    C    1  dxy    Ryd( 3d)     0.00349
    12    C    1  dxz    Ryd( 3d)     0.00167
    13    C    1  dyz    Ryd( 3d)     0.00259
    14    C    1  dx2y2  Ryd( 3d)     0.00180
    15    C    1  dz2    Ryd( 3d)     0.00041
 
    16    O    2  S      Cor( 1S)     1.99979
    17    O    2  S      Val( 2S)     1.70335
    18    O    2  S      Ryd( 3S)     0.00079
    19    O    2  S      Ryd( 4S)     0.00008
    20    O    2  px     Val( 2p)     1.73135
    21    O    2  px     Ryd( 3p)     0.00156
    22    O    2  py     Val( 2p)     1.57373
    23    O    2  py     Ryd( 3p)     0.00032
    24    O    2  pz     Val( 2p)     1.54198
    25    O    2  pz     Ryd( 3p)     0.00095
    26    O    2  dxy    Ryd( 3d)     0.00447
    27    O    2  dxz    Ryd( 3d)     0.00005
    28    O    2  dyz    Ryd( 3d)     0.00480
    29    O    2  dx2y2  Ryd( 3d)     0.00435
    30    O    2  dz2    Ryd( 3d)     0.00134
 
    31    N    3  S      Cor( 1S)     1.99941
    32    N    3  S      Val( 2S)     1.40064
    33    N    3  S      Ryd( 3S)     0.00616
    34    N    3  S      Ryd( 4S)     0.00004
    35    N    3  px     Val( 2p)     1.13241
    36    N    3  px     Ryd( 3p)     0.00393
    37    N    3  py     Val( 2p)     1.41816
    38    N    3  py     Ryd( 3p)     0.00422
    39    N    3  pz     Val( 2p)     1.26950
    40    N    3  pz     Ryd( 3p)     0.00447
    41    N    3  dxy    Ryd( 3d)     0.00118
    42    N    3  dxz    Ryd( 3d)     0.00137
    43    N    3  dyz    Ryd( 3d)     0.00189
    44    N    3  dx2y2  Ryd( 3d)     0.00076
    45    N    3  dz2    Ryd( 3d)     0.00229
 
    46    N    4  S      Cor( 1S)     1.99941
    47    N    4  S      Val( 2S)     1.40064
    48    N    4  S      Ryd( 3S)     0.00616
    49    N    4  S      Ryd( 4S)     0.00004
    50    N    4  px     Val( 2p)     1.13241
    51    N    4  px     Ryd( 3p)     0.00393
    52    N    4  py     Val( 2p)     1.41816
    53    N    4  py     Ryd( 3p)     0.00422
    54    N    4  pz     Val( 2p)     1.26950
    55    N    4  pz     Ryd( 3p)     0.00447
    56    N    4  dxy    Ryd( 3d)     0.00118
    57    N    4  dxz    Ryd( 3d)     0.00137
    58    N    4  dyz    Ryd( 3d)     0.00189
    59    N    4  dx2y2  Ryd( 3d)     0.00076
    60    N    4  dz2    Ryd( 3d)     0.00229
 
    61    C    5  S      Cor( 1S)     1.99935
    62    C    5  S      Val( 2S)     0.73540
    63    C    5  S      Ryd( 3S)     0.00442
    64    C    5  S      Ryd( 4S)     0.00038
    65    C    5  px     Val( 2p)     0.83532
    66    C    5  px     Ryd( 3p)     0.00861
    67    C    5  py     Val( 2p)     0.76704
    68    C    5  py     Ryd( 3p)     0.01945
    69    C    5  pz     Val( 2p)     0.82498
    70    C    5  pz     Ryd( 3p)     0.00357
    71    C    5  dxy    Ryd( 3d)     0.00349
    72    C    5  dxz    Ryd( 3d)     0.00167
    73    C    5  dyz    Ryd( 3d)     0.00259
    74    C    5  dx2y2  Ryd( 3d)     0.00180
    75    C    5  dz2    Ryd( 3d)     0.00041
 
    76    O    6  S      Cor( 1S)     1.99979
    77    O    6  S      Val( 2S)     1.70335
    78    O    6  S      Ryd( 3S)     0.00079
    79    O    6  S      Ryd( 4S)     0.00008
    80    O    6  px     Val( 2p)     1.73135
    81    O    6  px     Ryd( 3p)     0.00156
    82    O    6  py     Val( 2p)     1.57373
    83    O    6  py     Ryd( 3p)     0.00032
    84    O    6  pz     Val( 2p)     1.54198
    85    O    6  pz     Ryd( 3p)     0.00095
    86    O    6  dxy    Ryd( 3d)     0.00447
    87    O    6  dxz    Ryd( 3d)     0.00005
    88    O    6  dyz    Ryd( 3d)     0.00480
    89    O    6  dx2y2  Ryd( 3d)     0.00435
    90    O    6  dz2    Ryd( 3d)     0.00134
 
    91    N    7  S      Cor( 1S)     1.99930
    92    N    7  S      Val( 2S)     1.20777
    93    N    7  S      Ryd( 3S)     0.00116
    94    N    7  S      Ryd( 4S)     0.00005
    95    N    7  px     Val( 2p)     1.29405
    96    N    7  px     Ryd( 3p)     0.00119
    97    N    7  py     Val( 2p)     1.29363
    98    N    7  py     Ryd( 3p)     0.00128
    99    N    7  pz     Val( 2p)     1.65295
   100    N    7  pz     Ryd( 3p)     0.00407
   101    N    7  dxy    Ryd( 3d)     0.00080
   102    N    7  dxz    Ryd( 3d)     0.00061
   103    N    7  dyz    Ryd( 3d)     0.00050
   104    N    7  dx2y2  Ryd( 3d)     0.00059
   105    N    7  dz2    Ryd( 3d)     0.00050
 
   106    C    8  S      Cor( 1S)     1.99945
   107    C    8  S      Val( 2S)     1.08828
   108    C    8  S      Ryd( 3S)     0.00104
   109    C    8  S      Ryd( 4S)     0.00002
   110    C    8  px     Val( 2p)     1.27470
   111    C    8  px     Ryd( 3p)     0.00320
   112    C    8  py     Val( 2p)     0.85928
   113    C    8  py     Ryd( 3p)     0.00208
   114    C    8  pz     Val( 2p)     1.23896
   115    C    8  pz     Ryd( 3p)     0.00086
   116    C    8  dxy    Ryd( 3d)     0.00051
   117    C    8  dxz    Ryd( 3d)     0.00074
   118    C    8  dyz    Ryd( 3d)     0.00119
   119    C    8  dx2y2  Ryd( 3d)     0.00131
   120    C    8  dz2    Ryd( 3d)     0.00084
 
   121    C    9  S      Cor( 1S)     1.99947
   122    C    9  S      Val( 2S)     1.08839
   123    C    9  S      Ryd( 3S)     0.00094
   124    C    9  S      Ryd( 4S)     0.00002
   125    C    9  px     Val( 2p)     0.92324
   126    C    9  px     Ryd( 3p)     0.00214
   127    C    9  py     Val( 2p)     1.21892
   128    C    9  py     Ryd( 3p)     0.00310
   129    C    9  pz     Val( 2p)     1.22835
   130    C    9  pz     Ryd( 3p)     0.00113
   131    C    9  dxy    Ryd( 3d)     0.00072
   132    C    9  dxz    Ryd( 3d)     0.00142
   133    C    9  dyz    Ryd( 3d)     0.00045
   134    C    9  dx2y2  Ryd( 3d)     0.00114
   135    C    9  dz2    Ryd( 3d)     0.00090
 
   136    N   10  S      Cor( 1S)     1.99930
   137    N   10  S      Val( 2S)     1.20777
   138    N   10  S      Ryd( 3S)     0.00116
   139    N   10  S      Ryd( 4S)     0.00005
   140    N   10  px     Val( 2p)     1.29405
   141    N   10  px     Ryd( 3p)     0.00119
   142    N   10  py     Val( 2p)     1.29363
   143    N   10  py     Ryd( 3p)     0.00128
   144    N   10  pz     Val( 2p)     1.65295
   145    N   10  pz     Ryd( 3p)     0.00407
   146    N   10  dxy    Ryd( 3d)     0.00080
   147    N   10  dxz    Ryd( 3d)     0.00061
   148    N   10  dyz    Ryd( 3d)     0.00050
   149    N   10  dx2y2  Ryd( 3d)     0.00059
   150    N   10  dz2    Ryd( 3d)     0.00050
 
   151    C   11  S      Cor( 1S)     1.99945
   152    C   11  S      Val( 2S)     1.08828
   153    C   11  S      Ryd( 3S)     0.00104
   154    C   11  S      Ryd( 4S)     0.00002
   155    C   11  px     Val( 2p)     1.27470
   156    C   11  px     Ryd( 3p)     0.00320
   157    C   11  py     Val( 2p)     0.85928
   158    C   11  py     Ryd( 3p)     0.00208
   159    C   11  pz     Val( 2p)     1.23896
   160    C   11  pz     Ryd( 3p)     0.00086
   161    C   11  dxy    Ryd( 3d)     0.00051
   162    C   11  dxz    Ryd( 3d)     0.00074
   163    C   11  dyz    Ryd( 3d)     0.00119
   164    C   11  dx2y2  Ryd( 3d)     0.00131
   165    C   11  dz2    Ryd( 3d)     0.00084
 
   166    C   12  S      Cor( 1S)     1.99947
   167    C   12  S      Val( 2S)     1.08839
   168    C   12  S      Ryd( 3S)     0.00094
   169    C   12  S      Ryd( 4S)     0.00002
   170    C   12  px     Val( 2p)     0.92324
   171    C   12  px     Ryd( 3p)     0.00214
   172    C   12  py     Val( 2p)     1.21892
   173    C   12  py     Ryd( 3p)     0.00310
   174    C   12  pz     Val( 2p)     1.22835
   175    C   12  pz     Ryd( 3p)     0.00113
   176    C   12  dxy    Ryd( 3d)     0.00072
   177    C   12  dxz    Ryd( 3d)     0.00142
   178    C   12  dyz    Ryd( 3d)     0.00045
   179    C   12  dx2y2  Ryd( 3d)     0.00114
   180    C   12  dz2    Ryd( 3d)     0.00090
 
   181    H   13  S      Val( 1S)     0.73208
   182    H   13  S      Ryd( 2S)     0.00190
 
   183    H   14  S      Val( 1S)     0.77511
   184    H   14  S      Ryd( 2S)     0.00155
 
   185    H   15  S      Val( 1S)     0.77316
   186    H   15  S      Ryd( 2S)     0.00135
 
   187    H   16  S      Val( 1S)     0.73793
   188    H   16  S      Ryd( 2S)     0.00171
 
   189    H   17  S      Val( 1S)     0.77339
   190    H   17  S      Ryd( 2S)     0.00128
 
   191    H   18  S      Val( 1S)     0.77424
   192    H   18  S      Ryd( 2S)     0.00127
 
   193    H   19  S      Val( 1S)     0.73208
   194    H   19  S      Ryd( 2S)     0.00190
 
   195    H   20  S      Val( 1S)     0.77316
   196    H   20  S      Ryd( 2S)     0.00135
 
   197    H   21  S      Val( 1S)     0.77511
   198    H   21  S      Ryd( 2S)     0.00155
 
   199    H   22  S      Val( 1S)     0.73793
   200    H   22  S      Ryd( 2S)     0.00171
 
   201    H   23  S      Val( 1S)     0.77424
   202    H   23  S      Ryd( 2S)     0.00127
 
   203    H   24  S      Val( 1S)     0.77339
   204    H   24  S      Ryd( 2S)     0.00128


 Summary of Natural Population Analysis:                  
                                                          
                                       Natural Population 
                Natural  -----------------------------------------------
    Atom  No    Charge         Core      Valence    Rydberg      Total
 -----------------------------------------------------------------------
      C    1    0.79151      1.99935     3.16275    0.04640     5.20849
      O    2   -0.56890      1.99979     6.55041    0.01871     8.56890
      N    3   -0.24643      1.99941     5.22071    0.02631     7.24643
      N    4   -0.24643      1.99941     5.22071    0.02631     7.24643
      C    5    0.79151      1.99935     3.16275    0.04640     5.20849
      O    6   -0.56890      1.99979     6.55041    0.01871     8.56890
      N    7   -0.45844      1.99930     5.44839    0.01076     7.45844
      C    8   -0.47244      1.99945     4.46122    0.01177     6.47244
      C    9   -0.47032      1.99947     4.45889    0.01196     6.47032
      N   10   -0.45844      1.99930     5.44839    0.01076     7.45844
      C   11   -0.47244      1.99945     4.46122    0.01177     6.47244
      C   12   -0.47032      1.99947     4.45889    0.01196     6.47032
      H   13    0.26602      0.00000     0.73208    0.00190     0.73398
      H   14    0.22334      0.00000     0.77511    0.00155     0.77666
      H   15    0.22549      0.00000     0.77316    0.00135     0.77451
      H   16    0.26036      0.00000     0.73793    0.00171     0.73964
      H   17    0.22533      0.00000     0.77339    0.00128     0.77467
      H   18    0.22449      0.00000     0.77424    0.00127     0.77551
      H   19    0.26602      0.00000     0.73208    0.00190     0.73398
      H   20    0.22549      0.00000     0.77316    0.00135     0.77451
      H   21    0.22334      0.00000     0.77511    0.00155     0.77666
      H   22    0.26036      0.00000     0.73793    0.00171     0.73964
      H   23    0.22449      0.00000     0.77424    0.00127     0.77551
      H   24    0.22533      0.00000     0.77339    0.00128     0.77467
 =======================================================================
   * Total *    0.00000     23.99350    67.73658    0.26992    92.00000

                                 Natural Population      
 --------------------------------------------------------
   Core                      23.99350 ( 99.9729% of  24)
   Valence                   67.73658 ( 99.6126% of  68)
   Natural Minimal Basis     91.73008 ( 99.7066% of  92)
   Natural Rydberg Basis      0.26992 (  0.2934% of  92)
 --------------------------------------------------------

    Atom  No          Natural Electron Configuration
 ----------------------------------------------------------------------------
      C    1      [core]2S( 0.74)2p( 2.43)3p( 0.03)3d( 0.01)
      O    2      [core]2S( 1.70)2p( 4.85)3d( 0.02)
      N    3      [core]2S( 1.40)2p( 3.82)3S( 0.01)3p( 0.01)3d( 0.01)
      N    4      [core]2S( 1.40)2p( 3.82)3S( 0.01)3p( 0.01)3d( 0.01)
      C    5      [core]2S( 0.74)2p( 2.43)3p( 0.03)3d( 0.01)
      O    6      [core]2S( 1.70)2p( 4.85)3d( 0.02)
      N    7      [core]2S( 1.21)2p( 4.24)3p( 0.01)
      C    8      [core]2S( 1.09)2p( 3.37)3p( 0.01)
      C    9      [core]2S( 1.09)2p( 3.37)3p( 0.01)
      N   10      [core]2S( 1.21)2p( 4.24)3p( 0.01)
      C   11      [core]2S( 1.09)2p( 3.37)3p( 0.01)
      C   12      [core]2S( 1.09)2p( 3.37)3p( 0.01)
      H   13            1S( 0.73)
      H   14            1S( 0.78)
      H   15            1S( 0.77)
      H   16            1S( 0.74)
      H   17            1S( 0.77)
      H   18            1S( 0.77)
      H   19            1S( 0.73)
      H   20            1S( 0.77)
      H   21            1S( 0.78)
      H   22            1S( 0.74)
      H   23            1S( 0.77)
      H   24            1S( 0.77)


 NBO analysis skipped by request.
 1\1\GINC-DELLA-R4C3N3\SP\RB3LYP TD-FC\6-31G(d)\C6H12N4O2\BJS4\22-Aug-2
 020\0\\# TD(NStates=10, Root=1) B3LYP/6-31G* scf=qc volume pop=NPA den
 sity=current Geom=AllCheck Guess=Read\\Title Card Required\\0,1\C,0,0.
 4763995756,-0.6584609724,0.6747977353\O,0,1.6809482281,-0.472525125,0.
 7276124791\N,0,-0.4079341262,0.1226187487,1.540691985\N,0,-0.470991544
 5,1.3157294239,1.1962326792\C,0,-1.3553218682,2.096809759,2.0621305914
 \O,0,-2.5598686654,1.9108543434,2.0093428723\N,0,-0.7115628323,3.05931
 80267,2.7691804887\C,0,0.7395187679,3.1877742645,2.8225193941\C,0,-1.4
 899491307,3.9683941443,3.597300002\N,0,-0.1673615781,-1.620945704,-0.0
 322810693\C,0,-1.6184445706,-1.7493752973,-0.0856472434\C,0,0.61102386
 88,-2.5300096953,-0.8604143714\H,0,1.2089928875,2.5098310256,2.1096051
 825\H,0,1.1112535405,2.9537988448,3.8288335065\H,0,1.0306273991,4.2161
 262325,2.5756945648\H,0,-2.5482102333,3.7594404316,3.443526835\H,0,-1.
 2756040529,5.0079334089,3.3194621385\H,0,-1.2415340192,3.8323157351,4.
 6576809883\H,0,-2.087918053,-1.0714623189,0.6272964249\H,0,-1.90957193
 34,-2.7777348908,0.1611228472\H,0,-1.9901640294,-1.5153428209,-1.09195
 39104\H,0,1.6692856593,-2.3210689464,-0.7066281275\H,0,0.3626186561,-2
 .3939052357,-1.9207943398\H,0,0.3966680543,-3.5695533822,-0.5826016531
 \\Version=ES64L-G16RevA.03\State=1-A\HF=-605.2793301\RMSD=4.643e-09\Di
 pole=-0.0000045,0.0000293,-0.0000406\Quadrupole=-11.1618324,9.3120852,
 1.8497472,3.2020448,1.4284116,9.3417459\PG=C01 [X(C6H12N4O2)]\\@


 THE VALUE OF PHILOSOPHY IS, IN FACT, TO BE SOUGHT LARGELY IN ITS
 VERY UNCERTAINTY.  THE MAN WHO HAS NO TINCTURE OF PHILOSOPHY GOES
 THROUGH LIFE IMPRISONED IN THE PREJUDICES DERIVED FROM COMMON SENSE,
 FROM THE HABITUAL BELIEFS OF HIS AGE OR HIS NATION, AND FROM
 CONVICTIONS WHICH HAVE GROWN UP IN HIS MIND WITHOUT THE CO-OPERATION
 OR CONSENT OF HIS DELIBERATE REASON.  TO SUCH A MAN THE WORLD TENDS
 TO BE DEFINITE, FINITE, OBVIOUS; COMMON OBJECTS ROUSE NO QUESTIONS,
 AND UNFAMILIAR POSSIBILITIES ARE CONTEMPTUOUSLY REJECTED.

                             -- BERTRAND RUSSELL
 Job cpu time:       0 days  0 hours 15 minutes  8.7 seconds.
 Elapsed time:       0 days  0 hours  5 minutes  8.3 seconds.
 File lengths (MBytes):  RWF=    400 Int=      0 D2E=      0 Chk=     24 Scr=      1
 Normal termination of Gaussian 16 at Sat Aug 22 18:26:52 2020.
