 Entering Gaussian System, Link 0=g16
 Input=azadicarboxylate_1_conf27123.com
 Output=azadicarboxylate_1_conf27123.log
 Initial command:
 /opt/export//g16/l1.exe "/scratch/bjs4/job.208882/Gau-208886.inp" -scrdir="/scratch/bjs4/job.208882/"
 Entering Link 1 = /opt/export//g16/l1.exe PID=    208889.
  
 Copyright (c) 1988,1990,1992,1993,1995,1998,2003,2009,2016,
            Gaussian, Inc.  All Rights Reserved.
  
 This is part of the Gaussian(R) 16 program.  It is based on
 the Gaussian(R) 09 system (copyright 2009, Gaussian, Inc.),
 the Gaussian(R) 03 system (copyright 2003, Gaussian, Inc.),
 the Gaussian(R) 98 system (copyright 1998, Gaussian, Inc.),
 the Gaussian(R) 94 system (copyright 1995, Gaussian, Inc.),
 the Gaussian 92(TM) system (copyright 1992, Gaussian, Inc.),
 the Gaussian 90(TM) system (copyright 1990, Gaussian, Inc.),
 the Gaussian 88(TM) system (copyright 1988, Gaussian, Inc.),
 the Gaussian 86(TM) system (copyright 1986, Carnegie Mellon
 University), and the Gaussian 82(TM) system (copyright 1983,
 Carnegie Mellon University). Gaussian is a federally registered
 trademark of Gaussian, Inc.
  
 This software contains proprietary and confidential information,
 including trade secrets, belonging to Gaussian, Inc.
  
 This software is provided under written license and may be
 used, copied, transmitted, or stored only in accord with that
 written license.
  
 The following legend is applicable only to US Government
 contracts under FAR:
  
                    RESTRICTED RIGHTS LEGEND
  
 Use, reproduction and disclosure by the US Government is
 subject to restrictions as set forth in subparagraphs (a)
 and (c) of the Commercial Computer Software - Restricted
 Rights clause in FAR 52.227-19.
  
 Gaussian, Inc.
 340 Quinnipiac St., Bldg. 40, Wallingford CT 06492
  
  
 ---------------------------------------------------------------
 Warning -- This program may not be used in any manner that
 competes with the business of Gaussian, Inc. or will provide
 assistance to any competitor of Gaussian, Inc.  The licensee
 of this program is prohibited from giving any competitor of
 Gaussian, Inc. access to this program.  By using this program,
 the user acknowledges that Gaussian, Inc. is engaged in the
 business of creating and licensing software in the field of
 computational chemistry and represents and warrants to the
 licensee that it is not a competitor of Gaussian, Inc. and that
 it will not use this program in any manner prohibited above.
 ---------------------------------------------------------------
  

 Cite this work as:
 Gaussian 16, Revision A.03,
 M. J. Frisch, G. W. Trucks, H. B. Schlegel, G. E. Scuseria, 
 M. A. Robb, J. R. Cheeseman, G. Scalmani, V. Barone, 
 G. A. Petersson, H. Nakatsuji, X. Li, M. Caricato, A. V. Marenich, 
 J. Bloino, B. G. Janesko, R. Gomperts, B. Mennucci, H. P. Hratchian, 
 J. V. Ortiz, A. F. Izmaylov, J. L. Sonnenberg, D. Williams-Young, 
 F. Ding, F. Lipparini, F. Egidi, J. Goings, B. Peng, A. Petrone, 
 T. Henderson, D. Ranasinghe, V. G. Zakrzewski, J. Gao, N. Rega, 
 G. Zheng, W. Liang, M. Hada, M. Ehara, K. Toyota, R. Fukuda, 
 J. Hasegawa, M. Ishida, T. Nakajima, Y. Honda, O. Kitao, H. Nakai, 
 T. Vreven, K. Throssell, J. A. Montgomery, Jr., J. E. Peralta, 
 F. Ogliaro, M. J. Bearpark, J. J. Heyd, E. N. Brothers, K. N. Kudin, 
 V. N. Staroverov, T. A. Keith, R. Kobayashi, J. Normand, 
 K. Raghavachari, A. P. Rendell, J. C. Burant, S. S. Iyengar, 
 J. Tomasi, M. Cossi, J. M. Millam, M. Klene, C. Adamo, R. Cammi, 
 J. W. Ochterski, R. L. Martin, K. Morokuma, O. Farkas, 
 J. B. Foresman, and D. J. Fox, Gaussian, Inc., Wallingford CT, 2016.
 
 ******************************************
 Gaussian 16:  ES64L-G16RevA.03 25-Dec-2016
                22-Aug-2020 
 ******************************************
 %nprocshared=5
 Will use up to    5 processors via shared memory.
 %Mem=10GB
 %Chk=azadicarboxylate_1_conf271.chk
 ---------------------------------
 # opt=CalcAll B3LYP/6-31G* scf=qc
 ---------------------------------
 1/10=4,18=20,19=15,26=3,38=1/1,3;
 2/9=110,12=2,17=6,18=5,40=1/2;
 3/5=1,6=6,7=1,11=2,25=1,30=1,71=2,74=-5,140=1/1,2,3;
 4//1;
 5/5=2,8=3,38=5/8;
 8/6=4,10=90,11=11/1;
 11/6=1,8=1,9=11,15=111,16=1/1,2,10;
 10/6=1/2;
 6/7=2,8=2,9=2,10=2,18=1,28=1/1;
 7/10=1,25=1/1,2,3,16;
 1/10=4,18=20,19=15,26=3/3(3);
 2/9=110/2;
 7/8=1,9=1,25=1,44=-1/16;
 99//99;
 2/9=110/2;
 3/5=1,6=6,7=1,11=2,25=1,30=1,71=2,74=-5,140=1/1,2,3;
 4/5=5,16=3,69=1/1;
 5/5=2,8=3,38=5/8;
 8/6=4,10=90,11=11/1;
 11/6=1,8=1,9=11,15=111,16=1/1,2,10;
 10/6=1/2;
 7/10=1,25=1/1,2,3,16;
 1/10=4,18=20,19=15,26=3/3(-8);
 2/9=110/2;
 6/7=2,8=2,9=2,10=2,18=1,19=2,28=1/1;
 7/8=1,9=1,25=1,44=-1/16;
 99//99;
 -------------------
 Title Card Required
 -------------------
 Symbolic Z-matrix:
 Charge =  0 Multiplicity = 1
 C                     4.01803  -1.69278  -0.15589 
 C                     3.01481  -0.64606   0.34524 
 C                     2.6782    0.39667  -0.72843 
 C                     1.71379  -1.37961   0.71706 
 O1                    3.486    -0.01602   1.56793 
 C2                    4.6771    0.6551    1.5808 
 O3                    5.41138   0.77475   0.6065 
 N4                    4.9172    1.1559    2.8418 
 N5                    6.1448    1.2226    3.0972 
 C6                    6.3853    1.7078    4.365 
 O7                    7.48851   1.88698   4.8682 
 O8                    5.20002   1.96133   4.99507 
 C                     5.18914   2.47817   6.35127 
 C                     5.4364    3.99234   6.37558 
 C                     3.77136   2.22129   6.89145 
 C                     6.17727   1.7133    7.24177 
 H                     3.63185  -2.22972  -1.02874 
 H                     4.2369   -2.42359   0.63141 
 H                     4.97533  -1.24856  -0.44128 
 H                     2.24583  -0.07397  -1.61819 
 H                     3.55669   0.9606   -1.05232 
 H                     1.96129   1.13058  -0.3429 
 H                     1.28046  -1.89245  -0.14969 
 H                     0.96594  -0.68245   1.11188 
 H                     1.89112  -2.1241    1.50171 
 H                     4.71199   4.51215   5.73797 
 H                     6.42758   4.25924   6.00081 
 H                     5.35157   4.39291   7.39162 
 H                     3.01648   2.72324   6.275 
 H                     3.66341   2.57688   7.92262 
 H                     3.52934   1.15214   6.87068 
 H                     7.21436   1.84939   6.92467 
 H                     5.97755   0.6363    7.19957 
 H                     6.10757   2.03806   8.28543 
 

 GradGradGradGradGradGradGradGradGradGradGradGradGradGradGradGradGradGrad
 Berny optimization.
 Initialization pass.
                           ----------------------------
                           !    Initial Parameters    !
                           ! (Angstroms and Degrees)  !
 --------------------------                            --------------------------
 ! Name  Definition              Value          Derivative Info.                !
 --------------------------------------------------------------------------------
 ! R1    R(1,2)                  1.534          calculate D2E/DX2 analytically  !
 ! R2    R(1,17)                 1.0951         calculate D2E/DX2 analytically  !
 ! R3    R(1,18)                 1.0963         calculate D2E/DX2 analytically  !
 ! R4    R(1,19)                 1.0933         calculate D2E/DX2 analytically  !
 ! R5    R(2,3)                  1.5341         calculate D2E/DX2 analytically  !
 ! R6    R(2,4)                  1.5392         calculate D2E/DX2 analytically  !
 ! R7    R(2,5)                  1.4539         calculate D2E/DX2 analytically  !
 ! R8    R(3,20)                 1.0955         calculate D2E/DX2 analytically  !
 ! R9    R(3,21)                 1.093          calculate D2E/DX2 analytically  !
 ! R10   R(3,22)                 1.096          calculate D2E/DX2 analytically  !
 ! R11   R(4,23)                 1.0964         calculate D2E/DX2 analytically  !
 ! R12   R(4,24)                 1.096          calculate D2E/DX2 analytically  !
 ! R13   R(4,25)                 1.0961         calculate D2E/DX2 analytically  !
 ! R14   R(5,6)                  1.3672         calculate D2E/DX2 analytically  !
 ! R15   R(6,7)                  1.2259         calculate D2E/DX2 analytically  !
 ! R16   R(6,8)                  1.3779         calculate D2E/DX2 analytically  !
 ! R17   R(8,9)                  1.2557         calculate D2E/DX2 analytically  !
 ! R18   R(9,10)                 1.3786         calculate D2E/DX2 analytically  !
 ! R19   R(10,11)                1.2257         calculate D2E/DX2 analytically  !
 ! R20   R(10,12)                1.3661         calculate D2E/DX2 analytically  !
 ! R21   R(12,13)                1.4514         calculate D2E/DX2 analytically  !
 ! R22   R(13,14)                1.5344         calculate D2E/DX2 analytically  !
 ! R23   R(13,15)                1.5388         calculate D2E/DX2 analytically  !
 ! R24   R(13,16)                1.5344         calculate D2E/DX2 analytically  !
 ! R25   R(14,26)                1.0961         calculate D2E/DX2 analytically  !
 ! R26   R(14,27)                1.0928         calculate D2E/DX2 analytically  !
 ! R27   R(14,28)                1.0954         calculate D2E/DX2 analytically  !
 ! R28   R(15,29)                1.0963         calculate D2E/DX2 analytically  !
 ! R29   R(15,30)                1.0961         calculate D2E/DX2 analytically  !
 ! R30   R(15,31)                1.0964         calculate D2E/DX2 analytically  !
 ! R31   R(16,32)                1.093          calculate D2E/DX2 analytically  !
 ! R32   R(16,33)                1.0962         calculate D2E/DX2 analytically  !
 ! R33   R(16,34)                1.0952         calculate D2E/DX2 analytically  !
 ! A1    A(2,1,17)             111.3649         calculate D2E/DX2 analytically  !
 ! A2    A(2,1,18)             110.5379         calculate D2E/DX2 analytically  !
 ! A3    A(2,1,19)             112.3758         calculate D2E/DX2 analytically  !
 ! A4    A(17,1,18)            108.4181         calculate D2E/DX2 analytically  !
 ! A5    A(17,1,19)            107.4541         calculate D2E/DX2 analytically  !
 ! A6    A(18,1,19)            106.4705         calculate D2E/DX2 analytically  !
 ! A7    A(1,2,3)              112.2507         calculate D2E/DX2 analytically  !
 ! A8    A(1,2,4)              107.8496         calculate D2E/DX2 analytically  !
 ! A9    A(1,2,5)              111.0056         calculate D2E/DX2 analytically  !
 ! A10   A(3,2,4)              107.9115         calculate D2E/DX2 analytically  !
 ! A11   A(3,2,5)              111.4159         calculate D2E/DX2 analytically  !
 ! A12   A(4,2,5)              106.0997         calculate D2E/DX2 analytically  !
 ! A13   A(2,3,20)             111.2864         calculate D2E/DX2 analytically  !
 ! A14   A(2,3,21)             112.4411         calculate D2E/DX2 analytically  !
 ! A15   A(2,3,22)             110.6398         calculate D2E/DX2 analytically  !
 ! A16   A(20,3,21)            107.3493         calculate D2E/DX2 analytically  !
 ! A17   A(20,3,22)            108.3737         calculate D2E/DX2 analytically  !
 ! A18   A(21,3,22)            106.528          calculate D2E/DX2 analytically  !
 ! A19   A(2,4,23)             111.4716         calculate D2E/DX2 analytically  !
 ! A20   A(2,4,24)             111.1397         calculate D2E/DX2 analytically  !
 ! A21   A(2,4,25)             111.0939         calculate D2E/DX2 analytically  !
 ! A22   A(23,4,24)            108.2186         calculate D2E/DX2 analytically  !
 ! A23   A(23,4,25)            108.1898         calculate D2E/DX2 analytically  !
 ! A24   A(24,4,25)            106.5331         calculate D2E/DX2 analytically  !
 ! A25   A(2,5,6)              120.1958         calculate D2E/DX2 analytically  !
 ! A26   A(5,6,7)              124.2122         calculate D2E/DX2 analytically  !
 ! A27   A(5,6,8)              109.8055         calculate D2E/DX2 analytically  !
 ! A28   A(7,6,8)              125.9808         calculate D2E/DX2 analytically  !
 ! A29   A(6,8,9)              112.0744         calculate D2E/DX2 analytically  !
 ! A30   A(8,9,10)             112.1045         calculate D2E/DX2 analytically  !
 ! A31   A(9,10,11)            125.8736         calculate D2E/DX2 analytically  !
 ! A32   A(9,10,12)            109.7617         calculate D2E/DX2 analytically  !
 ! A33   A(11,10,12)           124.3644         calculate D2E/DX2 analytically  !
 ! A34   A(10,12,13)           120.2366         calculate D2E/DX2 analytically  !
 ! A35   A(12,13,14)           111.4075         calculate D2E/DX2 analytically  !
 ! A36   A(12,13,15)           105.9906         calculate D2E/DX2 analytically  !
 ! A37   A(12,13,16)           111.0975         calculate D2E/DX2 analytically  !
 ! A38   A(14,13,15)           107.9172         calculate D2E/DX2 analytically  !
 ! A39   A(14,13,16)           112.2676         calculate D2E/DX2 analytically  !
 ! A40   A(15,13,16)           107.8421         calculate D2E/DX2 analytically  !
 ! A41   A(13,14,26)           110.625          calculate D2E/DX2 analytically  !
 ! A42   A(13,14,27)           112.4421         calculate D2E/DX2 analytically  !
 ! A43   A(13,14,28)           111.2883         calculate D2E/DX2 analytically  !
 ! A44   A(26,14,27)           106.5064         calculate D2E/DX2 analytically  !
 ! A45   A(26,14,28)           108.3572         calculate D2E/DX2 analytically  !
 ! A46   A(27,14,28)           107.3991         calculate D2E/DX2 analytically  !
 ! A47   A(13,15,29)           111.1375         calculate D2E/DX2 analytically  !
 ! A48   A(13,15,30)           111.5205         calculate D2E/DX2 analytically  !
 ! A49   A(13,15,31)           111.0707         calculate D2E/DX2 analytically  !
 ! A50   A(29,15,30)           108.2192         calculate D2E/DX2 analytically  !
 ! A51   A(29,15,31)           106.4895         calculate D2E/DX2 analytically  !
 ! A52   A(30,15,31)           108.2062         calculate D2E/DX2 analytically  !
 ! A53   A(13,16,32)           112.3711         calculate D2E/DX2 analytically  !
 ! A54   A(13,16,33)           110.4925         calculate D2E/DX2 analytically  !
 ! A55   A(13,16,34)           111.3602         calculate D2E/DX2 analytically  !
 ! A56   A(32,16,33)           106.5017         calculate D2E/DX2 analytically  !
 ! A57   A(32,16,34)           107.4529         calculate D2E/DX2 analytically  !
 ! A58   A(33,16,34)           108.4467         calculate D2E/DX2 analytically  !
 ! D1    D(17,1,2,3)           -59.3127         calculate D2E/DX2 analytically  !
 ! D2    D(17,1,2,4)            59.4276         calculate D2E/DX2 analytically  !
 ! D3    D(17,1,2,5)           175.2586         calculate D2E/DX2 analytically  !
 ! D4    D(18,1,2,3)          -179.8996         calculate D2E/DX2 analytically  !
 ! D5    D(18,1,2,4)           -61.1592         calculate D2E/DX2 analytically  !
 ! D6    D(18,1,2,5)            54.6718         calculate D2E/DX2 analytically  !
 ! D7    D(19,1,2,3)            61.3074         calculate D2E/DX2 analytically  !
 ! D8    D(19,1,2,4)          -179.9523         calculate D2E/DX2 analytically  !
 ! D9    D(19,1,2,5)           -64.1213         calculate D2E/DX2 analytically  !
 ! D10   D(1,2,3,20)            59.4905         calculate D2E/DX2 analytically  !
 ! D11   D(1,2,3,21)           -60.9845         calculate D2E/DX2 analytically  !
 ! D12   D(1,2,3,22)          -179.9622         calculate D2E/DX2 analytically  !
 ! D13   D(4,2,3,20)           -59.2133         calculate D2E/DX2 analytically  !
 ! D14   D(4,2,3,21)          -179.6883         calculate D2E/DX2 analytically  !
 ! D15   D(4,2,3,22)            61.3339         calculate D2E/DX2 analytically  !
 ! D16   D(5,2,3,20)          -175.3056         calculate D2E/DX2 analytically  !
 ! D17   D(5,2,3,21)            64.2194         calculate D2E/DX2 analytically  !
 ! D18   D(5,2,3,22)           -54.7583         calculate D2E/DX2 analytically  !
 ! D19   D(1,2,4,23)           -60.874          calculate D2E/DX2 analytically  !
 ! D20   D(1,2,4,24)           178.3096         calculate D2E/DX2 analytically  !
 ! D21   D(1,2,4,25)            59.8743         calculate D2E/DX2 analytically  !
 ! D22   D(3,2,4,23)            60.6027         calculate D2E/DX2 analytically  !
 ! D23   D(3,2,4,24)           -60.2137         calculate D2E/DX2 analytically  !
 ! D24   D(3,2,4,25)          -178.649          calculate D2E/DX2 analytically  !
 ! D25   D(5,2,4,23)          -179.8801         calculate D2E/DX2 analytically  !
 ! D26   D(5,2,4,24)            59.3036         calculate D2E/DX2 analytically  !
 ! D27   D(5,2,4,25)           -59.1318         calculate D2E/DX2 analytically  !
 ! D28   D(1,2,5,6)             59.294          calculate D2E/DX2 analytically  !
 ! D29   D(3,2,5,6)            -66.6008         calculate D2E/DX2 analytically  !
 ! D30   D(4,2,5,6)            176.2025         calculate D2E/DX2 analytically  !
 ! D31   D(2,5,6,7)              0.0002         calculate D2E/DX2 analytically  !
 ! D32   D(2,5,6,8)           -179.5803         calculate D2E/DX2 analytically  !
 ! D33   D(5,6,8,9)            149.647          calculate D2E/DX2 analytically  !
 ! D34   D(7,6,8,9)            -29.9243         calculate D2E/DX2 analytically  !
 ! D35   D(6,8,9,10)          -179.2377         calculate D2E/DX2 analytically  !
 ! D36   D(8,9,10,11)         -179.2939         calculate D2E/DX2 analytically  !
 ! D37   D(8,9,10,12)            0.9121         calculate D2E/DX2 analytically  !
 ! D38   D(9,10,12,13)         179.7979         calculate D2E/DX2 analytically  !
 ! D39   D(11,10,12,13)          0.0001         calculate D2E/DX2 analytically  !
 ! D40   D(10,12,13,14)         80.4701         calculate D2E/DX2 analytically  !
 ! D41   D(10,12,13,15)       -162.395          calculate D2E/DX2 analytically  !
 ! D42   D(10,12,13,16)        -45.5107         calculate D2E/DX2 analytically  !
 ! D43   D(12,13,14,26)         55.1197         calculate D2E/DX2 analytically  !
 ! D44   D(12,13,14,27)        -63.8214         calculate D2E/DX2 analytically  !
 ! D45   D(12,13,14,28)        175.6374         calculate D2E/DX2 analytically  !
 ! D46   D(15,13,14,26)        -60.8396         calculate D2E/DX2 analytically  !
 ! D47   D(15,13,14,27)       -179.7807         calculate D2E/DX2 analytically  !
 ! D48   D(15,13,14,28)         59.6781         calculate D2E/DX2 analytically  !
 ! D49   D(16,13,14,26)       -179.548          calculate D2E/DX2 analytically  !
 ! D50   D(16,13,14,27)         61.5109         calculate D2E/DX2 analytically  !
 ! D51   D(16,13,14,28)        -59.0303         calculate D2E/DX2 analytically  !
 ! D52   D(12,13,15,29)        -59.3891         calculate D2E/DX2 analytically  !
 ! D53   D(12,13,15,30)        179.7617         calculate D2E/DX2 analytically  !
 ! D54   D(12,13,15,31)         58.9752         calculate D2E/DX2 analytically  !
 ! D55   D(14,13,15,29)         60.063          calculate D2E/DX2 analytically  !
 ! D56   D(14,13,15,30)        -60.7862         calculate D2E/DX2 analytically  !
 ! D57   D(14,13,15,31)        178.4273         calculate D2E/DX2 analytically  !
 ! D58   D(16,13,15,29)       -178.4411         calculate D2E/DX2 analytically  !
 ! D59   D(16,13,15,30)         60.7097         calculate D2E/DX2 analytically  !
 ! D60   D(16,13,15,31)        -60.0768         calculate D2E/DX2 analytically  !
 ! D61   D(12,13,16,32)         64.5408         calculate D2E/DX2 analytically  !
 ! D62   D(12,13,16,33)        -54.258          calculate D2E/DX2 analytically  !
 ! D63   D(12,13,16,34)       -174.8472         calculate D2E/DX2 analytically  !
 ! D64   D(14,13,16,32)        -60.961          calculate D2E/DX2 analytically  !
 ! D65   D(14,13,16,33)       -179.7598         calculate D2E/DX2 analytically  !
 ! D66   D(14,13,16,34)         59.6509         calculate D2E/DX2 analytically  !
 ! D67   D(15,13,16,32)       -179.7136         calculate D2E/DX2 analytically  !
 ! D68   D(15,13,16,33)         61.4877         calculate D2E/DX2 analytically  !
 ! D69   D(15,13,16,34)        -59.1016         calculate D2E/DX2 analytically  !
 --------------------------------------------------------------------------------
 Trust Radius=3.00D-01 FncErr=1.00D-07 GrdErr=1.00D-06 EigMax=2.50D+02 EigMin=1.00D-04
 Number of steps in this run=    170 maximum allowed number of steps=    204.
 GradGradGradGradGradGradGradGradGradGradGradGradGradGradGradGradGradGrad

                          Input orientation:                          
 ---------------------------------------------------------------------
 Center     Atomic      Atomic             Coordinates (Angstroms)
 Number     Number       Type             X           Y           Z
 ---------------------------------------------------------------------
      1          6           0        4.018030   -1.692780   -0.155890
      2          6           0        3.014810   -0.646060    0.345240
      3          6           0        2.678200    0.396670   -0.728430
      4          6           0        1.713790   -1.379610    0.717060
      5          8           0        3.486000   -0.016020    1.567930
      6          6           0        4.677100    0.655100    1.580800
      7          8           0        5.411380    0.774750    0.606500
      8          7           0        4.917200    1.155900    2.841800
      9          7           0        6.144800    1.222600    3.097200
     10          6           0        6.385300    1.707800    4.365000
     11          8           0        7.488510    1.886980    4.868200
     12          8           0        5.200020    1.961330    4.995070
     13          6           0        5.189140    2.478170    6.351270
     14          6           0        5.436400    3.992340    6.375580
     15          6           0        3.771360    2.221290    6.891450
     16          6           0        6.177270    1.713300    7.241770
     17          1           0        3.631850   -2.229720   -1.028740
     18          1           0        4.236900   -2.423590    0.631410
     19          1           0        4.975330   -1.248560   -0.441280
     20          1           0        2.245830   -0.073970   -1.618190
     21          1           0        3.556690    0.960600   -1.052320
     22          1           0        1.961290    1.130580   -0.342900
     23          1           0        1.280460   -1.892450   -0.149690
     24          1           0        0.965940   -0.682450    1.111880
     25          1           0        1.891120   -2.124100    1.501710
     26          1           0        4.711990    4.512150    5.737970
     27          1           0        6.427580    4.259240    6.000810
     28          1           0        5.351570    4.392910    7.391620
     29          1           0        3.016480    2.723240    6.275000
     30          1           0        3.663410    2.576880    7.922620
     31          1           0        3.529340    1.152140    6.870680
     32          1           0        7.214360    1.849390    6.924670
     33          1           0        5.977550    0.636300    7.199570
     34          1           0        6.107570    2.038060    8.285430
 ---------------------------------------------------------------------
                    Distance matrix (angstroms):
                    1          2          3          4          5
     1  C    0.000000
     2  C    1.534016   0.000000
     3  C    2.547302   1.534066   0.000000
     4  C    2.483876   1.539155   2.484894   0.000000
     5  O    2.462953   1.453940   2.469033   2.392506   0.000000
     6  C    2.993828   2.445983   3.065115   3.696931   1.367219
     7  O    2.934513   2.798304   3.065168   4.280848   2.292761
     8  N    4.231977   3.619248   4.282066   4.604907   2.245991
     9  N    4.858517   4.567495   5.228281   5.663075   3.307879
    10  C    6.132402   5.749724   6.434647   6.683006   4.381906
    11  O    7.078163   6.847441   7.528770   7.826236   5.525692
    12  O    6.425108   5.761471   6.447185   6.451128   4.311968
    13  C    7.817382   7.110620   7.794845   7.661909   5.657032
    14  C    8.774535   7.983975   8.426356   8.644913   6.556257
    15  C    8.065097   7.186580   7.911182   7.437954   5.781596
    16  C    8.425501   7.945430   8.803471   8.488851   6.513520
    17  H    1.095129   2.185529   2.810260   2.729370   3.415324
    18  H    1.096279   2.176008   3.497510   2.731907   2.690226
    19  H    1.093253   2.196647   2.840078   3.463606   2.788222
    20  H    2.810616   2.184874   1.095499   2.727848   3.419465
    21  H    2.838459   2.197308   1.093008   3.464617   2.797230
    22  H    3.498073   2.177129   1.096001   2.736024   2.700130
    23  H    2.744849   2.192353   2.743845   1.096374   3.366840
    24  H    3.455902   2.187905   2.735521   1.095990   2.646283
    25  H    2.730828   2.187397   3.456487   1.096078   2.644244
    26  H    8.586054   7.653044   7.930183   8.301300   6.276672
    27  H    8.895922   8.227663   8.617422   9.051766   6.825040
    28  H    9.786667   8.972354   9.436740   9.544903   7.538858
    29  H    7.865156   6.820135   7.387516   7.030013   5.466306
    30  H    9.144292   8.259825   8.975780   8.448368   6.865616
    31  H    7.596386   6.788198   7.683856   6.897320   5.430068
    32  H    8.538022   8.194656   9.014271   8.900401   6.787863
    33  H    7.960347   7.576550   8.590478   8.016638   6.192634
    34  H    9.462623   8.933996   9.782863   9.394998   7.497778
                    6          7          8          9         10
     6  C    0.000000
     7  O    1.225864   0.000000
     8  N    1.377886   2.320788   0.000000
     9  N    2.185330   2.634779   1.255659   0.000000
    10  C    3.431894   3.993172   2.186332   1.378614   0.000000
    11  O    4.497616   4.869662   3.354461   2.320215   1.225719
    12  O    3.692820   4.551065   2.316307   2.245048   1.366073
    13  C    5.132558   5.996116   3.760150   3.616450   2.443264
    14  C    5.890978   6.605740   4.560983   4.349835   3.187784
    15  C    5.610376   6.654528   4.341390   4.585513   3.671417
    16  C    5.951208   6.744944   4.610662   4.173644   2.884287
    17  H    4.027956   3.855850   5.300531   5.937745   7.223433
    18  H    3.251684   3.407257   4.261617   4.797385   5.968559
    19  H    2.793147   2.319863   4.069818   4.471592   5.816219
    20  H    4.083645   3.961096   5.342313   6.254436   7.490559
    21  H    2.877841   2.495215   4.129564   4.897497   6.156842
    22  H    3.361893   3.595983   4.345154   5.417057   6.486090
    23  H    4.584950   4.974965   5.609575   6.626284   7.707374
    24  H    3.972611   4.705399   4.688775   5.864410   6.757629
    25  H    3.935974   4.647253   4.659549   5.642675   6.563501
    26  H    5.670989   6.386649   4.437829   4.455081   3.542512
    27  H    5.965777   6.501762   4.678815   4.210950   3.031090
    28  H    6.942029   7.689767   5.600694   5.396492   4.175984
    29  H    5.391695   6.454770   4.225654   4.704968   4.003519
    30  H    6.703692   7.734900   5.422721   5.592499   4.562965
    31  H    5.435737   6.551675   4.261226   4.591813   3.839752
    32  H    6.034978   6.657692   4.735789   4.023226   2.694309
    33  H    5.767330   6.618783   4.514918   4.147428   3.057640
    34  H    6.993632   7.813232   5.641657   5.252056   3.944107
                   11         12         13         14         15
    11  O    0.000000
    12  O    2.293210   0.000000
    13  C    2.799304   1.451386   0.000000
    14  C    3.303920   2.467121   1.534418   0.000000
    15  C    4.245292   2.388494   1.538792   2.484974   0.000000
    16  C    2.717232   2.462559   1.534411   2.548175   2.483784
    17  H    8.160573   7.504022   8.891228   9.838414   9.086273
    18  H    6.863262   6.260723   7.592813   8.694737   7.808952
    19  H    6.658698   6.317261   7.750675   8.610993   8.201118
    20  H    8.567629   7.523622   8.870670   9.519190   8.944799
    21  H    7.167283   6.346095   7.731821   8.240052   8.046049
    22  H    7.633994   6.298686   7.552942   8.087276   7.536698
    23  H    8.831942   7.528820   8.754575   9.720172   8.526728
    24  H    7.953353   6.324253   7.434793   8.339377   7.050214
    25  H    7.665037   6.312141   7.454935   8.586877   7.174051
    26  H    3.918811   2.701251   2.177357   1.096138   2.731912
    27  H    2.834783   2.792634   2.197445   1.092761   3.464388
    28  H    4.148957   3.417455   2.185164   1.095440   2.731880
    29  H    4.762087   2.643213   2.187768   2.734364   1.096270
    30  H    4.943363   3.363127   2.192427   2.745970   1.096088
    31  H    4.497215   2.638915   2.187025   3.456695   1.096397
    32  H    2.075004   2.791676   2.196740   2.838111   3.463187
    33  H    3.046717   2.687020   2.175704   3.497829   2.733936
    34  H    3.688805   3.414089   2.185906   2.813753   2.726652
                   16         17         18         19         20
    16  C    0.000000
    17  H    9.509359   0.000000
    18  H    8.035904   1.777574   0.000000
    19  H    8.321450   1.764291   1.754035   0.000000
    20  H    9.856442   2.629783   3.813892   3.196083   0.000000
    21  H    8.730746   3.191292   3.840622   2.695607   1.763207
    22  H    8.697199   3.814808   4.331259   3.841149   1.777152
    23  H    9.571513   2.532887   3.103670   3.761872   2.528893
    24  H    8.394828   3.752782   3.736522   4.336818   3.075979
    25  H    8.126808   3.073186   2.519881   3.748884   3.750017
    26  H    3.498860   9.612902   8.625958   8.452116   9.012632
    27  H    2.843316   9.966809   8.848150   8.599152   9.711483
    28  H    2.807943  10.849845   9.664761   9.660335  10.524985
    29  H    3.456185   8.846192   7.734946   8.044918   8.409562
    30  H    2.743869  10.160278   8.859759   9.290315  10.003179
    31  H    2.732058   8.593505   7.225993   7.830645   8.672465
    32  H    1.092991   9.629655   8.168767   8.298661  10.068071
    33  H    1.096174   9.023384   7.452081   7.933456   9.601204
    34  H    1.095241  10.540251   9.054819   9.393578  10.837684
                   21         22         23         24         25
    21  H    0.000000
    22  H    1.754272   0.000000
    23  H    3.759768   3.104766   0.000000
    24  H    3.754379   2.528672   1.776114   0.000000
    25  H    4.337346   3.741718   1.775863   1.756781   0.000000
    26  H    7.749598   7.481868   9.351943   7.900473   8.363194
    27  H    8.298776   8.365340  10.107660   8.840331   9.031523
    28  H    9.289912   9.053154  10.627843   9.188480   9.441249
    29  H    7.555683   6.888149   8.099074   6.516229   6.895465
    30  H    9.119940   8.561998   9.529719   8.017840   8.152810
    31  H    7.925362   7.382072   7.975750   6.565098   6.499489
    32  H    8.820480   8.996055   9.962886   8.901769   8.575197
    33  H    8.605778   8.559411   9.081236   7.994705   7.535538
    34  H    9.739686   9.615781  10.483375   9.235657   9.006713
                   26         27         28         29         30
    26  H    0.000000
    27  H    1.753938   0.000000
    28  H    1.777031   1.763524   0.000000
    29  H    2.522569   3.751010   3.080143   0.000000
    30  H    3.101207   3.763552   2.535707   1.776117   0.000000
    31  H    3.737828   4.337112   3.754263   1.756763   1.776073
    32  H    3.841927   2.698132   3.187087   4.336805   3.759573
    33  H    4.331297   3.842557   3.813247   3.738728   3.105462
    34  H    3.815536   3.202427   2.629782   3.750485   2.529007
                   31         32         33         34
    31  H    0.000000
    32  H    3.750793   0.000000
    33  H    2.523488   1.754097   0.000000
    34  H    3.071423   1.764157   1.777900   0.000000
 Stoichiometry    C10H18N2O4
 Framework group  C1[X(C10H18N2O4)]
 Deg. of freedom    96
 Full point group                 C1      NOp   1
 Largest Abelian subgroup         C1      NOp   1
 Largest concise Abelian subgroup C1      NOp   1
                         Standard orientation:                         
 ---------------------------------------------------------------------
 Center     Atomic      Atomic             Coordinates (Angstroms)
 Number     Number       Type             X           Y           Z
 ---------------------------------------------------------------------
      1          6           0        4.188623   -0.570779   -1.075121
      2          6           0        3.662865    0.483099   -0.092205
      3          6           0        4.239255    0.301148    1.317770
      4          6           0        4.098275    1.866847   -0.606655
      5          8           0        2.209133    0.499019   -0.073479
      6          6           0        1.513442   -0.627430    0.267714
      7          8           0        2.035277   -1.694175    0.571831
      8          7           0        0.159939   -0.376809    0.206172
      9          7           0       -0.496809   -1.403461   -0.096064
     10          6           0       -1.849579   -1.149553   -0.174292
     11          8           0       -2.720432   -1.970712   -0.438301
     12          8           0       -2.087428    0.170629    0.083979
     13          6           0       -3.443238    0.687907    0.057077
     14          6           0       -4.186620    0.378824    1.363328
     15          6           0       -3.311498    2.216390   -0.062370
     16          6           0       -4.202419    0.183570   -1.177307
     17          1           0        5.280014   -0.531221   -1.156405
     18          1           0        3.761111   -0.413818   -2.072330
     19          1           0        3.918529   -1.587814   -0.778656
     20          1           0        5.332433    0.372239    1.312760
     21          1           0        3.977546   -0.666321    1.753865
     22          1           0        3.846423    1.066011    1.997391
     23          1           0        5.190241    1.950531   -0.658046
     24          1           0        3.723576    2.665972    0.043109
     25          1           0        3.692769    2.061624   -1.606162
     26          1           0       -3.625579    0.757105    2.225682
     27          1           0       -4.318020   -0.693932    1.524743
     28          1           0       -5.182173    0.835756    1.372062
     29          1           0       -2.750450    2.632067    0.782761
     30          1           0       -4.292992    2.703246   -0.094787
     31          1           0       -2.760843    2.494943   -0.968611
     32          1           0       -4.342560   -0.900333   -1.165371
     33          1           0       -3.644670    0.415356   -2.092069
     34          1           0       -5.194288    0.642245   -1.250562
 ---------------------------------------------------------------------
 Rotational constants (GHZ):           1.1306919           0.2160258           0.1992540
 Standard basis: 6-31G(d) (6D, 7F)
 There are   276 symmetry adapted cartesian basis functions of A   symmetry.
 There are   276 symmetry adapted basis functions of A   symmetry.
   276 basis functions,   520 primitive gaussians,   276 cartesian basis functions
    62 alpha electrons       62 beta electrons
       nuclear repulsion energy      1159.6542603196 Hartrees.
 NAtoms=   34 NActive=   34 NUniq=   34 SFac= 1.00D+00 NAtFMM=   60 NAOKFM=F Big=F
 Integral buffers will be    131072 words long.
 Raffenetti 2 integral format.
 Two-electron integral symmetry is turned on.
 One-electron integrals computed using PRISM.
 NBasis=   276 RedAO= T EigKep=  2.20D-03  NBF=   276
 NBsUse=   276 1.00D-06 EigRej= -1.00D+00 NBFU=   276
 ExpMin= 1.61D-01 ExpMax= 5.48D+03 ExpMxC= 8.25D+02 IAcc=3 IRadAn=         5 AccDes= 0.00D+00
 Harris functional with IExCor=  402 and IRadAn=       5 diagonalized for initial guess.
 HarFok:  IExCor=  402 AccDes= 0.00D+00 IRadAn=         5 IDoV= 1 UseB2=F ITyADJ=14
 ICtDFT=  3500011 ScaDFX=  1.000000  1.000000  1.000000  1.000000
 FoFCou: FMM=F IPFlag=           0 FMFlag=      100000 FMFlg1=           0
         NFxFlg=           0 DoJE=T BraDBF=F KetDBF=T FulRan=T
         wScrn=  0.000000 ICntrl=       500 IOpCl=  0 I1Cent=   200000004 NGrid=           0
         NMat0=    1 NMatS0=      1 NMatT0=    0 NMatD0=    1 NMtDS0=    0 NMtDT0=    0
 Petite list used in FoFCou.
 Gradient too large for Newton-Raphson -- use scaled steepest descent instead.
     Minimum is close to point  2 DX=  1.25D-02 DF= -7.73D-04 DXR=  3.98D-02 DFR=  1.59D-03 which will be used.
 Gradient too large for Newton-Raphson -- use scaled steepest descent instead.
 Gradient too large for Newton-Raphson -- use scaled steepest descent instead.
 Gradient too large for Newton-Raphson -- use scaled steepest descent instead.
     Minimum is close to point  2 DX=  3.29D-02 DF= -1.79D-05 DXR=  7.61D-02 DFR=  5.82D-03 which will be used.
 Gradient too large for Newton-Raphson -- use scaled steepest descent instead.
 Gradient too large for Newton-Raphson -- use scaled steepest descent instead.
     Accept linear search using points  1 and  2.
 Gradient too large for Newton-Raphson -- use scaled steepest descent instead.
     Minimum is close to point  3 DX=  4.47D-02 DF= -5.04D-07 DXR=  4.73D-02 DFR=  2.24D-03 which will be used.
 LinEq1:  Iter=  0 NonCon=     1 RMS=6.45D-05 Max=3.63D-03 NDo=     1
 AX will form     1 AO Fock derivatives at one time.
 LinEq1:  Iter=  1 NonCon=     1 RMS=6.32D-05 Max=4.80D-03 NDo=     1
 LinEq1:  Iter=  2 NonCon=     1 RMS=8.74D-06 Max=3.62D-04 NDo=     1
 LinEq1:  Iter=  3 NonCon=     1 RMS=1.10D-05 Max=7.69D-04 NDo=     1
 LinEq1:  Iter=  4 NonCon=     1 RMS=5.05D-06 Max=2.82D-04 NDo=     1
 LinEq1:  Iter=  5 NonCon=     1 RMS=2.76D-06 Max=9.23D-05 NDo=     1
 LinEq1:  Iter=  6 NonCon=     1 RMS=1.53D-06 Max=3.70D-05 NDo=     1
 LinEq1:  Iter=  7 NonCon=     1 RMS=1.57D-06 Max=6.24D-05 NDo=     1
 LinEq1:  Iter=  8 NonCon=     1 RMS=8.12D-07 Max=1.83D-05 NDo=     1
 LinEq1:  Iter=  9 NonCon=     1 RMS=5.22D-07 Max=1.22D-05 NDo=     1
 LinEq1:  Iter= 10 NonCon=     1 RMS=2.93D-07 Max=1.05D-05 NDo=     1
 LinEq1:  Iter= 11 NonCon=     1 RMS=1.50D-07 Max=5.35D-06 NDo=     1
 LinEq1:  Iter= 12 NonCon=     1 RMS=7.37D-08 Max=3.27D-06 NDo=     1
 LinEq1:  Iter= 13 NonCon=     1 RMS=3.48D-08 Max=1.29D-06 NDo=     1
 LinEq1:  Iter= 14 NonCon=     1 RMS=1.87D-08 Max=4.25D-07 NDo=     1
 LinEq1:  Iter= 15 NonCon=     1 RMS=1.05D-08 Max=3.15D-07 NDo=     1
 LinEq1:  Iter= 16 NonCon=     0 RMS=3.90D-09 Max=8.11D-08 NDo=     1
 Linear equations converged to 1.629D-08 1.629D-07 after    16 iterations.
     Accept linear search using points  1 and  2.
     Minimum is close to point  2 DX= -2.03D-04 DF= -6.82D-13 DXR=  2.03D-04 DFR=  3.85D-08 which will be used.
 LinEq1:  Iter=  0 NonCon=     1 RMS=8.95D-08 Max=3.58D-06 NDo=     1
 LinEq1:  Iter=  1 NonCon=     1 RMS=6.60D-08 Max=2.32D-06 NDo=     1
 LinEq1:  Iter=  2 NonCon=     1 RMS=3.52D-08 Max=1.22D-06 NDo=     1
 LinEq1:  Iter=  3 NonCon=     1 RMS=3.00D-08 Max=1.09D-06 NDo=     1
 LinEq1:  Iter=  4 NonCon=     1 RMS=2.52D-08 Max=8.24D-07 NDo=     1
 LinEq1:  Iter=  5 NonCon=     1 RMS=1.56D-08 Max=3.86D-07 NDo=     1
 LinEq1:  Iter=  6 NonCon=     1 RMS=9.48D-09 Max=2.88D-07 NDo=     1
 LinEq1:  Iter=  7 NonCon=     1 RMS=8.28D-09 Max=2.25D-07 NDo=     1
 LinEq1:  Iter=  8 NonCon=     1 RMS=3.18D-09 Max=9.56D-08 NDo=     1
 LinEq1:  Iter=  9 NonCon=     1 RMS=1.73D-09 Max=6.49D-08 NDo=     1
 LinEq1:  Iter= 10 NonCon=     1 RMS=8.16D-10 Max=3.85D-08 NDo=     1
 LinEq1:  Iter= 11 NonCon=     1 RMS=6.96D-10 Max=3.19D-08 NDo=     1
 LinEq1:  Iter= 12 NonCon=     1 RMS=5.10D-10 Max=2.44D-08 NDo=     1
 LinEq1:  Iter= 13 NonCon=     1 RMS=5.48D-10 Max=2.74D-08 NDo=     1
 LinEq1:  Iter= 14 NonCon=     1 RMS=1.64D-10 Max=4.50D-09 NDo=     1
 LinEq1:  Iter= 15 NonCon=     1 RMS=5.85D-11 Max=1.58D-09 NDo=     1
 LinEq1:  Iter= 16 NonCon=     0 RMS=2.58D-11 Max=6.38D-10 NDo=     1
 Linear equations converged to 6.769D-11 6.769D-10 after    16 iterations.
 Restarting incremental Fock formation.
 SCF Done:  E(RB3LYP) =  -802.249003596     a.u. after   10 cycles
            Convg  =    0.1612D-09                    53 Fock formations.
              S**2 =  0.0000                  -V/T =  2.0091
 DoSCS=F DFT=T ScalE2(SS,OS)=  1.000000  1.000000
 Range of M.O.s used for correlation:     1   276
 NBasis=   276 NAE=    62 NBE=    62 NFC=     0 NFV=     0
 NROrb=    276 NOA=    62 NOB=    62 NVA=   214 NVB=   214
 Symmetrizing basis deriv contribution to polar:
 IMax=3 JMax=2 DiffMx= 0.00D+00
 G2DrvN: will do    35 centers at a time, making    1 passes.
 Calling FoFCou, ICntrl=  3107 FMM=F I1Cent=   0 AccDes= 0.00D+00.
 End of G2Drv F.D. properties file   721 does not exist.
 End of G2Drv F.D. properties file   722 does not exist.
 End of G2Drv F.D. properties file   788 does not exist.
          IDoAtm=1111111111111111111111111111111111
          Differentiating once with respect to electric field.
                with respect to dipole field.
          Differentiating once with respect to nuclear coordinates.
 Keep R1 ints in memory in canonical form, NReq=741275395.
          There are   105 degrees of freedom in the 1st order CPHF.  IDoFFX=6 NUNeed=     3.
    102 vectors produced by pass  0 Test12= 1.33D-14 1.00D-09 XBig12= 1.36D+02 5.28D+00.
 AX will form   102 AO Fock derivatives at one time.
    102 vectors produced by pass  1 Test12= 1.33D-14 1.00D-09 XBig12= 5.49D+01 2.05D+00.
    102 vectors produced by pass  2 Test12= 1.33D-14 1.00D-09 XBig12= 9.22D-01 1.16D-01.
    102 vectors produced by pass  3 Test12= 1.33D-14 1.00D-09 XBig12= 4.78D-03 7.74D-03.
    102 vectors produced by pass  4 Test12= 1.33D-14 1.00D-09 XBig12= 7.25D-06 2.45D-04.
     57 vectors produced by pass  5 Test12= 1.33D-14 1.00D-09 XBig12= 6.06D-09 5.58D-06.
     11 vectors produced by pass  6 Test12= 1.33D-14 1.00D-09 XBig12= 5.36D-12 1.93D-07.
      2 vectors produced by pass  7 Test12= 1.33D-14 1.00D-09 XBig12= 4.73D-15 7.97D-09.
 InvSVY:  IOpt=1 It=  1 EMax= 3.55D-15
 Solved reduced A of dimension   580 with   105 vectors.
 Isotropic polarizability for W=    0.000000      137.06 Bohr**3.
 End of Minotr F.D. properties file   721 does not exist.
 End of Minotr F.D. properties file   722 does not exist.
 End of Minotr F.D. properties file   788 does not exist.

 **********************************************************************

            Population analysis using the SCF density.

 **********************************************************************

 Orbital symmetries:
       Occupied  (A) (A) (A) (A) (A) (A) (A) (A) (A) (A) (A) (A)
                 (A) (A) (A) (A) (A) (A) (A) (A) (A) (A) (A) (A)
                 (A) (A) (A) (A) (A) (A) (A) (A) (A) (A) (A) (A)
                 (A) (A) (A) (A) (A) (A) (A) (A) (A) (A) (A) (A)
                 (A) (A) (A) (A) (A) (A) (A) (A) (A) (A) (A) (A)
                 (A) (A)
       Virtual   (A) (A) (A) (A) (A) (A) (A) (A) (A) (A) (A) (A)
                 (A) (A) (A) (A) (A) (A) (A) (A) (A) (A) (A) (A)
                 (A) (A) (A) (A) (A) (A) (A) (A) (A) (A) (A) (A)
                 (A) (A) (A) (A) (A) (A) (A) (A) (A) (A) (A) (A)
                 (A) (A) (A) (A) (A) (A) (A) (A) (A) (A) (A) (A)
                 (A) (A) (A) (A) (A) (A) (A) (A) (A) (A) (A) (A)
                 (A) (A) (A) (A) (A) (A) (A) (A) (A) (A) (A) (A)
                 (A) (A) (A) (A) (A) (A) (A) (A) (A) (A) (A) (A)
                 (A) (A) (A) (A) (A) (A) (A) (A) (A) (A) (A) (A)
                 (A) (A) (A) (A) (A) (A) (A) (A) (A) (A) (A) (A)
                 (A) (A) (A) (A) (A) (A) (A) (A) (A) (A) (A) (A)
                 (A) (A) (A) (A) (A) (A) (A) (A) (A) (A) (A) (A)
                 (A) (A) (A) (A) (A) (A) (A) (A) (A) (A) (A) (A)
                 (A) (A) (A) (A) (A) (A) (A) (A) (A) (A) (A) (A)
                 (A) (A) (A) (A) (A) (A) (A) (A) (A) (A) (A) (A)
                 (A) (A) (A) (A) (A) (A) (A) (A) (A) (A) (A) (A)
                 (A) (A) (A) (A) (A) (A) (A) (A) (A) (A) (A) (A)
                 (A) (A) (A) (A) (A) (A) (A) (A) (A) (A)
 The electronic state is 1-A.
 Alpha  occ. eigenvalues --  -19.20607 -19.19660 -19.16502 -19.15594 -14.42784
 Alpha  occ. eigenvalues --  -14.42630 -10.35559 -10.35390 -10.26813 -10.26270
 Alpha  occ. eigenvalues --  -10.18634 -10.18309 -10.18258 -10.18214 -10.17942
 Alpha  occ. eigenvalues --  -10.17251  -1.13989  -1.11413  -1.06163  -1.03124
 Alpha  occ. eigenvalues --   -1.02330  -0.84807  -0.81409  -0.79145  -0.69938
 Alpha  occ. eigenvalues --   -0.69738  -0.69687  -0.69260  -0.66696  -0.62161
 Alpha  occ. eigenvalues --   -0.57878  -0.52017  -0.51789  -0.51023  -0.50127
 Alpha  occ. eigenvalues --   -0.47935  -0.47850  -0.46712  -0.45563  -0.45396
 Alpha  occ. eigenvalues --   -0.44476  -0.43669  -0.42215  -0.41911  -0.40759
 Alpha  occ. eigenvalues --   -0.40056  -0.39618  -0.38900  -0.37430  -0.36990
 Alpha  occ. eigenvalues --   -0.36838  -0.36794  -0.36125  -0.35649  -0.34891
 Alpha  occ. eigenvalues --   -0.34058  -0.33848  -0.30862  -0.30549  -0.30079
 Alpha  occ. eigenvalues --   -0.29197  -0.26034
 Alpha virt. eigenvalues --   -0.14113   0.01252   0.05214   0.07992   0.08261
 Alpha virt. eigenvalues --    0.09878   0.10180   0.14236   0.14434   0.14707
 Alpha virt. eigenvalues --    0.15020   0.15596   0.15708   0.16513   0.16756
 Alpha virt. eigenvalues --    0.17797   0.18259   0.18863   0.18906   0.19020
 Alpha virt. eigenvalues --    0.19438   0.20203   0.20547   0.21960   0.22184
 Alpha virt. eigenvalues --    0.22338   0.22434   0.24678   0.24899   0.25056
 Alpha virt. eigenvalues --    0.25537   0.28500   0.32602   0.34987   0.40792
 Alpha virt. eigenvalues --    0.43994   0.47878   0.48515   0.48853   0.49335
 Alpha virt. eigenvalues --    0.50642   0.51039   0.51355   0.52795   0.55162
 Alpha virt. eigenvalues --    0.55360   0.56024   0.57361   0.58856   0.59266
 Alpha virt. eigenvalues --    0.59727   0.59844   0.61117   0.62797   0.64623
 Alpha virt. eigenvalues --    0.65642   0.68041   0.69248   0.70028   0.70714
 Alpha virt. eigenvalues --    0.70882   0.71080   0.71821   0.72924   0.74862
 Alpha virt. eigenvalues --    0.76477   0.77149   0.80426   0.81470   0.83452
 Alpha virt. eigenvalues --    0.84595   0.84819   0.85561   0.86702   0.86959
 Alpha virt. eigenvalues --    0.88449   0.89090   0.89298   0.89523   0.89857
 Alpha virt. eigenvalues --    0.90402   0.91914   0.92335   0.92409   0.92820
 Alpha virt. eigenvalues --    0.93331   0.93778   0.95461   0.95940   0.96951
 Alpha virt. eigenvalues --    0.97557   0.98318   1.00048   1.01468   1.02540
 Alpha virt. eigenvalues --    1.04743   1.08194   1.09986   1.10922   1.13695
 Alpha virt. eigenvalues --    1.14466   1.16535   1.18980   1.21339   1.22741
 Alpha virt. eigenvalues --    1.30761   1.30987   1.33400   1.34505   1.36559
 Alpha virt. eigenvalues --    1.39224   1.40948   1.41736   1.43229   1.45652
 Alpha virt. eigenvalues --    1.48224   1.48579   1.50577   1.51565   1.53436
 Alpha virt. eigenvalues --    1.57561   1.58851   1.63979   1.67440   1.69916
 Alpha virt. eigenvalues --    1.71543   1.71844   1.72917   1.74535   1.74958
 Alpha virt. eigenvalues --    1.77059   1.77372   1.78518   1.80648   1.80936
 Alpha virt. eigenvalues --    1.83436   1.84069   1.84110   1.84699   1.85249
 Alpha virt. eigenvalues --    1.86614   1.88813   1.89267   1.90932   1.92946
 Alpha virt. eigenvalues --    1.95441   1.96694   2.01743   2.03291   2.06611
 Alpha virt. eigenvalues --    2.08459   2.08878   2.08966   2.10720   2.12002
 Alpha virt. eigenvalues --    2.15405   2.16204   2.16998   2.17742   2.19787
 Alpha virt. eigenvalues --    2.19982   2.22784   2.23090   2.24770   2.25102
 Alpha virt. eigenvalues --    2.25934   2.26208   2.26666   2.27042   2.31570
 Alpha virt. eigenvalues --    2.32884   2.33363   2.37942   2.43348   2.47448
 Alpha virt. eigenvalues --    2.48975   2.52001   2.53868   2.55853   2.56902
 Alpha virt. eigenvalues --    2.60204   2.62401   2.65436   2.69816   2.70994
 Alpha virt. eigenvalues --    2.71446   2.74579   2.76509   2.77929   2.78812
 Alpha virt. eigenvalues --    2.84437   2.88340   2.94220   2.96418   3.08527
 Alpha virt. eigenvalues --    3.12602   3.20580   3.26641   3.79384   3.93594
 Alpha virt. eigenvalues --    4.05365   4.08503   4.16280   4.19975   4.25722
 Alpha virt. eigenvalues --    4.27534   4.29024   4.29863   4.30354   4.30925
 Alpha virt. eigenvalues --    4.38215   4.44531   4.66625   4.67069
          Condensed to atoms (all electrons):
               1          2          3          4          5          6
     1  C    5.202891   0.378608  -0.063932  -0.073116  -0.041593  -0.005281
     2  C    0.378608   4.581921   0.380053   0.403954   0.175088  -0.014484
     3  C   -0.063932   0.380053   5.190325  -0.072522  -0.041122  -0.005069
     4  C   -0.073116   0.403954  -0.072522   5.153721  -0.044651   0.003348
     5  O   -0.041593   0.175088  -0.041122  -0.044651   8.301616   0.297159
     6  C   -0.005281  -0.014484  -0.005069   0.003348   0.297159   4.238879
     7  O   -0.009285   0.002429  -0.005929   0.000196  -0.074634   0.506744
     8  N   -0.000548   0.003919  -0.000452  -0.000180  -0.088699   0.246194
     9  N    0.000037  -0.000080   0.000003   0.000001   0.001576  -0.049216
    10  C    0.000000   0.000001  -0.000000  -0.000000  -0.000136   0.004970
    11  O    0.000000  -0.000000   0.000000   0.000000   0.000000  -0.000107
    12  O    0.000000  -0.000000   0.000000   0.000000  -0.000001  -0.000020
    13  C    0.000000   0.000000  -0.000000  -0.000000  -0.000000  -0.000004
    14  C    0.000000  -0.000000   0.000000   0.000000   0.000000  -0.000000
    15  C   -0.000000   0.000000   0.000000   0.000000  -0.000000  -0.000000
    16  C   -0.000000   0.000000   0.000000   0.000000  -0.000000   0.000002
    17  H    0.361251  -0.024559  -0.002267  -0.002892   0.002621   0.000298
    18  H    0.361917  -0.028038   0.005556  -0.006519  -0.000106   0.000596
    19  H    0.366652  -0.024177  -0.004947   0.005079  -0.002941   0.000990
    20  H   -0.002092  -0.024005   0.362365  -0.003001   0.002643   0.000224
    21  H   -0.005211  -0.024122   0.366457   0.005155  -0.003189   0.002032
    22  H    0.005529  -0.027857   0.362245  -0.006372   0.000156   0.000441
    23  H   -0.002050  -0.026568  -0.002003   0.365836   0.002857  -0.000038
    24  H    0.006026  -0.025416  -0.005806   0.362217   0.000449  -0.000005
    25  H   -0.005914  -0.025311   0.005976   0.362612   0.000366  -0.000017
    26  H   -0.000000   0.000000   0.000000   0.000000  -0.000000   0.000000
    27  H   -0.000000   0.000000  -0.000000  -0.000000  -0.000000   0.000000
    28  H   -0.000000   0.000000  -0.000000  -0.000000  -0.000000   0.000000
    29  H   -0.000000  -0.000000   0.000000   0.000000  -0.000000   0.000002
    30  H    0.000000   0.000000  -0.000000  -0.000000   0.000000   0.000000
    31  H    0.000000  -0.000000   0.000000   0.000000   0.000000  -0.000001
    32  H   -0.000000   0.000000  -0.000000  -0.000000  -0.000000   0.000000
    33  H    0.000000  -0.000000   0.000000   0.000000   0.000000  -0.000000
    34  H    0.000000   0.000000  -0.000000  -0.000000   0.000000  -0.000000
               7          8          9         10         11         12
     1  C   -0.009285  -0.000548   0.000037   0.000000   0.000000   0.000000
     2  C    0.002429   0.003919  -0.000080   0.000001  -0.000000  -0.000000
     3  C   -0.005929  -0.000452   0.000003  -0.000000   0.000000   0.000000
     4  C    0.000196  -0.000180   0.000001  -0.000000   0.000000   0.000000
     5  O   -0.074634  -0.088699   0.001576  -0.000136   0.000000  -0.000001
     6  C    0.506744   0.246194  -0.049216   0.004970  -0.000107  -0.000020
     7  O    8.069717  -0.073315  -0.000881   0.000493   0.000002  -0.000011
     8  N   -0.073315   6.968285   0.204930  -0.055374   0.001803  -0.017493
     9  N   -0.000881   0.204930   7.001183   0.238419  -0.059995  -0.101437
    10  C    0.000493  -0.055374   0.238419   4.219314   0.522654   0.289584
    11  O    0.000002   0.001803  -0.059995   0.522654   8.060369  -0.075118
    12  O   -0.000011  -0.017493  -0.101437   0.289584  -0.075118   8.325086
    13  C    0.000000   0.000486   0.004117  -0.010089  -0.000286   0.177143
    14  C   -0.000000  -0.000025  -0.000303  -0.003525  -0.002289  -0.042545
    15  C    0.000000   0.000125  -0.000258   0.002764   0.000181  -0.046625
    16  C   -0.000000  -0.000015  -0.000690  -0.007853  -0.017727  -0.040267
    17  H    0.000261   0.000006  -0.000000   0.000000  -0.000000   0.000000
    18  H   -0.000010  -0.000001  -0.000010  -0.000000   0.000000   0.000000
    19  H    0.011350   0.000117  -0.000006  -0.000000  -0.000000   0.000000
    20  H    0.000148   0.000006  -0.000000   0.000000  -0.000000   0.000000
    21  H    0.009272   0.000068  -0.000002  -0.000000  -0.000000   0.000000
    22  H    0.000073  -0.000013   0.000001  -0.000000  -0.000000   0.000000
    23  H    0.000009   0.000002  -0.000000   0.000000  -0.000000   0.000000
    24  H    0.000004   0.000003   0.000000  -0.000000  -0.000000   0.000000
    25  H    0.000002   0.000001  -0.000000  -0.000000   0.000000  -0.000000
    26  H   -0.000000  -0.000013  -0.000007   0.000101   0.000053   0.000299
    27  H    0.000000  -0.000010  -0.000019   0.002578   0.003827  -0.003000
    28  H    0.000000   0.000000   0.000004   0.000093   0.000024   0.002770
    29  H    0.000000   0.000035   0.000000  -0.000069   0.000005   0.000279
    30  H   -0.000000  -0.000001   0.000003  -0.000031   0.000010   0.002961
    31  H   -0.000000   0.000021  -0.000014   0.000049  -0.000006   0.000391
    32  H    0.000000  -0.000013   0.000154  -0.001884   0.011646  -0.001796
    33  H   -0.000000  -0.000022  -0.000044   0.001320  -0.000412  -0.000474
    34  H    0.000000  -0.000001   0.000011   0.000596   0.000788   0.002463
              13         14         15         16         17         18
     1  C    0.000000   0.000000  -0.000000  -0.000000   0.361251   0.361917
     2  C    0.000000  -0.000000   0.000000   0.000000  -0.024559  -0.028038
     3  C   -0.000000   0.000000   0.000000   0.000000  -0.002267   0.005556
     4  C   -0.000000   0.000000   0.000000   0.000000  -0.002892  -0.006519
     5  O   -0.000000   0.000000  -0.000000  -0.000000   0.002621  -0.000106
     6  C   -0.000004  -0.000000  -0.000000   0.000002   0.000298   0.000596
     7  O    0.000000  -0.000000   0.000000  -0.000000   0.000261  -0.000010
     8  N    0.000486  -0.000025   0.000125  -0.000015   0.000006  -0.000001
     9  N    0.004117  -0.000303  -0.000258  -0.000690  -0.000000  -0.000010
    10  C   -0.010089  -0.003525   0.002764  -0.007853   0.000000  -0.000000
    11  O   -0.000286  -0.002289   0.000181  -0.017727  -0.000000   0.000000
    12  O    0.177143  -0.042545  -0.046625  -0.040267   0.000000   0.000000
    13  C    4.581440   0.379165   0.401813   0.379084  -0.000000  -0.000000
    14  C    0.379165   5.178388  -0.074510  -0.063435   0.000000   0.000000
    15  C    0.401813  -0.074510   5.158050  -0.072601  -0.000000   0.000000
    16  C    0.379084  -0.063435  -0.072601   5.223351   0.000000   0.000000
    17  H   -0.000000   0.000000  -0.000000   0.000000   0.565868  -0.026696
    18  H   -0.000000   0.000000   0.000000   0.000000  -0.026696   0.569292
    19  H   -0.000000   0.000000  -0.000000   0.000000  -0.025519  -0.029506
    20  H    0.000000  -0.000000   0.000000   0.000000   0.001508  -0.000032
    21  H   -0.000000   0.000000   0.000000   0.000000   0.000182  -0.000016
    22  H    0.000000   0.000000  -0.000000   0.000000  -0.000032  -0.000187
    23  H    0.000000   0.000000   0.000000   0.000000   0.001849   0.000179
    24  H    0.000000  -0.000000  -0.000000   0.000000  -0.000003  -0.000041
    25  H   -0.000000   0.000000  -0.000000  -0.000000   0.000085   0.004496
    26  H   -0.027171   0.363937  -0.006486   0.005496  -0.000000  -0.000000
    27  H   -0.024130   0.366620   0.005421  -0.005354  -0.000000  -0.000000
    28  H   -0.022696   0.362546  -0.002732  -0.002085  -0.000000  -0.000000
    29  H   -0.025386  -0.005934   0.362371   0.006040  -0.000000  -0.000000
    30  H   -0.026485  -0.001546   0.363763  -0.002251   0.000000   0.000000
    31  H   -0.025280   0.005954   0.363132  -0.005868   0.000000   0.000000
    32  H   -0.023669  -0.004228   0.005019   0.366479   0.000000  -0.000000
    33  H   -0.028289   0.005670  -0.006870   0.362245   0.000000   0.000000
    34  H   -0.025201  -0.002650  -0.003327   0.356116   0.000000   0.000000
              19         20         21         22         23         24
     1  C    0.366652  -0.002092  -0.005211   0.005529  -0.002050   0.006026
     2  C   -0.024177  -0.024005  -0.024122  -0.027857  -0.026568  -0.025416
     3  C   -0.004947   0.362365   0.366457   0.362245  -0.002003  -0.005806
     4  C    0.005079  -0.003001   0.005155  -0.006372   0.365836   0.362217
     5  O   -0.002941   0.002643  -0.003189   0.000156   0.002857   0.000449
     6  C    0.000990   0.000224   0.002032   0.000441  -0.000038  -0.000005
     7  O    0.011350   0.000148   0.009272   0.000073   0.000009   0.000004
     8  N    0.000117   0.000006   0.000068  -0.000013   0.000002   0.000003
     9  N   -0.000006  -0.000000  -0.000002   0.000001  -0.000000   0.000000
    10  C   -0.000000   0.000000  -0.000000  -0.000000   0.000000  -0.000000
    11  O   -0.000000  -0.000000  -0.000000  -0.000000  -0.000000  -0.000000
    12  O    0.000000   0.000000   0.000000   0.000000   0.000000   0.000000
    13  C   -0.000000   0.000000  -0.000000   0.000000   0.000000   0.000000
    14  C    0.000000  -0.000000   0.000000   0.000000   0.000000  -0.000000
    15  C   -0.000000   0.000000   0.000000  -0.000000   0.000000  -0.000000
    16  C    0.000000   0.000000   0.000000   0.000000   0.000000   0.000000
    17  H   -0.025519   0.001508   0.000182  -0.000032   0.001849  -0.000003
    18  H   -0.029506  -0.000032  -0.000016  -0.000187   0.000179  -0.000041
    19  H    0.509612   0.000195   0.002392  -0.000029   0.000007  -0.000180
    20  H    0.000195   0.562186  -0.026307  -0.026725   0.001771   0.000110
    21  H    0.002392  -0.026307   0.521536  -0.029905   0.000015  -0.000063
    22  H   -0.000029  -0.026725  -0.029905   0.566596   0.000158   0.004419
    23  H    0.000007   0.001771   0.000015   0.000158   0.559719  -0.027215
    24  H   -0.000180   0.000110  -0.000063   0.004419  -0.027215   0.559953
    25  H   -0.000058  -0.000006  -0.000181  -0.000046  -0.027105  -0.029690
    26  H    0.000000   0.000000   0.000000   0.000000   0.000000   0.000000
    27  H   -0.000000   0.000000  -0.000000  -0.000000   0.000000   0.000000
    28  H   -0.000000   0.000000  -0.000000  -0.000000   0.000000   0.000000
    29  H   -0.000000   0.000000   0.000000  -0.000000   0.000000   0.000000
    30  H    0.000000  -0.000000  -0.000000   0.000000   0.000000  -0.000000
    31  H   -0.000000  -0.000000  -0.000000  -0.000000  -0.000000  -0.000000
    32  H   -0.000000   0.000000   0.000000  -0.000000   0.000000  -0.000000
    33  H    0.000000  -0.000000   0.000000   0.000000   0.000000  -0.000000
    34  H    0.000000  -0.000000  -0.000000  -0.000000   0.000000  -0.000000
              25         26         27         28         29         30
     1  C   -0.005914  -0.000000  -0.000000  -0.000000  -0.000000   0.000000
     2  C   -0.025311   0.000000   0.000000   0.000000  -0.000000   0.000000
     3  C    0.005976   0.000000  -0.000000  -0.000000   0.000000  -0.000000
     4  C    0.362612   0.000000  -0.000000  -0.000000   0.000000  -0.000000
     5  O    0.000366  -0.000000  -0.000000  -0.000000  -0.000000   0.000000
     6  C   -0.000017   0.000000   0.000000   0.000000   0.000002   0.000000
     7  O    0.000002  -0.000000   0.000000   0.000000   0.000000  -0.000000
     8  N    0.000001  -0.000013  -0.000010   0.000000   0.000035  -0.000001
     9  N   -0.000000  -0.000007  -0.000019   0.000004   0.000000   0.000003
    10  C   -0.000000   0.000101   0.002578   0.000093  -0.000069  -0.000031
    11  O    0.000000   0.000053   0.003827   0.000024   0.000005   0.000010
    12  O   -0.000000   0.000299  -0.003000   0.002770   0.000279   0.002961
    13  C   -0.000000  -0.027171  -0.024130  -0.022696  -0.025386  -0.026485
    14  C    0.000000   0.363937   0.366620   0.362546  -0.005934  -0.001546
    15  C   -0.000000  -0.006486   0.005421  -0.002732   0.362371   0.363763
    16  C   -0.000000   0.005496  -0.005354  -0.002085   0.006040  -0.002251
    17  H    0.000085  -0.000000  -0.000000  -0.000000  -0.000000   0.000000
    18  H    0.004496  -0.000000  -0.000000  -0.000000  -0.000000   0.000000
    19  H   -0.000058   0.000000  -0.000000  -0.000000  -0.000000   0.000000
    20  H   -0.000006   0.000000   0.000000   0.000000   0.000000  -0.000000
    21  H   -0.000181   0.000000  -0.000000  -0.000000   0.000000  -0.000000
    22  H   -0.000046   0.000000  -0.000000  -0.000000  -0.000000   0.000000
    23  H   -0.027105   0.000000   0.000000   0.000000   0.000000   0.000000
    24  H   -0.029690   0.000000   0.000000   0.000000   0.000000  -0.000000
    25  H    0.560076  -0.000000  -0.000000  -0.000000  -0.000000  -0.000000
    26  H   -0.000000   0.564077  -0.030935  -0.027139   0.004460   0.000125
    27  H   -0.000000  -0.030935   0.543694  -0.027714  -0.000061   0.000008
    28  H   -0.000000  -0.027139  -0.027714   0.561026   0.000142   0.001538
    29  H   -0.000000   0.004460  -0.000061   0.000142   0.561553  -0.027885
    30  H   -0.000000   0.000125   0.000008   0.001538  -0.027885   0.565442
    31  H    0.000000  -0.000043  -0.000186  -0.000023  -0.029643  -0.027191
    32  H   -0.000000  -0.000061   0.002557   0.000135  -0.000183  -0.000003
    33  H    0.000000  -0.000187  -0.000029  -0.000048  -0.000043   0.000209
    34  H    0.000000  -0.000029   0.000144   0.001659   0.000019   0.002075
              31         32         33         34
     1  C    0.000000  -0.000000   0.000000   0.000000
     2  C   -0.000000   0.000000  -0.000000   0.000000
     3  C    0.000000  -0.000000   0.000000  -0.000000
     4  C    0.000000  -0.000000   0.000000  -0.000000
     5  O    0.000000  -0.000000   0.000000   0.000000
     6  C   -0.000001   0.000000  -0.000000  -0.000000
     7  O   -0.000000   0.000000  -0.000000   0.000000
     8  N    0.000021  -0.000013  -0.000022  -0.000001
     9  N   -0.000014   0.000154  -0.000044   0.000011
    10  C    0.000049  -0.001884   0.001320   0.000596
    11  O   -0.000006   0.011646  -0.000412   0.000788
    12  O    0.000391  -0.001796  -0.000474   0.002463
    13  C   -0.025280  -0.023669  -0.028289  -0.025201
    14  C    0.005954  -0.004228   0.005670  -0.002650
    15  C    0.363132   0.005019  -0.006870  -0.003327
    16  C   -0.005868   0.366479   0.362245   0.356116
    17  H    0.000000   0.000000   0.000000   0.000000
    18  H    0.000000  -0.000000   0.000000   0.000000
    19  H   -0.000000  -0.000000   0.000000   0.000000
    20  H   -0.000000   0.000000  -0.000000  -0.000000
    21  H   -0.000000   0.000000   0.000000  -0.000000
    22  H   -0.000000  -0.000000   0.000000  -0.000000
    23  H   -0.000000   0.000000   0.000000   0.000000
    24  H   -0.000000  -0.000000  -0.000000  -0.000000
    25  H    0.000000  -0.000000   0.000000   0.000000
    26  H   -0.000043  -0.000061  -0.000187  -0.000029
    27  H   -0.000186   0.002557  -0.000029   0.000144
    28  H   -0.000023   0.000135  -0.000048   0.001659
    29  H   -0.029643  -0.000183  -0.000043   0.000019
    30  H   -0.027191  -0.000003   0.000209   0.002075
    31  H    0.560641  -0.000042   0.004508   0.000057
    32  H   -0.000042   0.497527  -0.029070  -0.024631
    33  H    0.004508  -0.029070   0.573864  -0.026807
    34  H    0.000057  -0.024631  -0.026807   0.576672
 Mulliken charges:
               1
     1  C   -0.473889
     2  C    0.318644
     3  C   -0.468933
     4  C   -0.452865
     5  O   -0.487459
     6  C    0.772365
     7  O   -0.436634
     8  N   -0.189826
     9  N   -0.237479
    10  C    0.796027
    11  O   -0.445422
    12  O   -0.472187
    13  C    0.315437
    14  C   -0.461291
    15  C   -0.449228
    16  C   -0.480668
    17  H    0.148039
    18  H    0.149126
    19  H    0.190969
    20  H    0.151013
    21  H    0.181887
    22  H    0.151550
    23  H    0.152577
    24  H    0.155238
    25  H    0.154713
    26  H    0.153521
    27  H    0.166589
    28  H    0.152501
    29  H    0.154298
    30  H    0.149259
    31  H    0.153542
    32  H    0.202062
    33  H    0.144478
    34  H    0.142045
 Sum of Mulliken charges =   0.00000
 Mulliken charges with hydrogens summed into heavy atoms:
               1
     1  C    0.014246
     2  C    0.318644
     3  C    0.015516
     4  C    0.009663
     5  O   -0.487459
     6  C    0.772365
     7  O   -0.436634
     8  N   -0.189826
     9  N   -0.237479
    10  C    0.796027
    11  O   -0.445422
    12  O   -0.472187
    13  C    0.315437
    14  C    0.011320
    15  C    0.007870
    16  C    0.007917
 APT charges:
               1
     1  C   -0.051619
     2  C    0.684887
     3  C   -0.051667
     4  C    0.018142
     5  O   -0.963955
     6  C    1.260366
     7  O   -0.667051
     8  N   -0.212279
     9  N   -0.215363
    10  C    1.184339
    11  O   -0.613388
    12  O   -0.907671
    13  C    0.640576
    14  C   -0.023915
    15  C    0.013996
    16  C   -0.066693
    17  H   -0.006432
    18  H   -0.015636
    19  H    0.037268
    20  H   -0.005730
    21  H    0.026968
    22  H   -0.013912
    23  H   -0.008247
    24  H   -0.012873
    25  H   -0.012596
    26  H   -0.013395
    27  H    0.003598
    28  H   -0.006233
    29  H   -0.013059
    30  H   -0.009631
    31  H   -0.014039
    32  H    0.063579
    33  H   -0.018252
    34  H   -0.010082
 Sum of APT charges =   0.00000
 APT charges with hydrogens summed into heavy atoms:
               1
     1  C   -0.036418
     2  C    0.684887
     3  C   -0.044341
     4  C   -0.015575
     5  O   -0.963955
     6  C    1.260366
     7  O   -0.667051
     8  N   -0.212279
     9  N   -0.215363
    10  C    1.184339
    11  O   -0.613388
    12  O   -0.907671
    13  C    0.640576
    14  C   -0.039945
    15  C   -0.022733
    16  C   -0.031448
 Electronic spatial extent (au):  <R**2>=           5671.0822
 Charge=              0.0000 electrons
 Dipole moment (field-independent basis, Debye):
    X=              0.7531    Y=              3.5161    Z=             -0.0133  Tot=              3.5959
 Quadrupole moment (field-independent basis, Debye-Ang):
   XX=            -79.0814   YY=           -104.4536   ZZ=            -92.9646
   XY=             -2.1308   XZ=             -2.9243   YZ=             -0.0475
 Traceless Quadrupole moment (field-independent basis, Debye-Ang):
   XX=             13.0852   YY=            -12.2871   ZZ=             -0.7981
   XY=             -2.1308   XZ=             -2.9243   YZ=             -0.0475
 Octapole moment (field-independent basis, Debye-Ang**2):
  XXX=             25.9110  YYY=             13.7393  ZZZ=              0.8460  XYY=              1.5997
  XXY=             34.0582  XXZ=              3.8500  XZZ=             -0.5662  YZZ=             -3.4190
  YYZ=              1.7343  XYZ=              6.1126
 Hexadecapole moment (field-independent basis, Debye-Ang**3):
 XXXX=          -5650.2045 YYYY=           -976.3907 ZZZZ=           -467.3521 XXXY=            -35.0972
 XXXZ=            -26.1410 YYYX=             -6.4651 YYYZ=             -1.6868 ZZZX=              6.6735
 ZZZY=             -0.7725 XXYY=          -1200.3965 XXZZ=          -1095.4043 YYZZ=           -231.9599
 XXYZ=             -2.3820 YYXZ=            -12.2943 ZZXY=              6.6126
 N-N= 1.159654260320D+03 E-N=-4.189846364012D+03  KE= 7.950160028851D+02
  Exact polarizability: 181.419   7.275 125.166   3.266   1.356 104.585
 Approx polarizability: 221.877  20.454 202.651  10.377   3.391 147.873
 Calling FoFJK, ICntrl=    100127 FMM=F ISym2X=0 I1Cent= 0 IOpClX= 0 NMat=1 NMatS=1 NMatT=0.
 ***** Axes restored to original set *****
 -------------------------------------------------------------------
 Center     Atomic                   Forces (Hartrees/Bohr)
 Number     Number              X              Y              Z
 -------------------------------------------------------------------
      1        6           0.012396010    0.000012102    0.000849907
      2        6          -0.009245166   -0.015098947   -0.020488711
      3        6           0.005954871    0.011689261    0.000191158
      4        6          -0.001192928    0.003105414    0.013638314
      5        8           0.013498534    0.016489586    0.014322411
      6        6          -0.006412612   -0.034928095   -0.074255308
      7        8          -0.012144247    0.007087316    0.019934992
      8        7           0.006499234    0.010779472    0.026802198
      9        7           0.000149368   -0.022977993   -0.041415977
     10        6          -0.005357935    0.034257821    0.074374687
     11        8          -0.016585848   -0.007540062   -0.035301442
     12        8           0.014631193    0.003958989    0.005565036
     13        6          -0.002024892    0.002315535    0.026849584
     14        6           0.005348228    0.003689234   -0.010647386
     15        6          -0.006704853   -0.005381266   -0.010072846
     16        6           0.011179024   -0.002860385    0.002610842
     17        1          -0.003200622    0.000860900    0.001576260
     18        1          -0.002916692   -0.000943194    0.000176332
     19        1          -0.002316268    0.001650901   -0.000960189
     20        1          -0.000532104   -0.002418687    0.002691296
     21        1           0.002117076   -0.002322912    0.000605835
     22        1          -0.002099131   -0.001995212    0.000644599
     23        1           0.003430393    0.002192985   -0.000069113
     24        1           0.000099333    0.001189196   -0.001421976
     25        1           0.001376078   -0.000741886   -0.000987937
     26        1          -0.001876644   -0.000986997    0.001339426
     27        1           0.003051861   -0.002267753    0.000250251
     28        1          -0.001164008   -0.002920320   -0.000072695
     29        1           0.000851796    0.001503396    0.000010752
     30        1           0.003099993    0.000395189   -0.001837537
     31        1           0.001797647   -0.000074062    0.000882873
     32        1          -0.004279215    0.001759166    0.003423519
     33        1          -0.002591866    0.000045477    0.001250495
     34        1          -0.004835606    0.000475832   -0.000459649
 -------------------------------------------------------------------
 Cartesian Forces:  Max     0.074374687 RMS     0.014813917
 FormGI is forming the generalized inverse of G from B-inverse, IUseBI=4.

 GradGradGradGradGradGradGradGradGradGradGradGradGradGradGradGradGradGrad
 Berny optimization.
 Internal  Forces:  Max     0.061818640 RMS     0.010242754
 Search for a local minimum.
 Step number   1 out of a maximum of  170
 All quantities printed in internal units (Hartrees-Bohrs-Radians)
 Mixed Optimization -- RFO/linear search
 Second derivative matrix not updated -- analytic derivatives used.
 ITU=  0
     Eigenvalues ---   -0.02084  -0.00478  -0.00257   0.00151   0.00193
     Eigenvalues ---    0.00277   0.00288   0.00328   0.00336   0.00641
     Eigenvalues ---    0.00776   0.02611   0.04475   0.04527   0.04554
     Eigenvalues ---    0.04600   0.04605   0.04674   0.04696   0.04720
     Eigenvalues ---    0.04721   0.04743   0.04818   0.04875   0.04884
     Eigenvalues ---    0.04902   0.05758   0.05909   0.06763   0.07049
     Eigenvalues ---    0.07121   0.10291   0.11100   0.11340   0.12095
     Eigenvalues ---    0.12198   0.12236   0.12237   0.12261   0.12789
     Eigenvalues ---    0.12812   0.13318   0.13993   0.14195   0.14324
     Eigenvalues ---    0.14832   0.14865   0.15212   0.15224   0.15301
     Eigenvalues ---    0.15399   0.17758   0.17885   0.18811   0.19759
     Eigenvalues ---    0.20808   0.21426   0.23081   0.25490   0.26163
     Eigenvalues ---    0.26873   0.26929   0.27787   0.27901   0.29252
     Eigenvalues ---    0.29312   0.31339   0.31984   0.32985   0.33641
     Eigenvalues ---    0.33680   0.33820   0.33839   0.33846   0.33866
     Eigenvalues ---    0.33916   0.33938   0.34117   0.34235   0.34264
     Eigenvalues ---    0.34280   0.34580   0.34620   0.34931   0.34947
     Eigenvalues ---    0.35118   0.35148   0.35317   0.38116   0.49230
     Eigenvalues ---    0.54324   0.71377   0.78484   0.79053   0.83710
     Eigenvalues ---    0.94113
 RFO step:  Lambda=-3.86667681D-02 EMin=-2.08383632D-02
 Linear search not attempted -- first point.
 Maximum step size (   0.300) exceeded in Quadratic search.
    -- Step size scaled by   0.929
 Iteration  1 RMS(Cart)=  0.26611893 RMS(Int)=  0.05056813
 Iteration  2 RMS(Cart)=  0.27344111 RMS(Int)=  0.03009003
 Iteration  3 RMS(Cart)=  0.20150440 RMS(Int)=  0.00825003
 Iteration  4 RMS(Cart)=  0.02017060 RMS(Int)=  0.00060215
 Iteration  5 RMS(Cart)=  0.00017175 RMS(Int)=  0.00060019
 Iteration  6 RMS(Cart)=  0.00000009 RMS(Int)=  0.00060019
 Variable       Old X    -DE/DX   Delta X   Delta X   Delta X     New X
                                 (Linear)    (Quad)   (Total)
    R1        2.89887   0.00098   0.00000  -0.00189  -0.00189   2.89698
    R2        2.06949  -0.00055   0.00000  -0.00086  -0.00086   2.06864
    R3        2.07167   0.00017   0.00000  -0.00079  -0.00079   2.07088
    R4        2.06595  -0.00111   0.00000  -0.00217  -0.00217   2.06378
    R5        2.89897  -0.00072   0.00000  -0.00284  -0.00284   2.89613
    R6        2.90858  -0.00318   0.00000  -0.01337  -0.01337   2.89521
    R7        2.74755   0.00296   0.00000   0.02758   0.02758   2.77513
    R8        2.07019  -0.00094   0.00000  -0.00132  -0.00132   2.06888
    R9        2.06549   0.00032   0.00000  -0.00090  -0.00090   2.06458
   R10        2.07114   0.00026   0.00000  -0.00052  -0.00052   2.07062
   R11        2.07185  -0.00233   0.00000  -0.00383  -0.00383   2.06801
   R12        2.07112   0.00018   0.00000  -0.00136  -0.00136   2.06977
   R13        2.07129   0.00002   0.00000  -0.00156  -0.00156   2.06973
   R14        2.58367  -0.02194   0.00000  -0.06363  -0.06363   2.52004
   R15        2.31655  -0.02243   0.00000  -0.03382  -0.03382   2.28273
   R16        2.60383   0.04522   0.00000   0.10791   0.10791   2.71174
   R17        2.37285  -0.00160   0.00000  -0.01615  -0.01615   2.35670
   R18        2.60520   0.06182   0.00000   0.11710   0.11710   2.72231
   R19        2.31627  -0.03052   0.00000  -0.02862  -0.02862   2.28766
   R20        2.58150  -0.00556   0.00000  -0.06760  -0.06760   2.51390
   R21        2.74272   0.01109   0.00000   0.03084   0.03084   2.77356
   R22        2.89963  -0.00173   0.00000  -0.00584  -0.00584   2.89379
   R23        2.90790  -0.00239   0.00000  -0.01321  -0.01321   2.89469
   R24        2.89962   0.00391   0.00000   0.00222   0.00222   2.90184
   R25        2.07140  -0.00001   0.00000  -0.00052  -0.00052   2.07088
   R26        2.06502   0.00213   0.00000  -0.00119  -0.00119   2.06383
   R27        2.07008  -0.00105   0.00000  -0.00137  -0.00137   2.06871
   R28        2.07165   0.00010   0.00000  -0.00133  -0.00133   2.07032
   R29        2.07131  -0.00191   0.00000  -0.00316  -0.00316   2.06815
   R30        2.07189  -0.00034   0.00000  -0.00289  -0.00289   2.06900
   R31        2.06545  -0.00483   0.00000  -0.00217  -0.00217   2.06328
   R32        2.07147   0.00038   0.00000   0.00062   0.00062   2.07209
   R33        2.06971   0.00001   0.00000  -0.00142  -0.00142   2.06828
    A1        1.94368  -0.00447   0.00000  -0.02710  -0.02730   1.91638
    A2        1.92925  -0.00081   0.00000  -0.00036  -0.00043   1.92882
    A3        1.96133  -0.00121   0.00000  -0.01129  -0.01139   1.94994
    A4        1.89225   0.00124   0.00000   0.00056   0.00039   1.89264
    A5        1.87543   0.00278   0.00000   0.01636   0.01614   1.89157
    A6        1.85826   0.00297   0.00000   0.02475   0.02478   1.88304
    A7        1.95914  -0.00271   0.00000  -0.00511  -0.00615   1.95300
    A8        1.88233   0.00245   0.00000   0.03170   0.03138   1.91371
    A9        1.93741   0.00307   0.00000  -0.00084  -0.00061   1.93680
   A10        1.88341   0.00518   0.00000   0.03266   0.03224   1.91565
   A11        1.94457  -0.00138   0.00000  -0.01761  -0.01734   1.92724
   A12        1.85179  -0.00662   0.00000  -0.03977  -0.03945   1.81234
   A13        1.94231  -0.00430   0.00000  -0.02492  -0.02512   1.91720
   A14        1.96247  -0.00237   0.00000  -0.01361  -0.01371   1.94876
   A15        1.93103  -0.00068   0.00000  -0.00183  -0.00189   1.92914
   A16        1.87360   0.00321   0.00000   0.01647   0.01624   1.88984
   A17        1.89148   0.00143   0.00000   0.00189   0.00173   1.89321
   A18        1.85926   0.00325   0.00000   0.02497   0.02501   1.88427
   A19        1.94555  -0.00479   0.00000  -0.02127  -0.02139   1.92416
   A20        1.93975  -0.00031   0.00000  -0.00442  -0.00448   1.93528
   A21        1.93895  -0.00031   0.00000  -0.00389  -0.00394   1.93501
   A22        1.88877   0.00198   0.00000   0.00660   0.00648   1.89525
   A23        1.88827   0.00198   0.00000   0.00674   0.00663   1.89490
   A24        1.85935   0.00186   0.00000   0.01852   0.01853   1.87789
   A25        2.09781   0.00638   0.00000   0.01217   0.01217   2.10999
   A26        2.16791   0.01697   0.00000   0.06843   0.06780   2.23571
   A27        1.91647  -0.01800   0.00000  -0.04247  -0.04306   1.87341
   A28        2.19878   0.00109   0.00000  -0.02554  -0.02609   2.17269
   A29        1.95607   0.00278   0.00000  -0.00837  -0.00837   1.94770
   A30        1.95659   0.03885   0.00000   0.00450   0.00450   1.96109
   A31        2.19691  -0.04653   0.00000  -0.10823  -0.11004   2.08686
   A32        1.91570   0.03550   0.00000   0.06780   0.06582   1.98152
   A33        2.17057   0.01104   0.00000   0.04082   0.03860   2.20917
   A34        2.09852   0.03647   0.00000  -0.03800  -0.03800   2.06052
   A35        1.94443  -0.00639   0.00000  -0.00376  -0.00336   1.94107
   A36        1.84989  -0.00844   0.00000  -0.03452  -0.03422   1.81567
   A37        1.93902   0.01224   0.00000  -0.03223  -0.03199   1.90702
   A38        1.88351   0.00922   0.00000   0.03445   0.03384   1.91735
   A39        1.95944  -0.00368   0.00000   0.01221   0.01111   1.97055
   A40        1.88220  -0.00321   0.00000   0.02447   0.02342   1.90562
   A41        1.93077  -0.00041   0.00000  -0.00388  -0.00398   1.92680
   A42        1.96249  -0.00261   0.00000  -0.01137  -0.01145   1.95103
   A43        1.94235  -0.00370   0.00000  -0.02507  -0.02529   1.91706
   A44        1.85889   0.00303   0.00000   0.02743   0.02746   1.88635
   A45        1.89119   0.00138   0.00000   0.00019  -0.00004   1.89115
   A46        1.87447   0.00281   0.00000   0.01569   0.01550   1.88997
   A47        1.93971  -0.00036   0.00000  -0.00331  -0.00337   1.93634
   A48        1.94640  -0.00434   0.00000  -0.02297  -0.02309   1.92331
   A49        1.93855  -0.00064   0.00000  -0.00351  -0.00356   1.93499
   A50        1.88878   0.00187   0.00000   0.00555   0.00542   1.89421
   A51        1.85859   0.00193   0.00000   0.01776   0.01777   1.87636
   A52        1.88855   0.00194   0.00000   0.00882   0.00872   1.89727
   A53        1.96125   0.00247   0.00000  -0.01102  -0.01105   1.95020
   A54        1.92846  -0.00077   0.00000  -0.01329  -0.01341   1.91505
   A55        1.94360  -0.00634   0.00000  -0.01544  -0.01561   1.92799
[...]
     8    C    1  py     Ryd( 3p)     0.00249
     9    C    1  pz     Val( 2p)     1.10085
    10    C    1  pz     Ryd( 3p)     0.00168
    11    C    1  dxy    Ryd( 3d)     0.00042
    12    C    1  dxz    Ryd( 3d)     0.00035
    13    C    1  dyz    Ryd( 3d)     0.00072
    14    C    1  dx2y2  Ryd( 3d)     0.00098
    15    C    1  dz2    Ryd( 3d)     0.00081
 
    16    C    2  S      Cor( 1S)     1.99900
    17    C    2  S      Val( 2S)     0.91216
    18    C    2  S      Ryd( 3S)     0.00081
    19    C    2  S      Ryd( 4S)     0.00004
    20    C    2  px     Val( 2p)     0.67498
    21    C    2  px     Ryd( 3p)     0.00339
    22    C    2  py     Val( 2p)     1.06156
    23    C    2  py     Ryd( 3p)     0.00554
    24    C    2  pz     Val( 2p)     1.05386
    25    C    2  pz     Ryd( 3p)     0.00290
    26    C    2  dxy    Ryd( 3d)     0.00096
    27    C    2  dxz    Ryd( 3d)     0.00110
    28    C    2  dyz    Ryd( 3d)     0.00090
    29    C    2  dx2y2  Ryd( 3d)     0.00185
    30    C    2  dz2    Ryd( 3d)     0.00122
 
    31    C    3  S      Cor( 1S)     1.99932
    32    C    3  S      Val( 2S)     1.09990
    33    C    3  S      Ryd( 3S)     0.00051
    34    C    3  S      Ryd( 4S)     0.00002
    35    C    3  px     Val( 2p)     1.22298
    36    C    3  px     Ryd( 3p)     0.00130
    37    C    3  py     Val( 2p)     1.20877
    38    C    3  py     Ryd( 3p)     0.00230
    39    C    3  pz     Val( 2p)     1.16412
    40    C    3  pz     Ryd( 3p)     0.00183
    41    C    3  dxy    Ryd( 3d)     0.00036
    42    C    3  dxz    Ryd( 3d)     0.00027
    43    C    3  dyz    Ryd( 3d)     0.00061
    44    C    3  dx2y2  Ryd( 3d)     0.00103
    45    C    3  dz2    Ryd( 3d)     0.00101
 
    46    C    4  S      Cor( 1S)     1.99932
    47    C    4  S      Val( 2S)     1.09915
    48    C    4  S      Ryd( 3S)     0.00060
    49    C    4  S      Ryd( 4S)     0.00002
    50    C    4  px     Val( 2p)     1.22534
    51    C    4  px     Ryd( 3p)     0.00215
    52    C    4  py     Val( 2p)     1.09607
    53    C    4  py     Ryd( 3p)     0.00168
    54    C    4  pz     Val( 2p)     1.25672
    55    C    4  pz     Ryd( 3p)     0.00252
    56    C    4  dxy    Ryd( 3d)     0.00035
    57    C    4  dxz    Ryd( 3d)     0.00034
    58    C    4  dyz    Ryd( 3d)     0.00085
    59    C    4  dx2y2  Ryd( 3d)     0.00091
    60    C    4  dz2    Ryd( 3d)     0.00083
 
    61    O    5  S      Cor( 1S)     1.99970
    62    O    5  S      Val( 2S)     1.61380
    63    O    5  S      Ryd( 3S)     0.00231
    64    O    5  S      Ryd( 4S)     0.00015
    65    O    5  px     Val( 2p)     1.44324
    66    O    5  px     Ryd( 3p)     0.00127
    67    O    5  py     Val( 2p)     1.70068
    68    O    5  py     Ryd( 3p)     0.00185
    69    O    5  pz     Val( 2p)     1.77040
    70    O    5  pz     Ryd( 3p)     0.00196
    71    O    5  dxy    Ryd( 3d)     0.00143
    72    O    5  dxz    Ryd( 3d)     0.00033
    73    O    5  dyz    Ryd( 3d)     0.00180
    74    O    5  dx2y2  Ryd( 3d)     0.00128
    75    O    5  dz2    Ryd( 3d)     0.00076
 
    76    C    6  S      Cor( 1S)     1.99951
    77    C    6  S      Val( 2S)     0.72883
    78    C    6  S      Ryd( 3S)     0.00405
    79    C    6  S      Ryd( 4S)     0.00044
    80    C    6  px     Val( 2p)     0.79344
    81    C    6  px     Ryd( 3p)     0.00647
    82    C    6  py     Val( 2p)     0.71463
    83    C    6  py     Ryd( 3p)     0.02397
    84    C    6  pz     Val( 2p)     0.78777
    85    C    6  pz     Ryd( 3p)     0.00463
    86    C    6  dxy    Ryd( 3d)     0.00411
    87    C    6  dxz    Ryd( 3d)     0.00171
    88    C    6  dyz    Ryd( 3d)     0.00284
    89    C    6  dx2y2  Ryd( 3d)     0.00301
    90    C    6  dz2    Ryd( 3d)     0.00066
 
    91    O    7  S      Cor( 1S)     1.99977
    92    O    7  S      Val( 2S)     1.70730
    93    O    7  S      Ryd( 3S)     0.00082
    94    O    7  S      Ryd( 4S)     0.00013
    95    O    7  px     Val( 2p)     1.75606
    96    O    7  px     Ryd( 3p)     0.00140
    97    O    7  py     Val( 2p)     1.59435
    98    O    7  py     Ryd( 3p)     0.00042
    99    O    7  pz     Val( 2p)     1.47658
   100    O    7  pz     Ryd( 3p)     0.00071
   101    O    7  dxy    Ryd( 3d)     0.00497
   102    O    7  dxz    Ryd( 3d)     0.00034
   103    O    7  dyz    Ryd( 3d)     0.00501
   104    O    7  dx2y2  Ryd( 3d)     0.00486
   105    O    7  dz2    Ryd( 3d)     0.00168
 
   106    N    8  S      Cor( 1S)     1.99939
   107    N    8  S      Val( 2S)     1.39540
   108    N    8  S      Ryd( 3S)     0.00610
   109    N    8  S      Ryd( 4S)     0.00003
   110    N    8  px     Val( 2p)     1.15641
   111    N    8  px     Ryd( 3p)     0.00384
   112    N    8  py     Val( 2p)     1.37621
   113    N    8  py     Ryd( 3p)     0.00457
   114    N    8  pz     Val( 2p)     1.26763
   115    N    8  pz     Ryd( 3p)     0.00430
   116    N    8  dxy    Ryd( 3d)     0.00090
   117    N    8  dxz    Ryd( 3d)     0.00158
   118    N    8  dyz    Ryd( 3d)     0.00179
   119    N    8  dx2y2  Ryd( 3d)     0.00110
   120    N    8  dz2    Ryd( 3d)     0.00226
 
   121    N    9  S      Cor( 1S)     1.99939
   122    N    9  S      Val( 2S)     1.39540
   123    N    9  S      Ryd( 3S)     0.00610
   124    N    9  S      Ryd( 4S)     0.00003
   125    N    9  px     Val( 2p)     1.15640
   126    N    9  px     Ryd( 3p)     0.00384
   127    N    9  py     Val( 2p)     1.37622
   128    N    9  py     Ryd( 3p)     0.00457
   129    N    9  pz     Val( 2p)     1.26763
   130    N    9  pz     Ryd( 3p)     0.00430
   131    N    9  dxy    Ryd( 3d)     0.00090
   132    N    9  dxz    Ryd( 3d)     0.00158
   133    N    9  dyz    Ryd( 3d)     0.00179
   134    N    9  dx2y2  Ryd( 3d)     0.00110
   135    N    9  dz2    Ryd( 3d)     0.00226
 
   136    C   10  S      Cor( 1S)     1.99951
   137    C   10  S      Val( 2S)     0.72883
   138    C   10  S      Ryd( 3S)     0.00405
   139    C   10  S      Ryd( 4S)     0.00044
   140    C   10  px     Val( 2p)     0.79344
   141    C   10  px     Ryd( 3p)     0.00647
   142    C   10  py     Val( 2p)     0.71463
   143    C   10  py     Ryd( 3p)     0.02397
   144    C   10  pz     Val( 2p)     0.78776
   145    C   10  pz     Ryd( 3p)     0.00463
   146    C   10  dxy    Ryd( 3d)     0.00411
   147    C   10  dxz    Ryd( 3d)     0.00172
   148    C   10  dyz    Ryd( 3d)     0.00284
   149    C   10  dx2y2  Ryd( 3d)     0.00301
   150    C   10  dz2    Ryd( 3d)     0.00066
 
   151    O   11  S      Cor( 1S)     1.99977
   152    O   11  S      Val( 2S)     1.70730
   153    O   11  S      Ryd( 3S)     0.00082
   154    O   11  S      Ryd( 4S)     0.00013
   155    O   11  px     Val( 2p)     1.75605
   156    O   11  px     Ryd( 3p)     0.00140
   157    O   11  py     Val( 2p)     1.59435
   158    O   11  py     Ryd( 3p)     0.00042
   159    O   11  pz     Val( 2p)     1.47658
   160    O   11  pz     Ryd( 3p)     0.00071
   161    O   11  dxy    Ryd( 3d)     0.00496
   162    O   11  dxz    Ryd( 3d)     0.00034
   163    O   11  dyz    Ryd( 3d)     0.00501
   164    O   11  dx2y2  Ryd( 3d)     0.00486
   165    O   11  dz2    Ryd( 3d)     0.00168
 
   166    O   12  S      Cor( 1S)     1.99970
   167    O   12  S      Val( 2S)     1.61380
   168    O   12  S      Ryd( 3S)     0.00231
   169    O   12  S      Ryd( 4S)     0.00015
   170    O   12  px     Val( 2p)     1.44325
   171    O   12  px     Ryd( 3p)     0.00127
   172    O   12  py     Val( 2p)     1.70067
   173    O   12  py     Ryd( 3p)     0.00185
   174    O   12  pz     Val( 2p)     1.77040
   175    O   12  pz     Ryd( 3p)     0.00196
   176    O   12  dxy    Ryd( 3d)     0.00143
   177    O   12  dxz    Ryd( 3d)     0.00033
   178    O   12  dyz    Ryd( 3d)     0.00180
   179    O   12  dx2y2  Ryd( 3d)     0.00128
   180    O   12  dz2    Ryd( 3d)     0.00076
 
   181    C   13  S      Cor( 1S)     1.99900
   182    C   13  S      Val( 2S)     0.91216
   183    C   13  S      Ryd( 3S)     0.00081
   184    C   13  S      Ryd( 4S)     0.00004
   185    C   13  px     Val( 2p)     0.67496
   186    C   13  px     Ryd( 3p)     0.00339
   187    C   13  py     Val( 2p)     1.06156
   188    C   13  py     Ryd( 3p)     0.00554
   189    C   13  pz     Val( 2p)     1.05387
   190    C   13  pz     Ryd( 3p)     0.00290
   191    C   13  dxy    Ryd( 3d)     0.00096
   192    C   13  dxz    Ryd( 3d)     0.00110
   193    C   13  dyz    Ryd( 3d)     0.00090
   194    C   13  dx2y2  Ryd( 3d)     0.00185
   195    C   13  dz2    Ryd( 3d)     0.00122
 
   196    C   14  S      Cor( 1S)     1.99932
   197    C   14  S      Val( 2S)     1.09990
   198    C   14  S      Ryd( 3S)     0.00051
   199    C   14  S      Ryd( 4S)     0.00002
   200    C   14  px     Val( 2p)     1.22300
   201    C   14  px     Ryd( 3p)     0.00130
   202    C   14  py     Val( 2p)     1.20874
   203    C   14  py     Ryd( 3p)     0.00230
   204    C   14  pz     Val( 2p)     1.16413
   205    C   14  pz     Ryd( 3p)     0.00183
   206    C   14  dxy    Ryd( 3d)     0.00036
   207    C   14  dxz    Ryd( 3d)     0.00027
   208    C   14  dyz    Ryd( 3d)     0.00061
   209    C   14  dx2y2  Ryd( 3d)     0.00103
   210    C   14  dz2    Ryd( 3d)     0.00101
 
   211    C   15  S      Cor( 1S)     1.99932
   212    C   15  S      Val( 2S)     1.09915
   213    C   15  S      Ryd( 3S)     0.00060
   214    C   15  S      Ryd( 4S)     0.00002
   215    C   15  px     Val( 2p)     1.22535
   216    C   15  px     Ryd( 3p)     0.00215
   217    C   15  py     Val( 2p)     1.09607
   218    C   15  py     Ryd( 3p)     0.00168
   219    C   15  pz     Val( 2p)     1.25671
   220    C   15  pz     Ryd( 3p)     0.00252
   221    C   15  dxy    Ryd( 3d)     0.00035
   222    C   15  dxz    Ryd( 3d)     0.00034
   223    C   15  dyz    Ryd( 3d)     0.00085
   224    C   15  dx2y2  Ryd( 3d)     0.00091
   225    C   15  dz2    Ryd( 3d)     0.00083
 
   226    C   16  S      Cor( 1S)     1.99932
   227    C   16  S      Val( 2S)     1.09990
   228    C   16  S      Ryd( 3S)     0.00050
   229    C   16  S      Ryd( 4S)     0.00002
   230    C   16  px     Val( 2p)     1.24238
   231    C   16  px     Ryd( 3p)     0.00113
   232    C   16  py     Val( 2p)     1.25183
   233    C   16  py     Ryd( 3p)     0.00249
   234    C   16  pz     Val( 2p)     1.10084
   235    C   16  pz     Ryd( 3p)     0.00168
   236    C   16  dxy    Ryd( 3d)     0.00042
   237    C   16  dxz    Ryd( 3d)     0.00035
   238    C   16  dyz    Ryd( 3d)     0.00072
   239    C   16  dx2y2  Ryd( 3d)     0.00098
   240    C   16  dz2    Ryd( 3d)     0.00081
 
   241    H   17  S      Val( 1S)     0.75946
   242    H   17  S      Ryd( 2S)     0.00077
 
   243    H   18  S      Val( 1S)     0.75725
   244    H   18  S      Ryd( 2S)     0.00112
 
   245    H   19  S      Val( 1S)     0.74130
   246    H   19  S      Ryd( 2S)     0.00125
 
   247    H   20  S      Val( 1S)     0.75771
   248    H   20  S      Ryd( 2S)     0.00074
 
   249    H   21  S      Val( 1S)     0.74141
   250    H   21  S      Ryd( 2S)     0.00138
 
   251    H   22  S      Val( 1S)     0.75805
   252    H   22  S      Ryd( 2S)     0.00112
 
   253    H   23  S      Val( 1S)     0.76041
   254    H   23  S      Ryd( 2S)     0.00068
 
   255    H   24  S      Val( 1S)     0.75432
   256    H   24  S      Ryd( 2S)     0.00105
 
   257    H   25  S      Val( 1S)     0.75320
   258    H   25  S      Ryd( 2S)     0.00104
 
   259    H   26  S      Val( 1S)     0.75805
   260    H   26  S      Ryd( 2S)     0.00112
 
   261    H   27  S      Val( 1S)     0.74141
   262    H   27  S      Ryd( 2S)     0.00138
 
   263    H   28  S      Val( 1S)     0.75771
   264    H   28  S      Ryd( 2S)     0.00074
 
   265    H   29  S      Val( 1S)     0.75432
   266    H   29  S      Ryd( 2S)     0.00105
 
   267    H   30  S      Val( 1S)     0.76041
   268    H   30  S      Ryd( 2S)     0.00068
 
   269    H   31  S      Val( 1S)     0.75319
   270    H   31  S      Ryd( 2S)     0.00104
 
   271    H   32  S      Val( 1S)     0.74130
   272    H   32  S      Ryd( 2S)     0.00125
 
   273    H   33  S      Val( 1S)     0.75724
   274    H   33  S      Ryd( 2S)     0.00112
 
   275    H   34  S      Val( 1S)     0.75946
   276    H   34  S      Ryd( 2S)     0.00077

 WARNING:  1 low occupancy (<1.9990e) core orbital  found on  C    2
           1 low occupancy (<1.9990e) core orbital  found on  C   13


 Summary of Natural Population Analysis:                  
                                                          
                                       Natural Population 
                Natural  -----------------------------------------------
    Atom  No    Charge         Core      Valence    Rydberg      Total
 -----------------------------------------------------------------------
      C    1   -0.70336      1.99932     4.69495    0.00909     6.70336
      C    2    0.27974      1.99900     3.70255    0.01871     5.72026
      C    3   -0.70432      1.99932     4.69578    0.00922     6.70432
      C    4   -0.68686      1.99932     4.67728    0.01025     6.68686
      O    5   -0.54098      1.99970     6.52813    0.01315     8.54098
      C    6    0.92393      1.99951     3.02467    0.05189     5.07607
      O    7   -0.55438      1.99977     6.53429    0.02032     8.55438
      N    8   -0.22152      1.99939     5.19566    0.02648     7.22152
      N    9   -0.22153      1.99939     5.19566    0.02648     7.22153
      C   10    0.92394      1.99951     3.02466    0.05189     5.07606
      O   11   -0.55437      1.99977     6.53428    0.02032     8.55437
      O   12   -0.54098      1.99970     6.52813    0.01315     8.54098
      C   13    0.27974      1.99900     3.70255    0.01871     5.72026
      C   14   -0.70432      1.99932     4.69578    0.00922     6.70432
      C   15   -0.68686      1.99932     4.67729    0.01025     6.68686
      C   16   -0.70336      1.99932     4.69495    0.00909     6.70336
      H   17    0.23977      0.00000     0.75946    0.00077     0.76023
      H   18    0.24163      0.00000     0.75725    0.00112     0.75837
      H   19    0.25745      0.00000     0.74130    0.00125     0.74255
      H   20    0.24155      0.00000     0.75771    0.00074     0.75845
      H   21    0.25721      0.00000     0.74141    0.00138     0.74279
      H   22    0.24083      0.00000     0.75805    0.00112     0.75917
      H   23    0.23891      0.00000     0.76041    0.00068     0.76109
      H   24    0.24463      0.00000     0.75432    0.00105     0.75537
      H   25    0.24576      0.00000     0.75320    0.00104     0.75424
      H   26    0.24083      0.00000     0.75805    0.00112     0.75917
      H   27    0.25721      0.00000     0.74141    0.00138     0.74279
      H   28    0.24155      0.00000     0.75771    0.00074     0.75845
      H   29    0.24463      0.00000     0.75432    0.00105     0.75537
      H   30    0.23891      0.00000     0.76041    0.00068     0.76109
      H   31    0.24576      0.00000     0.75319    0.00104     0.75424
      H   32    0.25745      0.00000     0.74130    0.00125     0.74255
      H   33    0.24163      0.00000     0.75724    0.00112     0.75837
      H   34    0.23977      0.00000     0.75946    0.00077     0.76023
 =======================================================================
   * Total *   -0.00000     31.99063    91.67281    0.33656   124.00000

                                 Natural Population      
 --------------------------------------------------------
   Core                      31.99063 ( 99.9707% of  32)
   Valence                   91.67281 ( 99.6444% of  92)
   Natural Minimal Basis    123.66344 ( 99.7286% of 124)
   Natural Rydberg Basis      0.33656 (  0.2714% of 124)
 --------------------------------------------------------

    Atom  No          Natural Electron Configuration
 ----------------------------------------------------------------------------
      C    1      [core]2S( 1.10)2p( 3.60)3p( 0.01)
      C    2      [core]2S( 0.91)2p( 2.79)3p( 0.01)3d( 0.01)
      C    3      [core]2S( 1.10)2p( 3.60)3p( 0.01)
      C    4      [core]2S( 1.10)2p( 3.58)3p( 0.01)
      O    5      [core]2S( 1.61)2p( 4.91)3p( 0.01)3d( 0.01)
      C    6      [core]2S( 0.73)2p( 2.30)3p( 0.04)3d( 0.01)
      O    7      [core]2S( 1.71)2p( 4.83)3d( 0.02)
      N    8      [core]2S( 1.40)2p( 3.80)3S( 0.01)3p( 0.01)3d( 0.01)
      N    9      [core]2S( 1.40)2p( 3.80)3S( 0.01)3p( 0.01)3d( 0.01)
      C   10      [core]2S( 0.73)2p( 2.30)3p( 0.04)3d( 0.01)
      O   11      [core]2S( 1.71)2p( 4.83)3d( 0.02)
      O   12      [core]2S( 1.61)2p( 4.91)3p( 0.01)3d( 0.01)
      C   13      [core]2S( 0.91)2p( 2.79)3p( 0.01)3d( 0.01)
      C   14      [core]2S( 1.10)2p( 3.60)3p( 0.01)
      C   15      [core]2S( 1.10)2p( 3.58)3p( 0.01)
      C   16      [core]2S( 1.10)2p( 3.60)3p( 0.01)
      H   17            1S( 0.76)
      H   18            1S( 0.76)
      H   19            1S( 0.74)
      H   20            1S( 0.76)
      H   21            1S( 0.74)
      H   22            1S( 0.76)
      H   23            1S( 0.76)
      H   24            1S( 0.75)
      H   25            1S( 0.75)
      H   26            1S( 0.76)
      H   27            1S( 0.74)
      H   28            1S( 0.76)
      H   29            1S( 0.75)
      H   30            1S( 0.76)
      H   31            1S( 0.75)
      H   32            1S( 0.74)
      H   33            1S( 0.76)
      H   34            1S( 0.76)


 NBO analysis skipped by request.
 1\1\GINC-DELLA-R2C1N12\SP\RB3LYP TD-FC\6-31G(d)\C10H18N2O4\BJS4\22-Aug
 -2020\0\\# TD(NStates=10, Root=1) B3LYP/6-31G* scf=qc volume pop=NPA d
 ensity=current Geom=AllCheck Guess=Read\\Title Card Required\\0,1\C,0,
 4.0355902279,-0.1975168778,-0.9936912189\C,0,3.2508307058,-1.002710820
 1,0.0444867849\C,0,1.7362171206,-0.8969183576,-0.1470605799\C,0,3.7064
 336989,-2.4615227318,0.0757392102\O,0,3.6116072732,-0.528612888,1.4094
 063452\C,0,3.3641959443,0.7151584737,1.7949134114\O,0,2.8557910218,1.6
 273765024,1.1894573679\N,0,3.6968850394,0.8666627112,3.2016888365\N,0,
 4.9178135613,1.0147368988,3.3974056019\C,0,5.2504746995,1.1662949346,4
 .8041745847\O,0,5.7586912516,0.2540507244,5.4097444518\O,0,5.003282191
 8,2.41015717,5.1895152884\C,0,5.3641858818,2.8844004415,6.5543571954\C
 ,0,6.8787834917,2.7783540091,6.7458801033\C,0,4.9088528821,4.343291214
 9,6.5228897903\C,0,4.5792989908,2.0795111085,7.5926745882\H,0,3.864117
 7278,-0.6239824632,-1.98824751\H,0,5.1090424871,-0.2460731159,-0.78269
 37631\H,0,3.7233905479,0.8483549103,-1.0043840772\H,0,1.4604953814,-1.
 3499988473,-1.105708954\H,0,1.40612948,0.1435238432,-0.1466805483\H,0,
 1.2109746082,-1.4376521072,0.647442965\H,0,3.498285751,-2.9367456296,-
 0.8885326785\H,0,3.1783476237,-3.0160272962,0.8577378808\H,0,4.7811908
 155,-2.5271719928,0.271361633\H,0,7.4041078216,3.3188789562,5.95128852
 2\H,0,7.2086770352,1.7378501117,6.7456385332\H,0,7.1546138223,3.231517
 4499,7.7044580947\H,0,5.4370206674,4.8975771961,5.7407913844\H,0,5.117
 1164648,4.8186236852,7.4870826606\H,0,3.8341022095,4.4091102882,6.3272
 888852\H,0,4.8913140614,1.0335858276,7.6035341622\H,0,3.505853169,2.12
 82190544,7.3816806011\H,0,4.7508563437,2.5061076156,8.5871604476\\Vers
 ion=ES64L-G16RevA.03\State=1-A\HF=-802.2811441\RMSD=3.720e-09\Dipole=0
 .0002523,0.0001384,-0.0000351\Quadrupole=-5.6243655,-2.4648319,8.08919
 74,6.0341876,1.9932485,13.1753401\PG=C01 [X(C10H18N2O4)]\\@


 ... IT IS NO ONE DREAME THAT
     CAN PLEASE THESE ALL ...

                -- BEN JONSON
 Job cpu time:       0 days  0 hours 30 minutes 22.1 seconds.
 Elapsed time:       0 days  0 hours  6 minutes  5.7 seconds.
 File lengths (MBytes):  RWF=    679 Int=      0 D2E=      0 Chk=    268 Scr=      1
 Normal termination of Gaussian 16 at Sat Aug 22 14:32:20 2020.
