 Entering Gaussian System, Link 0=g16
 Input=azadicarboxylate_1_conf20123.com
 Output=azadicarboxylate_1_conf20123.log
 Initial command:
 /opt/export//g16/l1.exe "/scratch/bjs4/job.257505/Gau-257507.inp" -scrdir="/scratch/bjs4/job.257505/"
 Entering Link 1 = /opt/export//g16/l1.exe PID=    257508.
  
 Copyright (c) 1988,1990,1992,1993,1995,1998,2003,2009,2016,
            Gaussian, Inc.  All Rights Reserved.
  
 This is part of the Gaussian(R) 16 program.  It is based on
 the Gaussian(R) 09 system (copyright 2009, Gaussian, Inc.),
 the Gaussian(R) 03 system (copyright 2003, Gaussian, Inc.),
 the Gaussian(R) 98 system (copyright 1998, Gaussian, Inc.),
 the Gaussian(R) 94 system (copyright 1995, Gaussian, Inc.),
 the Gaussian 92(TM) system (copyright 1992, Gaussian, Inc.),
 the Gaussian 90(TM) system (copyright 1990, Gaussian, Inc.),
 the Gaussian 88(TM) system (copyright 1988, Gaussian, Inc.),
 the Gaussian 86(TM) system (copyright 1986, Carnegie Mellon
 University), and the Gaussian 82(TM) system (copyright 1983,
 Carnegie Mellon University). Gaussian is a federally registered
 trademark of Gaussian, Inc.
  
 This software contains proprietary and confidential information,
 including trade secrets, belonging to Gaussian, Inc.
  
 This software is provided under written license and may be
 used, copied, transmitted, or stored only in accord with that
 written license.
  
 The following legend is applicable only to US Government
 contracts under FAR:
  
                    RESTRICTED RIGHTS LEGEND
  
 Use, reproduction and disclosure by the US Government is
 subject to restrictions as set forth in subparagraphs (a)
 and (c) of the Commercial Computer Software - Restricted
 Rights clause in FAR 52.227-19.
  
 Gaussian, Inc.
 340 Quinnipiac St., Bldg. 40, Wallingford CT 06492
  
  
 ---------------------------------------------------------------
 Warning -- This program may not be used in any manner that
 competes with the business of Gaussian, Inc. or will provide
 assistance to any competitor of Gaussian, Inc.  The licensee
 of this program is prohibited from giving any competitor of
 Gaussian, Inc. access to this program.  By using this program,
 the user acknowledges that Gaussian, Inc. is engaged in the
 business of creating and licensing software in the field of
 computational chemistry and represents and warrants to the
 licensee that it is not a competitor of Gaussian, Inc. and that
 it will not use this program in any manner prohibited above.
 ---------------------------------------------------------------
  

 Cite this work as:
 Gaussian 16, Revision A.03,
 M. J. Frisch, G. W. Trucks, H. B. Schlegel, G. E. Scuseria, 
 M. A. Robb, J. R. Cheeseman, G. Scalmani, V. Barone, 
 G. A. Petersson, H. Nakatsuji, X. Li, M. Caricato, A. V. Marenich, 
 J. Bloino, B. G. Janesko, R. Gomperts, B. Mennucci, H. P. Hratchian, 
 J. V. Ortiz, A. F. Izmaylov, J. L. Sonnenberg, D. Williams-Young, 
 F. Ding, F. Lipparini, F. Egidi, J. Goings, B. Peng, A. Petrone, 
 T. Henderson, D. Ranasinghe, V. G. Zakrzewski, J. Gao, N. Rega, 
 G. Zheng, W. Liang, M. Hada, M. Ehara, K. Toyota, R. Fukuda, 
 J. Hasegawa, M. Ishida, T. Nakajima, Y. Honda, O. Kitao, H. Nakai, 
 T. Vreven, K. Throssell, J. A. Montgomery, Jr., J. E. Peralta, 
 F. Ogliaro, M. J. Bearpark, J. J. Heyd, E. N. Brothers, K. N. Kudin, 
 V. N. Staroverov, T. A. Keith, R. Kobayashi, J. Normand, 
 K. Raghavachari, A. P. Rendell, J. C. Burant, S. S. Iyengar, 
 J. Tomasi, M. Cossi, J. M. Millam, M. Klene, C. Adamo, R. Cammi, 
 J. W. Ochterski, R. L. Martin, K. Morokuma, O. Farkas, 
 J. B. Foresman, and D. J. Fox, Gaussian, Inc., Wallingford CT, 2016.
 
 ******************************************
 Gaussian 16:  ES64L-G16RevA.03 25-Dec-2016
                22-Aug-2020 
 ******************************************
 %nprocshared=5
 Will use up to    5 processors via shared memory.
 %Mem=10GB
 %Chk=azadicarboxylate_1_conf201.chk
 ---------------------------------
 # opt=CalcAll B3LYP/6-31G* scf=qc
 ---------------------------------
 1/10=4,18=20,19=15,26=3,38=1/1,3;
 2/9=110,12=2,17=6,18=5,40=1/2;
 3/5=1,6=6,7=1,11=2,25=1,30=1,71=2,74=-5,140=1/1,2,3;
 4//1;
 5/5=2,8=3,38=5/8;
 8/6=4,10=90,11=11/1;
 11/6=1,8=1,9=11,15=111,16=1/1,2,10;
 10/6=1/2;
 6/7=2,8=2,9=2,10=2,18=1,28=1/1;
 7/10=1,25=1/1,2,3,16;
 1/10=4,18=20,19=15,26=3/3(3);
 2/9=110/2;
 7/8=1,9=1,25=1,44=-1/16;
 99//99;
 2/9=110/2;
 3/5=1,6=6,7=1,11=2,25=1,30=1,71=2,74=-5,140=1/1,2,3;
 4/5=5,16=3,69=1/1;
 5/5=2,8=3,38=5/8;
 8/6=4,10=90,11=11/1;
 11/6=1,8=1,9=11,15=111,16=1/1,2,10;
 10/6=1/2;
 7/10=1,25=1/1,2,3,16;
 1/10=4,18=20,19=15,26=3/3(-8);
 2/9=110/2;
 6/7=2,8=2,9=2,10=2,18=1,19=2,28=1/1;
 7/8=1,9=1,25=1,44=-1/16;
 99//99;
 -------------------
 Title Card Required
 -------------------
 Symbolic Z-matrix:
 Charge =  0 Multiplicity = 1
 C                     2.31944  -0.54292  -0.19039 
 C                     3.04841   0.80599  -0.23783 
 C                     4.18739   0.81492  -1.26544 
 C                     2.02714   1.87978  -0.65378 
 O1                    3.52151   1.18944   1.08243 
 C2                    4.6771    0.6551    1.5808 
 O3                    5.37661  -0.15416   0.98203 
 N4                    4.9172    1.1559    2.8418 
 N5                    6.1448    1.2226    3.0972 
 C6                    6.3853    1.7078    4.365 
 O7                    7.36659   2.35504   4.7122 
 O8                    5.36009   1.35588   5.19642 
 C                     5.38423   1.74883   6.59339 
 C                     5.44748   3.27443   6.74503 
 C                     4.05049   1.2685    7.19196 
 C                     6.5191    1.04212   7.34641 
 H                     1.88819  -0.79784  -1.16422 
 H                     1.51158  -0.51768   0.55026 
 H                     2.98086  -1.36344   0.10025 
 H                     3.81449   0.60676  -2.27427 
 H                     4.9565    0.07104  -1.04231 
 H                     4.68971   1.78897  -1.27693 
 H                     1.60914   1.6731   -1.64604 
 H                     2.48647   2.87462  -0.67588 
 H                     1.19873   1.93453   0.06185 
 H                     4.62154   3.75077   6.20426 
 H                     6.36955   3.69626   6.33763 
 H                     5.38804   3.57228   7.79752 
 H                     3.19806   1.72151   6.67239 
 H                     3.97468   1.51768   8.25666 
 H                     3.9388    0.18303   7.08539 
 H                     7.5066    1.33558   6.98122 
 H                     6.44871  -0.04389   7.21524 
 H                     6.48579   1.26462   8.41829 
 

 GradGradGradGradGradGradGradGradGradGradGradGradGradGradGradGradGradGrad
 Berny optimization.
 Initialization pass.
                           ----------------------------
                           !    Initial Parameters    !
                           ! (Angstroms and Degrees)  !
 --------------------------                            --------------------------
 ! Name  Definition              Value          Derivative Info.                !
 --------------------------------------------------------------------------------
 ! R1    R(1,2)                  1.534          calculate D2E/DX2 analytically  !
 ! R2    R(1,17)                 1.0951         calculate D2E/DX2 analytically  !
 ! R3    R(1,18)                 1.0963         calculate D2E/DX2 analytically  !
 ! R4    R(1,19)                 1.0933         calculate D2E/DX2 analytically  !
 ! R5    R(2,3)                  1.5341         calculate D2E/DX2 analytically  !
 ! R6    R(2,4)                  1.5392         calculate D2E/DX2 analytically  !
 ! R7    R(2,5)                  1.4539         calculate D2E/DX2 analytically  !
 ! R8    R(3,20)                 1.0955         calculate D2E/DX2 analytically  !
 ! R9    R(3,21)                 1.093          calculate D2E/DX2 analytically  !
 ! R10   R(3,22)                 1.096          calculate D2E/DX2 analytically  !
 ! R11   R(4,23)                 1.0964         calculate D2E/DX2 analytically  !
 ! R12   R(4,24)                 1.096          calculate D2E/DX2 analytically  !
 ! R13   R(4,25)                 1.0961         calculate D2E/DX2 analytically  !
 ! R14   R(5,6)                  1.3672         calculate D2E/DX2 analytically  !
 ! R15   R(6,7)                  1.2259         calculate D2E/DX2 analytically  !
 ! R16   R(6,8)                  1.3779         calculate D2E/DX2 analytically  !
 ! R17   R(8,9)                  1.2557         calculate D2E/DX2 analytically  !
 ! R18   R(9,10)                 1.3786         calculate D2E/DX2 analytically  !
 ! R19   R(10,11)                1.2257         calculate D2E/DX2 analytically  !
 ! R20   R(10,12)                1.3661         calculate D2E/DX2 analytically  !
 ! R21   R(12,13)                1.4514         calculate D2E/DX2 analytically  !
 ! R22   R(13,14)                1.5344         calculate D2E/DX2 analytically  !
 ! R23   R(13,15)                1.5388         calculate D2E/DX2 analytically  !
 ! R24   R(13,16)                1.5344         calculate D2E/DX2 analytically  !
 ! R25   R(14,26)                1.0961         calculate D2E/DX2 analytically  !
 ! R26   R(14,27)                1.0928         calculate D2E/DX2 analytically  !
 ! R27   R(14,28)                1.0954         calculate D2E/DX2 analytically  !
 ! R28   R(15,29)                1.0963         calculate D2E/DX2 analytically  !
 ! R29   R(15,30)                1.0961         calculate D2E/DX2 analytically  !
 ! R30   R(15,31)                1.0964         calculate D2E/DX2 analytically  !
 ! R31   R(16,32)                1.093          calculate D2E/DX2 analytically  !
 ! R32   R(16,33)                1.0962         calculate D2E/DX2 analytically  !
 ! R33   R(16,34)                1.0952         calculate D2E/DX2 analytically  !
 ! A1    A(2,1,17)             111.3656         calculate D2E/DX2 analytically  !
 ! A2    A(2,1,18)             110.5381         calculate D2E/DX2 analytically  !
 ! A3    A(2,1,19)             112.3763         calculate D2E/DX2 analytically  !
 ! A4    A(17,1,18)            108.4177         calculate D2E/DX2 analytically  !
 ! A5    A(17,1,19)            107.454          calculate D2E/DX2 analytically  !
 ! A6    A(18,1,19)            106.4694         calculate D2E/DX2 analytically  !
 ! A7    A(1,2,3)              112.2504         calculate D2E/DX2 analytically  !
 ! A8    A(1,2,4)              107.8491         calculate D2E/DX2 analytically  !
 ! A9    A(1,2,5)              111.0052         calculate D2E/DX2 analytically  !
 ! A10   A(3,2,4)              107.9118         calculate D2E/DX2 analytically  !
 ! A11   A(3,2,5)              111.4167         calculate D2E/DX2 analytically  !
 ! A12   A(4,2,5)              106.0997         calculate D2E/DX2 analytically  !
 ! A13   A(2,3,20)             111.2866         calculate D2E/DX2 analytically  !
 ! A14   A(2,3,21)             112.441          calculate D2E/DX2 analytically  !
 ! A15   A(2,3,22)             110.6391         calculate D2E/DX2 analytically  !
 ! A16   A(20,3,21)            107.3491         calculate D2E/DX2 analytically  !
 ! A17   A(20,3,22)            108.3743         calculate D2E/DX2 analytically  !
 ! A18   A(21,3,22)            106.5282         calculate D2E/DX2 analytically  !
 ! A19   A(2,4,23)             111.4717         calculate D2E/DX2 analytically  !
 ! A20   A(2,4,24)             111.1387         calculate D2E/DX2 analytically  !
 ! A21   A(2,4,25)             111.0936         calculate D2E/DX2 analytically  !
 ! A22   A(23,4,24)            108.2192         calculate D2E/DX2 analytically  !
 ! A23   A(23,4,25)            108.1898         calculate D2E/DX2 analytically  !
 ! A24   A(24,4,25)            106.5338         calculate D2E/DX2 analytically  !
 ! A25   A(2,5,6)              120.1955         calculate D2E/DX2 analytically  !
 ! A26   A(5,6,7)              124.2122         calculate D2E/DX2 analytically  !
 ! A27   A(5,6,8)              109.8054         calculate D2E/DX2 analytically  !
 ! A28   A(7,6,8)              125.981          calculate D2E/DX2 analytically  !
 ! A29   A(6,8,9)              112.0744         calculate D2E/DX2 analytically  !
 ! A30   A(8,9,10)             112.1045         calculate D2E/DX2 analytically  !
 ! A31   A(9,10,11)            125.8736         calculate D2E/DX2 analytically  !
 ! A32   A(9,10,12)            109.7618         calculate D2E/DX2 analytically  !
 ! A33   A(11,10,12)           124.3643         calculate D2E/DX2 analytically  !
 ! A34   A(10,12,13)           120.2366         calculate D2E/DX2 analytically  !
 ! A35   A(12,13,14)           111.407          calculate D2E/DX2 analytically  !
 ! A36   A(12,13,15)           105.9904         calculate D2E/DX2 analytically  !
 ! A37   A(12,13,16)           111.0978         calculate D2E/DX2 analytically  !
 ! A38   A(14,13,15)           107.9171         calculate D2E/DX2 analytically  !
 ! A39   A(14,13,16)           112.2681         calculate D2E/DX2 analytically  !
 ! A40   A(15,13,16)           107.842          calculate D2E/DX2 analytically  !
 ! A41   A(13,14,26)           110.625          calculate D2E/DX2 analytically  !
 ! A42   A(13,14,27)           112.4415         calculate D2E/DX2 analytically  !
 ! A43   A(13,14,28)           111.2877         calculate D2E/DX2 analytically  !
 ! A44   A(26,14,27)           106.5066         calculate D2E/DX2 analytically  !
 ! A45   A(26,14,28)           108.3582         calculate D2E/DX2 analytically  !
 ! A46   A(27,14,28)           107.3991         calculate D2E/DX2 analytically  !
 ! A47   A(13,15,29)           111.1378         calculate D2E/DX2 analytically  !
 ! A48   A(13,15,30)           111.5204         calculate D2E/DX2 analytically  !
 ! A49   A(13,15,31)           111.071          calculate D2E/DX2 analytically  !
 ! A50   A(29,15,30)           108.2189         calculate D2E/DX2 analytically  !
 ! A51   A(29,15,31)           106.4891         calculate D2E/DX2 analytically  !
 ! A52   A(30,15,31)           108.2064         calculate D2E/DX2 analytically  !
 ! A53   A(13,16,32)           112.3706         calculate D2E/DX2 analytically  !
 ! A54   A(13,16,33)           110.4927         calculate D2E/DX2 analytically  !
 ! A55   A(13,16,34)           111.3602         calculate D2E/DX2 analytically  !
 ! A56   A(32,16,33)           106.5014         calculate D2E/DX2 analytically  !
 ! A57   A(32,16,34)           107.4532         calculate D2E/DX2 analytically  !
 ! A58   A(33,16,34)           108.4471         calculate D2E/DX2 analytically  !
 ! D1    D(17,1,2,3)           -59.3125         calculate D2E/DX2 analytically  !
 ! D2    D(17,1,2,4)            59.4277         calculate D2E/DX2 analytically  !
 ! D3    D(17,1,2,5)           175.2583         calculate D2E/DX2 analytically  !
 ! D4    D(18,1,2,3)          -179.8996         calculate D2E/DX2 analytically  !
 ! D5    D(18,1,2,4)           -61.1594         calculate D2E/DX2 analytically  !
 ! D6    D(18,1,2,5)            54.6712         calculate D2E/DX2 analytically  !
 ! D7    D(19,1,2,3)            61.3083         calculate D2E/DX2 analytically  !
 ! D8    D(19,1,2,4)          -179.9515         calculate D2E/DX2 analytically  !
 ! D9    D(19,1,2,5)           -64.1209         calculate D2E/DX2 analytically  !
 ! D10   D(1,2,3,20)            59.4902         calculate D2E/DX2 analytically  !
 ! D11   D(1,2,3,21)           -60.9847         calculate D2E/DX2 analytically  !
 ! D12   D(1,2,3,22)          -179.9622         calculate D2E/DX2 analytically  !
 ! D13   D(4,2,3,20)           -59.2131         calculate D2E/DX2 analytically  !
 ! D14   D(4,2,3,21)          -179.688          calculate D2E/DX2 analytically  !
 ! D15   D(4,2,3,22)            61.3346         calculate D2E/DX2 analytically  !
 ! D16   D(5,2,3,20)          -175.306          calculate D2E/DX2 analytically  !
 ! D17   D(5,2,3,21)            64.2191         calculate D2E/DX2 analytically  !
 ! D18   D(5,2,3,22)           -54.7584         calculate D2E/DX2 analytically  !
 ! D19   D(1,2,4,23)           -60.8741         calculate D2E/DX2 analytically  !
 ! D20   D(1,2,4,24)           178.3093         calculate D2E/DX2 analytically  !
 ! D21   D(1,2,4,25)            59.8739         calculate D2E/DX2 analytically  !
 ! D22   D(3,2,4,23)            60.6021         calculate D2E/DX2 analytically  !
 ! D23   D(3,2,4,24)           -60.2145         calculate D2E/DX2 analytically  !
 ! D24   D(3,2,4,25)          -178.6499         calculate D2E/DX2 analytically  !
 ! D25   D(5,2,4,23)          -179.8796         calculate D2E/DX2 analytically  !
 ! D26   D(5,2,4,24)            59.3039         calculate D2E/DX2 analytically  !
 ! D27   D(5,2,4,25)           -59.1315         calculate D2E/DX2 analytically  !
 ! D28   D(1,2,5,6)             80.4713         calculate D2E/DX2 analytically  !
 ! D29   D(3,2,5,6)            -45.4235         calculate D2E/DX2 analytically  !
 ! D30   D(4,2,5,6)           -162.6209         calculate D2E/DX2 analytically  !
 ! D31   D(2,5,6,7)             -0.0006         calculate D2E/DX2 analytically  !
 ! D32   D(2,5,6,8)           -179.5809         calculate D2E/DX2 analytically  !
 ! D33   D(5,6,8,9)           -149.6473         calculate D2E/DX2 analytically  !
 ! D34   D(7,6,8,9)             30.7816         calculate D2E/DX2 analytically  !
 ! D35   D(6,8,9,10)          -179.2377         calculate D2E/DX2 analytically  !
 ! D36   D(8,9,10,11)         -149.6469         calculate D2E/DX2 analytically  !
 ! D37   D(8,9,10,12)           30.5588         calculate D2E/DX2 analytically  !
 ! D38   D(9,10,12,13)         179.7974         calculate D2E/DX2 analytically  !
 ! D39   D(11,10,12,13)         -0.0007         calculate D2E/DX2 analytically  !
 ! D40   D(10,12,13,14)         59.2946         calculate D2E/DX2 analytically  !
 ! D41   D(10,12,13,15)        176.4291         calculate D2E/DX2 analytically  !
 ! D42   D(10,12,13,16)        -66.6867         calculate D2E/DX2 analytically  !
 ! D43   D(12,13,14,26)         55.1192         calculate D2E/DX2 analytically  !
 ! D44   D(12,13,14,27)        -63.8218         calculate D2E/DX2 analytically  !
 ! D45   D(12,13,14,28)        175.6378         calculate D2E/DX2 analytically  !
 ! D46   D(15,13,14,26)        -60.8396         calculate D2E/DX2 analytically  !
 ! D47   D(15,13,14,27)       -179.7806         calculate D2E/DX2 analytically  !
 ! D48   D(15,13,14,28)         59.679          calculate D2E/DX2 analytically  !
 ! D49   D(16,13,14,26)       -179.548          calculate D2E/DX2 analytically  !
 ! D50   D(16,13,14,27)         61.511          calculate D2E/DX2 analytically  !
 ! D51   D(16,13,14,28)        -59.0294         calculate D2E/DX2 analytically  !
 ! D52   D(12,13,15,29)        -59.3889         calculate D2E/DX2 analytically  !
 ! D53   D(12,13,15,30)        179.7622         calculate D2E/DX2 analytically  !
 ! D54   D(12,13,15,31)         58.9753         calculate D2E/DX2 analytically  !
 ! D55   D(14,13,15,29)         60.0625         calculate D2E/DX2 analytically  !
 ! D56   D(14,13,15,30)        -60.7863         calculate D2E/DX2 analytically  !
 ! D57   D(14,13,15,31)        178.4268         calculate D2E/DX2 analytically  !
 ! D58   D(16,13,15,29)       -178.4411         calculate D2E/DX2 analytically  !
 ! D59   D(16,13,15,30)         60.71           calculate D2E/DX2 analytically  !
 ! D60   D(16,13,15,31)        -60.0769         calculate D2E/DX2 analytically  !
 ! D61   D(12,13,16,32)         64.5406         calculate D2E/DX2 analytically  !
 ! D62   D(12,13,16,33)        -54.2577         calculate D2E/DX2 analytically  !
 ! D63   D(12,13,16,34)       -174.8475         calculate D2E/DX2 analytically  !
 ! D64   D(14,13,16,32)        -60.9613         calculate D2E/DX2 analytically  !
 ! D65   D(14,13,16,33)       -179.7595         calculate D2E/DX2 analytically  !
 ! D66   D(14,13,16,34)         59.6506         calculate D2E/DX2 analytically  !
 ! D67   D(15,13,16,32)       -179.7139         calculate D2E/DX2 analytically  !
 ! D68   D(15,13,16,33)         61.4879         calculate D2E/DX2 analytically  !
 ! D69   D(15,13,16,34)        -59.102          calculate D2E/DX2 analytically  !
 --------------------------------------------------------------------------------
 Trust Radius=3.00D-01 FncErr=1.00D-07 GrdErr=1.00D-06 EigMax=2.50D+02 EigMin=1.00D-04
 Number of steps in this run=    170 maximum allowed number of steps=    204.
 GradGradGradGradGradGradGradGradGradGradGradGradGradGradGradGradGradGrad

                          Input orientation:                          
 ---------------------------------------------------------------------
 Center     Atomic      Atomic             Coordinates (Angstroms)
 Number     Number       Type             X           Y           Z
 ---------------------------------------------------------------------
      1          6           0        2.319440   -0.542920   -0.190390
      2          6           0        3.048410    0.805990   -0.237830
      3          6           0        4.187390    0.814920   -1.265440
      4          6           0        2.027140    1.879780   -0.653780
      5          8           0        3.521510    1.189440    1.082430
      6          6           0        4.677100    0.655100    1.580800
      7          8           0        5.376610   -0.154160    0.982030
      8          7           0        4.917200    1.155900    2.841800
      9          7           0        6.144800    1.222600    3.097200
     10          6           0        6.385300    1.707800    4.365000
     11          8           0        7.366590    2.355040    4.712200
     12          8           0        5.360090    1.355880    5.196420
     13          6           0        5.384230    1.748830    6.593390
     14          6           0        5.447480    3.274430    6.745030
     15          6           0        4.050490    1.268500    7.191960
     16          6           0        6.519100    1.042120    7.346410
     17          1           0        1.888190   -0.797840   -1.164220
     18          1           0        1.511580   -0.517680    0.550260
     19          1           0        2.980860   -1.363440    0.100250
     20          1           0        3.814490    0.606760   -2.274270
     21          1           0        4.956500    0.071040   -1.042310
     22          1           0        4.689710    1.788970   -1.276930
     23          1           0        1.609140    1.673100   -1.646040
     24          1           0        2.486470    2.874620   -0.675880
     25          1           0        1.198730    1.934530    0.061850
     26          1           0        4.621540    3.750770    6.204260
     27          1           0        6.369550    3.696260    6.337630
     28          1           0        5.388040    3.572280    7.797520
     29          1           0        3.198060    1.721510    6.672390
     30          1           0        3.974680    1.517680    8.256660
     31          1           0        3.938800    0.183030    7.085390
     32          1           0        7.506600    1.335580    6.981220
     33          1           0        6.448710   -0.043890    7.215240
     34          1           0        6.485790    1.264620    8.418290
 ---------------------------------------------------------------------
                    Distance matrix (angstroms):
                    1          2          3          4          5
     1  C    0.000000
     2  C    1.534016   0.000000
     3  C    2.547293   1.534059   0.000000
     4  C    2.483877   1.539166   2.484901   0.000000
     5  O    2.462948   1.453941   2.469039   2.392517   0.000000
     6  C    3.182912   2.445979   2.892480   3.676340   1.367216
     7  O    3.297270   2.798296   2.721118   4.246379   2.292758
     8  N    4.339185   3.619245   4.185488   4.592987   2.245987
     9  N    5.344033   4.569860   4.798988   5.608642   3.307877
    10  C    6.507575   5.756226   6.109820   6.649157   4.386942
    11  O    7.609684   6.749002   6.943447   7.584810   5.414655
    12  O    6.470604   5.931047   6.589651   6.753360   4.509212
    13  C    7.788756   7.280836   8.004113   7.988033   5.844084
    14  C    8.512159   7.785183   8.473762   8.269593   6.334160
    15  C    7.795952   7.511315   8.470661   8.125469   6.132897
    16  C    8.772277   8.343988   8.924822   9.213166   6.945840
    17  H    1.095128   2.185539   2.810260   2.729378   3.415326
    18  H    1.096283   2.176013   3.497506   2.731909   2.690220
    19  H    1.093253   2.196654   2.840084   3.463614   2.788221
    20  H    2.810604   2.184870   1.095501   2.727854   3.419472
    21  H    2.838450   2.197304   1.093012   3.464628   2.797237
    22  H    3.498065   2.177118   1.096007   2.736027   2.700131
    23  H    2.744847   2.192358   2.743848   1.096367   3.366843
    24  H    3.455891   2.187897   2.735521   1.095983   2.646279
    25  H    2.730819   2.187402   3.456489   1.096078   2.644248
    26  H    8.039091   7.255825   8.037669   7.567313   5.831262
    27  H    8.774342   7.913299   8.418469   8.428282   6.481713
    28  H    9.495151   8.814368   9.548918   9.251199   7.365751
    29  H    7.279929   6.972210   8.050455   7.420840   5.624533
    30  H    8.850906   8.574429   9.550367   9.127977   7.196018
    31  H    7.489079   7.403406   8.378391   8.150347   6.101026
    32  H    9.048060   8.501212   8.904810   9.413494   7.120254
    33  H    8.493719   8.236054   8.818903   9.228882   6.906588
    34  H    9.733193   9.324931   9.962906  10.127213   7.912487
                    6          7          8          9         10
     6  C    0.000000
     7  O    1.225864   0.000000
     8  N    1.377886   2.320788   0.000000
     9  N    2.185330   2.638092   1.255659   0.000000
    10  C    3.431894   3.991095   2.186332   1.378614   0.000000
    11  O    4.464171   4.916327   3.306939   2.320219   1.225723
    12  O    3.745701   4.476782   2.404242   2.245052   1.366076
    13  C    5.179029   5.925267   3.826762   3.616453   2.443266
    14  C    5.841545   6.706148   4.472647   4.242985   2.999730
    15  C    5.679262   6.507364   4.437089   4.599489   3.692699
    16  C    6.065064   6.575842   4.782315   4.269480   3.057750
    17  H    4.174229   4.146057   5.388896   6.353000   7.554767
    18  H    3.529581   3.906025   4.432863   5.566166   6.577093
    19  H    3.023865   2.824803   4.196735   5.067527   6.261854
    20  H    3.950696   3.690895   5.262290   5.887469   7.204253
    21  H    2.701832   2.079702   4.032961   4.457992   5.827474
    22  H    3.074482   3.057856   4.173304   4.644467   5.891773
    23  H    4.567406   4.943628   5.599238   6.578259   7.677598
    24  H    3.849381   4.502786   4.608310   5.508964   6.478643
    25  H    4.005397   4.760676   4.707590   5.846692   6.743072
    26  H    5.564409   6.564320   4.257570   4.285532   3.266107
    27  H    5.894105   6.670391   4.558901   4.082878   2.800980
    28  H    6.903838   7.767715   5.533511   5.309114   4.031502
    29  H    5.408242   6.375297   4.236600   4.659847   3.934811
    30  H    6.767905   7.594781   5.508170   5.605044   4.581730
    31  H    5.573908   6.279490   4.462264   4.674698   3.963686
    32  H    6.134628   6.538078   4.885906   4.117387   2.870622
    33  H    5.947613   6.325699   4.786648   4.319098   3.346088
    34  H    7.098883   7.651221   5.793922   5.332170   4.078684
                   11         12         13         14         15
    11  O    0.000000
    12  O    2.293214   0.000000
    13  C    2.799307   1.451385   0.000000
    14  C    2.942900   2.467117   1.534422   0.000000
    15  C    4.280923   2.388486   1.538787   2.484971   0.000000
    16  C    3.062852   2.462561   1.534408   2.548183   2.483775
    17  H    8.630517   7.559784   8.881911   9.581658   8.875305
    18  H    7.736628   6.317283   7.526879   8.261149   7.331349
    19  H    7.371011   6.247110   7.591000   8.470369   7.639605
    20  H    8.030234   7.665590   9.077654   9.546250   9.492266
    21  H    6.643762   6.382433   7.829550   8.434775   8.370064
    22  H    6.584512   6.522364   7.901007   8.193452   8.508912
    23  H    8.604678   7.809578   9.063401   9.365210   9.177916
    24  H    7.288137   6.711793   7.906118   7.999833   8.180995
    25  H    7.735960   6.634423   7.759762   8.031943   7.708087
    26  H    3.421930   2.701240   2.177357   1.096134   2.731907
    27  H    2.331305   2.792624   2.197442   1.092762   3.464381
    28  H    3.862063   3.417445   2.185158   1.095437   2.731876
    29  H    4.649769   2.643208   2.187768   2.734361   1.096270
    30  H    4.976889   3.363125   2.192425   2.745967   1.096095
    31  H    4.701000   2.638911   2.187021   3.456691   1.096393
    32  H    2.491456   2.791671   2.196734   2.838116   3.463179
    33  H    3.586444   2.687021   2.175698   3.497829   2.733929
    34  H    3.962313   3.414085   2.185899   2.813756   2.726644
                   16         17         18         19         20
    16  C    0.000000
    17  H    9.862130   0.000000
    18  H    8.584631   1.777573   0.000000
    19  H    8.415028   1.764289   1.754025   0.000000
    20  H   10.003096   2.629780   3.813886   3.196087   0.000000
    21  H    8.588093   3.191291   3.840618   2.695613   1.763210
    22  H    8.846833   3.814814   4.331255   3.841156   1.777166
    23  H   10.264989   2.532896   3.103670   3.761877   2.528897
    24  H    9.163913   3.752783   3.736513   4.336814   3.075984
    25  H    9.064632   3.073182   2.519872   3.748876   3.750017
    26  H    3.498861   9.080504   7.736875   8.130554   9.078634
    27  H    2.843319   9.826356   8.651637   8.717149   9.499377
    28  H    2.807936  10.566915   9.180277   9.455359  10.616559
    29  H    3.456180   8.335187   6.733399   7.263409   9.036890
    30  H    2.743863   9.923107   8.342551   8.707213  10.571467
    31  H    2.732053   8.557054   7.006448   7.218130   9.370071
    32  H    1.092995  10.122559   8.985103   8.666878   9.991344
    33  H    1.096165   9.569855   8.307929   8.024355   9.869816
    34  H    1.095236  10.826641   9.477619   9.401118  11.040809
                   21         22         23         24         25
    21  H    0.000000
    22  H    1.754282   0.000000
    23  H    3.759775   3.104767   0.000000
    24  H    3.754381   2.528668   1.776111   0.000000
    25  H    4.337349   3.741719   1.775858   1.756784   0.000000
    26  H    8.134211   7.734437   8.661321   7.256893   7.262476
    27  H    8.342808   8.027524   9.512816   8.058705   8.320246
    28  H    9.517747   9.274346  10.347357   8.983560   8.948359
    29  H    8.082868   8.088341   8.468960   7.472155   6.909554
    30  H    9.461902   9.564215  10.182505   9.156764   8.662250
    31  H    8.191933   8.548176   9.158902   8.342136   7.739887
    32  H    8.513466   8.737132  10.455791   9.284478   9.382198
    33  H    8.392081   8.863995  10.241669   9.299829   9.091063
    34  H    9.657449   9.874114  11.191037  10.064323   9.911199
                   26         27         28         29         30
    26  H    0.000000
    27  H    1.753938   0.000000
    28  H    1.777036   1.763523   0.000000
    29  H    2.522566   3.751007   3.080143   0.000000
    30  H    3.101204   3.763547   2.535701   1.776118   0.000000
    31  H    3.737819   4.337105   3.754256   1.756754   1.776078
    32  H    3.841924   2.698129   3.187078   4.336800   3.759570
    33  H    4.331290   3.842550   3.813234   3.738723   3.105460
    34  H    3.815534   3.202426   2.629773   3.750478   2.528999
                   31         32         33         34
    31  H    0.000000
    32  H    3.750789   0.000000
    33  H    2.523490   1.754091   0.000000
    34  H    3.071419   1.764159   1.777893   0.000000
 Stoichiometry    C10H18N2O4
 Framework group  C1[X(C10H18N2O4)]
 Deg. of freedom    96
 Full point group                 C1      NOp   1
 Largest Abelian subgroup         C1      NOp   1
 Largest concise Abelian subgroup C1      NOp   1
                         Standard orientation:                         
 ---------------------------------------------------------------------
 Center     Atomic      Atomic             Coordinates (Angstroms)
 Number     Number       Type             X           Y           Z
 ---------------------------------------------------------------------
      1          6           0        4.156620    1.072078   -1.186861
      2          6           0        3.736474    0.423822    0.138449
      3          6           0        4.292010   -0.997899    0.291503
      4          6           0        4.305473    1.280237    1.283798
      5          8           0        2.291292    0.448912    0.295815
      6          6           0        1.514812   -0.484384   -0.332928
      7          8           0        1.954161   -1.377803   -1.048131
      8          7           0        0.186542   -0.256562   -0.045934
      9          7           0       -0.484545   -1.317843   -0.043819
     10          6           0       -1.816792   -1.088659    0.226680
     11          8           0       -2.578929   -1.864912    0.791459
     12          8           0       -2.176239    0.145623   -0.235391
     13          6           0       -3.538691    0.618672   -0.072707
     14          6           0       -3.940670    0.670270    1.407225
     15          6           0       -3.555895    2.057362   -0.618363
     16          6           0       -4.516487   -0.214226   -0.912114
     17          1           0        5.246649    1.131849   -1.273871
     18          1           0        3.746723    2.085752   -1.266157
     19          1           0        3.788115    0.519918   -2.055494
     20          1           0        5.386897   -1.003110    0.255189
     21          1           0        3.936685   -1.671363   -0.492630
     22          1           0        3.975880   -1.435592    1.245294
     23          1           0        5.400387    1.323095    1.247111
     24          1           0        4.010750    0.880027    2.260604
     25          1           0        3.921186    2.305720    1.238025
     26          1           0       -3.229795    1.277476    1.979473
     27          1           0       -3.948822   -0.318691    1.872002
     28          1           0       -4.940604    1.099568    1.532999
     29          1           0       -2.851808    2.695814   -0.072059
     30          1           0       -4.553815    2.504342   -0.542279
     31          1           0       -3.248058    2.083669   -1.670323
     32          1           0       -4.566123   -1.254997   -0.582009
     33          1           0       -4.200083   -0.235149   -1.961413
     34          1           0       -5.531545    0.194324   -0.864297
 ---------------------------------------------------------------------
 Rotational constants (GHZ):           1.1857327           0.2078162           0.1966024
 Standard basis: 6-31G(d) (6D, 7F)
 There are   276 symmetry adapted cartesian basis functions of A   symmetry.
 There are   276 symmetry adapted basis functions of A   symmetry.
   276 basis functions,   520 primitive gaussians,   276 cartesian basis functions
    62 alpha electrons       62 beta electrons
       nuclear repulsion energy      1156.2898093521 Hartrees.
 NAtoms=   34 NActive=   34 NUniq=   34 SFac= 1.00D+00 NAtFMM=   60 NAOKFM=F Big=F
 Integral buffers will be    131072 words long.
 Raffenetti 2 integral format.
 Two-electron integral symmetry is turned on.
 One-electron integrals computed using PRISM.
 NBasis=   276 RedAO= T EigKep=  2.15D-03  NBF=   276
 NBsUse=   276 1.00D-06 EigRej= -1.00D+00 NBFU=   276
 ExpMin= 1.61D-01 ExpMax= 5.48D+03 ExpMxC= 8.25D+02 IAcc=3 IRadAn=         5 AccDes= 0.00D+00
 Harris functional with IExCor=  402 and IRadAn=       5 diagonalized for initial guess.
 HarFok:  IExCor=  402 AccDes= 0.00D+00 IRadAn=         5 IDoV= 1 UseB2=F ITyADJ=14
 ICtDFT=  3500011 ScaDFX=  1.000000  1.000000  1.000000  1.000000
 FoFCou: FMM=F IPFlag=           0 FMFlag=      100000 FMFlg1=           0
         NFxFlg=           0 DoJE=T BraDBF=F KetDBF=T FulRan=T
         wScrn=  0.000000 ICntrl=       500 IOpCl=  0 I1Cent=   200000004 NGrid=           0
         NMat0=    1 NMatS0=      1 NMatT0=    0 NMatD0=    1 NMtDS0=    0 NMtDT0=    0
 Petite list used in FoFCou.
 Gradient too large for Newton-Raphson -- use scaled steepest descent instead.
     Minimum is close to point  2 DX=  1.41D-02 DF= -9.90D-04 DXR=  4.50D-02 DFR=  2.03D-03 which will be used.
 Gradient too large for Newton-Raphson -- use scaled steepest descent instead.
 Gradient too large for Newton-Raphson -- use scaled steepest descent instead.
     Accept linear search using points  1 and  2.
 Gradient too large for Newton-Raphson -- use scaled steepest descent instead.
     Minimum is close to point  3 DX=  4.63D-02 DF= -1.64D-05 DXR=  5.47D-02 DFR=  3.00D-03 which will be used.
 Gradient too large for Newton-Raphson -- use scaled steepest descent instead.
     Accept linear search using points  1 and  2.
 Gradient too large for Newton-Raphson -- use scaled steepest descent instead.
     Accept linear search using points  1 and  2.
 LinEq1:  Iter=  0 NonCon=     1 RMS=7.95D-05 Max=3.19D-03 NDo=     1
 AX will form     1 AO Fock derivatives at one time.
 LinEq1:  Iter=  1 NonCon=     1 RMS=1.02D-04 Max=7.51D-03 NDo=     1
 LinEq1:  Iter=  2 NonCon=     1 RMS=4.33D-05 Max=1.31D-03 NDo=     1
 LinEq1:  Iter=  3 NonCon=     1 RMS=3.33D-05 Max=2.16D-03 NDo=     1
 LinEq1:  Iter=  4 NonCon=     1 RMS=3.00D-05 Max=1.50D-03 NDo=     1
 LinEq1:  Iter=  5 NonCon=     1 RMS=1.81D-05 Max=6.16D-04 NDo=     1
 LinEq1:  Iter=  6 NonCon=     1 RMS=1.17D-05 Max=3.58D-04 NDo=     1
 LinEq1:  Iter=  7 NonCon=     1 RMS=6.00D-06 Max=1.42D-04 NDo=     1
 LinEq1:  Iter=  8 NonCon=     1 RMS=5.17D-06 Max=2.39D-04 NDo=     1
 LinEq1:  Iter=  9 NonCon=     1 RMS=3.12D-06 Max=9.83D-05 NDo=     1
 LinEq1:  Iter= 10 NonCon=     1 RMS=1.48D-06 Max=3.57D-05 NDo=     1
 LinEq1:  Iter= 11 NonCon=     1 RMS=7.26D-07 Max=2.91D-05 NDo=     1
 LinEq1:  Iter= 12 NonCon=     1 RMS=3.93D-07 Max=8.56D-06 NDo=     1
 LinEq1:  Iter= 13 NonCon=     1 RMS=2.09D-07 Max=5.78D-06 NDo=     1
 LinEq1:  Iter= 14 NonCon=     1 RMS=5.37D-08 Max=1.47D-06 NDo=     1
 LinEq1:  Iter= 15 NonCon=     1 RMS=2.00D-08 Max=4.18D-07 NDo=     1
 LinEq1:  Iter= 16 NonCon=     1 RMS=9.46D-09 Max=2.40D-07 NDo=     1
 LinEq1:  Iter= 17 NonCon=     0 RMS=3.33D-09 Max=1.19D-07 NDo=     1
 Linear equations converged to 1.629D-08 1.629D-07 after    17 iterations.
     Accept linear search using points  1 and  2.
     Minimum is close to point  2 DX= -1.07D-03 DF= -5.10D-11 DXR=  1.07D-03 DFR=  1.14D-06 which will be used.
 LinEq1:  Iter=  0 NonCon=     1 RMS=2.17D-07 Max=1.35D-05 NDo=     1
 LinEq1:  Iter=  1 NonCon=     1 RMS=1.76D-07 Max=7.72D-06 NDo=     1
 LinEq1:  Iter=  2 NonCon=     1 RMS=1.00D-07 Max=4.00D-06 NDo=     1
 LinEq1:  Iter=  3 NonCon=     1 RMS=6.27D-08 Max=3.20D-06 NDo=     1
 LinEq1:  Iter=  4 NonCon=     1 RMS=5.30D-08 Max=1.99D-06 NDo=     1
 LinEq1:  Iter=  5 NonCon=     1 RMS=3.94D-08 Max=1.16D-06 NDo=     1
 LinEq1:  Iter=  6 NonCon=     1 RMS=2.90D-08 Max=7.73D-07 NDo=     1
 LinEq1:  Iter=  7 NonCon=     1 RMS=1.81D-08 Max=5.84D-07 NDo=     1
 LinEq1:  Iter=  8 NonCon=     1 RMS=1.03D-08 Max=4.27D-07 NDo=     1
 LinEq1:  Iter=  9 NonCon=     1 RMS=9.07D-09 Max=2.55D-07 NDo=     1
 LinEq1:  Iter= 10 NonCon=     1 RMS=6.08D-09 Max=2.29D-07 NDo=     1
 LinEq1:  Iter= 11 NonCon=     1 RMS=2.61D-09 Max=1.45D-07 NDo=     1
 LinEq1:  Iter= 12 NonCon=     1 RMS=1.10D-09 Max=5.17D-08 NDo=     1
 LinEq1:  Iter= 13 NonCon=     1 RMS=8.93D-10 Max=3.77D-08 NDo=     1
 LinEq1:  Iter= 14 NonCon=     1 RMS=3.61D-10 Max=1.21D-08 NDo=     1
 LinEq1:  Iter= 15 NonCon=     1 RMS=1.18D-10 Max=3.47D-09 NDo=     1
 LinEq1:  Iter= 16 NonCon=     0 RMS=5.11D-11 Max=7.56D-10 NDo=     1
 Linear equations converged to 1.630D-10 1.630D-09 after    16 iterations.
 SCF Done:  E(RB3LYP) =  -802.253506147     a.u. after    9 cycles
            Convg  =    0.4241D-09                    50 Fock formations.
              S**2 =  0.0000                  -V/T =  2.0091
 DoSCS=F DFT=T ScalE2(SS,OS)=  1.000000  1.000000
 Range of M.O.s used for correlation:     1   276
 NBasis=   276 NAE=    62 NBE=    62 NFC=     0 NFV=     0
 NROrb=    276 NOA=    62 NOB=    62 NVA=   214 NVB=   214
 Symmetrizing basis deriv contribution to polar:
 IMax=3 JMax=2 DiffMx= 0.00D+00
 G2DrvN: will do    35 centers at a time, making    1 passes.
 Calling FoFCou, ICntrl=  3107 FMM=F I1Cent=   0 AccDes= 0.00D+00.
 End of G2Drv F.D. properties file   721 does not exist.
 End of G2Drv F.D. properties file   722 does not exist.
 End of G2Drv F.D. properties file   788 does not exist.
          IDoAtm=1111111111111111111111111111111111
          Differentiating once with respect to electric field.
                with respect to dipole field.
          Differentiating once with respect to nuclear coordinates.
 Keep R1 ints in memory in canonical form, NReq=741275395.
          There are   105 degrees of freedom in the 1st order CPHF.  IDoFFX=6 NUNeed=     3.
    102 vectors produced by pass  0 Test12= 1.33D-14 1.00D-09 XBig12= 1.33D+02 4.31D+00.
 AX will form   102 AO Fock derivatives at one time.
    102 vectors produced by pass  1 Test12= 1.33D-14 1.00D-09 XBig12= 4.35D+01 1.29D+00.
    102 vectors produced by pass  2 Test12= 1.33D-14 1.00D-09 XBig12= 7.66D-01 1.68D-01.
    102 vectors produced by pass  3 Test12= 1.33D-14 1.00D-09 XBig12= 4.08D-03 7.92D-03.
    102 vectors produced by pass  4 Test12= 1.33D-14 1.00D-09 XBig12= 7.20D-06 1.88D-04.
     56 vectors produced by pass  5 Test12= 1.33D-14 1.00D-09 XBig12= 6.25D-09 5.53D-06.
     10 vectors produced by pass  6 Test12= 1.33D-14 1.00D-09 XBig12= 4.90D-12 2.25D-07.
      3 vectors produced by pass  7 Test12= 1.33D-14 1.00D-09 XBig12= 4.18D-15 7.12D-09.
 InvSVY:  IOpt=1 It=  1 EMax= 3.09D-15
 Solved reduced A of dimension   579 with   105 vectors.
 Isotropic polarizability for W=    0.000000      137.39 Bohr**3.
 End of Minotr F.D. properties file   721 does not exist.
 End of Minotr F.D. properties file   722 does not exist.
 End of Minotr F.D. properties file   788 does not exist.

 **********************************************************************

            Population analysis using the SCF density.

 **********************************************************************

 Orbital symmetries:
       Occupied  (A) (A) (A) (A) (A) (A) (A) (A) (A) (A) (A) (A)
                 (A) (A) (A) (A) (A) (A) (A) (A) (A) (A) (A) (A)
                 (A) (A) (A) (A) (A) (A) (A) (A) (A) (A) (A) (A)
                 (A) (A) (A) (A) (A) (A) (A) (A) (A) (A) (A) (A)
                 (A) (A) (A) (A) (A) (A) (A) (A) (A) (A) (A) (A)
                 (A) (A)
       Virtual   (A) (A) (A) (A) (A) (A) (A) (A) (A) (A) (A) (A)
                 (A) (A) (A) (A) (A) (A) (A) (A) (A) (A) (A) (A)
                 (A) (A) (A) (A) (A) (A) (A) (A) (A) (A) (A) (A)
                 (A) (A) (A) (A) (A) (A) (A) (A) (A) (A) (A) (A)
                 (A) (A) (A) (A) (A) (A) (A) (A) (A) (A) (A) (A)
                 (A) (A) (A) (A) (A) (A) (A) (A) (A) (A) (A) (A)
                 (A) (A) (A) (A) (A) (A) (A) (A) (A) (A) (A) (A)
                 (A) (A) (A) (A) (A) (A) (A) (A) (A) (A) (A) (A)
                 (A) (A) (A) (A) (A) (A) (A) (A) (A) (A) (A) (A)
                 (A) (A) (A) (A) (A) (A) (A) (A) (A) (A) (A) (A)
                 (A) (A) (A) (A) (A) (A) (A) (A) (A) (A) (A) (A)
                 (A) (A) (A) (A) (A) (A) (A) (A) (A) (A) (A) (A)
                 (A) (A) (A) (A) (A) (A) (A) (A) (A) (A) (A) (A)
                 (A) (A) (A) (A) (A) (A) (A) (A) (A) (A) (A) (A)
                 (A) (A) (A) (A) (A) (A) (A) (A) (A) (A) (A) (A)
                 (A) (A) (A) (A) (A) (A) (A) (A) (A) (A) (A) (A)
                 (A) (A) (A) (A) (A) (A) (A) (A) (A) (A) (A) (A)
                 (A) (A) (A) (A) (A) (A) (A) (A) (A) (A)
 The electronic state is 1-A.
 Alpha  occ. eigenvalues --  -19.20658 -19.19927 -19.16240 -19.15638 -14.42961
 Alpha  occ. eigenvalues --  -14.42903 -10.35548 -10.35491 -10.26791 -10.26395
 Alpha  occ. eigenvalues --  -10.18603 -10.18587 -10.18324 -10.18017 -10.17771
 Alpha  occ. eigenvalues --  -10.17433  -1.13981  -1.11450  -1.06231  -1.03034
 Alpha  occ. eigenvalues --   -1.02467  -0.84875  -0.81463  -0.79194  -0.70008
 Alpha  occ. eigenvalues --   -0.69718  -0.69537  -0.69434  -0.66829  -0.62224
 Alpha  occ. eigenvalues --   -0.57901  -0.52029  -0.51847  -0.50825  -0.50356
 Alpha  occ. eigenvalues --   -0.47989  -0.47915  -0.46589  -0.45452  -0.45272
 Alpha  occ. eigenvalues --   -0.45012  -0.43445  -0.42134  -0.41716  -0.40939
 Alpha  occ. eigenvalues --   -0.40021  -0.39788  -0.38824  -0.37705  -0.37189
 Alpha  occ. eigenvalues --   -0.36713  -0.36541  -0.36391  -0.35636  -0.34996
 Alpha  occ. eigenvalues --   -0.34034  -0.34002  -0.30960  -0.30673  -0.30159
 Alpha  occ. eigenvalues --   -0.29014  -0.26264
 Alpha virt. eigenvalues --   -0.13678   0.01349   0.03987   0.08015   0.08229
 Alpha virt. eigenvalues --    0.09877   0.10199   0.14164   0.14477   0.14809
 Alpha virt. eigenvalues --    0.14939   0.15408   0.15865   0.16451   0.16800
 Alpha virt. eigenvalues --    0.17704   0.18378   0.18795   0.19028   0.19036
 Alpha virt. eigenvalues --    0.19337   0.20278   0.20458   0.21907   0.22229
 Alpha virt. eigenvalues --    0.22281   0.22472   0.24582   0.24729   0.25179
 Alpha virt. eigenvalues --    0.25236   0.29101   0.32518   0.34793   0.40533
 Alpha virt. eigenvalues --    0.43866   0.48280   0.48550   0.48670   0.49245
 Alpha virt. eigenvalues --    0.50643   0.51091   0.51352   0.52774   0.55244
 Alpha virt. eigenvalues --    0.55333   0.55860   0.57600   0.58562   0.59303
 Alpha virt. eigenvalues --    0.59775   0.60298   0.61269   0.62681   0.64972
 Alpha virt. eigenvalues --    0.65413   0.68512   0.69292   0.70355   0.70624
 Alpha virt. eigenvalues --    0.70820   0.70890   0.71584   0.72395   0.74787
 Alpha virt. eigenvalues --    0.75804   0.78559   0.80651   0.81221   0.82826
 Alpha virt. eigenvalues --    0.83944   0.85226   0.85692   0.86064   0.86996
 Alpha virt. eigenvalues --    0.88479   0.89021   0.89179   0.89386   0.90025
 Alpha virt. eigenvalues --    0.90104   0.91674   0.92206   0.92506   0.92739
 Alpha virt. eigenvalues --    0.93284   0.93719   0.95251   0.96129   0.96893
 Alpha virt. eigenvalues --    0.97708   0.98603   0.99128   1.01238   1.02907
 Alpha virt. eigenvalues --    1.06734   1.07279   1.10162   1.10587   1.12346
 Alpha virt. eigenvalues --    1.13181   1.15492   1.18158   1.20808   1.22661
 Alpha virt. eigenvalues --    1.26975   1.31870   1.32402   1.34502   1.38601
 Alpha virt. eigenvalues --    1.39740   1.40398   1.41908   1.43242   1.44895
 Alpha virt. eigenvalues --    1.47523   1.49054   1.50472   1.52192   1.53660
 Alpha virt. eigenvalues --    1.56221   1.59279   1.63622   1.66443   1.69156
 Alpha virt. eigenvalues --    1.71297   1.72047   1.72585   1.73568   1.75811
 Alpha virt. eigenvalues --    1.77356   1.77646   1.79243   1.79890   1.81358
 Alpha virt. eigenvalues --    1.82512   1.83858   1.84408   1.85000   1.85550
 Alpha virt. eigenvalues --    1.86942   1.88156   1.89552   1.90938   1.94238
 Alpha virt. eigenvalues --    1.96013   1.96140   1.98881   2.03482   2.05603
 Alpha virt. eigenvalues --    2.08067   2.08824   2.09394   2.09702   2.13636
 Alpha virt. eigenvalues --    2.14452   2.15955   2.16611   2.17421   2.19212
 Alpha virt. eigenvalues --    2.21073   2.22576   2.23121   2.24756   2.25044
 Alpha virt. eigenvalues --    2.25607   2.26434   2.26799   2.26952   2.31575
 Alpha virt. eigenvalues --    2.31939   2.33723   2.37228   2.44233   2.44821
 Alpha virt. eigenvalues --    2.50114   2.52329   2.54292   2.55982   2.56990
 Alpha virt. eigenvalues --    2.60774   2.63211   2.66950   2.69729   2.71192
 Alpha virt. eigenvalues --    2.71432   2.74824   2.75700   2.76862   2.78392
 Alpha virt. eigenvalues --    2.85882   2.88090   2.93868   2.96011   3.08889
 Alpha virt. eigenvalues --    3.10899   3.20293   3.24512   3.77764   3.89886
 Alpha virt. eigenvalues --    4.04648   4.08420   4.16861   4.18938   4.24656
 Alpha virt. eigenvalues --    4.28045   4.28764   4.29795   4.30443   4.31945
 Alpha virt. eigenvalues --    4.38146   4.43194   4.65685   4.67457
          Condensed to atoms (all electrons):
               1          2          3          4          5          6
     1  C    5.176320   0.380570  -0.063935  -0.073422  -0.042977  -0.003715
     2  C    0.380570   4.588025   0.380959   0.403210   0.176407  -0.014691
     3  C   -0.063935   0.380959   5.217770  -0.071864  -0.040335  -0.007015
     4  C   -0.073422   0.403210  -0.071864   5.153553  -0.045093   0.003066
     5  O   -0.042977   0.176407  -0.040335  -0.045093   8.298364   0.297761
     6  C   -0.003715  -0.014691  -0.007015   0.003066   0.297761   4.237812
     7  O   -0.002504   0.000184  -0.017968   0.000205  -0.074513   0.511459
     8  N   -0.000338   0.003370  -0.000661  -0.000188  -0.088044   0.243645
     9  N    0.000001  -0.000085   0.000044   0.000003   0.001770  -0.051866
    10  C   -0.000000   0.000001   0.000000  -0.000000  -0.000191   0.004212
    11  O    0.000000  -0.000000   0.000000   0.000000   0.000000  -0.000161
    12  O    0.000000   0.000000  -0.000000   0.000000  -0.000000   0.000223
    13  C    0.000000  -0.000000   0.000000  -0.000000   0.000000  -0.000000
    14  C   -0.000000  -0.000000  -0.000000   0.000000  -0.000000  -0.000002
    15  C   -0.000000   0.000000  -0.000000   0.000000  -0.000000  -0.000001
    16  C   -0.000000   0.000000   0.000000   0.000000   0.000000   0.000002
    17  H    0.362805  -0.022909  -0.001982  -0.002892   0.002791   0.000106
    18  H    0.363504  -0.027233   0.005451  -0.006418   0.000259   0.000138
    19  H    0.366797  -0.024208  -0.005297   0.005330  -0.003144   0.002766
    20  H   -0.002789  -0.025498   0.356414  -0.003356   0.002457   0.000582
    21  H   -0.004198  -0.023744   0.365892   0.004917  -0.001783  -0.001543
    22  H    0.005575  -0.028038   0.362776  -0.006608  -0.000519   0.001110
    23  H   -0.001640  -0.026696  -0.002276   0.365709   0.002876  -0.000040
    24  H    0.005946  -0.025415  -0.005720   0.363063   0.000421   0.000050
    25  H   -0.006000  -0.025635   0.006043   0.361830   0.000398  -0.000014
    26  H    0.000000   0.000000   0.000000   0.000000   0.000000   0.000002
    27  H   -0.000000   0.000000  -0.000000  -0.000000  -0.000000   0.000000
    28  H    0.000000   0.000000   0.000000  -0.000000   0.000000   0.000000
    29  H    0.000000   0.000000   0.000000   0.000000  -0.000000   0.000002
    30  H    0.000000   0.000000   0.000000  -0.000000   0.000000   0.000000
    31  H   -0.000000   0.000000  -0.000000   0.000000  -0.000000  -0.000001
    32  H   -0.000000   0.000000  -0.000000  -0.000000  -0.000000   0.000000
    33  H   -0.000000  -0.000000  -0.000000  -0.000000  -0.000000  -0.000000
    34  H   -0.000000   0.000000  -0.000000  -0.000000  -0.000000  -0.000000
               7          8          9         10         11         12
     1  C   -0.002504  -0.000338   0.000001  -0.000000   0.000000   0.000000
     2  C    0.000184   0.003370  -0.000085   0.000001  -0.000000   0.000000
     3  C   -0.017968  -0.000661   0.000044   0.000000   0.000000  -0.000000
     4  C    0.000205  -0.000188   0.000003  -0.000000   0.000000   0.000000
     5  O   -0.074513  -0.088044   0.001770  -0.000191   0.000000  -0.000000
     6  C    0.511459   0.243645  -0.051866   0.004212  -0.000161   0.000223
     7  O    8.077722  -0.075363   0.000793   0.000452   0.000000  -0.000006
     8  N   -0.075363   6.966292   0.218914  -0.054171   0.000430  -0.006594
     9  N    0.000793   0.218914   6.956022   0.245097  -0.059222  -0.102805
    10  C    0.000452  -0.054171   0.245097   4.225370   0.525088   0.282124
    11  O    0.000000   0.000430  -0.059222   0.525088   8.053634  -0.076631
    12  O   -0.000006  -0.006594  -0.102805   0.282124  -0.076631   8.325417
    13  C    0.000000   0.000235   0.004473  -0.011439   0.002080   0.176462
    14  C   -0.000000  -0.000086  -0.000435  -0.006060  -0.008754  -0.041287
    15  C    0.000000  -0.000004  -0.000228   0.003355   0.000180  -0.045365
    16  C   -0.000000   0.000047  -0.000517  -0.004872  -0.005941  -0.041297
    17  H    0.000032   0.000004   0.000000   0.000000  -0.000000   0.000000
    18  H    0.000062  -0.000006   0.000001  -0.000000  -0.000000   0.000000
    19  H    0.004269  -0.000012  -0.000000  -0.000000  -0.000000   0.000000
    20  H    0.000770   0.000010  -0.000001   0.000000   0.000000  -0.000000
    21  H    0.012745   0.000218  -0.000016  -0.000000   0.000000   0.000000
    22  H   -0.000459  -0.000019  -0.000015  -0.000001   0.000000   0.000000
    23  H    0.000010   0.000002  -0.000000   0.000000  -0.000000   0.000000
    24  H   -0.000004  -0.000003  -0.000001  -0.000000   0.000000   0.000000
    25  H    0.000006   0.000007   0.000000   0.000000   0.000000   0.000000
    26  H   -0.000000   0.000027  -0.000029   0.000612  -0.000038   0.000103
    27  H    0.000000  -0.000016   0.000085   0.000838   0.011157  -0.002959
    28  H   -0.000000  -0.000000   0.000006   0.000320   0.000272   0.002597
    29  H   -0.000000   0.000076  -0.000014  -0.000081  -0.000000   0.000295
    30  H   -0.000000  -0.000001   0.000003  -0.000033   0.000009   0.002907
    31  H    0.000000  -0.000002  -0.000001  -0.000013   0.000004   0.000351
    32  H    0.000000  -0.000007   0.000046   0.001971   0.008417  -0.003210
    33  H    0.000000  -0.000013  -0.000009   0.000417   0.000083   0.000033
    34  H    0.000000  -0.000000   0.000006   0.000205   0.000130   0.002690
              13         14         15         16         17         18
     1  C    0.000000  -0.000000  -0.000000  -0.000000   0.362805   0.363504
     2  C   -0.000000  -0.000000   0.000000   0.000000  -0.022909  -0.027233
     3  C    0.000000  -0.000000  -0.000000   0.000000  -0.001982   0.005451
     4  C   -0.000000   0.000000   0.000000   0.000000  -0.002892  -0.006418
     5  O    0.000000  -0.000000  -0.000000   0.000000   0.002791   0.000259
     6  C   -0.000000  -0.000002  -0.000001   0.000002   0.000106   0.000138
     7  O    0.000000  -0.000000   0.000000  -0.000000   0.000032   0.000062
     8  N    0.000235  -0.000086  -0.000004   0.000047   0.000004  -0.000006
     9  N    0.004473  -0.000435  -0.000228  -0.000517   0.000000   0.000001
    10  C   -0.011439  -0.006060   0.003355  -0.004872   0.000000  -0.000000
    11  O    0.002080  -0.008754   0.000180  -0.005941  -0.000000  -0.000000
    12  O    0.176462  -0.041287  -0.045365  -0.041297   0.000000   0.000000
    13  C    4.575826   0.379959   0.402428   0.378072  -0.000000  -0.000000
    14  C    0.379959   5.201132  -0.072215  -0.064259   0.000000   0.000000
    15  C    0.402428  -0.072215   5.157185  -0.074029   0.000000   0.000000
    16  C    0.378072  -0.064259  -0.074029   5.195518   0.000000   0.000000
    17  H   -0.000000   0.000000   0.000000   0.000000   0.558899  -0.026903
    18  H   -0.000000   0.000000   0.000000   0.000000  -0.026903   0.563001
    19  H   -0.000000   0.000000   0.000000   0.000000  -0.027398  -0.030595
    20  H    0.000000  -0.000000  -0.000000  -0.000000   0.001646  -0.000025
    21  H   -0.000000   0.000000  -0.000000   0.000000   0.000145  -0.000055
    22  H   -0.000000   0.000000  -0.000000   0.000000  -0.000044  -0.000186
    23  H    0.000000   0.000000   0.000000   0.000000   0.001543   0.000123
    24  H    0.000000  -0.000000  -0.000000   0.000000  -0.000017  -0.000046
    25  H   -0.000000   0.000000   0.000000   0.000000   0.000147   0.004476
    26  H   -0.027908   0.362298  -0.006521   0.005573  -0.000000  -0.000000
    27  H   -0.024022   0.366326   0.005168  -0.005010   0.000000  -0.000000
    28  H   -0.024485   0.361171  -0.002877  -0.002272  -0.000000  -0.000000
    29  H   -0.025031  -0.005867   0.363097   0.005969  -0.000000  -0.000000
    30  H   -0.026400  -0.002079   0.364526  -0.001902  -0.000000   0.000000
    31  H   -0.025471   0.006023   0.362287  -0.005956   0.000000   0.000000
    32  H   -0.024412  -0.005185   0.005208   0.367064   0.000000   0.000000
    33  H   -0.027598   0.005560  -0.006507   0.362405   0.000000   0.000000
    34  H   -0.023657  -0.001962  -0.002962   0.361706   0.000000  -0.000000
              19         20         21         22         23         24
     1  C    0.366797  -0.002789  -0.004198   0.005575  -0.001640   0.005946
     2  C   -0.024208  -0.025498  -0.023744  -0.028038  -0.026696  -0.025415
     3  C   -0.005297   0.356414   0.365892   0.362776  -0.002276  -0.005720
     4  C    0.005330  -0.003356   0.004917  -0.006608   0.365709   0.363063
     5  O   -0.003144   0.002457  -0.001783  -0.000519   0.002876   0.000421
     6  C    0.002766   0.000582  -0.001543   0.001110  -0.000040   0.000050
     7  O    0.004269   0.000770   0.012745  -0.000459   0.000010  -0.000004
     8  N   -0.000012   0.000010   0.000218  -0.000019   0.000002  -0.000003
     9  N   -0.000000  -0.000001  -0.000016  -0.000015  -0.000000  -0.000001
    10  C   -0.000000   0.000000  -0.000000  -0.000001   0.000000  -0.000000
    11  O   -0.000000   0.000000   0.000000   0.000000  -0.000000   0.000000
    12  O    0.000000  -0.000000   0.000000   0.000000   0.000000   0.000000
    13  C   -0.000000   0.000000  -0.000000  -0.000000   0.000000   0.000000
    14  C    0.000000  -0.000000   0.000000   0.000000   0.000000  -0.000000
    15  C    0.000000  -0.000000  -0.000000  -0.000000   0.000000  -0.000000
    16  C    0.000000  -0.000000   0.000000   0.000000   0.000000   0.000000
    17  H   -0.027398   0.001646   0.000145  -0.000044   0.001543  -0.000017
    18  H   -0.030595  -0.000025  -0.000055  -0.000186   0.000123  -0.000046
    19  H    0.539692   0.000138   0.002564  -0.000022   0.000018  -0.000185
    20  H    0.000138   0.576541  -0.024628  -0.026912   0.002062   0.000045
    21  H    0.002564  -0.024628   0.493053  -0.028395   0.000000  -0.000047
    22  H   -0.000022  -0.026912  -0.028395   0.569875   0.000193   0.004435
    23  H    0.000018   0.002062   0.000000   0.000193   0.559678  -0.026679
    24  H   -0.000185   0.000045  -0.000047   0.004435  -0.026679   0.558908
    25  H   -0.000060   0.000021  -0.000180  -0.000044  -0.027523  -0.029804
    26  H    0.000000   0.000000  -0.000000   0.000000   0.000000   0.000000
    27  H   -0.000000   0.000000  -0.000000  -0.000000   0.000000  -0.000000
    28  H   -0.000000   0.000000  -0.000000   0.000000   0.000000   0.000000
    29  H    0.000000   0.000000  -0.000000   0.000000   0.000000   0.000000
    30  H   -0.000000   0.000000   0.000000   0.000000   0.000000  -0.000000
    31  H    0.000000  -0.000000  -0.000000  -0.000000  -0.000000  -0.000000
    32  H    0.000000  -0.000000   0.000000  -0.000000   0.000000  -0.000000
    33  H    0.000000  -0.000000   0.000000   0.000000   0.000000  -0.000000
    34  H   -0.000000  -0.000000  -0.000000  -0.000000  -0.000000  -0.000000
              25         26         27         28         29         30
     1  C   -0.006000   0.000000  -0.000000   0.000000   0.000000   0.000000
     2  C   -0.025635   0.000000   0.000000   0.000000   0.000000   0.000000
     3  C    0.006043   0.000000  -0.000000   0.000000   0.000000   0.000000
     4  C    0.361830   0.000000  -0.000000  -0.000000   0.000000  -0.000000
     5  O    0.000398   0.000000  -0.000000   0.000000  -0.000000   0.000000
     6  C   -0.000014   0.000002   0.000000   0.000000   0.000002   0.000000
     7  O    0.000006  -0.000000   0.000000  -0.000000  -0.000000  -0.000000
     8  N    0.000007   0.000027  -0.000016  -0.000000   0.000076  -0.000001
     9  N    0.000000  -0.000029   0.000085   0.000006  -0.000014   0.000003
    10  C    0.000000   0.000612   0.000838   0.000320  -0.000081  -0.000033
    11  O    0.000000  -0.000038   0.011157   0.000272  -0.000000   0.000009
    12  O    0.000000   0.000103  -0.002959   0.002597   0.000295   0.002907
    13  C   -0.000000  -0.027908  -0.024022  -0.024485  -0.025031  -0.026400
    14  C    0.000000   0.362298   0.366326   0.361171  -0.005867  -0.002079
    15  C    0.000000  -0.006521   0.005168  -0.002877   0.363097   0.364526
    16  C    0.000000   0.005573  -0.005010  -0.002272   0.005969  -0.001902
    17  H    0.000147  -0.000000   0.000000  -0.000000  -0.000000  -0.000000
    18  H    0.004476  -0.000000  -0.000000  -0.000000  -0.000000   0.000000
    19  H   -0.000060   0.000000  -0.000000  -0.000000   0.000000  -0.000000
    20  H    0.000021   0.000000   0.000000   0.000000   0.000000   0.000000
    21  H   -0.000180  -0.000000  -0.000000  -0.000000  -0.000000   0.000000
    22  H   -0.000044   0.000000  -0.000000   0.000000   0.000000   0.000000
    23  H   -0.027523   0.000000   0.000000   0.000000   0.000000   0.000000
    24  H   -0.029804   0.000000  -0.000000   0.000000   0.000000  -0.000000
    25  H    0.561979  -0.000000  -0.000000  -0.000000  -0.000000   0.000000
    26  H   -0.000000   0.567561  -0.029778  -0.026773   0.004442   0.000174
    27  H   -0.000000  -0.029778   0.514950  -0.025820  -0.000058  -0.000001
    28  H   -0.000000  -0.026773  -0.025820   0.566885   0.000093   0.001821
    29  H   -0.000000   0.004442  -0.000058   0.000093   0.557528  -0.027311
    30  H    0.000000   0.000174  -0.000001   0.001821  -0.027311   0.563459
    31  H   -0.000000  -0.000040  -0.000182  -0.000006  -0.029615  -0.027506
    32  H   -0.000000  -0.000021   0.002380   0.000188  -0.000182   0.000013
    33  H    0.000000  -0.000186  -0.000034  -0.000029  -0.000045   0.000166
    34  H   -0.000000  -0.000042   0.000189   0.001509  -0.000010   0.001806
              31         32         33         34
     1  C   -0.000000  -0.000000  -0.000000  -0.000000
     2  C    0.000000   0.000000  -0.000000   0.000000
     3  C   -0.000000  -0.000000  -0.000000  -0.000000
     4  C    0.000000  -0.000000  -0.000000  -0.000000
     5  O   -0.000000  -0.000000  -0.000000  -0.000000
     6  C   -0.000001   0.000000  -0.000000  -0.000000
     7  O    0.000000   0.000000   0.000000   0.000000
     8  N   -0.000002  -0.000007  -0.000013  -0.000000
     9  N   -0.000001   0.000046  -0.000009   0.000006
    10  C   -0.000013   0.001971   0.000417   0.000205
    11  O    0.000004   0.008417   0.000083   0.000130
    12  O    0.000351  -0.003210   0.000033   0.002690
    13  C   -0.025471  -0.024412  -0.027598  -0.023657
    14  C    0.006023  -0.005185   0.005560  -0.001962
    15  C    0.362287   0.005208  -0.006507  -0.002962
    16  C   -0.005956   0.367064   0.362405   0.361706
    17  H    0.000000   0.000000   0.000000   0.000000
    18  H    0.000000   0.000000   0.000000  -0.000000
    19  H    0.000000   0.000000   0.000000  -0.000000
    20  H   -0.000000  -0.000000  -0.000000  -0.000000
    21  H   -0.000000   0.000000   0.000000  -0.000000
    22  H   -0.000000  -0.000000   0.000000  -0.000000
    23  H   -0.000000   0.000000   0.000000  -0.000000
    24  H   -0.000000  -0.000000  -0.000000  -0.000000
    25  H   -0.000000  -0.000000   0.000000  -0.000000
    26  H   -0.000040  -0.000021  -0.000186  -0.000042
    27  H   -0.000182   0.002380  -0.000034   0.000189
    28  H   -0.000006   0.000188  -0.000029   0.001509
    29  H   -0.029615  -0.000182  -0.000045  -0.000010
    30  H   -0.027506   0.000013   0.000166   0.001806
    31  H    0.562411  -0.000061   0.004474   0.000119
    32  H   -0.000061   0.525025  -0.030191  -0.026586
    33  H    0.004474  -0.030191   0.567191  -0.026674
    34  H    0.000119  -0.026586  -0.026674   0.563976
 Mulliken charges:
               1
     1  C   -0.460002
     2  C    0.311427
     3  C   -0.478296
     4  C   -0.451046
     5  O   -0.486903
     6  C    0.776115
     7  O   -0.437894
     8  N   -0.207750
     9  N   -0.212023
    10  C    0.786797
    11  O   -0.450737
    12  O   -0.473048
    13  C    0.320889
    14  C   -0.474277
    15  C   -0.452725
    16  C   -0.470300
    17  H    0.154028
    18  H    0.154452
    19  H    0.169346
    20  H    0.142521
    21  H    0.205055
    22  H    0.147297
    23  H    0.152639
    24  H    0.155052
    25  H    0.154353
    26  H    0.150546
    27  H    0.186786
    28  H    0.147400
    29  H    0.156712
    30  H    0.150346
    31  H    0.153186
    32  H    0.179543
    33  H    0.150956
    34  H    0.149557
 Sum of Mulliken charges =   0.00000
 Mulliken charges with hydrogens summed into heavy atoms:
               1
     1  C    0.017824
     2  C    0.311427
     3  C    0.016577
     4  C    0.010997
     5  O   -0.486903
     6  C    0.776115
     7  O   -0.437894
     8  N   -0.207750
     9  N   -0.212023
    10  C    0.786797
    11  O   -0.450737
    12  O   -0.473048
    13  C    0.320889
    14  C    0.010454
    15  C    0.007518
    16  C    0.009756
 APT charges:
               1
     1  C   -0.034713
     2  C    0.672989
     3  C   -0.065651
     4  C    0.021760
     5  O   -0.967861
     6  C    1.277754
     7  O   -0.663972
     8  N   -0.210844
     9  N   -0.240099
    10  C    1.238683
    11  O   -0.654927
    12  O   -0.918590
    13  C    0.651619
    14  C   -0.053607
    15  C    0.013430
    16  C   -0.038504
    17  H   -0.005048
    18  H   -0.012425
    19  H    0.005774
    20  H   -0.011730
    21  H    0.060978
    22  H   -0.015325
    23  H   -0.008901
    24  H   -0.012425
    25  H   -0.014040
    26  H   -0.013684
    27  H    0.035031
    28  H   -0.005476
    29  H   -0.011233
    30  H   -0.008363
    31  H   -0.014395
    32  H    0.026453
    33  H   -0.014855
    34  H   -0.007803
 Sum of APT charges =   0.00000
 APT charges with hydrogens summed into heavy atoms:
               1
     1  C   -0.046412
     2  C    0.672989
     3  C   -0.031728
     4  C   -0.013606
     5  O   -0.967861
     6  C    1.277754
     7  O   -0.663972
     8  N   -0.210844
     9  N   -0.240099
    10  C    1.238683
    11  O   -0.654927
    12  O   -0.918590
    13  C    0.651619
    14  C   -0.037737
    15  C   -0.020562
    16  C   -0.034709
 Electronic spatial extent (au):  <R**2>=           5784.1357
 Charge=              0.0000 electrons
 Dipole moment (field-independent basis, Debye):
    X=              0.6714    Y=              3.1935    Z=              0.1154  Tot=              3.2654
 Quadrupole moment (field-independent basis, Debye-Ang):
   XX=            -76.9194   YY=           -102.3118   ZZ=            -95.4159
   XY=             -2.4349   XZ=              3.9738   YZ=             -0.6837
 Traceless Quadrupole moment (field-independent basis, Debye-Ang):
   XX=             14.6296   YY=            -10.7628   ZZ=             -3.8668
   XY=             -2.4349   XZ=              3.9738   YZ=             -0.6837
 Octapole moment (field-independent basis, Debye-Ang**2):
  XXX=             17.9211  YYY=              9.4309  ZZZ=             -0.2008  XYY=              3.6923
  XXY=             30.8807  XXZ=             -3.9975  XZZ=             -1.3009  YZZ=             -0.0238
  YYZ=             -1.2292  XYZ=            -11.0815
 Hexadecapole moment (field-independent basis, Debye-Ang**3):
 XXXX=          -5809.0191 YYYY=           -867.0007 ZZZZ=           -501.4124 XXXY=            -26.6726
 XXXZ=              8.9449 YYYX=             -5.7355 YYYZ=              5.6950 ZZZX=             -4.5374
 ZZZY=             -3.2677 XXYY=          -1208.8136 XXZZ=          -1142.6795 YYZZ=           -230.9212
 XXYZ=              7.8870 YYXZ=             15.4491 ZZXY=              4.9000
 N-N= 1.156289809352D+03 E-N=-4.183048280531D+03  KE= 7.949861618824D+02
  Exact polarizability: 183.007   7.121 122.019  -3.195  -0.306 107.149
 Approx polarizability: 218.637  19.581 193.330 -13.114   0.484 158.711
 Calling FoFJK, ICntrl=    100127 FMM=F ISym2X=0 I1Cent= 0 IOpClX= 0 NMat=1 NMatS=1 NMatT=0.
 ***** Axes restored to original set *****
 -------------------------------------------------------------------
 Center     Atomic                   Forces (Hartrees/Bohr)
 Number     Number              X              Y              Z
 -------------------------------------------------------------------
      1        6           0.003379358   -0.007007814    0.011394726
      2        6          -0.006088495   -0.000769548   -0.027371216
      3        6           0.010686708   -0.004307063   -0.003777089
      4        6          -0.000517518    0.008169984    0.010914191
      5        8           0.013408421   -0.003087730    0.021772034
      6        6          -0.009086488   -0.028065980   -0.077194835
      7        8          -0.010838465    0.008392020    0.026481196
      8        7           0.007508389    0.018747662    0.030213180
      9        7          -0.002275928   -0.007980515   -0.041496912
     10        6          -0.001264909    0.023281064    0.076663832
     11        8          -0.015082405   -0.017673664   -0.024802076
     12        8           0.011890767    0.000975931   -0.003013760
     13        6          -0.002808833    0.006141502    0.026035663
     14        6           0.005106465    0.007898629   -0.007340258
     15        6          -0.006438852   -0.006016059   -0.010631653
     16        6           0.010116059   -0.003472047   -0.005971464
     17        1           0.000926606    0.003239580   -0.000200001
     18        1          -0.001071127    0.001870516   -0.001392400
     19        1           0.003549959    0.000348008   -0.000879745
     20        1          -0.004263652    0.002677772    0.001226093
     21        1          -0.004746008    0.001277822   -0.002181355
     22        1          -0.002175539    0.001546202   -0.000785310
     23        1           0.002716970   -0.002246493    0.001874200
     24        1           0.001495033   -0.000773849   -0.001175847
     25        1          -0.000442825   -0.001669669    0.000024644
     26        1          -0.002211602   -0.001513420    0.001493252
     27        1           0.000788076   -0.002445492    0.001397496
     28        1          -0.001825525   -0.003200972    0.000113942
     29        1           0.000939714    0.001662396    0.000200751
     30        1           0.003052746    0.000892539   -0.002041289
     31        1           0.001669565   -0.000182541    0.000811936
     32        1          -0.000524123    0.002822620   -0.000650981
     33        1          -0.002597522   -0.000126499    0.001293995
     34        1          -0.002975020    0.000595104   -0.001004943
 -------------------------------------------------------------------
 Cartesian Forces:  Max     0.077194835 RMS     0.014664908
 FormGI is forming the generalized inverse of G from B-inverse, IUseBI=4.

 GradGradGradGradGradGradGradGradGradGradGradGradGradGradGradGradGradGrad
 Berny optimization.
 Internal  Forces:  Max     0.051345411 RMS     0.009107508
 Search for a local minimum.
 Step number   1 out of a maximum of  170
 All quantities printed in internal units (Hartrees-Bohrs-Radians)
 Mixed Optimization -- RFO/linear search
 Second derivative matrix not updated -- analytic derivatives used.
 ITU=  0
     Eigenvalues ---   -0.00526  -0.00326  -0.00119   0.00150   0.00201
     Eigenvalues ---    0.00276   0.00289   0.00329   0.00337   0.00587
     Eigenvalues ---    0.00822   0.02570   0.04514   0.04525   0.04555
     Eigenvalues ---    0.04604   0.04605   0.04678   0.04700   0.04715
     Eigenvalues ---    0.04723   0.04743   0.04813   0.04872   0.04885
     Eigenvalues ---    0.04907   0.05770   0.05876   0.06858   0.06941
     Eigenvalues ---    0.07205   0.10036   0.11147   0.11360   0.11885
     Eigenvalues ---    0.12214   0.12223   0.12242   0.12247   0.12801
     Eigenvalues ---    0.12803   0.13353   0.13983   0.14218   0.14361
     Eigenvalues ---    0.14832   0.14876   0.15214   0.15238   0.15303
     Eigenvalues ---    0.15419   0.17768   0.17882   0.18818   0.19730
     Eigenvalues ---    0.20328   0.21283   0.23566   0.24253   0.26793
     Eigenvalues ---    0.26881   0.26984   0.27840   0.27874   0.28822
     Eigenvalues ---    0.29515   0.30350   0.32103   0.32317   0.33651
     Eigenvalues ---    0.33673   0.33821   0.33830   0.33855   0.33877
     Eigenvalues ---    0.33917   0.33941   0.34095   0.34202   0.34283
     Eigenvalues ---    0.34304   0.34582   0.34618   0.34848   0.34984
     Eigenvalues ---    0.35078   0.35143   0.35516   0.36378   0.48944
     Eigenvalues ---    0.53765   0.62819   0.78473   0.78849   0.81390
     Eigenvalues ---    0.85540
 RFO step:  Lambda=-3.53722305D-02 EMin=-5.26265806D-03
 Linear search not attempted -- first point.
 Maximum step size (   0.300) exceeded in Quadratic search.
    -- Step size scaled by   0.994
 Iteration  1 RMS(Cart)=  0.10929692 RMS(Int)=  0.04085585
 Iteration  2 RMS(Cart)=  0.11258352 RMS(Int)=  0.01519906
 Iteration  3 RMS(Cart)=  0.11326620 RMS(Int)=  0.00237732
 Iteration  4 RMS(Cart)=  0.00446215 RMS(Int)=  0.00049274
 Iteration  5 RMS(Cart)=  0.00000743 RMS(Int)=  0.00049273
 Iteration  6 RMS(Cart)=  0.00000000 RMS(Int)=  0.00049273
 Variable       Old X    -DE/DX   Delta X   Delta X   Delta X     New X
                                 (Linear)    (Quad)   (Total)
    R1        2.89887  -0.00159   0.00000  -0.00552  -0.00552   2.89335
    R2        2.06949  -0.00094   0.00000  -0.00094  -0.00094   2.06855
    R3        2.07168  -0.00011   0.00000  -0.00094  -0.00094   2.07073
    R4        2.06595   0.00165   0.00000  -0.00253  -0.00253   2.06342
    R5        2.89895   0.00333   0.00000   0.00300   0.00300   2.90195
    R6        2.90860  -0.00288   0.00000  -0.01576  -0.01576   2.89284
    R7        2.74755   0.00945   0.00000   0.02978   0.02978   2.77733
    R8        2.07020  -0.00019   0.00000  -0.00211  -0.00211   2.06809
    R9        2.06549  -0.00465   0.00000  -0.00261  -0.00261   2.06288
   R10        2.07115   0.00039   0.00000   0.00082   0.00082   2.07197
   R11        2.07183  -0.00231   0.00000  -0.00404  -0.00404   2.06779
   R12        2.07111  -0.00005   0.00000  -0.00191  -0.00191   2.06920
   R13        2.07129   0.00027   0.00000  -0.00113  -0.00113   2.07015
   R14        2.58366  -0.01798   0.00000  -0.06726  -0.06726   2.51641
   R15        2.31655  -0.02466   0.00000  -0.03406  -0.03406   2.28249
   R16        2.60383   0.04572   0.00000   0.12606   0.12606   2.72988
   R17        2.37285  -0.00201   0.00000  -0.01575  -0.01575   2.35710
   R18        2.60520   0.05135   0.00000   0.10064   0.10064   2.70585
   R19        2.31628  -0.02843   0.00000  -0.03797  -0.03797   2.27831
   R20        2.58151  -0.01126   0.00000  -0.06096  -0.06096   2.52055
   R21        2.74272   0.00443   0.00000   0.03781   0.03781   2.78053
   R22        2.89964   0.00038   0.00000  -0.00405  -0.00405   2.89558
   R23        2.90789  -0.00272   0.00000  -0.01417  -0.01417   2.89371
   R24        2.89961  -0.00005   0.00000  -0.00379  -0.00379   2.89582
   R25        2.07139   0.00027   0.00000  -0.00093  -0.00093   2.07046
   R26        2.06502  -0.00080   0.00000  -0.00189  -0.00189   2.06313
   R27        2.07008  -0.00066   0.00000  -0.00119  -0.00119   2.06889
   R28        2.07165  -0.00014   0.00000  -0.00221  -0.00221   2.06944
   R29        2.07132  -0.00199   0.00000  -0.00339  -0.00339   2.06793
   R30        2.07188  -0.00007   0.00000  -0.00203  -0.00203   2.06986
   R31        2.06546   0.00050   0.00000  -0.00070  -0.00070   2.06476
   R32        2.07145   0.00014   0.00000  -0.00098  -0.00098   2.07047
   R33        2.06970  -0.00077   0.00000  -0.00118  -0.00118   2.06852
    A1        1.94370  -0.00415   0.00000  -0.02924  -0.02953   1.91417
    A2        1.92925  -0.00013   0.00000  -0.00327  -0.00338   1.92587
    A3        1.96134  -0.00270   0.00000  -0.01320  -0.01331   1.94802
    A4        1.89225   0.00142   0.00000  -0.00046  -0.00074   1.89150
    A5        1.87543   0.00301   0.00000   0.01780   0.01753   1.89296
    A6        1.85824   0.00306   0.00000   0.03179   0.03183   1.89007
    A7        1.95914  -0.00347   0.00000   0.01233   0.01095   1.97009
    A8        1.88232   0.00923   0.00000   0.03922   0.03848   1.92080
    A9        1.93741  -0.00604   0.00000  -0.00085  -0.00035   1.93706
   A10        1.88342  -0.00282   0.00000   0.02801   0.02668   1.91010
   A11        1.94459   0.01142   0.00000  -0.03864  -0.03836   1.90623
   A12        1.85179  -0.00857   0.00000  -0.03917  -0.03883   1.81296
   A13        1.94232  -0.00653   0.00000  -0.01796  -0.01817   1.92414
   A14        1.96247   0.00180   0.00000  -0.01254  -0.01259   1.94987
   A15        1.93102  -0.00082   0.00000  -0.01424  -0.01438   1.91664
   A16        1.87360   0.00252   0.00000   0.01526   0.01515   1.88874
   A17        1.89149   0.00144   0.00000   0.00054   0.00023   1.89172
   A18        1.85927   0.00205   0.00000   0.03210   0.03213   1.89139
   A19        1.94555  -0.00466   0.00000  -0.02475  -0.02489   1.92066
   A20        1.93974  -0.00060   0.00000  -0.00404  -0.00411   1.93562
   A21        1.93895  -0.00014   0.00000  -0.00230  -0.00236   1.93659
   A22        1.88878   0.00199   0.00000   0.00730   0.00716   1.89594
   A23        1.88827   0.00191   0.00000   0.00643   0.00630   1.89457
   A24        1.85936   0.00191   0.00000   0.01982   0.01982   1.87919
   A25        2.09781   0.03344   0.00000  -0.04251  -0.04251   2.05530
   A26        2.16791   0.02630   0.00000   0.05172   0.05131   2.21922
   A27        1.91647  -0.02157   0.00000  -0.04497  -0.04535   1.87111
   A28        2.19878  -0.00481   0.00000  -0.00710  -0.00746   2.19132
   A29        1.95607   0.00361   0.00000  -0.01491  -0.01491   1.94116
   A30        1.95659   0.02392   0.00000  -0.01116  -0.01116   1.94543
   A31        2.19691  -0.03343   0.00000  -0.06985  -0.07078   2.12613
   A32        1.91570   0.02398   0.00000  -0.01646  -0.01750   1.89821
   A33        2.17057   0.00942   0.00000   0.08603   0.08483   2.25540
   A34        2.09852   0.00831   0.00000   0.01228   0.01228   2.11081
   A35        1.94442   0.00213   0.00000  -0.01167  -0.01140   1.93302
   A36        1.84988  -0.00629   0.00000  -0.04191  -0.04143   1.80845
   A37        1.93902  -0.00044   0.00000  -0.01424  -0.01391   1.92511
   A38        1.88351   0.00253   0.00000   0.03533   0.03480   1.91831
   A39        1.95945  -0.00268   0.00000  -0.00456  -0.00599   1.95346
   A40        1.88220   0.00476   0.00000   0.03854   0.03804   1.92024
   A41        1.93077  -0.00105   0.00000  -0.00239  -0.00248   1.92829
   A42        1.96248  -0.00126   0.00000  -0.01561  -0.01573   1.94674
   A43        1.94234  -0.00441   0.00000  -0.02839  -0.02865   1.91369
   A44        1.85889   0.00305   0.00000   0.02764   0.02768   1.88658
   A45        1.89121   0.00137   0.00000   0.00258   0.00237   1.89358
   A46        1.87447   0.00280   0.00000   0.01958   0.01929   1.89376
   A47        1.93972  -0.00058   0.00000  -0.00575  -0.00583   1.93389
   A48        1.94640  -0.00455   0.00000  -0.02423  -0.02438   1.92201
   A49        1.93855  -0.00031   0.00000  -0.00330  -0.00336   1.93519
   A50        1.88878   0.00202   0.00000   0.00788   0.00771   1.89648
   A51        1.85858   0.00194   0.00000   0.02141   0.02142   1.88001
   A52        1.88856   0.00189   0.00000   0.00662   0.00648   1.89504
   A53        1.96124  -0.00190   0.00000  -0.01482  -0.01494   1.94629
   A54        1.92846  -0.00060   0.00000   0.00053   0.00048   1.92894
   A55        1.94360  -0.00388   0.00000  -0.02702  -0.02725   1.91635
[...]
     9    C    1  pz     Val( 2p)     1.16412
    10    C    1  pz     Ryd( 3p)     0.00183
    11    C    1  dxy    Ryd( 3d)     0.00036
    12    C    1  dxz    Ryd( 3d)     0.00027
    13    C    1  dyz    Ryd( 3d)     0.00061
    14    C    1  dx2y2  Ryd( 3d)     0.00103
    15    C    1  dz2    Ryd( 3d)     0.00101
 
    16    C    2  S      Cor( 1S)     1.99900
    17    C    2  S      Val( 2S)     0.91216
    18    C    2  S      Ryd( 3S)     0.00081
    19    C    2  S      Ryd( 4S)     0.00004
    20    C    2  px     Val( 2p)     0.67497
    21    C    2  px     Ryd( 3p)     0.00339
    22    C    2  py     Val( 2p)     1.06156
    23    C    2  py     Ryd( 3p)     0.00554
    24    C    2  pz     Val( 2p)     1.05387
    25    C    2  pz     Ryd( 3p)     0.00290
    26    C    2  dxy    Ryd( 3d)     0.00096
    27    C    2  dxz    Ryd( 3d)     0.00110
    28    C    2  dyz    Ryd( 3d)     0.00090
    29    C    2  dx2y2  Ryd( 3d)     0.00185
    30    C    2  dz2    Ryd( 3d)     0.00122
 
    31    C    3  S      Cor( 1S)     1.99932
    32    C    3  S      Val( 2S)     1.09990
    33    C    3  S      Ryd( 3S)     0.00050
    34    C    3  S      Ryd( 4S)     0.00002
    35    C    3  px     Val( 2p)     1.24238
    36    C    3  px     Ryd( 3p)     0.00113
    37    C    3  py     Val( 2p)     1.25182
    38    C    3  py     Ryd( 3p)     0.00249
    39    C    3  pz     Val( 2p)     1.10085
    40    C    3  pz     Ryd( 3p)     0.00168
    41    C    3  dxy    Ryd( 3d)     0.00042
    42    C    3  dxz    Ryd( 3d)     0.00035
    43    C    3  dyz    Ryd( 3d)     0.00072
    44    C    3  dx2y2  Ryd( 3d)     0.00098
    45    C    3  dz2    Ryd( 3d)     0.00081
 
    46    C    4  S      Cor( 1S)     1.99932
    47    C    4  S      Val( 2S)     1.09915
    48    C    4  S      Ryd( 3S)     0.00060
    49    C    4  S      Ryd( 4S)     0.00002
    50    C    4  px     Val( 2p)     1.22534
    51    C    4  px     Ryd( 3p)     0.00215
    52    C    4  py     Val( 2p)     1.09607
    53    C    4  py     Ryd( 3p)     0.00168
    54    C    4  pz     Val( 2p)     1.25672
    55    C    4  pz     Ryd( 3p)     0.00252
    56    C    4  dxy    Ryd( 3d)     0.00035
    57    C    4  dxz    Ryd( 3d)     0.00034
    58    C    4  dyz    Ryd( 3d)     0.00085
    59    C    4  dx2y2  Ryd( 3d)     0.00091
    60    C    4  dz2    Ryd( 3d)     0.00083
 
    61    O    5  S      Cor( 1S)     1.99970
    62    O    5  S      Val( 2S)     1.61380
    63    O    5  S      Ryd( 3S)     0.00231
    64    O    5  S      Ryd( 4S)     0.00015
    65    O    5  px     Val( 2p)     1.44324
    66    O    5  px     Ryd( 3p)     0.00127
    67    O    5  py     Val( 2p)     1.70068
    68    O    5  py     Ryd( 3p)     0.00185
    69    O    5  pz     Val( 2p)     1.77040
    70    O    5  pz     Ryd( 3p)     0.00196
    71    O    5  dxy    Ryd( 3d)     0.00143
    72    O    5  dxz    Ryd( 3d)     0.00033
    73    O    5  dyz    Ryd( 3d)     0.00180
    74    O    5  dx2y2  Ryd( 3d)     0.00128
    75    O    5  dz2    Ryd( 3d)     0.00076
 
    76    C    6  S      Cor( 1S)     1.99951
    77    C    6  S      Val( 2S)     0.72883
    78    C    6  S      Ryd( 3S)     0.00405
    79    C    6  S      Ryd( 4S)     0.00044
    80    C    6  px     Val( 2p)     0.79344
    81    C    6  px     Ryd( 3p)     0.00647
    82    C    6  py     Val( 2p)     0.71463
    83    C    6  py     Ryd( 3p)     0.02397
    84    C    6  pz     Val( 2p)     0.78776
    85    C    6  pz     Ryd( 3p)     0.00463
    86    C    6  dxy    Ryd( 3d)     0.00411
    87    C    6  dxz    Ryd( 3d)     0.00172
    88    C    6  dyz    Ryd( 3d)     0.00284
    89    C    6  dx2y2  Ryd( 3d)     0.00301
    90    C    6  dz2    Ryd( 3d)     0.00066
 
    91    O    7  S      Cor( 1S)     1.99977
    92    O    7  S      Val( 2S)     1.70730
    93    O    7  S      Ryd( 3S)     0.00082
    94    O    7  S      Ryd( 4S)     0.00013
    95    O    7  px     Val( 2p)     1.75605
    96    O    7  px     Ryd( 3p)     0.00140
    97    O    7  py     Val( 2p)     1.59435
    98    O    7  py     Ryd( 3p)     0.00042
    99    O    7  pz     Val( 2p)     1.47658
   100    O    7  pz     Ryd( 3p)     0.00071
   101    O    7  dxy    Ryd( 3d)     0.00496
   102    O    7  dxz    Ryd( 3d)     0.00034
   103    O    7  dyz    Ryd( 3d)     0.00501
   104    O    7  dx2y2  Ryd( 3d)     0.00486
   105    O    7  dz2    Ryd( 3d)     0.00168
 
   106    N    8  S      Cor( 1S)     1.99939
   107    N    8  S      Val( 2S)     1.39540
   108    N    8  S      Ryd( 3S)     0.00610
   109    N    8  S      Ryd( 4S)     0.00003
   110    N    8  px     Val( 2p)     1.15640
   111    N    8  px     Ryd( 3p)     0.00384
   112    N    8  py     Val( 2p)     1.37624
   113    N    8  py     Ryd( 3p)     0.00457
   114    N    8  pz     Val( 2p)     1.26762
   115    N    8  pz     Ryd( 3p)     0.00430
   116    N    8  dxy    Ryd( 3d)     0.00090
   117    N    8  dxz    Ryd( 3d)     0.00158
   118    N    8  dyz    Ryd( 3d)     0.00179
   119    N    8  dx2y2  Ryd( 3d)     0.00110
   120    N    8  dz2    Ryd( 3d)     0.00226
 
   121    N    9  S      Cor( 1S)     1.99939
   122    N    9  S      Val( 2S)     1.39540
   123    N    9  S      Ryd( 3S)     0.00610
   124    N    9  S      Ryd( 4S)     0.00003
   125    N    9  px     Val( 2p)     1.15640
   126    N    9  px     Ryd( 3p)     0.00384
   127    N    9  py     Val( 2p)     1.37624
   128    N    9  py     Ryd( 3p)     0.00457
   129    N    9  pz     Val( 2p)     1.26762
   130    N    9  pz     Ryd( 3p)     0.00430
   131    N    9  dxy    Ryd( 3d)     0.00090
   132    N    9  dxz    Ryd( 3d)     0.00158
   133    N    9  dyz    Ryd( 3d)     0.00179
   134    N    9  dx2y2  Ryd( 3d)     0.00110
   135    N    9  dz2    Ryd( 3d)     0.00226
 
   136    C   10  S      Cor( 1S)     1.99951
   137    C   10  S      Val( 2S)     0.72883
   138    C   10  S      Ryd( 3S)     0.00405
   139    C   10  S      Ryd( 4S)     0.00044
   140    C   10  px     Val( 2p)     0.79344
   141    C   10  px     Ryd( 3p)     0.00647
   142    C   10  py     Val( 2p)     0.71463
   143    C   10  py     Ryd( 3p)     0.02397
   144    C   10  pz     Val( 2p)     0.78776
   145    C   10  pz     Ryd( 3p)     0.00463
   146    C   10  dxy    Ryd( 3d)     0.00411
   147    C   10  dxz    Ryd( 3d)     0.00172
   148    C   10  dyz    Ryd( 3d)     0.00284
   149    C   10  dx2y2  Ryd( 3d)     0.00301
   150    C   10  dz2    Ryd( 3d)     0.00066
 
   151    O   11  S      Cor( 1S)     1.99977
   152    O   11  S      Val( 2S)     1.70730
   153    O   11  S      Ryd( 3S)     0.00082
   154    O   11  S      Ryd( 4S)     0.00013
   155    O   11  px     Val( 2p)     1.75605
   156    O   11  px     Ryd( 3p)     0.00140
   157    O   11  py     Val( 2p)     1.59435
   158    O   11  py     Ryd( 3p)     0.00042
   159    O   11  pz     Val( 2p)     1.47658
   160    O   11  pz     Ryd( 3p)     0.00071
   161    O   11  dxy    Ryd( 3d)     0.00496
   162    O   11  dxz    Ryd( 3d)     0.00034
   163    O   11  dyz    Ryd( 3d)     0.00501
   164    O   11  dx2y2  Ryd( 3d)     0.00486
   165    O   11  dz2    Ryd( 3d)     0.00168
 
   166    O   12  S      Cor( 1S)     1.99970
   167    O   12  S      Val( 2S)     1.61380
   168    O   12  S      Ryd( 3S)     0.00231
   169    O   12  S      Ryd( 4S)     0.00015
   170    O   12  px     Val( 2p)     1.44324
   171    O   12  px     Ryd( 3p)     0.00127
   172    O   12  py     Val( 2p)     1.70068
   173    O   12  py     Ryd( 3p)     0.00185
   174    O   12  pz     Val( 2p)     1.77040
   175    O   12  pz     Ryd( 3p)     0.00196
   176    O   12  dxy    Ryd( 3d)     0.00143
   177    O   12  dxz    Ryd( 3d)     0.00033
   178    O   12  dyz    Ryd( 3d)     0.00180
   179    O   12  dx2y2  Ryd( 3d)     0.00128
   180    O   12  dz2    Ryd( 3d)     0.00076
 
   181    C   13  S      Cor( 1S)     1.99900
   182    C   13  S      Val( 2S)     0.91216
   183    C   13  S      Ryd( 3S)     0.00081
   184    C   13  S      Ryd( 4S)     0.00004
   185    C   13  px     Val( 2p)     0.67497
   186    C   13  px     Ryd( 3p)     0.00339
   187    C   13  py     Val( 2p)     1.06156
   188    C   13  py     Ryd( 3p)     0.00554
   189    C   13  pz     Val( 2p)     1.05387
   190    C   13  pz     Ryd( 3p)     0.00290
   191    C   13  dxy    Ryd( 3d)     0.00096
   192    C   13  dxz    Ryd( 3d)     0.00110
   193    C   13  dyz    Ryd( 3d)     0.00090
   194    C   13  dx2y2  Ryd( 3d)     0.00185
   195    C   13  dz2    Ryd( 3d)     0.00122
 
   196    C   14  S      Cor( 1S)     1.99932
   197    C   14  S      Val( 2S)     1.09990
   198    C   14  S      Ryd( 3S)     0.00050
   199    C   14  S      Ryd( 4S)     0.00002
   200    C   14  px     Val( 2p)     1.24238
   201    C   14  px     Ryd( 3p)     0.00113
   202    C   14  py     Val( 2p)     1.25182
   203    C   14  py     Ryd( 3p)     0.00249
   204    C   14  pz     Val( 2p)     1.10085
   205    C   14  pz     Ryd( 3p)     0.00168
   206    C   14  dxy    Ryd( 3d)     0.00042
   207    C   14  dxz    Ryd( 3d)     0.00035
   208    C   14  dyz    Ryd( 3d)     0.00072
   209    C   14  dx2y2  Ryd( 3d)     0.00098
   210    C   14  dz2    Ryd( 3d)     0.00081
 
   211    C   15  S      Cor( 1S)     1.99932
   212    C   15  S      Val( 2S)     1.09915
   213    C   15  S      Ryd( 3S)     0.00060
   214    C   15  S      Ryd( 4S)     0.00002
   215    C   15  px     Val( 2p)     1.22534
   216    C   15  px     Ryd( 3p)     0.00215
   217    C   15  py     Val( 2p)     1.09607
   218    C   15  py     Ryd( 3p)     0.00168
   219    C   15  pz     Val( 2p)     1.25672
   220    C   15  pz     Ryd( 3p)     0.00252
   221    C   15  dxy    Ryd( 3d)     0.00035
   222    C   15  dxz    Ryd( 3d)     0.00034
   223    C   15  dyz    Ryd( 3d)     0.00085
   224    C   15  dx2y2  Ryd( 3d)     0.00091
   225    C   15  dz2    Ryd( 3d)     0.00083
 
   226    C   16  S      Cor( 1S)     1.99932
   227    C   16  S      Val( 2S)     1.09990
   228    C   16  S      Ryd( 3S)     0.00051
   229    C   16  S      Ryd( 4S)     0.00002
   230    C   16  px     Val( 2p)     1.22299
   231    C   16  px     Ryd( 3p)     0.00130
   232    C   16  py     Val( 2p)     1.20876
   233    C   16  py     Ryd( 3p)     0.00230
   234    C   16  pz     Val( 2p)     1.16412
   235    C   16  pz     Ryd( 3p)     0.00183
   236    C   16  dxy    Ryd( 3d)     0.00036
   237    C   16  dxz    Ryd( 3d)     0.00027
   238    C   16  dyz    Ryd( 3d)     0.00061
   239    C   16  dx2y2  Ryd( 3d)     0.00103
   240    C   16  dz2    Ryd( 3d)     0.00101
 
   241    H   17  S      Val( 1S)     0.75771
   242    H   17  S      Ryd( 2S)     0.00074
 
   243    H   18  S      Val( 1S)     0.75805
   244    H   18  S      Ryd( 2S)     0.00112
 
   245    H   19  S      Val( 1S)     0.74141
   246    H   19  S      Ryd( 2S)     0.00138
 
   247    H   20  S      Val( 1S)     0.75946
   248    H   20  S      Ryd( 2S)     0.00077
 
   249    H   21  S      Val( 1S)     0.74130
   250    H   21  S      Ryd( 2S)     0.00125
 
   251    H   22  S      Val( 1S)     0.75724
   252    H   22  S      Ryd( 2S)     0.00112
 
   253    H   23  S      Val( 1S)     0.76041
   254    H   23  S      Ryd( 2S)     0.00068
 
   255    H   24  S      Val( 1S)     0.75319
   256    H   24  S      Ryd( 2S)     0.00104
 
   257    H   25  S      Val( 1S)     0.75432
   258    H   25  S      Ryd( 2S)     0.00105
 
   259    H   26  S      Val( 1S)     0.75724
   260    H   26  S      Ryd( 2S)     0.00112
 
   261    H   27  S      Val( 1S)     0.74130
   262    H   27  S      Ryd( 2S)     0.00125
 
   263    H   28  S      Val( 1S)     0.75946
   264    H   28  S      Ryd( 2S)     0.00077
 
   265    H   29  S      Val( 1S)     0.75319
   266    H   29  S      Ryd( 2S)     0.00104
 
   267    H   30  S      Val( 1S)     0.76041
   268    H   30  S      Ryd( 2S)     0.00068
 
   269    H   31  S      Val( 1S)     0.75432
   270    H   31  S      Ryd( 2S)     0.00105
 
   271    H   32  S      Val( 1S)     0.74141
   272    H   32  S      Ryd( 2S)     0.00138
 
   273    H   33  S      Val( 1S)     0.75805
   274    H   33  S      Ryd( 2S)     0.00112
 
   275    H   34  S      Val( 1S)     0.75771
   276    H   34  S      Ryd( 2S)     0.00074

 WARNING:  1 low occupancy (<1.9990e) core orbital  found on  C    2
           1 low occupancy (<1.9990e) core orbital  found on  C   13


 Summary of Natural Population Analysis:                  
                                                          
                                       Natural Population 
                Natural  -----------------------------------------------
    Atom  No    Charge         Core      Valence    Rydberg      Total
 -----------------------------------------------------------------------
      C    1   -0.70432      1.99932     4.69578    0.00922     6.70432
      C    2    0.27974      1.99900     3.70255    0.01871     5.72026
      C    3   -0.70336      1.99932     4.69495    0.00909     6.70336
      C    4   -0.68686      1.99932     4.67729    0.01025     6.68686
      O    5   -0.54098      1.99970     6.52813    0.01315     8.54098
      C    6    0.92394      1.99951     3.02466    0.05189     5.07606
      O    7   -0.55437      1.99977     6.53429    0.02032     8.55437
      N    8   -0.22153      1.99939     5.19566    0.02648     7.22153
      N    9   -0.22153      1.99939     5.19566    0.02648     7.22153
      C   10    0.92394      1.99951     3.02466    0.05189     5.07606
      O   11   -0.55437      1.99977     6.53429    0.02032     8.55437
      O   12   -0.54098      1.99970     6.52813    0.01315     8.54098
      C   13    0.27974      1.99900     3.70255    0.01871     5.72026
      C   14   -0.70336      1.99932     4.69495    0.00909     6.70336
      C   15   -0.68686      1.99932     4.67729    0.01025     6.68686
      C   16   -0.70432      1.99932     4.69578    0.00922     6.70432
      H   17    0.24155      0.00000     0.75771    0.00074     0.75845
      H   18    0.24083      0.00000     0.75805    0.00112     0.75917
      H   19    0.25721      0.00000     0.74141    0.00138     0.74279
      H   20    0.23977      0.00000     0.75946    0.00077     0.76023
      H   21    0.25745      0.00000     0.74130    0.00125     0.74255
      H   22    0.24163      0.00000     0.75724    0.00112     0.75837
      H   23    0.23891      0.00000     0.76041    0.00068     0.76109
      H   24    0.24576      0.00000     0.75319    0.00104     0.75424
      H   25    0.24463      0.00000     0.75432    0.00105     0.75537
      H   26    0.24163      0.00000     0.75724    0.00112     0.75837
      H   27    0.25745      0.00000     0.74130    0.00125     0.74255
      H   28    0.23977      0.00000     0.75946    0.00077     0.76023
      H   29    0.24576      0.00000     0.75319    0.00104     0.75424
      H   30    0.23891      0.00000     0.76041    0.00068     0.76109
      H   31    0.24463      0.00000     0.75432    0.00105     0.75537
      H   32    0.25721      0.00000     0.74141    0.00138     0.74279
      H   33    0.24083      0.00000     0.75805    0.00112     0.75917
      H   34    0.24155      0.00000     0.75771    0.00074     0.75845
 =======================================================================
   * Total *    0.00000     31.99063    91.67281    0.33656   124.00000

                                 Natural Population      
 --------------------------------------------------------
   Core                      31.99063 ( 99.9707% of  32)
   Valence                   91.67281 ( 99.6444% of  92)
   Natural Minimal Basis    123.66344 ( 99.7286% of 124)
   Natural Rydberg Basis      0.33656 (  0.2714% of 124)
 --------------------------------------------------------

    Atom  No          Natural Electron Configuration
 ----------------------------------------------------------------------------
      C    1      [core]2S( 1.10)2p( 3.60)3p( 0.01)
      C    2      [core]2S( 0.91)2p( 2.79)3p( 0.01)3d( 0.01)
      C    3      [core]2S( 1.10)2p( 3.60)3p( 0.01)
      C    4      [core]2S( 1.10)2p( 3.58)3p( 0.01)
      O    5      [core]2S( 1.61)2p( 4.91)3p( 0.01)3d( 0.01)
      C    6      [core]2S( 0.73)2p( 2.30)3p( 0.04)3d( 0.01)
      O    7      [core]2S( 1.71)2p( 4.83)3d( 0.02)
      N    8      [core]2S( 1.40)2p( 3.80)3S( 0.01)3p( 0.01)3d( 0.01)
      N    9      [core]2S( 1.40)2p( 3.80)3S( 0.01)3p( 0.01)3d( 0.01)
      C   10      [core]2S( 0.73)2p( 2.30)3p( 0.04)3d( 0.01)
      O   11      [core]2S( 1.71)2p( 4.83)3d( 0.02)
      O   12      [core]2S( 1.61)2p( 4.91)3p( 0.01)3d( 0.01)
      C   13      [core]2S( 0.91)2p( 2.79)3p( 0.01)3d( 0.01)
      C   14      [core]2S( 1.10)2p( 3.60)3p( 0.01)
      C   15      [core]2S( 1.10)2p( 3.58)3p( 0.01)
      C   16      [core]2S( 1.10)2p( 3.60)3p( 0.01)
      H   17            1S( 0.76)
      H   18            1S( 0.76)
      H   19            1S( 0.74)
      H   20            1S( 0.76)
      H   21            1S( 0.74)
      H   22            1S( 0.76)
      H   23            1S( 0.76)
      H   24            1S( 0.75)
      H   25            1S( 0.75)
      H   26            1S( 0.76)
      H   27            1S( 0.74)
      H   28            1S( 0.76)
      H   29            1S( 0.75)
      H   30            1S( 0.76)
      H   31            1S( 0.75)
      H   32            1S( 0.74)
      H   33            1S( 0.76)
      H   34            1S( 0.76)


 NBO analysis skipped by request.
 1\1\GINC-DELLA-R2C1N1\SP\RB3LYP TD-FC\6-31G(d)\C10H18N2O4\BJS4\22-Aug-
 2020\0\\# TD(NStates=10, Root=1) B3LYP/6-31G* scf=qc volume pop=NPA de
 nsity=current Geom=AllCheck Guess=Read\\Title Card Required\\0,1\C,0,1
 .7633679142,0.3978089865,-0.6122155519\C,0,3.2239580968,0.8537026053,-
 0.5844530926\C,0,4.1936134833,-0.2412887832,-1.0347412276\C,0,3.421172
 7205,2.1363707815,-1.3922586152\O,0,3.5805401611,1.2893981285,0.794303
 3418\C,0,3.5271640644,0.4493586954,1.8181546062\O,0,3.218051348,-0.717
 1519616,1.8480077621\N,0,3.7984848397,1.1657776803,3.0533750567\N,0,5.
 0133050486,1.3664072658,3.2400671012\C,0,5.2846255665,2.0828258947,4.4
 752880017\O,0,5.5937416865,3.2493356501,4.4454349563\O,0,5.2312447266,
 1.2427872428,5.4991396871\C,0,5.5878245992,1.6784827793,6.8778966733\C
 ,0,4.618172493,2.7734786291,7.3281811612\C,0,5.3906024045,0.3958163355
 ,7.6857030468\C,0,7.0484165553,2.1343704698,6.9056625225\H,0,1.4704531
 726,0.185551103,-1.6463619322\H,0,1.1082796708,1.1875363434,-0.2292028
 81\H,0,1.6163353376,-0.5053002655,-0.0170236986\H,0,4.0098767287,-0.47
 6991622,-2.0888301057\H,0,4.0657409941,-1.1518598365,-0.4465746195\H,0
 ,5.2289214788,0.1021406304,-0.937939431\H,0,3.1912685347,1.9507519701,
 -2.4466174185\H,0,4.4557389974,2.485382108,-1.3177973641\H,0,2.7616635
 084,2.9298495827,-1.0271407863\H,0,3.582863316,2.4300536505,7.23137618
 12\H,0,4.7460507268,3.684048928,6.7400146574\H,0,4.8019068357,3.009181
 0756,8.3822705536\H,0,4.3560347693,0.0468095038,7.6112396755\H,0,5.620
 5048641,0.5814352806,8.7400621975\H,0,6.0501089902,-0.3976657711,7.320
 587655\H,0,7.1954543416,3.0374782768,6.310469746\H,0,7.7035026517,1.34
 46399224,6.5226527692\H,0,7.3413293732,2.3466287203,7.9398093721\\Vers
 ion=ES64L-G16RevA.03\State=1-A\HF=-802.2811441\RMSD=2.918e-13\Dipole=-
 0.0000043,0.,-0.0000002\Quadrupole=-3.949257,-12.5269868,16.4762439,-2
 .58613,5.9648921,1.1347292\PG=C01 [X(C10H18N2O4)]\\@


 THE GREAT THING ABOUT BEING IMPERFECT IS THE JOY IT BRINGS OTHERS.
   -- SIGN OUTSIDE LAKE AGASSIZ JR. HIGH SCHOOL, FARGO, N.D.
 Job cpu time:       0 days  0 hours 29 minutes 42.8 seconds.
 Elapsed time:       0 days  0 hours  5 minutes 57.7 seconds.
 File lengths (MBytes):  RWF=    679 Int=      0 D2E=      0 Chk=    268 Scr=      1
 Normal termination of Gaussian 16 at Sat Aug 22 14:19:31 2020.
