 Entering Gaussian System, Link 0=g16
 Input=azadicarboxylate_3_conf4123.com
 Output=azadicarboxylate_3_conf4123.log
 Initial command:
 /opt/export//g16/l1.exe "/scratch/bjs4/job.141623/Gau-141625.inp" -scrdir="/scratch/bjs4/job.141623/"
 Entering Link 1 = /opt/export//g16/l1.exe PID=    141626.
  
 Copyright (c) 1988,1990,1992,1993,1995,1998,2003,2009,2016,
            Gaussian, Inc.  All Rights Reserved.
  
 This is part of the Gaussian(R) 16 program.  It is based on
 the Gaussian(R) 09 system (copyright 2009, Gaussian, Inc.),
 the Gaussian(R) 03 system (copyright 2003, Gaussian, Inc.),
 the Gaussian(R) 98 system (copyright 1998, Gaussian, Inc.),
 the Gaussian(R) 94 system (copyright 1995, Gaussian, Inc.),
 the Gaussian 92(TM) system (copyright 1992, Gaussian, Inc.),
 the Gaussian 90(TM) system (copyright 1990, Gaussian, Inc.),
 the Gaussian 88(TM) system (copyright 1988, Gaussian, Inc.),
 the Gaussian 86(TM) system (copyright 1986, Carnegie Mellon
 University), and the Gaussian 82(TM) system (copyright 1983,
 Carnegie Mellon University). Gaussian is a federally registered
 trademark of Gaussian, Inc.
  
 This software contains proprietary and confidential information,
 including trade secrets, belonging to Gaussian, Inc.
  
 This software is provided under written license and may be
 used, copied, transmitted, or stored only in accord with that
 written license.
  
 The following legend is applicable only to US Government
 contracts under FAR:
  
                    RESTRICTED RIGHTS LEGEND
  
 Use, reproduction and disclosure by the US Government is
 subject to restrictions as set forth in subparagraphs (a)
 and (c) of the Commercial Computer Software - Restricted
 Rights clause in FAR 52.227-19.
  
 Gaussian, Inc.
 340 Quinnipiac St., Bldg. 40, Wallingford CT 06492
  
  
 ---------------------------------------------------------------
 Warning -- This program may not be used in any manner that
 competes with the business of Gaussian, Inc. or will provide
 assistance to any competitor of Gaussian, Inc.  The licensee
 of this program is prohibited from giving any competitor of
 Gaussian, Inc. access to this program.  By using this program,
 the user acknowledges that Gaussian, Inc. is engaged in the
 business of creating and licensing software in the field of
 computational chemistry and represents and warrants to the
 licensee that it is not a competitor of Gaussian, Inc. and that
 it will not use this program in any manner prohibited above.
 ---------------------------------------------------------------
  

 Cite this work as:
 Gaussian 16, Revision A.03,
 M. J. Frisch, G. W. Trucks, H. B. Schlegel, G. E. Scuseria, 
 M. A. Robb, J. R. Cheeseman, G. Scalmani, V. Barone, 
 G. A. Petersson, H. Nakatsuji, X. Li, M. Caricato, A. V. Marenich, 
 J. Bloino, B. G. Janesko, R. Gomperts, B. Mennucci, H. P. Hratchian, 
 J. V. Ortiz, A. F. Izmaylov, J. L. Sonnenberg, D. Williams-Young, 
 F. Ding, F. Lipparini, F. Egidi, J. Goings, B. Peng, A. Petrone, 
 T. Henderson, D. Ranasinghe, V. G. Zakrzewski, J. Gao, N. Rega, 
 G. Zheng, W. Liang, M. Hada, M. Ehara, K. Toyota, R. Fukuda, 
 J. Hasegawa, M. Ishida, T. Nakajima, Y. Honda, O. Kitao, H. Nakai, 
 T. Vreven, K. Throssell, J. A. Montgomery, Jr., J. E. Peralta, 
 F. Ogliaro, M. J. Bearpark, J. J. Heyd, E. N. Brothers, K. N. Kudin, 
 V. N. Staroverov, T. A. Keith, R. Kobayashi, J. Normand, 
 K. Raghavachari, A. P. Rendell, J. C. Burant, S. S. Iyengar, 
 J. Tomasi, M. Cossi, J. M. Millam, M. Klene, C. Adamo, R. Cammi, 
 J. W. Ochterski, R. L. Martin, K. Morokuma, O. Farkas, 
 J. B. Foresman, and D. J. Fox, Gaussian, Inc., Wallingford CT, 2016.
 
 ******************************************
 Gaussian 16:  ES64L-G16RevA.03 25-Dec-2016
                22-Aug-2020 
 ******************************************
 %nprocshared=5
 Will use up to    5 processors via shared memory.
 %Mem=10GB
 %Chk=azadicarboxylate_3_conf41.chk
 ---------------------------------
 # opt=CalcAll B3LYP/6-31G* scf=qc
 ---------------------------------
 1/10=4,18=20,19=15,26=3,38=1/1,3;
 2/9=110,12=2,17=6,18=5,40=1/2;
 3/5=1,6=6,7=1,11=2,25=1,30=1,71=2,74=-5,140=1/1,2,3;
 4//1;
 5/5=2,8=3,38=5/8;
 8/6=4,10=90,11=11/1;
 11/6=1,8=1,9=11,15=111,16=1/1,2,10;
 10/6=1/2;
 6/7=2,8=2,9=2,10=2,18=1,28=1/1;
 7/10=1,25=1/1,2,3,16;
 1/10=4,18=20,19=15,26=3/3(3);
 2/9=110/2;
 7/8=1,9=1,25=1,44=-1/16;
 99//99;
 2/9=110/2;
 3/5=1,6=6,7=1,11=2,25=1,30=1,71=2,74=-5,140=1/1,2,3;
 4/5=5,16=3,69=1/1;
 5/5=2,8=3,38=5/8;
 8/6=4,10=90,11=11/1;
 11/6=1,8=1,9=11,15=111,16=1/1,2,10;
 10/6=1/2;
 7/10=1,25=1/1,2,3,16;
 1/10=4,18=20,19=15,26=3/3(-8);
 2/9=110/2;
 6/7=2,8=2,9=2,10=2,18=1,19=2,28=1/1;
 7/8=1,9=1,25=1,44=-1/16;
 99//99;
 -------------------
 Title Card Required
 -------------------
 Symbolic Z-matrix:
 Charge =  0 Multiplicity = 1
 C                    -2.05929  -0.12386  -1.27631 
 C                    -3.05857   0.03011  -0.15074 
 O1                   -3.65253   1.33505  -0.17825 
 C2                   -5.0041    1.3932   -0.331 
 O3                   -5.72732   0.40924  -0.44558 
 N4                   -5.404     2.7122   -0.3088 
 N5                   -6.6449    2.8402   -0.4308 
 C6                   -7.0458    4.1568   -0.3655 
 O7                   -8.11798   4.57662   0.05555 
 O8                   -6.06199   4.9496   -0.87221 
 C                    -6.31927   6.36019  -0.90502 
 C                    -5.29171   7.10705  -0.08364 
 C                    -4.2591    6.43392   0.58774 
 C                    -3.31966   7.14229   1.34223 
 C                    -3.39438   8.53076   1.41571 
 C                    -4.38992   9.2185    0.72669 
 C                    -5.33143   8.5095   -0.0248 
 Cl                   -2.25231   9.40108   2.36338 
 C                    -0.94719   0.72482  -1.39113 
 C                    -0.03506   0.56576  -2.4384 
 C                    -0.21792  -0.45472  -3.36816 
 C                    -1.29536  -1.32865  -3.24937 
 C                    -2.209    -1.16735  -2.20406 
 Cl                    0.89145  -0.63615  -4.67061 
 H                    -2.52849  -0.07244   0.80288 
 H                    -3.80283  -0.77245  -0.1999 
 H                    -7.32746   6.61201  -0.55879 
 H                    -6.23868   6.68687  -1.9477 
 H                    -4.18297   5.34925   0.53593 
 H                    -2.53688   6.60459   1.87064 
 H                    -4.44198   10.3031   0.77306 
 H                    -6.10226   9.0629   -0.55827 
 H                    -0.7865    1.52384  -0.66955 
 H                     0.81139   1.24227  -2.52347 
 H                    -1.4326   -2.13332  -3.96706 
 H                    -3.04463  -1.86044  -2.12513 
 

 GradGradGradGradGradGradGradGradGradGradGradGradGradGradGradGradGradGrad
 Berny optimization.
 Initialization pass.
                           ----------------------------
                           !    Initial Parameters    !
                           ! (Angstroms and Degrees)  !
 --------------------------                            --------------------------
 ! Name  Definition              Value          Derivative Info.                !
 --------------------------------------------------------------------------------
 ! R1    R(1,2)                  1.513          calculate D2E/DX2 analytically  !
 ! R2    R(1,19)                 1.4036         calculate D2E/DX2 analytically  !
 ! R3    R(1,23)                 1.4043         calculate D2E/DX2 analytically  !
 ! R4    R(2,3)                  1.434          calculate D2E/DX2 analytically  !
 ! R5    R(2,25)                 1.0959         calculate D2E/DX2 analytically  !
 ! R6    R(2,26)                 1.0956         calculate D2E/DX2 analytically  !
 ! R7    R(3,4)                  1.3614         calculate D2E/DX2 analytically  !
 ! R8    R(4,5)                  1.2265         calculate D2E/DX2 analytically  !
 ! R9    R(4,6)                  1.3785         calculate D2E/DX2 analytically  !
 ! R10   R(6,7)                  1.2534         calculate D2E/DX2 analytically  !
 ! R11   R(7,8)                  1.3778         calculate D2E/DX2 analytically  !
 ! R12   R(8,9)                  1.226          calculate D2E/DX2 analytically  !
 ! R13   R(8,10)                 1.3613         calculate D2E/DX2 analytically  !
 ! R14   R(10,11)                1.4342         calculate D2E/DX2 analytically  !
 ! R15   R(11,12)                1.5127         calculate D2E/DX2 analytically  !
 ! R16   R(11,27)                1.0953         calculate D2E/DX2 analytically  !
 ! R17   R(11,28)                1.0956         calculate D2E/DX2 analytically  !
 ! R18   R(12,13)                1.4036         calculate D2E/DX2 analytically  !
 ! R19   R(12,17)                1.4042         calculate D2E/DX2 analytically  !
 ! R20   R(13,14)                1.3977         calculate D2E/DX2 analytically  !
 ! R21   R(13,29)                1.0886         calculate D2E/DX2 analytically  !
 ! R22   R(14,15)                1.3924         calculate D2E/DX2 analytically  !
 ! R23   R(14,30)                1.0868         calculate D2E/DX2 analytically  !
 ! R24   R(15,16)                1.3924         calculate D2E/DX2 analytically  !
 ! R25   R(15,18)                1.7204         calculate D2E/DX2 analytically  !
 ! R26   R(16,17)                1.3978         calculate D2E/DX2 analytically  !
 ! R27   R(16,31)                1.0868         calculate D2E/DX2 analytically  !
 ! R28   R(17,32)                1.0886         calculate D2E/DX2 analytically  !
 ! R29   R(19,20)                1.3979         calculate D2E/DX2 analytically  !
 ! R30   R(19,33)                1.0885         calculate D2E/DX2 analytically  !
 ! R31   R(20,21)                1.3926         calculate D2E/DX2 analytically  !
 ! R32   R(20,34)                1.0869         calculate D2E/DX2 analytically  !
 ! R33   R(21,22)                1.3924         calculate D2E/DX2 analytically  !
 ! R34   R(21,24)                1.7205         calculate D2E/DX2 analytically  !
 ! R35   R(22,23)                1.3977         calculate D2E/DX2 analytically  !
 ! R36   R(22,35)                1.0869         calculate D2E/DX2 analytically  !
 ! R37   R(23,36)                1.0885         calculate D2E/DX2 analytically  !
 ! A1    A(2,1,19)             121.5073         calculate D2E/DX2 analytically  !
 ! A2    A(2,1,23)             119.7814         calculate D2E/DX2 analytically  !
 ! A3    A(19,1,23)            118.6664         calculate D2E/DX2 analytically  !
 ! A4    A(1,2,3)              110.603          calculate D2E/DX2 analytically  !
 ! A5    A(1,2,25)             108.5648         calculate D2E/DX2 analytically  !
 ! A6    A(1,2,26)             109.9209         calculate D2E/DX2 analytically  !
 ! A7    A(3,2,25)             107.5899         calculate D2E/DX2 analytically  !
 ! A8    A(3,2,26)             112.6033         calculate D2E/DX2 analytically  !
 ! A9    A(25,2,26)            107.4023         calculate D2E/DX2 analytically  !
 ! A10   A(2,3,4)              116.886          calculate D2E/DX2 analytically  !
 ! A11   A(3,4,5)              124.1667         calculate D2E/DX2 analytically  !
 ! A12   A(3,4,6)              109.091          calculate D2E/DX2 analytically  !
 ! A13   A(5,4,6)              126.7319         calculate D2E/DX2 analytically  !
 ! A14   A(4,6,7)              112.5413         calculate D2E/DX2 analytically  !
 ! A15   A(6,7,8)              112.397          calculate D2E/DX2 analytically  !
 ! A16   A(7,8,9)              126.7227         calculate D2E/DX2 analytically  !
 ! A17   A(7,8,10)             109.1826         calculate D2E/DX2 analytically  !
 ! A18   A(9,8,10)             124.0852         calculate D2E/DX2 analytically  !
 ! A19   A(8,10,11)            116.8498         calculate D2E/DX2 analytically  !
 ! A20   A(10,11,12)           110.5671         calculate D2E/DX2 analytically  !
 ! A21   A(10,11,27)           112.5815         calculate D2E/DX2 analytically  !
 ! A22   A(10,11,28)           107.5674         calculate D2E/DX2 analytically  !
 ! A23   A(12,11,27)           109.8827         calculate D2E/DX2 analytically  !
 ! A24   A(12,11,28)           108.6366         calculate D2E/DX2 analytically  !
 ! A25   A(27,11,28)           107.4562         calculate D2E/DX2 analytically  !
 ! A26   A(11,12,13)           121.512          calculate D2E/DX2 analytically  !
 ! A27   A(11,12,17)           119.7769         calculate D2E/DX2 analytically  !
 ! A28   A(13,12,17)           118.6672         calculate D2E/DX2 analytically  !
 ! A29   A(12,13,14)           120.6386         calculate D2E/DX2 analytically  !
 ! A30   A(12,13,29)           120.4332         calculate D2E/DX2 analytically  !
 ! A31   A(14,13,29)           118.9258         calculate D2E/DX2 analytically  !
 ! A32   A(13,14,15)           119.8538         calculate D2E/DX2 analytically  !
 ! A33   A(13,14,30)           119.7245         calculate D2E/DX2 analytically  !
 ! A34   A(15,14,30)           120.4214         calculate D2E/DX2 analytically  !
 ! A35   A(14,15,16)           120.3161         calculate D2E/DX2 analytically  !
 ! A36   A(14,15,18)           119.8603         calculate D2E/DX2 analytically  !
 ! A37   A(16,15,18)           119.8237         calculate D2E/DX2 analytically  !
 ! A38   A(15,16,17)           119.8074         calculate D2E/DX2 analytically  !
 ! A39   A(15,16,31)           120.4001         calculate D2E/DX2 analytically  !
 ! A40   A(17,16,31)           119.792          calculate D2E/DX2 analytically  !
 ! A41   A(12,17,16)           120.6672         calculate D2E/DX2 analytically  !
 ! A42   A(12,17,32)           120.4782         calculate D2E/DX2 analytically  !
 ! A43   A(16,17,32)           118.8528         calculate D2E/DX2 analytically  !
 ! A44   A(1,19,20)            120.6284         calculate D2E/DX2 analytically  !
 ! A45   A(1,19,33)            120.434          calculate D2E/DX2 analytically  !
 ! A46   A(20,19,33)           118.9354         calculate D2E/DX2 analytically  !
 ! A47   A(19,20,21)           119.8611         calculate D2E/DX2 analytically  !
 ! A48   A(19,20,34)           119.7336         calculate D2E/DX2 analytically  !
 ! A49   A(21,20,34)           120.405          calculate D2E/DX2 analytically  !
 ! A50   A(20,21,22)           120.3041         calculate D2E/DX2 analytically  !
 ! A51   A(20,21,24)           119.8707         calculate D2E/DX2 analytically  !
 ! A52   A(22,21,24)           119.8252         calculate D2E/DX2 analytically  !
 ! A53   A(21,22,23)           119.8154         calculate D2E/DX2 analytically  !
 ! A54   A(21,22,35)           120.3998         calculate D2E/DX2 analytically  !
 ! A55   A(23,22,35)           119.7843         calculate D2E/DX2 analytically  !
 ! A56   A(1,23,22)            120.6756         calculate D2E/DX2 analytically  !
 ! A57   A(1,23,36)            120.4691         calculate D2E/DX2 analytically  !
 ! A58   A(22,23,36)           118.8537         calculate D2E/DX2 analytically  !
 ! D1    D(19,1,2,3)            59.2938         calculate D2E/DX2 analytically  !
 ! D2    D(19,1,2,25)          -58.5351         calculate D2E/DX2 analytically  !
 ! D3    D(19,1,2,26)         -175.7476         calculate D2E/DX2 analytically  !
 ! D4    D(23,1,2,3)          -123.1773         calculate D2E/DX2 analytically  !
 ! D5    D(23,1,2,25)          118.9939         calculate D2E/DX2 analytically  !
 ! D6    D(23,1,2,26)            1.7814         calculate D2E/DX2 analytically  !
 ! D7    D(2,1,19,20)          179.9787         calculate D2E/DX2 analytically  !
 ! D8    D(2,1,19,33)           -0.5613         calculate D2E/DX2 analytically  !
 ! D9    D(23,1,19,20)           2.423          calculate D2E/DX2 analytically  !
 ! D10   D(23,1,19,33)        -178.117          calculate D2E/DX2 analytically  !
 ! D11   D(2,1,23,22)         -179.8651         calculate D2E/DX2 analytically  !
 ! D12   D(2,1,23,36)            0.6171         calculate D2E/DX2 analytically  !
 ! D13   D(19,1,23,22)          -2.2661         calculate D2E/DX2 analytically  !
 ! D14   D(19,1,23,36)         178.2161         calculate D2E/DX2 analytically  !
 ! D15   D(1,2,3,4)            120.0            calculate D2E/DX2 analytically  !
 ! D16   D(25,2,3,4)          -121.5757         calculate D2E/DX2 analytically  !
 ! D17   D(26,2,3,4)            -3.422          calculate D2E/DX2 analytically  !
 ! D18   D(2,3,4,5)             -0.0791         calculate D2E/DX2 analytically  !
 ! D19   D(2,3,4,6)            178.8169         calculate D2E/DX2 analytically  !
 ! D20   D(3,4,6,7)           -179.2939         calculate D2E/DX2 analytically  !
 ! D21   D(5,4,6,7)             -0.4336         calculate D2E/DX2 analytically  !
 ! D22   D(4,6,7,8)            178.0638         calculate D2E/DX2 analytically  !
 ! D23   D(6,7,8,9)           -149.6467         calculate D2E/DX2 analytically  !
 ! D24   D(6,7,8,10)            31.4487         calculate D2E/DX2 analytically  !
 ! D25   D(7,8,10,11)          178.9394         calculate D2E/DX2 analytically  !
 ! D26   D(9,8,10,11)           -0.0005         calculate D2E/DX2 analytically  !
 ! D27   D(8,10,11,12)         119.9999         calculate D2E/DX2 analytically  !
 ! D28   D(8,10,11,27)          -3.3299         calculate D2E/DX2 analytically  !
 ! D29   D(8,10,11,28)        -121.5229         calculate D2E/DX2 analytically  !
 ! D30   D(10,11,12,13)          0.0003         calculate D2E/DX2 analytically  !
 ! D31   D(10,11,12,17)        177.5577         calculate D2E/DX2 analytically  !
 ! D32   D(27,11,12,13)        124.8787         calculate D2E/DX2 analytically  !
 ! D33   D(27,11,12,17)        -57.5638         calculate D2E/DX2 analytically  !
 ! D34   D(28,11,12,13)       -117.8237         calculate D2E/DX2 analytically  !
 ! D35   D(28,11,12,17)         59.7337         calculate D2E/DX2 analytically  !
 ! D36   D(11,12,13,14)       -179.9698         calculate D2E/DX2 analytically  !
 ! D37   D(11,12,13,29)         -0.5269         calculate D2E/DX2 analytically  !
 ! D38   D(17,12,13,14)          2.4464         calculate D2E/DX2 analytically  !
 ! D39   D(17,12,13,29)       -178.1107         calculate D2E/DX2 analytically  !
 ! D40   D(11,12,17,16)       -179.8986         calculate D2E/DX2 analytically  !
 ! D41   D(11,12,17,32)          0.5947         calculate D2E/DX2 analytically  !
 ! D42   D(13,12,17,16)         -2.2718         calculate D2E/DX2 analytically  !
 ! D43   D(13,12,17,32)        178.2215         calculate D2E/DX2 analytically  !
 ! D44   D(12,13,14,15)         -0.9083         calculate D2E/DX2 analytically  !
 ! D45   D(12,13,14,30)        178.8988         calculate D2E/DX2 analytically  !
 ! D46   D(29,13,14,15)        179.6406         calculate D2E/DX2 analytically  !
 ! D47   D(29,13,14,30)         -0.5523         calculate D2E/DX2 analytically  !
 ! D48   D(13,14,15,16)         -0.8576         calculate D2E/DX2 analytically  !
 ! D49   D(13,14,15,18)        179.086          calculate D2E/DX2 analytically  !
 ! D50   D(30,14,15,16)        179.3367         calculate D2E/DX2 analytically  !
 ! D51   D(30,14,15,18)         -0.7197         calculate D2E/DX2 analytically  !
 ! D52   D(14,15,16,17)          1.0309         calculate D2E/DX2 analytically  !
 ! D53   D(14,15,16,31)       -179.232          calculate D2E/DX2 analytically  !
 ! D54   D(18,15,16,17)       -178.9127         calculate D2E/DX2 analytically  !
 ! D55   D(18,15,16,31)          0.8244         calculate D2E/DX2 analytically  !
 ! D56   D(15,16,17,12)          0.558          calculate D2E/DX2 analytically  !
 ! D57   D(15,16,17,32)       -179.9274         calculate D2E/DX2 analytically  !
 ! D58   D(31,16,17,12)       -179.1807         calculate D2E/DX2 analytically  !
 ! D59   D(31,16,17,32)          0.3339         calculate D2E/DX2 analytically  !
 ! D60   D(1,19,20,21)          -0.8875         calculate D2E/DX2 analytically  !
 ! D61   D(1,19,20,34)         178.9148         calculate D2E/DX2 analytically  !
 ! D62   D(33,19,20,21)        179.6446         calculate D2E/DX2 analytically  !
 ! D63   D(33,19,20,34)         -0.5531         calculate D2E/DX2 analytically  !
 ! D64   D(19,20,21,22)         -0.8581         calculate D2E/DX2 analytically  !
 ! D65   D(19,20,21,24)        179.0885         calculate D2E/DX2 analytically  !
 ! D66   D(34,20,21,22)        179.3409         calculate D2E/DX2 analytically  !
 ! D67   D(34,20,21,24)         -0.7125         calculate D2E/DX2 analytically  !
 ! D68   D(20,21,22,23)          1.0144         calculate D2E/DX2 analytically  !
 ! D69   D(20,21,22,35)       -179.2332         calculate D2E/DX2 analytically  !
 ! D70   D(24,21,22,23)       -178.9323         calculate D2E/DX2 analytically  !
 ! D71   D(24,21,22,35)          0.8201         calculate D2E/DX2 analytically  !
 ! D72   D(21,22,23,1)           0.5718         calculate D2E/DX2 analytically  !
 ! D73   D(21,22,23,36)       -179.9027         calculate D2E/DX2 analytically  !
 ! D74   D(35,22,23,1)        -179.1821         calculate D2E/DX2 analytically  !
 ! D75   D(35,22,23,36)          0.3434         calculate D2E/DX2 analytically  !
 --------------------------------------------------------------------------------
 Trust Radius=3.00D-01 FncErr=1.00D-07 GrdErr=1.00D-06 EigMax=2.50D+02 EigMin=1.00D-04
 Number of steps in this run=    180 maximum allowed number of steps=    216.
 GradGradGradGradGradGradGradGradGradGradGradGradGradGradGradGradGradGrad

                          Input orientation:                          
 ---------------------------------------------------------------------
 Center     Atomic      Atomic             Coordinates (Angstroms)
 Number     Number       Type             X           Y           Z
 ---------------------------------------------------------------------
      1          6           0       -2.059290   -0.123860   -1.276310
      2          6           0       -3.058570    0.030110   -0.150740
      3          8           0       -3.652530    1.335050   -0.178250
      4          6           0       -5.004100    1.393200   -0.331000
      5          8           0       -5.727320    0.409240   -0.445580
      6          7           0       -5.404000    2.712200   -0.308800
      7          7           0       -6.644900    2.840200   -0.430800
      8          6           0       -7.045800    4.156800   -0.365500
      9          8           0       -8.117980    4.576620    0.055550
     10          8           0       -6.061990    4.949600   -0.872210
     11          6           0       -6.319270    6.360190   -0.905020
     12          6           0       -5.291710    7.107050   -0.083640
     13          6           0       -4.259100    6.433920    0.587740
     14          6           0       -3.319660    7.142290    1.342230
     15          6           0       -3.394380    8.530760    1.415710
     16          6           0       -4.389920    9.218500    0.726690
     17          6           0       -5.331430    8.509500   -0.024800
     18         17           0       -2.252310    9.401080    2.363380
     19          6           0       -0.947190    0.724820   -1.391130
     20          6           0       -0.035060    0.565760   -2.438400
     21          6           0       -0.217920   -0.454720   -3.368160
     22          6           0       -1.295360   -1.328650   -3.249370
     23          6           0       -2.209000   -1.167350   -2.204060
     24         17           0        0.891450   -0.636150   -4.670610
     25          1           0       -2.528490   -0.072440    0.802880
     26          1           0       -3.802830   -0.772450   -0.199900
     27          1           0       -7.327460    6.612010   -0.558790
     28          1           0       -6.238680    6.686870   -1.947700
     29          1           0       -4.182970    5.349250    0.535930
     30          1           0       -2.536880    6.604590    1.870640
     31          1           0       -4.441980   10.303100    0.773060
     32          1           0       -6.102260    9.062900   -0.558270
     33          1           0       -0.786500    1.523840   -0.669550
     34          1           0        0.811390    1.242270   -2.523470
     35          1           0       -1.432600   -2.133320   -3.967060
     36          1           0       -3.044630   -1.860440   -2.125130
 ---------------------------------------------------------------------
                    Distance matrix (angstroms):
                    1          2          3          4          5
     1  C    0.000000
     2  C    1.513002   0.000000
     3  O    2.423338   1.434020   0.000000
     4  C    3.444849   2.382351   1.361417   0.000000
     5  O    3.798520   2.711623   2.287650   1.226521   0.000000
     6  N    4.490701   3.566459   2.231868   1.378468   2.329564
     7  N    5.525247   4.564735   3.359098   2.189976   2.598411
     8  C    6.634675   5.742273   4.417196   3.436163   3.973539
     9  O    7.783064   6.805214   5.522923   4.469881   4.830470
    10  O    6.474944   5.808824   4.399096   3.749669   4.572624
    11  C    7.767122   7.160378   5.735131   5.170122   5.997941
    12  C    8.009810   7.421219   6.000987   5.726429   6.721712
    13  C    7.163681   6.557088   5.191642   5.177641   6.286509
    14  C    7.825741   7.271880   6.012212   6.220054   7.370689
    15  C    9.161435   8.650294   7.374659   7.522430   8.652520
    16  C    9.834812   9.325711   7.969407   7.920306   8.986986
    17  C    9.317086   8.779625   7.369870   7.130402   8.120837
    18  Cl  10.198484   9.735807   8.572126   8.885841  10.040873
    19  C    1.403641   2.545411   3.026933   4.246072   4.882960
    20  C    2.433832   3.829089   4.334302   5.460508   6.033047
    21  C    2.806412   4.319276   5.017504   5.962103   6.296141
    22  C    2.434764   3.815317   4.699290   5.447945   5.524832
    23  C    1.404281   2.524243   3.528412   4.228162   4.237507
    24  Cl   4.526652   6.039519   6.686904   7.596577   7.921606
    25  H    2.132094   1.095852   2.051124   3.092318   3.467446
    26  H    2.149246   1.095647   2.112964   2.479975   2.271654
    27  H    8.581398   7.855656   6.441757   5.717156   6.406842
    28  H    8.018984   7.593064   6.201702   5.671054   6.475067
    29  H    6.144035   5.479876   4.111596   4.132330   5.268024
    30  H    7.443348   6.897965   5.762871   6.171951   7.343442
    31  H   10.890300  10.406803   9.052853   8.995624  10.051152
    32  H   10.062691   9.540515   8.115741   7.751252   8.662512
    33  H    2.168656   2.768157   2.913957   4.233182   5.069931
    34  H    3.415044   4.698486   5.043337   6.216883   6.911316
    35  H    3.416256   4.678515   5.595781   6.197813   6.108196
    36  H    2.169585   2.733604   3.790916   4.200547   3.894761
                    6          7          8          9         10
     6  N    0.000000
     7  N    1.253436   0.000000
     8  C    2.187599   1.377832   0.000000
     9  O    3.312778   2.328445   1.226011   0.000000
    10  O    2.399237   2.232531   1.361311   2.286252   0.000000
    11  C    3.808022   3.566686   2.381986   2.709091   1.434236
    12  C    4.402046   4.489727   3.443872   3.796084   2.422760
    13  C    3.995720   4.432188   3.722854   4.315524   2.754101
    14  C    5.166824   5.719164   5.070859   5.591251   4.151145
    15  C    6.392820   6.808667   5.969682   6.308538   5.017512
    16  C    6.665774   6.863485   5.819569   5.991320   4.855492
    17  C    5.804706   5.833610   4.690537   4.820670   3.731583
    18  Cl   7.862240   8.375407   7.610966   7.937731   6.693159
    19  C    4.998427   6.153126   7.072726   8.267374   6.654264
    20  C    6.161811   7.272793   8.145119   9.361644   7.615438
    21  C    6.803271   7.796836   8.769380   9.972318   8.342038
    22  C    6.469648   7.344469   8.454255   9.609519   8.233351
    23  C    5.371307   6.235553   7.424386   8.544886   7.350948
    24  Cl   8.358799   9.319741  10.222831  11.431509   9.694265
    25  H    4.154348   5.191365   6.297434   7.308533   6.364938
    26  H    3.836455   4.602382   5.902693   6.877378   6.188510
    27  H    4.355538   3.835208   2.478861   2.268292   2.112641
    28  H    4.379576   4.154861   3.091287   3.463803   2.050855
    29  H    3.026304   3.645682   3.229599   4.038815   2.381868
    30  H    5.302927   6.028523   5.596638   6.209339   4.763257
    31  H    7.727721   7.873818   6.771499   6.842541   5.830207
    32  H    6.393840   6.247616   4.999725   4.956472   4.125460
    33  H    4.781595   6.009214   6.797335   7.974700   6.293465
    34  H    6.759921   7.907522   8.653713   9.874355   7.982124
    35  H    7.254926   8.025528   9.167598  10.290724   9.009834
    36  H    5.456621   6.158629   7.437260   8.481155   7.553206
                   11         12         13         14         15
    11  C    0.000000
    12  C    1.512728   0.000000
    13  C    2.545205   1.403616   0.000000
    14  C    3.828769   2.433789   1.397709   0.000000
    15  C    4.318813   2.806218   2.414542   1.392419   0.000000
    16  C    3.815076   2.434765   2.791112   2.415573   1.392420
    17  C    2.523915   1.404246   2.415187   2.790207   2.414060
    18  Cl   6.039008   4.526415   3.998017   2.698910   1.720424
    19  C    7.800830   7.830533   6.890464   7.367754   8.648687
    20  C    8.684352   8.715833   7.838070   8.266348   9.464693
    21  C    9.472937   9.680485   8.912555   9.461666  10.663684
    22  C    9.479130   9.856657   9.152304   9.845680  11.107512
    23  C    8.674427   9.081023   8.353225   9.102739  10.419271
    24  Cl  10.729535  10.919199  10.206091  10.695411  11.808635
    25  H    7.659351   7.743796   6.736024   7.277993   8.668355
    26  H    7.596329   8.019776   7.263630   8.078040   9.451283
    27  H    1.095324   2.148281   3.280409   4.467386   4.800976
    28  H    1.095626   2.132609   3.226636   4.421733   4.775196
    29  H    2.768052   2.168648   1.088572   2.147188   3.393802
    30  H    4.697924   3.414786   2.154299   1.086776   2.156942
    31  H    4.678323   3.416242   3.877930   3.402099   2.156769
    32  H    2.733490   2.169704   3.409122   3.878596   3.392990
    33  H    7.352365   7.198086   6.143990   6.483143   7.761847
    34  H    8.925178   8.808873   7.895741   8.174316   9.291272
    35  H   10.266223  10.740490  10.106083  10.852949  12.105594
    36  H    8.932564   9.467467   8.810846   9.651289  10.983484
                   16         17         18         19         20
    16  C    0.000000
    17  C    1.397805   0.000000
    18  Cl   2.698419   3.997411   0.000000
    19  C    9.406389   9.038233   9.543436   0.000000
    20  C   10.190805   9.847843  10.297386   1.397875   0.000000
    21  C   11.302414  10.848193  11.581282   2.414911   1.392577
    22  C   11.688786  11.112016  12.146844   2.791239   2.415537
    23  C   11.009613  10.399047  11.513257   2.415228   2.790090
    24  Cl  12.415226  11.997946  12.653309   3.998478   2.699217
    25  H    9.475880   9.065937   9.605156   2.819541   4.138887
    26  H   10.050986   9.408606  10.605434   3.437372   4.582333
    27  H    4.132238   2.805307   6.486535   8.721218   9.657597
    28  H    4.120610   2.800469   6.468655   7.990975   8.728899
    29  H    3.879473   3.408894   4.846065   5.963991   6.995254
    30  H    3.402191   3.876968   2.853792   6.909266   7.829074
    31  H    1.086838   2.155157   2.852615  10.423086  11.160207
    32  H    2.146495   1.088587   4.844845   9.838292  10.608826
    33  H    8.610570   8.358920   8.567273   1.088546   2.147419
    34  H   10.061680   9.838202   9.991684   2.154658   1.086913
    35  H   12.634906  12.000496  13.182897   3.878144   3.402198
    36  H   11.518923  10.824809  12.148923   3.409044   3.878414
                   21         22         23         24         25
    21  C    0.000000
    22  C    1.392387   0.000000
    23  C    2.413995   1.397651   0.000000
    24  Cl   1.720463   2.698447   3.997353   0.000000
    25  H    4.783560   4.418077   3.215990   6.478646   0.000000
    26  H    4.794831   3.986983   2.590926   6.483987   1.766217
    27  H   10.410417  10.328578   9.456426  11.704417   8.340631
    28  H    9.448257   9.506804   8.831354  10.577316   8.186542
    29  H    8.040498   8.201289   7.339631   9.417155   5.674794
    30  H    9.091560   9.523244   8.781443  10.342616   6.761872
    31  H   12.276933  12.703494  12.059049  13.332149  10.550553
    32  H   11.537159  11.761489  11.069061  12.644955   9.903484
    33  H    3.394183   3.879576   3.408919   4.846602   2.784006
    34  H    2.157025   3.402199   3.876989   2.853959   4.893656
    35  H    2.156809   1.086926   2.155009   2.852667   5.310417
    36  H    3.392855   2.146314   1.088522   4.844696   3.469378
                   26         27         28         29         30
    26  H    0.000000
    27  H    8.190364   0.000000
    28  H    8.039255   1.766385   0.000000
    29  H    6.177472   3.561010   3.490500   0.000000
    30  H    7.765983   5.371391   5.318817   2.463116   0.000000
    31  H   11.136560   4.870725   4.869064   4.966281   4.302681
    32  H   10.106924   2.740069   2.755838   4.321128   4.965363
    33  H    3.819917   8.287696   7.616877   5.255754   5.943939
    34  H    5.545187   9.946605   8.926291   7.153380   7.698934
    35  H    4.654186  11.083613  10.245583   9.155889  10.566421
    36  H    2.337755   9.621770   9.126333   7.768957   9.374472
                   31         32         33         34         35
    31  H    0.000000
    32  H    2.463141   0.000000
    33  H    9.618683   9.225352   0.000000
    34  H   10.980148  10.621809   2.463646   0.000000
    35  H   13.645133  12.600830   4.966471   4.302796   0.000000
    36  H   12.581884  11.450917   4.321020   4.965317   2.462887
                   36
    36  H    0.000000
 Stoichiometry    C16H12Cl2N2O4
 Framework group  C1[X(C16H12Cl2N2O4)]
 Deg. of freedom   102
 Full point group                 C1      NOp   1
 Largest Abelian subgroup         C1      NOp   1
 Largest concise Abelian subgroup C1      NOp   1
                         Standard orientation:                         
 ---------------------------------------------------------------------
 Center     Atomic      Atomic             Coordinates (Angstroms)
 Number     Number       Type             X           Y           Z
 ---------------------------------------------------------------------
      1          6           0        3.848521    0.104630   -0.985189
      2          6           0        2.927074    0.990648   -1.794561
      3          8           0        1.613367    1.011018   -1.219956
      4          6           0        1.135586    2.221056   -0.818723
      5          8           0        1.756186    3.274246   -0.918721
      6          7           0       -0.139215    2.059514   -0.319763
      7          7           0       -0.648337    3.141109    0.057129
      8          6           0       -1.937943    2.982691    0.515649
      9          8           0       -2.842341    3.808581    0.460222
     10          8           0       -2.064379    1.749459    1.078074
     11          6           0       -3.344706    1.419022    1.633599
     12          6           0       -3.924342    0.202558    0.946152
     13          6           0       -3.236556   -0.454003   -0.086328
     14          6           0       -3.789588   -1.576284   -0.709411
     15          6           0       -5.026009   -2.061969   -0.292034
     16          6           0       -5.706128   -1.445720    0.755108
     17          6           0       -5.154453   -0.321204    1.375575
     18         17           0       -5.717765   -3.429106   -1.074512
     19          6           0        3.570826   -1.257136   -0.788495
     20          6           0        4.435265   -2.059038   -0.037660
     21          6           0        5.593373   -1.509662    0.506623
     22          6           0        5.903516   -0.169408    0.291515
     23          6           0        5.037376    0.632923   -0.456479
     24         17           0        6.645494   -2.490617    1.450426
     25          1           0        2.840432    0.573883   -2.804359
     26          1           0        3.360724    1.992328   -1.889573
     27          1           0       -4.054493    2.251449    1.578781
     28          1           0       -3.194782    1.184175    2.693205
     29          1           0       -2.266410   -0.090688   -0.420705
     30          1           0       -3.252313   -2.062446   -1.519390
     31          1           0       -6.665465   -1.831207    1.090204
     32          1           0       -5.698847    0.147578    2.193438
     33          1           0        2.672803   -1.703512   -1.211858
     34          1           0        4.197016   -3.107689    0.120290
     35          1           0        6.813302    0.257870    0.705194
     36          1           0        5.295978    1.678130   -0.616320
 ---------------------------------------------------------------------
 Rotational constants (GHZ):           0.2401447           0.0717677           0.0599971
 Standard basis: 6-31G(d) (6D, 7F)
 There are   392 symmetry adapted cartesian basis functions of A   symmetry.
 There are   392 symmetry adapted basis functions of A   symmetry.
   392 basis functions,   768 primitive gaussians,   392 cartesian basis functions
    94 alpha electrons       94 beta electrons
       nuclear repulsion energy      2046.2778530902 Hartrees.
 NAtoms=   36 NActive=   36 NUniq=   36 SFac= 1.00D+00 NAtFMM=   60 NAOKFM=F Big=F
 Integral buffers will be    131072 words long.
 Raffenetti 2 integral format.
 Two-electron integral symmetry is turned on.
 One-electron integrals computed using PRISM.
 NBasis=   392 RedAO= T EigKep=  4.49D-04  NBF=   392
 NBsUse=   392 1.00D-06 EigRej= -1.00D+00 NBFU=   392
 ExpMin= 1.43D-01 ExpMax= 2.52D+04 ExpMxC= 3.78D+03 IAcc=3 IRadAn=         5 AccDes= 0.00D+00
 Harris functional with IExCor=  402 and IRadAn=       5 diagonalized for initial guess.
 HarFok:  IExCor=  402 AccDes= 0.00D+00 IRadAn=         5 IDoV= 1 UseB2=F ITyADJ=14
 ICtDFT=  3500011 ScaDFX=  1.000000  1.000000  1.000000  1.000000
 FoFCou: FMM=F IPFlag=           0 FMFlag=      100000 FMFlg1=           0
         NFxFlg=           0 DoJE=T BraDBF=F KetDBF=T FulRan=T
         wScrn=  0.000000 ICntrl=       500 IOpCl=  0 I1Cent=   200000004 NGrid=           0
         NMat0=    1 NMatS0=      1 NMatT0=    0 NMatD0=    1 NMtDS0=    0 NMtDT0=    0
 Petite list used in FoFCou.
 Gradient too large for Newton-Raphson -- use scaled steepest descent instead.
 Gradient too large for Newton-Raphson -- use scaled steepest descent instead.
 Gradient too large for Newton-Raphson -- use scaled steepest descent instead.
     Minimum is close to point  2 DX=  1.71D-02 DF= -1.64D-05 DXR=  4.09D-02 DFR=  1.68D-03 which will be used.
 Gradient too large for Newton-Raphson -- use scaled steepest descent instead.
     Minimum is close to point  2 DX=  4.39D-02 DF= -2.75D-05 DXR=  9.89D-02 DFR=  9.88D-03 which will be used.
 Gradient too large for Newton-Raphson -- use scaled steepest descent instead.
 Gradient too large for Newton-Raphson -- use scaled steepest descent instead.
     Accept linear search using points  1 and  2.
 Gradient too large for Newton-Raphson -- use scaled steepest descent instead.
     Minimum is close to point  3 DX=  1.12D-02 DF= -2.01D-08 DXR=  1.11D-02 DFR=  1.23D-04 which will be used.
 LinEq1:  Iter=  0 NonCon=     1 RMS=3.39D-05 Max=1.61D-03 NDo=     1
 AX will form     1 AO Fock derivatives at one time.
 LinEq1:  Iter=  1 NonCon=     1 RMS=3.85D-05 Max=2.18D-03 NDo=     1
 LinEq1:  Iter=  2 NonCon=     1 RMS=1.01D-05 Max=4.74D-04 NDo=     1
 LinEq1:  Iter=  3 NonCon=     1 RMS=1.07D-05 Max=8.59D-04 NDo=     1
 LinEq1:  Iter=  4 NonCon=     1 RMS=4.63D-06 Max=3.97D-04 NDo=     1
 LinEq1:  Iter=  5 NonCon=     1 RMS=3.23D-06 Max=2.39D-04 NDo=     1
 LinEq1:  Iter=  6 NonCon=     1 RMS=1.80D-06 Max=7.68D-05 NDo=     1
 LinEq1:  Iter=  7 NonCon=     1 RMS=1.43D-06 Max=6.56D-05 NDo=     1
 LinEq1:  Iter=  8 NonCon=     1 RMS=1.12D-06 Max=5.56D-05 NDo=     1
 LinEq1:  Iter=  9 NonCon=     1 RMS=8.29D-07 Max=4.52D-05 NDo=     1
 LinEq1:  Iter= 10 NonCon=     1 RMS=4.94D-07 Max=2.76D-05 NDo=     1
 LinEq1:  Iter= 11 NonCon=     1 RMS=2.78D-07 Max=1.50D-05 NDo=     1
 LinEq1:  Iter= 12 NonCon=     1 RMS=1.84D-07 Max=1.17D-05 NDo=     1
 LinEq1:  Iter= 13 NonCon=     1 RMS=1.01D-07 Max=4.33D-06 NDo=     1
 LinEq1:  Iter= 14 NonCon=     1 RMS=6.04D-08 Max=2.94D-06 NDo=     1
 LinEq1:  Iter= 15 NonCon=     1 RMS=4.30D-08 Max=2.43D-06 NDo=     1
 LinEq1:  Iter= 16 NonCon=     1 RMS=2.47D-08 Max=8.89D-07 NDo=     1
 LinEq1:  Iter= 17 NonCon=     1 RMS=1.18D-08 Max=2.91D-07 NDo=     1
 LinEq1:  Iter= 18 NonCon=     0 RMS=5.82D-09 Max=1.81D-07 NDo=     1
 Linear equations converged to 2.367D-08 2.367D-07 after    18 iterations.
 Restarting incremental Fock formation.
     Accept linear search using points  2 and  3.
     Minimum is close to point  2 DX=  4.65D-05 DF=  0.00D+00 DXR=  4.65D-05 DFR=  0.00D+00 which will be used.
 LinEq1:  Iter=  0 NonCon=     1 RMS=2.55D-08 Max=1.54D-06 NDo=     1
 LinEq1:  Iter=  1 NonCon=     1 RMS=1.97D-08 Max=9.32D-07 NDo=     1
 LinEq1:  Iter=  2 NonCon=     1 RMS=1.35D-08 Max=7.97D-07 NDo=     1
 LinEq1:  Iter=  3 NonCon=     1 RMS=9.67D-09 Max=7.64D-07 NDo=     1
 LinEq1:  Iter=  4 NonCon=     1 RMS=9.35D-09 Max=8.28D-07 NDo=     1
 LinEq1:  Iter=  5 NonCon=     1 RMS=6.44D-09 Max=2.85D-07 NDo=     1
 LinEq1:  Iter=  6 NonCon=     1 RMS=4.65D-09 Max=1.97D-07 NDo=     1
 LinEq1:  Iter=  7 NonCon=     1 RMS=3.89D-09 Max=1.41D-07 NDo=     1
 LinEq1:  Iter=  8 NonCon=     1 RMS=3.14D-09 Max=1.87D-07 NDo=     1
 LinEq1:  Iter=  9 NonCon=     1 RMS=2.02D-09 Max=9.09D-08 NDo=     1
 LinEq1:  Iter= 10 NonCon=     1 RMS=1.36D-09 Max=7.14D-08 NDo=     1
 LinEq1:  Iter= 11 NonCon=     1 RMS=1.12D-09 Max=5.94D-08 NDo=     1
 LinEq1:  Iter= 12 NonCon=     1 RMS=6.09D-10 Max=3.22D-08 NDo=     1
 LinEq1:  Iter= 13 NonCon=     1 RMS=3.47D-10 Max=1.24D-08 NDo=     1
 LinEq1:  Iter= 14 NonCon=     1 RMS=1.45D-10 Max=5.08D-09 NDo=     1
 LinEq1:  Iter= 15 NonCon=     1 RMS=8.95D-11 Max=4.87D-09 NDo=     1
 LinEq1:  Iter= 16 NonCon=     1 RMS=5.65D-11 Max=1.90D-09 NDo=     1
 LinEq1:  Iter= 17 NonCon=     1 RMS=2.79D-11 Max=1.05D-09 NDo=     1
 LinEq1:  Iter= 18 NonCon=     1 RMS=1.38D-11 Max=3.70D-10 NDo=     1
 LinEq1:  Iter= 19 NonCon=     0 RMS=7.24D-12 Max=2.35D-10 NDo=     1
 Linear equations converged to 2.752D-11 2.752D-10 after    19 iterations.
 SCF Done:  E(RB3LYP) =  -1947.64851955     a.u. after   10 cycles
            Convg  =    0.4092D-09                    59 Fock formations.
              S**2 =  0.0000                  -V/T =  2.0063
 DoSCS=F DFT=T ScalE2(SS,OS)=  1.000000  1.000000
 Range of M.O.s used for correlation:     1   392
 NBasis=   392 NAE=    94 NBE=    94 NFC=     0 NFV=     0
 NROrb=    392 NOA=    94 NOB=    94 NVA=   298 NVB=   298

 **** Warning!!: The smallest alpha delta epsilon is  0.90936853D-01

 Symmetrizing basis deriv contribution to polar:
 IMax=3 JMax=2 DiffMx= 0.00D+00
 G2DrvN: will do    37 centers at a time, making    1 passes.
 Calling FoFCou, ICntrl=  3107 FMM=F I1Cent=   0 AccDes= 0.00D+00.
 End of G2Drv F.D. properties file   721 does not exist.
 End of G2Drv F.D. properties file   722 does not exist.
 End of G2Drv F.D. properties file   788 does not exist.
          IDoAtm=111111111111111111111111111111111111
          Differentiating once with respect to electric field.
                with respect to dipole field.
          Differentiating once with respect to nuclear coordinates.
 CalDSu exits because no D1Ps are significant.
          There are   111 degrees of freedom in the 1st order CPHF.  IDoFFX=6 NUNeed=     3.
    108 vectors produced by pass  0 Test12= 2.80D-14 1.00D-09 XBig12= 2.69D+02 5.84D+00.
 AX will form   108 AO Fock derivatives at one time.
    108 vectors produced by pass  1 Test12= 2.80D-14 1.00D-09 XBig12= 8.10D+01 1.84D+00.
    108 vectors produced by pass  2 Test12= 2.80D-14 1.00D-09 XBig12= 1.10D+00 1.48D-01.
    108 vectors produced by pass  3 Test12= 2.80D-14 1.00D-09 XBig12= 1.18D-02 8.97D-03.
    108 vectors produced by pass  4 Test12= 2.80D-14 1.00D-09 XBig12= 2.83D-05 5.56D-04.
    105 vectors produced by pass  5 Test12= 2.80D-14 1.00D-09 XBig12= 3.69D-08 1.98D-05.
     30 vectors produced by pass  6 Test12= 2.80D-14 1.00D-09 XBig12= 3.80D-11 4.25D-07.
      3 vectors produced by pass  7 Test12= 2.80D-14 1.00D-09 XBig12= 3.35D-14 1.64D-08.
 InvSVY:  IOpt=1 It=  1 EMax= 7.11D-15
 Solved reduced A of dimension   678 with   111 vectors.
 Isotropic polarizability for W=    0.000000      212.52 Bohr**3.
 End of Minotr F.D. properties file   721 does not exist.
 End of Minotr F.D. properties file   722 does not exist.
 End of Minotr F.D. properties file   788 does not exist.

 **********************************************************************

            Population analysis using the SCF density.

 **********************************************************************

 Orbital symmetries:
       Occupied  (A) (A) (A) (A) (A) (A) (A) (A) (A) (A) (A) (A)
                 (A) (A) (A) (A) (A) (A) (A) (A) (A) (A) (A) (A)
                 (A) (A) (A) (A) (A) (A) (A) (A) (A) (A) (A) (A)
                 (A) (A) (A) (A) (A) (A) (A) (A) (A) (A) (A) (A)
                 (A) (A) (A) (A) (A) (A) (A) (A) (A) (A) (A) (A)
                 (A) (A) (A) (A) (A) (A) (A) (A) (A) (A) (A) (A)
                 (A) (A) (A) (A) (A) (A) (A) (A) (A) (A) (A) (A)
                 (A) (A) (A) (A) (A) (A) (A) (A) (A) (A)
       Virtual   (A) (A) (A) (A) (A) (A) (A) (A) (A) (A) (A) (A)
                 (A) (A) (A) (A) (A) (A) (A) (A) (A) (A) (A) (A)
                 (A) (A) (A) (A) (A) (A) (A) (A) (A) (A) (A) (A)
                 (A) (A) (A) (A) (A) (A) (A) (A) (A) (A) (A) (A)
                 (A) (A) (A) (A) (A) (A) (A) (A) (A) (A) (A) (A)
                 (A) (A) (A) (A) (A) (A) (A) (A) (A) (A) (A) (A)
                 (A) (A) (A) (A) (A) (A) (A) (A) (A) (A) (A) (A)
                 (A) (A) (A) (A) (A) (A) (A) (A) (A) (A) (A) (A)
                 (A) (A) (A) (A) (A) (A) (A) (A) (A) (A) (A) (A)
                 (A) (A) (A) (A) (A) (A) (A) (A) (A) (A) (A) (A)
                 (A) (A) (A) (A) (A) (A) (A) (A) (A) (A) (A) (A)
                 (A) (A) (A) (A) (A) (A) (A) (A) (A) (A) (A) (A)
                 (A) (A) (A) (A) (A) (A) (A) (A) (A) (A) (A) (A)
                 (A) (A) (A) (A) (A) (A) (A) (A) (A) (A) (A) (A)
                 (A) (A) (A) (A) (A) (A) (A) (A) (A) (A) (A) (A)
                 (A) (A) (A) (A) (A) (A) (A) (A) (A) (A) (A) (A)
                 (A) (A) (A) (A) (A) (A) (A) (A) (A) (A) (A) (A)
                 (A) (A) (A) (A) (A) (A) (A) (A) (A) (A) (A) (A)
                 (A) (A) (A) (A) (A) (A) (A) (A) (A) (A) (A) (A)
                 (A) (A) (A) (A) (A) (A) (A) (A) (A) (A) (A) (A)
                 (A) (A) (A) (A) (A) (A) (A) (A) (A) (A) (A) (A)
                 (A) (A) (A) (A) (A) (A) (A) (A) (A) (A) (A) (A)
                 (A) (A) (A) (A) (A) (A) (A) (A) (A) (A) (A) (A)
                 (A) (A) (A) (A) (A) (A) (A) (A) (A) (A) (A) (A)
                 (A) (A) (A) (A) (A) (A) (A) (A) (A) (A)
 The electronic state is 1-A.
 Alpha  occ. eigenvalues -- -101.55800-101.55197 -19.22718 -19.22085 -19.17639
 Alpha  occ. eigenvalues --  -19.16931 -14.44239 -14.44002 -10.36921 -10.36674
 Alpha  occ. eigenvalues --  -10.26780 -10.26523 -10.26246 -10.25399 -10.22024
 Alpha  occ. eigenvalues --  -10.21654 -10.21563 -10.21521 -10.21461 -10.21416
 Alpha  occ. eigenvalues --  -10.20989 -10.20917 -10.20714 -10.20419  -9.47492
 Alpha  occ. eigenvalues --   -9.46892  -7.23881  -7.23277  -7.22920  -7.22878
 Alpha  occ. eigenvalues --   -7.22319  -7.22283  -1.15675  -1.13417  -1.07986
 Alpha  occ. eigenvalues --   -1.04559  -1.03702  -0.90661  -0.89997  -0.86298
 Alpha  occ. eigenvalues --   -0.85281  -0.84279  -0.78419  -0.77012  -0.76907
 Alpha  occ. eigenvalues --   -0.76203  -0.71707  -0.69661  -0.64511  -0.63445
 Alpha  occ. eigenvalues --   -0.62938  -0.60337  -0.59810  -0.57598  -0.56748
 Alpha  occ. eigenvalues --   -0.53526  -0.53226  -0.52066  -0.51434  -0.49876
 Alpha  occ. eigenvalues --   -0.49020  -0.48828  -0.48033  -0.47734  -0.47142
 Alpha  occ. eigenvalues --   -0.46752  -0.45569  -0.44894  -0.44313  -0.43862
 Alpha  occ. eigenvalues --   -0.43536  -0.42943  -0.40582  -0.40159  -0.39713
 Alpha  occ. eigenvalues --   -0.38872  -0.38573  -0.37805  -0.36939  -0.36598
 Alpha  occ. eigenvalues --   -0.36443  -0.34193  -0.33562  -0.32500  -0.32306
 Alpha  occ. eigenvalues --   -0.32134  -0.32113  -0.31543  -0.31499  -0.27899
 Alpha  occ. eigenvalues --   -0.27298  -0.26616  -0.25476  -0.24413
 Alpha virt. eigenvalues --   -0.15320  -0.03082  -0.02397  -0.02045  -0.01457
 Alpha virt. eigenvalues --    0.00252   0.03091   0.03807   0.04100   0.09955
 Alpha virt. eigenvalues --    0.10288   0.10660   0.10893   0.11738   0.11767
 Alpha virt. eigenvalues --    0.11843   0.12420   0.13845   0.13905   0.16247
 Alpha virt. eigenvalues --    0.16485   0.16887   0.17642   0.18748   0.19692
 Alpha virt. eigenvalues --    0.20933   0.21281   0.21882   0.22113   0.25657
 Alpha virt. eigenvalues --    0.26691   0.27216   0.27595   0.27639   0.28986
 Alpha virt. eigenvalues --    0.29637   0.30972   0.32222   0.32776   0.33083
 Alpha virt. eigenvalues --    0.37954   0.38955   0.39820   0.40373   0.40924
 Alpha virt. eigenvalues --    0.41656   0.41768   0.43090   0.43510   0.44015
 Alpha virt. eigenvalues --    0.45197   0.46359   0.46949   0.47713   0.49635
 Alpha virt. eigenvalues --    0.50343   0.51980   0.52574   0.53241   0.53928
 Alpha virt. eigenvalues --    0.53950   0.54247   0.55006   0.56335   0.56508
 Alpha virt. eigenvalues --    0.57092   0.57383   0.57528   0.57774   0.57980
 Alpha virt. eigenvalues --    0.58248   0.58650   0.59475   0.60193   0.60817
 Alpha virt. eigenvalues --    0.61197   0.61794   0.62309   0.62651   0.62760
 Alpha virt. eigenvalues --    0.63993   0.64930   0.65129   0.65405   0.66116
 Alpha virt. eigenvalues --    0.67391   0.69679   0.70583   0.71556   0.73415
 Alpha virt. eigenvalues --    0.73613   0.74147   0.74482   0.75181   0.75889
 Alpha virt. eigenvalues --    0.77040   0.78611   0.79538   0.80120   0.81066
 Alpha virt. eigenvalues --    0.81900   0.83280   0.83665   0.83931   0.84340
 Alpha virt. eigenvalues --    0.84601   0.84775   0.85387   0.85554   0.86051
 Alpha virt. eigenvalues --    0.86335   0.86943   0.88522   0.89405   0.91235
 Alpha virt. eigenvalues --    0.91402   0.91906   0.92464   0.92693   0.93063
 Alpha virt. eigenvalues --    0.93620   0.95869   0.96310   0.97513   0.99032
 Alpha virt. eigenvalues --    0.99261   1.01505   1.02506   1.03306   1.04319
 Alpha virt. eigenvalues --    1.05467   1.05944   1.07273   1.09447   1.09649
 Alpha virt. eigenvalues --    1.11260   1.11561   1.12357   1.13261   1.14228
 Alpha virt. eigenvalues --    1.14654   1.15642   1.15992   1.17978   1.19237
 Alpha virt. eigenvalues --    1.19839   1.21497   1.23549   1.23937   1.28462
 Alpha virt. eigenvalues --    1.29827   1.33491   1.34063   1.35348   1.37311
 Alpha virt. eigenvalues --    1.39173   1.39522   1.41224   1.41277   1.41519
 Alpha virt. eigenvalues --    1.43089   1.43233   1.44137   1.45343   1.45839
 Alpha virt. eigenvalues --    1.47248   1.47995   1.48926   1.49689   1.50398
 Alpha virt. eigenvalues --    1.53406   1.54588   1.55397   1.56557   1.57980
 Alpha virt. eigenvalues --    1.60757   1.61736   1.66100   1.67640   1.69193
 Alpha virt. eigenvalues --    1.70339   1.72796   1.75394   1.76393   1.76843
 Alpha virt. eigenvalues --    1.77984   1.78369   1.78917   1.79441   1.80897
 Alpha virt. eigenvalues --    1.81371   1.82788   1.82991   1.84387   1.84973
 Alpha virt. eigenvalues --    1.85354   1.90575   1.91849   1.92541   1.93601
 Alpha virt. eigenvalues --    1.94257   1.95016   1.96036   1.98729   1.99845
 Alpha virt. eigenvalues --    2.01224   2.02251   2.03151   2.04223   2.05381
 Alpha virt. eigenvalues --    2.06218   2.06591   2.07196   2.09387   2.10867
 Alpha virt. eigenvalues --    2.12085   2.12227   2.12985   2.13907   2.14277
 Alpha virt. eigenvalues --    2.15913   2.20012   2.21407   2.22270   2.23386
 Alpha virt. eigenvalues --    2.24027   2.27074   2.28373   2.28955   2.29472
 Alpha virt. eigenvalues --    2.30899   2.32061   2.34169   2.36337   2.38317
 Alpha virt. eigenvalues --    2.39315   2.41051   2.43439   2.46805   2.54038
 Alpha virt. eigenvalues --    2.55043   2.56040   2.57349   2.57748   2.59417
 Alpha virt. eigenvalues --    2.62337   2.62755   2.63482   2.64833   2.67544
 Alpha virt. eigenvalues --    2.67818   2.68969   2.70114   2.70431   2.73147
 Alpha virt. eigenvalues --    2.73970   2.74442   2.75870   2.77264   2.77677
 Alpha virt. eigenvalues --    2.81137   2.84309   2.86103   2.87057   2.91163
 Alpha virt. eigenvalues --    2.94103   3.03154   3.04078   3.06717   3.10037
 Alpha virt. eigenvalues --    3.19247   3.24440   3.35654   3.36479   3.78438
 Alpha virt. eigenvalues --    3.91538   3.97540   4.02996   4.04338   4.05135
 Alpha virt. eigenvalues --    4.08226   4.09347   4.09728   4.10887   4.18502
 Alpha virt. eigenvalues --    4.20440   4.23373   4.27294   4.30176   4.30535
 Alpha virt. eigenvalues --    4.31658   4.34542   4.36214   4.41535   4.43201
 Alpha virt. eigenvalues --    4.47818   4.67559   4.68338
          Condensed to atoms (all electrons):
               1          2          3          4          5          6
     1  C    4.695148   0.352659  -0.045408   0.000017   0.000153  -0.000224
     2  C    0.352659   5.043998   0.184584  -0.018189  -0.011129   0.003625
     3  O   -0.045408   0.184584   8.228034   0.294643  -0.075721  -0.086957
     4  C    0.000017  -0.018189   0.294643   4.237315   0.536476   0.237033
     5  O    0.000153  -0.011129  -0.075721   0.536476   8.033053  -0.079935
     6  N   -0.000224   0.003625  -0.086957   0.237033  -0.079935   6.988343
     7  N    0.000004  -0.000106   0.002854  -0.053953   0.000087   0.214329
     8  C   -0.000000   0.000001  -0.000127   0.005022   0.000674  -0.050752
     9  O    0.000000  -0.000000   0.000000  -0.000132   0.000002   0.000692
    10  O   -0.000000   0.000000   0.000002  -0.000215  -0.000009  -0.008931
    11  C   -0.000000   0.000000  -0.000000   0.000013   0.000000   0.000293
    12  C    0.000000  -0.000000   0.000000  -0.000001   0.000000  -0.000101
    13  C    0.000000   0.000000  -0.000008  -0.000019  -0.000000  -0.002536
    14  C   -0.000000  -0.000000   0.000000   0.000000   0.000000   0.000021
    15  C   -0.000000  -0.000000   0.000000   0.000000   0.000000   0.000000
    16  C    0.000000   0.000000  -0.000000  -0.000000  -0.000000  -0.000000
    17  C    0.000000   0.000000   0.000000   0.000000  -0.000000   0.000000
    18  Cl  -0.000000  -0.000000   0.000000  -0.000000   0.000000   0.000000
    19  C    0.527092  -0.062043   0.002824   0.000069   0.000026  -0.000027
    20  C   -0.020553   0.005253   0.000085   0.000002   0.000000  -0.000000
    21  C   -0.030893   0.000401   0.000003  -0.000001   0.000000   0.000000
    22  C   -0.025626   0.006787  -0.000071  -0.000007  -0.000000  -0.000000
    23  C    0.552071  -0.046016  -0.000165   0.000326  -0.000062  -0.000009
    24  Cl   0.000599   0.000007  -0.000000  -0.000000   0.000000  -0.000000
    25  H   -0.035785   0.364536  -0.037879   0.002699   0.000541  -0.000144
    26  H   -0.030903   0.344178  -0.025767  -0.008293   0.022657   0.000627
    27  H   -0.000000   0.000000  -0.000000   0.000002  -0.000000  -0.000115
    28  H    0.000000   0.000000  -0.000000   0.000001  -0.000000   0.000044
    29  H   -0.000000  -0.000001   0.000055   0.000067   0.000003   0.009274
    30  H    0.000000   0.000000  -0.000000  -0.000000  -0.000000  -0.000003
    31  H    0.000000   0.000000  -0.000000   0.000000  -0.000000  -0.000000
    32  H   -0.000000  -0.000000   0.000000   0.000000   0.000000   0.000000
    33  H   -0.044253  -0.007908   0.002445   0.000029   0.000002   0.000001
    34  H    0.003529  -0.000155   0.000001  -0.000000  -0.000000   0.000000
    35  H    0.003692  -0.000163   0.000001   0.000000  -0.000000   0.000000
    36  H   -0.039328  -0.009190   0.000040   0.000030   0.000013   0.000001
               7          8          9         10         11         12
     1  C    0.000004  -0.000000   0.000000  -0.000000  -0.000000   0.000000
     2  C   -0.000106   0.000001  -0.000000   0.000000   0.000000  -0.000000
     3  O    0.002854  -0.000127   0.000000   0.000002  -0.000000   0.000000
     4  C   -0.053953   0.005022  -0.000132  -0.000215   0.000013  -0.000001
     5  O    0.000087   0.000674   0.000002  -0.000009   0.000000   0.000000
     6  N    0.214329  -0.050752   0.000692  -0.008931   0.000293  -0.000101
     7  N    6.945301   0.237830  -0.061219  -0.100457   0.004088  -0.000113
     8  C    0.237830   4.228917   0.557472   0.270115  -0.016429  -0.001056
     9  O   -0.061219   0.557472   8.008171  -0.079761  -0.009462  -0.000380
    10  O   -0.100457   0.270115  -0.079761   8.246057   0.194240  -0.030906
    11  C    0.004088  -0.016429  -0.009462   0.194240   5.019577   0.338034
    12  C   -0.000113  -0.001056  -0.000380  -0.030906   0.338034   4.740631
    13  C    0.000156   0.001171   0.000107  -0.002176  -0.060466   0.556015
    14  C   -0.000002  -0.000009   0.000001   0.000383   0.006391  -0.021962
    15  C   -0.000000  -0.000002  -0.000000  -0.000008   0.000452  -0.032220
    16  C    0.000000   0.000000   0.000000  -0.000060   0.005191  -0.014031
    17  C    0.000001   0.000020  -0.000038   0.002115  -0.061241   0.514074
    18  Cl  -0.000000  -0.000000   0.000000   0.000000   0.000008   0.000673
    19  C    0.000000  -0.000000  -0.000000   0.000000  -0.000000   0.000000
    20  C    0.000000  -0.000000  -0.000000   0.000000  -0.000000   0.000000
    21  C   -0.000000   0.000000  -0.000000   0.000000   0.000000  -0.000000
    22  C    0.000000   0.000000   0.000000   0.000000   0.000000   0.000000
    23  C    0.000000  -0.000000  -0.000000  -0.000000  -0.000000   0.000000
    24  Cl   0.000000  -0.000000   0.000000  -0.000000  -0.000000   0.000000
    25  H    0.000004  -0.000000  -0.000000   0.000000  -0.000000   0.000000
    26  H    0.000011  -0.000000  -0.000000   0.000000  -0.000000   0.000000
    27  H    0.000625  -0.009034   0.022249  -0.027144   0.350642  -0.034467
    28  H   -0.000183   0.002331   0.000478  -0.032399   0.365139  -0.042008
    29  H   -0.001113  -0.000962  -0.000065   0.007474  -0.013557  -0.037156
    30  H    0.000000   0.000001  -0.000000   0.000005  -0.000180   0.003660
    31  H    0.000000   0.000000   0.000000   0.000000  -0.000144   0.003420
    32  H   -0.000000  -0.000004  -0.000003   0.000050  -0.006904  -0.051794
    33  H    0.000000  -0.000000  -0.000000  -0.000000  -0.000000   0.000000
    34  H   -0.000000   0.000000  -0.000000  -0.000000   0.000000  -0.000000
    35  H   -0.000000   0.000000  -0.000000   0.000000   0.000000  -0.000000
    36  H   -0.000000   0.000000  -0.000000  -0.000000   0.000000  -0.000000
              13         14         15         16         17         18
     1  C    0.000000  -0.000000  -0.000000   0.000000   0.000000  -0.000000
     2  C    0.000000  -0.000000  -0.000000   0.000000   0.000000  -0.000000
     3  O   -0.000008   0.000000   0.000000  -0.000000   0.000000   0.000000
     4  C   -0.000019   0.000000   0.000000  -0.000000   0.000000  -0.000000
     5  O   -0.000000   0.000000   0.000000  -0.000000  -0.000000   0.000000
     6  N   -0.002536   0.000021   0.000000  -0.000000   0.000000   0.000000
     7  N    0.000156  -0.000002  -0.000000   0.000000   0.000001  -0.000000
     8  C    0.001171  -0.000009  -0.000002   0.000000   0.000020  -0.000000
     9  O    0.000107   0.000001  -0.000000   0.000000  -0.000038   0.000000
    10  O   -0.002176   0.000383  -0.000008  -0.000060   0.002115   0.000000
    11  C   -0.060466   0.006391   0.000452   0.005191  -0.061241   0.000008
    12  C    0.556015  -0.021962  -0.032220  -0.014031   0.514074   0.000673
    13  C    4.953589   0.497061  -0.028682  -0.042975  -0.032046   0.004474
    14  C    0.497061   4.950673   0.530252  -0.034356  -0.043190  -0.071895
    15  C   -0.028682   0.530252   4.934113   0.532078  -0.031739   0.236545
    16  C   -0.042975  -0.034356   0.532078   4.924725   0.511857  -0.071302
    17  C   -0.032046  -0.043190  -0.031739   0.511857   4.975506   0.004651
    18  Cl   0.004474  -0.071895   0.236545  -0.071302   0.004651  16.909270
    19  C   -0.000000   0.000000   0.000000  -0.000000   0.000000   0.000000
    20  C   -0.000000   0.000000   0.000000  -0.000000   0.000000   0.000000
    21  C    0.000000  -0.000000   0.000000  -0.000000   0.000000  -0.000000
    22  C   -0.000000   0.000000   0.000000  -0.000000  -0.000000   0.000000
    23  C   -0.000000   0.000000   0.000000  -0.000000   0.000000  -0.000000
    24  Cl   0.000000  -0.000000  -0.000000  -0.000000   0.000000   0.000000
    25  H    0.000000  -0.000000  -0.000000   0.000000  -0.000000  -0.000000
    26  H   -0.000000  -0.000000   0.000000  -0.000000   0.000000   0.000000
    27  H    0.002085  -0.000036   0.000012  -0.000064  -0.002055  -0.000000
    28  H    0.000346  -0.000096   0.000026  -0.000141  -0.001051  -0.000000
    29  H    0.353038  -0.042761   0.004466   0.000325   0.005541  -0.000156
    30  H   -0.035493   0.360078  -0.044318   0.004262   0.000844  -0.000422
    31  H    0.000648   0.004440  -0.043031   0.360124  -0.035689  -0.000326
    32  H    0.005332   0.000469   0.004716  -0.041366   0.361738  -0.000175
    33  H   -0.000000   0.000000   0.000000  -0.000000   0.000000  -0.000000
    34  H   -0.000000   0.000000  -0.000000   0.000000  -0.000000   0.000000
    35  H   -0.000000   0.000000   0.000000   0.000000  -0.000000   0.000000
    36  H    0.000000  -0.000000   0.000000   0.000000  -0.000000  -0.000000
              19         20         21         22         23         24
     1  C    0.527092  -0.020553  -0.030893  -0.025626   0.552071   0.000599
     2  C   -0.062043   0.005253   0.000401   0.006787  -0.046016   0.000007
     3  O    0.002824   0.000085   0.000003  -0.000071  -0.000165  -0.000000
     4  C    0.000069   0.000002  -0.000001  -0.000007   0.000326  -0.000000
     5  O    0.000026   0.000000   0.000000  -0.000000  -0.000062   0.000000
     6  N   -0.000027  -0.000000   0.000000  -0.000000  -0.000009  -0.000000
     7  N    0.000000   0.000000  -0.000000   0.000000   0.000000   0.000000
     8  C   -0.000000  -0.000000   0.000000   0.000000  -0.000000  -0.000000
     9  O   -0.000000  -0.000000  -0.000000   0.000000  -0.000000   0.000000
    10  O    0.000000   0.000000   0.000000   0.000000  -0.000000  -0.000000
    11  C   -0.000000  -0.000000   0.000000   0.000000  -0.000000  -0.000000
    12  C    0.000000   0.000000  -0.000000   0.000000   0.000000   0.000000
    13  C   -0.000000  -0.000000   0.000000  -0.000000  -0.000000   0.000000
    14  C    0.000000   0.000000  -0.000000   0.000000   0.000000  -0.000000
    15  C    0.000000   0.000000   0.000000   0.000000   0.000000  -0.000000
    16  C   -0.000000  -0.000000  -0.000000  -0.000000  -0.000000  -0.000000
    17  C    0.000000   0.000000   0.000000  -0.000000   0.000000   0.000000
    18  Cl   0.000000   0.000000  -0.000000   0.000000  -0.000000   0.000000
    19  C    4.954495   0.511518  -0.030220  -0.042138  -0.040051   0.004544
    20  C    0.511518   4.934424   0.528098  -0.035501  -0.041944  -0.071331
    21  C   -0.030220   0.528098   4.927646   0.533943  -0.031109   0.240720
    22  C   -0.042138  -0.035501   0.533943   4.939954   0.504146  -0.071996
    23  C   -0.040051  -0.041944  -0.031109   0.504146   4.945349   0.004605
    24  Cl   0.004544  -0.071331   0.240720  -0.071996   0.004605  16.896313
    25  H   -0.006572  -0.000029   0.000021  -0.000298   0.002542  -0.000000
    26  H    0.005509  -0.000116  -0.000003   0.000102  -0.004753  -0.000000
    27  H   -0.000000   0.000000   0.000000  -0.000000  -0.000000  -0.000000
    28  H   -0.000000  -0.000000   0.000000  -0.000000   0.000000   0.000000
    29  H    0.000000   0.000000   0.000000   0.000000   0.000000  -0.000000
    30  H   -0.000000  -0.000000   0.000000  -0.000000  -0.000000   0.000000
    31  H   -0.000000  -0.000000   0.000000  -0.000000  -0.000000   0.000000
    32  H    0.000000   0.000000  -0.000000   0.000000   0.000000   0.000000
    33  H    0.360993  -0.040960   0.004561   0.000460   0.005059  -0.000167
    34  H   -0.035132   0.360422  -0.043021   0.004340   0.000707  -0.000380
    35  H    0.000688   0.004310  -0.043236   0.359523  -0.034207  -0.000480
    36  H    0.005492   0.000428   0.004453  -0.041608   0.356684  -0.000166
              25         26         27         28         29         30
     1  C   -0.035785  -0.030903  -0.000000   0.000000  -0.000000   0.000000
     2  C    0.364536   0.344178   0.000000   0.000000  -0.000001   0.000000
     3  O   -0.037879  -0.025767  -0.000000  -0.000000   0.000055  -0.000000
     4  C    0.002699  -0.008293   0.000002   0.000001   0.000067  -0.000000
     5  O    0.000541   0.022657  -0.000000  -0.000000   0.000003  -0.000000
     6  N   -0.000144   0.000627  -0.000115   0.000044   0.009274  -0.000003
     7  N    0.000004   0.000011   0.000625  -0.000183  -0.001113   0.000000
     8  C   -0.000000  -0.000000  -0.009034   0.002331  -0.000962   0.000001
     9  O   -0.000000  -0.000000   0.022249   0.000478  -0.000065  -0.000000
    10  O    0.000000   0.000000  -0.027144  -0.032399   0.007474   0.000005
    11  C   -0.000000  -0.000000   0.350642   0.365139  -0.013557  -0.000180
    12  C    0.000000   0.000000  -0.034467  -0.042008  -0.037156   0.003660
    13  C    0.000000  -0.000000   0.002085   0.000346   0.353038  -0.035493
    14  C   -0.000000  -0.000000  -0.000036  -0.000096  -0.042761   0.360078
    15  C   -0.000000   0.000000   0.000012   0.000026   0.004466  -0.044318
    16  C    0.000000  -0.000000  -0.000064  -0.000141   0.000325   0.004262
    17  C   -0.000000   0.000000  -0.002055  -0.001051   0.005541   0.000844
    18  Cl  -0.000000   0.000000  -0.000000  -0.000000  -0.000156  -0.000422
    19  C   -0.006572   0.005509  -0.000000  -0.000000   0.000000  -0.000000
    20  C   -0.000029  -0.000116   0.000000  -0.000000   0.000000  -0.000000
    21  C    0.000021  -0.000003   0.000000   0.000000   0.000000   0.000000
    22  C   -0.000298   0.000102  -0.000000  -0.000000   0.000000  -0.000000
    23  C    0.002542  -0.004753  -0.000000   0.000000   0.000000  -0.000000
    24  Cl  -0.000000  -0.000000  -0.000000   0.000000  -0.000000   0.000000
    25  H    0.568194  -0.034033   0.000000  -0.000000  -0.000000   0.000000
    26  H   -0.034033   0.526593   0.000000   0.000000  -0.000000  -0.000000
    27  H    0.000000   0.000000   0.530772  -0.037372   0.000132   0.000002
    28  H   -0.000000   0.000000  -0.037372   0.566198   0.000334   0.000003
    29  H   -0.000000  -0.000000   0.000132   0.000334   0.551670  -0.005211
    30  H    0.000000  -0.000000   0.000002   0.000003  -0.005211   0.563152
    31  H   -0.000000  -0.000000   0.000001   0.000001   0.000013  -0.000174
    32  H   -0.000000   0.000000   0.002039   0.002097  -0.000150   0.000016
    33  H    0.001963   0.000125   0.000000   0.000000   0.000001  -0.000000
    34  H   -0.000000   0.000002  -0.000000  -0.000000   0.000000  -0.000000
    35  H    0.000004  -0.000006   0.000000  -0.000000  -0.000000  -0.000000
    36  H    0.000126   0.006747   0.000000  -0.000000  -0.000000  -0.000000
              31         32         33         34         35         36
     1  C    0.000000  -0.000000  -0.044253   0.003529   0.003692  -0.039328
     2  C    0.000000  -0.000000  -0.007908  -0.000155  -0.000163  -0.009190
     3  O   -0.000000   0.000000   0.002445   0.000001   0.000001   0.000040
     4  C    0.000000   0.000000   0.000029  -0.000000   0.000000   0.000030
     5  O   -0.000000   0.000000   0.000002  -0.000000  -0.000000   0.000013
     6  N   -0.000000   0.000000   0.000001   0.000000   0.000000   0.000001
     7  N    0.000000  -0.000000   0.000000  -0.000000  -0.000000  -0.000000
     8  C    0.000000  -0.000004  -0.000000   0.000000   0.000000   0.000000
     9  O    0.000000  -0.000003  -0.000000  -0.000000  -0.000000  -0.000000
    10  O    0.000000   0.000050  -0.000000  -0.000000   0.000000  -0.000000
    11  C   -0.000144  -0.006904  -0.000000   0.000000   0.000000   0.000000
    12  C    0.003420  -0.051794   0.000000  -0.000000  -0.000000  -0.000000
    13  C    0.000648   0.005332  -0.000000  -0.000000  -0.000000   0.000000
    14  C    0.004440   0.000469   0.000000   0.000000   0.000000  -0.000000
    15  C   -0.043031   0.004716   0.000000  -0.000000   0.000000   0.000000
    16  C    0.360124  -0.041366  -0.000000   0.000000   0.000000   0.000000
    17  C   -0.035689   0.361738   0.000000  -0.000000  -0.000000  -0.000000
    18  Cl  -0.000326  -0.000175  -0.000000   0.000000   0.000000  -0.000000
    19  C   -0.000000   0.000000   0.360993  -0.035132   0.000688   0.005492
    20  C   -0.000000   0.000000  -0.040960   0.360422   0.004310   0.000428
    21  C    0.000000  -0.000000   0.004561  -0.043021  -0.043236   0.004453
    22  C   -0.000000   0.000000   0.000460   0.004340   0.359523  -0.041608
    23  C   -0.000000   0.000000   0.005059   0.000707  -0.034207   0.356684
    24  Cl   0.000000   0.000000  -0.000167  -0.000380  -0.000480  -0.000166
    25  H   -0.000000  -0.000000   0.001963  -0.000000   0.000004   0.000126
    26  H   -0.000000   0.000000   0.000125   0.000002  -0.000006   0.006747
    27  H    0.000001   0.002039   0.000000  -0.000000   0.000000   0.000000
    28  H    0.000001   0.002097   0.000000  -0.000000  -0.000000  -0.000000
    29  H    0.000013  -0.000150   0.000001   0.000000  -0.000000  -0.000000
    30  H   -0.000174   0.000016  -0.000000  -0.000000  -0.000000  -0.000000
    31  H    0.561241  -0.005716  -0.000000  -0.000000   0.000000   0.000000
    32  H   -0.005716   0.593854   0.000000   0.000000  -0.000000  -0.000000
    33  H   -0.000000   0.000000   0.573933  -0.005541   0.000015  -0.000167
    34  H   -0.000000   0.000000  -0.005541   0.556695  -0.000171   0.000015
    35  H    0.000000  -0.000000   0.000015  -0.000171   0.556927  -0.005507
    36  H    0.000000  -0.000000  -0.000167   0.000015  -0.005507   0.572219
 Mulliken charges:
               1
     1  C    0.138009
     2  C   -0.151128
     3  O   -0.443468
     4  C    0.767068
     5  O   -0.426834
     6  N   -0.224550
     7  N   -0.188146
     8  C    0.774822
     9  O   -0.438113
    10  O   -0.438375
    11  C   -0.115685
    12  C    0.109688
    13  C   -0.169620
    14  C   -0.135461
    15  C   -0.062659
    16  C   -0.134268
    17  C   -0.169299
    18  Cl  -0.011345
    19  C   -0.157067
    20  C   -0.134105
    21  C   -0.061363
    22  C   -0.132010
    23  C   -0.173172
    24  Cl  -0.002268
    25  H    0.174111
    26  H    0.197323
    27  H    0.201723
    28  H    0.176253
    29  H    0.168738
    30  H    0.153778
    31  H    0.155190
    32  H    0.135801
    33  H    0.149408
    34  H    0.158690
    35  H    0.158612
    36  H    0.149719
 Sum of Mulliken charges =  -0.00000
 Mulliken charges with hydrogens summed into heavy atoms:
               1
     1  C    0.138009
     2  C    0.220307
     3  O   -0.443468
     4  C    0.767068
     5  O   -0.426834
     6  N   -0.224550
     7  N   -0.188146
     8  C    0.774822
     9  O   -0.438113
    10  O   -0.438375
    11  C    0.262291
    12  C    0.109688
    13  C   -0.000882
    14  C    0.018316
    15  C   -0.062659
    16  C    0.020922
    17  C   -0.033498
    18  Cl  -0.011345
    19  C   -0.007658
    20  C    0.024585
    21  C   -0.061363
    22  C    0.026602
    23  C   -0.023453
    24  Cl  -0.002268
 APT charges:
               1
     1  C   -0.056457
     2  C    0.654839
     3  O   -0.954186
     4  C    1.271526
     5  O   -0.672452
     6  N   -0.178567
     7  N   -0.227256
     8  C    1.263513
     9  O   -0.648307
    10  O   -0.882161
    11  C    0.531267
    12  C    0.013925
    13  C   -0.041567
    14  C   -0.086502
    15  C    0.416290
    16  C   -0.104682
    17  C   -0.013269
    18  Cl  -0.355707
    19  C    0.001634
    20  C   -0.123724
    21  C    0.458004
    22  C   -0.116145
    23  C   -0.010453
    24  Cl  -0.361093
    25  H   -0.068991
    26  H    0.021257
    27  H    0.005407
    28  H   -0.064197
    29  H    0.063890
    30  H    0.043157
    31  H    0.042010
    32  H    0.022317
    33  H    0.035091
    34  H    0.045164
    35  H    0.044529
    36  H    0.031898
 Sum of APT charges =  -0.00000
 APT charges with hydrogens summed into heavy atoms:
               1
     1  C   -0.056457
     2  C    0.607106
     3  O   -0.954186
     4  C    1.271526
     5  O   -0.672452
     6  N   -0.178567
     7  N   -0.227256
     8  C    1.263513
     9  O   -0.648307
    10  O   -0.882161
    11  C    0.472477
    12  C    0.013925
    13  C    0.022323
    14  C   -0.043345
    15  C    0.416290
    16  C   -0.062672
    17  C    0.009048
    18  Cl  -0.355707
    19  C    0.036724
    20  C   -0.078560
    21  C    0.458004
    22  C   -0.071616
    23  C    0.021445
    24  Cl  -0.361093
 Electronic spatial extent (au):  <R**2>=          16396.3321
 Charge=             -0.0000 electrons
 Dipole moment (field-independent basis, Debye):
    X=              0.8319    Y=             -1.2822    Z=              0.2101  Tot=              1.5428
 Quadrupole moment (field-independent basis, Debye-Ang):
   XX=           -148.2378   YY=           -170.4001   ZZ=           -141.0137
   XY=              2.9160   XZ=            -15.5769   YZ=              3.0449
 Traceless Quadrupole moment (field-independent basis, Debye-Ang):
   XX=              4.9794   YY=            -17.1829   ZZ=             12.2035
   XY=              2.9160   XZ=            -15.5769   YZ=              3.0449
 Octapole moment (field-independent basis, Debye-Ang**2):
  XXX=            -22.0743  YYY=            -66.3511  ZZZ=             -1.8332  XYY=             37.8118
  XXY=             76.6618  XXZ=             43.0036  XZZ=            -18.1913  YZZ=             21.6399
  YYZ=              4.7265  XYZ=              4.9046
 Hexadecapole moment (field-independent basis, Debye-Ang**3):
 XXXX=         -16430.0443 YYYY=          -4557.2050 ZZZZ=           -991.5655 XXXY=            283.6400
 XXXZ=           -382.9807 YYYX=            -13.1269 YYYZ=             27.6142 ZZZX=            -34.7086
 ZZZY=              7.1732 XXYY=          -3693.7876 XXZZ=          -2862.4180 YYZZ=           -837.9459
 XXYZ=            -10.6358 YYXZ=              5.9480 ZZXY=            -13.3713
 N-N= 2.046277853090D+03 E-N=-8.671825105836D+03  KE= 1.935510958048D+03
  Exact polarizability: 257.514   3.271 231.258   3.271  10.620 148.785
 Approx polarizability: 351.389   8.454 373.768   5.683  23.322 239.934
 Calling FoFJK, ICntrl=    100127 FMM=F ISym2X=0 I1Cent= 0 IOpClX= 0 NMat=1 NMatS=1 NMatT=0.
 ***** Axes restored to original set *****
 -------------------------------------------------------------------
 Center     Atomic                   Forces (Hartrees/Bohr)
 Number     Number              X              Y              Z
 -------------------------------------------------------------------
      1        6          -0.000041809   -0.003647862   -0.002764211
      2        6           0.013097799   -0.015376964   -0.001953318
      3        8          -0.019085786    0.010772678    0.000962301
      4        6           0.008353897   -0.081212900   -0.003862835
      5        8           0.013944053    0.021821274    0.001903912
      6        7          -0.009859431    0.041205869    0.008354410
      7        7           0.002857317   -0.043352168    0.001616877
      8        6          -0.014625287    0.071524888    0.003309544
      9        8           0.023589061   -0.026339802   -0.007977038
     10        8          -0.015973077    0.007613723   -0.002187944
     11        6           0.003413248    0.012534076   -0.000982708
     12        6           0.008556064   -0.000857315    0.002215041
     13        6          -0.001600407    0.002000598    0.001505748
     14        6          -0.001036618   -0.004272123   -0.001033056
     15        6          -0.009119578   -0.008827444   -0.007745539
     16        6          -0.006472110    0.002018335   -0.004603319
     17        6           0.002224635   -0.002890193    0.003403579
     18       17           0.011936636    0.009145050    0.009430299
     19        6          -0.000507990   -0.001688177   -0.003646710
     20        6          -0.000504646    0.006010333    0.006531125
     21        6          -0.010152705    0.000651845    0.010453560
     22        6          -0.004664677   -0.004570084    0.001001381
     23        6           0.002811401    0.005044483   -0.000966464
     24       17           0.010918776   -0.001870006   -0.012279847
     25        1          -0.003059949    0.005440823    0.002687144
     26        1          -0.002785672    0.007561282   -0.000173075
     27        1          -0.000008996   -0.007373528    0.000055541
     28        1          -0.000625909   -0.004248336   -0.002105723
     29        1          -0.001434874    0.002776979   -0.000783602
     30        1          -0.000294714    0.001526113   -0.000280431
     31        1           0.000866889   -0.001146988    0.000520956
     32        1          -0.000083706   -0.000781356    0.000408197
     33        1          -0.001470887   -0.000784544   -0.000870601
     34        1          -0.000444400   -0.001479004   -0.000721917
     35        1           0.001135979    0.001205734    0.000270527
     36        1           0.000147474    0.001864712    0.000308195
 -------------------------------------------------------------------
 Cartesian Forces:  Max     0.081212900 RMS     0.013870731
 FormGI is forming the generalized inverse of G from B-inverse, IUseBI=4.

 GradGradGradGradGradGradGradGradGradGradGradGradGradGradGradGradGradGrad
 Berny optimization.
 Internal  Forces:  Max     0.050369729 RMS     0.008043606
 Search for a local minimum.
 Step number   1 out of a maximum of  180
 All quantities printed in internal units (Hartrees-Bohrs-Radians)
 Mixed Optimization -- RFO/linear search
 Second derivative matrix not updated -- analytic derivatives used.
 ITU=  0
     Eigenvalues ---   -0.00898  -0.00391  -0.00259  -0.00108  -0.00025
     Eigenvalues ---    0.00167   0.01515   0.01645   0.01717   0.01742
     Eigenvalues ---    0.01769   0.01774   0.01785   0.01841   0.02026
     Eigenvalues ---    0.02062   0.02238   0.02313   0.02518   0.02550
     Eigenvalues ---    0.02669   0.02677   0.02762   0.02765   0.03043
     Eigenvalues ---    0.03110   0.06029   0.06143   0.07075   0.07143
     Eigenvalues ---    0.07245   0.09931   0.10484   0.10616   0.11396
     Eigenvalues ---    0.11401   0.11651   0.11678   0.11766   0.12016
     Eigenvalues ---    0.12033   0.12878   0.12891   0.13879   0.14164
     Eigenvalues ---    0.17395   0.17420   0.17541   0.18043   0.18585
     Eigenvalues ---    0.18955   0.19334   0.19382   0.20445   0.20498
     Eigenvalues ---    0.20876   0.21852   0.22869   0.23930   0.24226
     Eigenvalues ---    0.25866   0.27759   0.28887   0.28935   0.29463
     Eigenvalues ---    0.29580   0.29747   0.30942   0.32122   0.32785
     Eigenvalues ---    0.33091   0.33240   0.33626   0.33994   0.34904
[...]
   141    O   10  px     Ryd( 3p)     0.00098
   142    O   10  py     Val( 2p)     1.76615
   143    O   10  py     Ryd( 3p)     0.00180
   144    O   10  pz     Val( 2p)     1.67475
   145    O   10  pz     Ryd( 3p)     0.00148
   146    O   10  dxy    Ryd( 3d)     0.00031
   147    O   10  dxz    Ryd( 3d)     0.00155
   148    O   10  dyz    Ryd( 3d)     0.00199
   149    O   10  dx2y2  Ryd( 3d)     0.00061
   150    O   10  dz2    Ryd( 3d)     0.00145
 
   151    C   11  S      Cor( 1S)     1.99912
   152    C   11  S      Val( 2S)     1.03204
   153    C   11  S      Ryd( 3S)     0.00121
   154    C   11  S      Ryd( 4S)     0.00005
   155    C   11  px     Val( 2p)     0.71352
   156    C   11  px     Ryd( 3p)     0.00285
   157    C   11  py     Val( 2p)     1.10222
   158    C   11  py     Ryd( 3p)     0.00144
   159    C   11  pz     Val( 2p)     1.25788
   160    C   11  pz     Ryd( 3p)     0.00767
   161    C   11  dxy    Ryd( 3d)     0.00130
   162    C   11  dxz    Ryd( 3d)     0.00107
   163    C   11  dyz    Ryd( 3d)     0.00093
   164    C   11  dx2y2  Ryd( 3d)     0.00171
   165    C   11  dz2    Ryd( 3d)     0.00111
 
   166    C   12  S      Cor( 1S)     1.99901
   167    C   12  S      Val( 2S)     0.88855
   168    C   12  S      Ryd( 3S)     0.00068
   169    C   12  S      Ryd( 4S)     0.00006
   170    C   12  px     Val( 2p)     1.03327
   171    C   12  px     Ryd( 3p)     0.00191
   172    C   12  py     Val( 2p)     1.06513
   173    C   12  py     Ryd( 3p)     0.00442
   174    C   12  pz     Val( 2p)     1.09349
   175    C   12  pz     Ryd( 3p)     0.00446
   176    C   12  dxy    Ryd( 3d)     0.00037
   177    C   12  dxz    Ryd( 3d)     0.00055
   178    C   12  dyz    Ryd( 3d)     0.00077
   179    C   12  dx2y2  Ryd( 3d)     0.00052
   180    C   12  dz2    Ryd( 3d)     0.00059
 
   181    C   13  S      Cor( 1S)     1.99903
   182    C   13  S      Val( 2S)     0.95327
   183    C   13  S      Ryd( 3S)     0.00058
   184    C   13  S      Ryd( 4S)     0.00005
   185    C   13  px     Val( 2p)     0.98303
   186    C   13  px     Ryd( 3p)     0.00071
   187    C   13  py     Val( 2p)     1.07067
   188    C   13  py     Ryd( 3p)     0.00387
   189    C   13  pz     Val( 2p)     1.18019
   190    C   13  pz     Ryd( 3p)     0.00507
   191    C   13  dxy    Ryd( 3d)     0.00053
   192    C   13  dxz    Ryd( 3d)     0.00036
   193    C   13  dyz    Ryd( 3d)     0.00072
   194    C   13  dx2y2  Ryd( 3d)     0.00044
   195    C   13  dz2    Ryd( 3d)     0.00077
 
   196    C   14  S      Cor( 1S)     1.99893
   197    C   14  S      Val( 2S)     0.95904
   198    C   14  S      Ryd( 3S)     0.00097
   199    C   14  S      Ryd( 4S)     0.00005
   200    C   14  px     Val( 2p)     1.00744
   201    C   14  px     Ryd( 3p)     0.00102
   202    C   14  py     Val( 2p)     1.11233
   203    C   14  py     Ryd( 3p)     0.00538
   204    C   14  pz     Val( 2p)     1.15085
   205    C   14  pz     Ryd( 3p)     0.00478
   206    C   14  dxy    Ryd( 3d)     0.00045
   207    C   14  dxz    Ryd( 3d)     0.00044
   208    C   14  dyz    Ryd( 3d)     0.00077
   209    C   14  dx2y2  Ryd( 3d)     0.00045
   210    C   14  dz2    Ryd( 3d)     0.00060
 
   211    C   15  S      Cor( 1S)     1.99856
   212    C   15  S      Val( 2S)     0.93307
   213    C   15  S      Ryd( 3S)     0.00060
   214    C   15  S      Ryd( 4S)     0.00009
   215    C   15  px     Val( 2p)     1.04746
   216    C   15  px     Ryd( 3p)     0.00130
   217    C   15  py     Val( 2p)     0.93267
   218    C   15  py     Ryd( 3p)     0.00693
   219    C   15  pz     Val( 2p)     1.10231
   220    C   15  pz     Ryd( 3p)     0.00768
   221    C   15  dxy    Ryd( 3d)     0.00114
   222    C   15  dxz    Ryd( 3d)     0.00069
   223    C   15  dyz    Ryd( 3d)     0.00103
   224    C   15  dx2y2  Ryd( 3d)     0.00132
   225    C   15  dz2    Ryd( 3d)     0.00097
 
   226    C   16  S      Cor( 1S)     1.99894
   227    C   16  S      Val( 2S)     0.95982
   228    C   16  S      Ryd( 3S)     0.00097
   229    C   16  S      Ryd( 4S)     0.00005
   230    C   16  px     Val( 2p)     1.00206
   231    C   16  px     Ryd( 3p)     0.00099
   232    C   16  py     Val( 2p)     1.07861
   233    C   16  py     Ryd( 3p)     0.00520
   234    C   16  pz     Val( 2p)     1.18777
   235    C   16  pz     Ryd( 3p)     0.00500
   236    C   16  dxy    Ryd( 3d)     0.00045
   237    C   16  dxz    Ryd( 3d)     0.00042
   238    C   16  dyz    Ryd( 3d)     0.00077
   239    C   16  dx2y2  Ryd( 3d)     0.00040
   240    C   16  dz2    Ryd( 3d)     0.00066
 
   241    C   17  S      Cor( 1S)     1.99903
   242    C   17  S      Val( 2S)     0.95647
   243    C   17  S      Ryd( 3S)     0.00059
   244    C   17  S      Ryd( 4S)     0.00004
   245    C   17  px     Val( 2p)     0.97500
   246    C   17  px     Ryd( 3p)     0.00081
   247    C   17  py     Val( 2p)     1.10285
   248    C   17  py     Ryd( 3p)     0.00425
   249    C   17  pz     Val( 2p)     1.15221
   250    C   17  pz     Ryd( 3p)     0.00479
   251    C   17  dxy    Ryd( 3d)     0.00050
   252    C   17  dxz    Ryd( 3d)     0.00043
   253    C   17  dyz    Ryd( 3d)     0.00083
   254    C   17  dx2y2  Ryd( 3d)     0.00046
   255    C   17  dz2    Ryd( 3d)     0.00062
 
   256   Cl   18  S      Cor( 1S)     2.00000
   257   Cl   18  S      Cor( 2S)     1.99979
   258   Cl   18  S      Val( 3S)     1.83537
   259   Cl   18  S      Ryd( 4S)     0.00331
   260   Cl   18  S      Ryd( 5S)     0.00000
   261   Cl   18  px     Cor( 2p)     1.99999
   262   Cl   18  px     Val( 3p)     1.88721
   263   Cl   18  px     Ryd( 4p)     0.00176
   264   Cl   18  py     Cor( 2p)     1.99991
   265   Cl   18  py     Val( 3p)     1.29781
   266   Cl   18  py     Ryd( 4p)     0.00378
   267   Cl   18  pz     Cor( 2p)     1.99999
   268   Cl   18  pz     Val( 3p)     1.95851
   269   Cl   18  pz     Ryd( 4p)     0.00157
   270   Cl   18  dxy    Ryd( 3d)     0.00264
   271   Cl   18  dxz    Ryd( 3d)     0.00014
   272   Cl   18  dyz    Ryd( 3d)     0.00130
   273   Cl   18  dx2y2  Ryd( 3d)     0.00346
   274   Cl   18  dz2    Ryd( 3d)     0.00132
 
   275    C   19  S      Cor( 1S)     1.99903
   276    C   19  S      Val( 2S)     0.95353
   277    C   19  S      Ryd( 3S)     0.00058
   278    C   19  S      Ryd( 4S)     0.00005
   279    C   19  px     Val( 2p)     0.99616
   280    C   19  px     Ryd( 3p)     0.00125
   281    C   19  py     Val( 2p)     1.05796
   282    C   19  py     Ryd( 3p)     0.00335
   283    C   19  pz     Val( 2p)     1.17870
   284    C   19  pz     Ryd( 3p)     0.00506
   285    C   19  dxy    Ryd( 3d)     0.00046
   286    C   19  dxz    Ryd( 3d)     0.00041
   287    C   19  dyz    Ryd( 3d)     0.00068
   288    C   19  dx2y2  Ryd( 3d)     0.00050
   289    C   19  dz2    Ryd( 3d)     0.00076
 
   290    C   20  S      Cor( 1S)     1.99893
   291    C   20  S      Val( 2S)     0.95932
   292    C   20  S      Ryd( 3S)     0.00098
   293    C   20  S      Ryd( 4S)     0.00005
   294    C   20  px     Val( 2p)     1.02421
   295    C   20  px     Ryd( 3p)     0.00172
   296    C   20  py     Val( 2p)     1.09223
   297    C   20  py     Ryd( 3p)     0.00467
   298    C   20  pz     Val( 2p)     1.15343
   299    C   20  pz     Ryd( 3p)     0.00480
   300    C   20  dxy    Ryd( 3d)     0.00045
   301    C   20  dxz    Ryd( 3d)     0.00049
   302    C   20  dyz    Ryd( 3d)     0.00071
   303    C   20  dx2y2  Ryd( 3d)     0.00044
   304    C   20  dz2    Ryd( 3d)     0.00060
 
   305    C   21  S      Cor( 1S)     1.99856
   306    C   21  S      Val( 2S)     0.93335
   307    C   21  S      Ryd( 3S)     0.00060
   308    C   21  S      Ryd( 4S)     0.00009
   309    C   21  px     Val( 2p)     1.02782
   310    C   21  px     Ryd( 3p)     0.00220
   311    C   21  py     Val( 2p)     0.95021
   312    C   21  py     Ryd( 3p)     0.00603
   313    C   21  pz     Val( 2p)     1.10298
   314    C   21  pz     Ryd( 3p)     0.00770
   315    C   21  dxy    Ryd( 3d)     0.00128
   316    C   21  dxz    Ryd( 3d)     0.00074
   317    C   21  dyz    Ryd( 3d)     0.00097
   318    C   21  dx2y2  Ryd( 3d)     0.00119
   319    C   21  dz2    Ryd( 3d)     0.00098
 
   320    C   22  S      Cor( 1S)     1.99894
   321    C   22  S      Val( 2S)     0.95995
   322    C   22  S      Ryd( 3S)     0.00098
   323    C   22  S      Ryd( 4S)     0.00005
   324    C   22  px     Val( 2p)     1.01389
   325    C   22  px     Ryd( 3p)     0.00166
   326    C   22  py     Val( 2p)     1.06820
   327    C   22  py     Ryd( 3p)     0.00456
   328    C   22  pz     Val( 2p)     1.18621
   329    C   22  pz     Ryd( 3p)     0.00500
   330    C   22  dxy    Ryd( 3d)     0.00041
   331    C   22  dxz    Ryd( 3d)     0.00048
   332    C   22  dyz    Ryd( 3d)     0.00072
   333    C   22  dx2y2  Ryd( 3d)     0.00044
   334    C   22  dz2    Ryd( 3d)     0.00066
 
   335    C   23  S      Cor( 1S)     1.99903
   336    C   23  S      Val( 2S)     0.95664
   337    C   23  S      Ryd( 3S)     0.00059
   338    C   23  S      Ryd( 4S)     0.00004
   339    C   23  px     Val( 2p)     0.99550
   340    C   23  px     Ryd( 3p)     0.00145
   341    C   23  py     Val( 2p)     1.07974
   342    C   23  py     Ryd( 3p)     0.00363
   343    C   23  pz     Val( 2p)     1.15434
   344    C   23  pz     Ryd( 3p)     0.00481
   345    C   23  dxy    Ryd( 3d)     0.00047
   346    C   23  dxz    Ryd( 3d)     0.00050
   347    C   23  dyz    Ryd( 3d)     0.00076
   348    C   23  dx2y2  Ryd( 3d)     0.00048
   349    C   23  dz2    Ryd( 3d)     0.00063
 
   350   Cl   24  S      Cor( 1S)     2.00000
   351   Cl   24  S      Cor( 2S)     1.99979
   352   Cl   24  S      Val( 3S)     1.83545
   353   Cl   24  S      Ryd( 4S)     0.00331
   354   Cl   24  S      Ryd( 5S)     0.00000
   355   Cl   24  px     Cor( 2p)     1.99997
   356   Cl   24  px     Val( 3p)     1.79184
   357   Cl   24  px     Ryd( 4p)     0.00208
   358   Cl   24  py     Cor( 2p)     1.99992
   359   Cl   24  py     Val( 3p)     1.38811
   360   Cl   24  py     Ryd( 4p)     0.00347
   361   Cl   24  pz     Cor( 2p)     1.99999
   362   Cl   24  pz     Val( 3p)     1.96149
   363   Cl   24  pz     Ryd( 4p)     0.00156
   364   Cl   24  dxy    Ryd( 3d)     0.00327
   365   Cl   24  dxz    Ryd( 3d)     0.00031
   366   Cl   24  dyz    Ryd( 3d)     0.00108
   367   Cl   24  dx2y2  Ryd( 3d)     0.00287
   368   Cl   24  dz2    Ryd( 3d)     0.00134
 
   369    H   25  S      Val( 1S)     0.75484
   370    H   25  S      Ryd( 2S)     0.00115
 
   371    H   26  S      Val( 1S)     0.75362
   372    H   26  S      Ryd( 2S)     0.00211
 
   373    H   27  S      Val( 1S)     0.75425
   374    H   27  S      Ryd( 2S)     0.00218
 
   375    H   28  S      Val( 1S)     0.75541
   376    H   28  S      Ryd( 2S)     0.00111
 
   377    H   29  S      Val( 1S)     0.75526
   378    H   29  S      Ryd( 2S)     0.00101
 
   379    H   30  S      Val( 1S)     0.74262
   380    H   30  S      Ryd( 2S)     0.00102
 
   381    H   31  S      Val( 1S)     0.74192
   382    H   31  S      Ryd( 2S)     0.00100
 
   383    H   32  S      Val( 1S)     0.74013
   384    H   32  S      Ryd( 2S)     0.00132
 
   385    H   33  S      Val( 1S)     0.75454
   386    H   33  S      Ryd( 2S)     0.00100
 
   387    H   34  S      Val( 1S)     0.74203
   388    H   34  S      Ryd( 2S)     0.00101
 
   389    H   35  S      Val( 1S)     0.74130
   390    H   35  S      Ryd( 2S)     0.00100
 
   391    H   36  S      Val( 1S)     0.74040
   392    H   36  S      Ryd( 2S)     0.00137

 WARNING:  1 low occupancy (<1.9990e) core orbital  found on  C   14
           1 low occupancy (<1.9990e) core orbital  found on  C   15
           1 low occupancy (<1.9990e) core orbital  found on  C   16
           1 low occupancy (<1.9990e) core orbital  found on  C   20
           1 low occupancy (<1.9990e) core orbital  found on  C   21
           1 low occupancy (<1.9990e) core orbital  found on  C   22


 Summary of Natural Population Analysis:                  
                                                          
                                       Natural Population 
                Natural  -----------------------------------------------
    Atom  No    Charge         Core      Valence    Rydberg      Total
 -----------------------------------------------------------------------
      C    1   -0.09429      1.99901     4.08090    0.01438     6.09429
      C    2   -0.12607      1.99912     4.10776    0.01918     6.12607
      O    3   -0.51980      1.99973     6.50772    0.01234     8.51980
      C    4    0.92350      1.99950     3.02642    0.05058     5.07650
      O    5   -0.55040      1.99977     6.52996    0.02067     8.55040
      N    6   -0.21259      1.99938     5.18707    0.02615     7.21259
      N    7   -0.21622      1.99938     5.19040    0.02644     7.21622
      C    8    0.91802      1.99950     3.03215    0.05033     5.08198
      O    9   -0.55919      1.99977     6.53871    0.02071     8.55919
      O   10   -0.52316      1.99973     6.51116    0.01226     8.52316
      C   11   -0.12411      1.99912     4.10567    0.01933     6.12411
      C   12   -0.09379      1.99901     4.08044    0.01434     6.09379
      C   13   -0.19928      1.99903     4.18716    0.01310     6.19928
      C   14   -0.24351      1.99893     4.22966    0.01491     6.24351
      C   15   -0.03581      1.99856     4.01551    0.02175     6.03581
      C   16   -0.24211      1.99894     4.22826    0.01492     6.24211
      C   17   -0.19888      1.99903     4.18653    0.01332     6.19888
     Cl   18    0.00215      9.99967     6.97889    0.01929    16.99785
      C   19   -0.19849      1.99903     4.18635    0.01311     6.19849
      C   20   -0.24305      1.99893     4.22919    0.01492     6.24305
      C   21   -0.03470      1.99856     4.01436    0.02179     6.03470
      C   22   -0.24212      1.99894     4.22824    0.01495     6.24212
      C   23   -0.19860      1.99903     4.18622    0.01335     6.19860
     Cl   24    0.00413      9.99967     6.97690    0.01930    16.99587
      H   25    0.24401      0.00000     0.75484    0.00115     0.75599
      H   26    0.24427      0.00000     0.75362    0.00211     0.75573
      H   27    0.24357      0.00000     0.75425    0.00218     0.75643
      H   28    0.24348      0.00000     0.75541    0.00111     0.75652
      H   29    0.24374      0.00000     0.75526    0.00101     0.75626
      H   30    0.25636      0.00000     0.74262    0.00102     0.74364
      H   31    0.25707      0.00000     0.74192    0.00100     0.74293
      H   32    0.25855      0.00000     0.74013    0.00132     0.74145
      H   33    0.24446      0.00000     0.75454    0.00100     0.75554
      H   34    0.25696      0.00000     0.74203    0.00101     0.74304
      H   35    0.25770      0.00000     0.74130    0.00100     0.74230
      H   36    0.25822      0.00000     0.74040    0.00137     0.74178
 =======================================================================
   * Total *   -0.00000     63.98135   123.52195    0.49670   188.00000

                                 Natural Population      
 --------------------------------------------------------
   Core                      63.98135 ( 99.9709% of  64)
   Valence                  123.52195 ( 99.6145% of 124)
   Natural Minimal Basis    187.50330 ( 99.7358% of 188)
   Natural Rydberg Basis      0.49670 (  0.2642% of 188)
 --------------------------------------------------------

    Atom  No          Natural Electron Configuration
 ----------------------------------------------------------------------------
      C    1      [core]2S( 0.89)2p( 3.19)3p( 0.01)
      C    2      [core]2S( 1.03)2p( 3.08)3p( 0.01)3d( 0.01)
      O    3      [core]2S( 1.63)2p( 4.88)3d( 0.01)
      C    4      [core]2S( 0.73)2p( 2.29)3p( 0.03)3d( 0.01)
      O    5      [core]2S( 1.71)2p( 4.82)3d( 0.02)
      N    6      [core]2S( 1.39)2p( 3.80)3S( 0.01)3p( 0.01)3d( 0.01)
      N    7      [core]2S( 1.39)2p( 3.80)3S( 0.01)3p( 0.01)3d( 0.01)
      C    8      [core]2S( 0.73)2p( 2.30)3p( 0.03)3d( 0.01)
      O    9      [core]2S( 1.71)2p( 4.83)3d( 0.02)
      O   10      [core]2S( 1.63)2p( 4.88)3d( 0.01)
      C   11      [core]2S( 1.03)2p( 3.07)3p( 0.01)3d( 0.01)
      C   12      [core]2S( 0.89)2p( 3.19)3p( 0.01)
      C   13      [core]2S( 0.95)2p( 3.23)3p( 0.01)
      C   14      [core]2S( 0.96)2p( 3.27)3p( 0.01)
      C   15      [core]2S( 0.93)2p( 3.08)3p( 0.02)3d( 0.01)
      C   16      [core]2S( 0.96)2p( 3.27)3p( 0.01)
      C   17      [core]2S( 0.96)2p( 3.23)3p( 0.01)
     Cl   18      [core]3S( 1.84)3p( 5.14)3d( 0.01)4p( 0.01)
      C   19      [core]2S( 0.95)2p( 3.23)3p( 0.01)
      C   20      [core]2S( 0.96)2p( 3.27)3p( 0.01)
      C   21      [core]2S( 0.93)2p( 3.08)3p( 0.02)3d( 0.01)
      C   22      [core]2S( 0.96)2p( 3.27)3p( 0.01)
      C   23      [core]2S( 0.96)2p( 3.23)3p( 0.01)
     Cl   24      [core]3S( 1.84)3p( 5.14)3d( 0.01)4p( 0.01)
      H   25            1S( 0.75)
      H   26            1S( 0.75)
      H   27            1S( 0.75)
      H   28            1S( 0.76)
      H   29            1S( 0.76)
      H   30            1S( 0.74)
      H   31            1S( 0.74)
      H   32            1S( 0.74)
      H   33            1S( 0.75)
      H   34            1S( 0.74)
      H   35            1S( 0.74)
      H   36            1S( 0.74)


 NBO analysis skipped by request.
 1\1\GINC-DELLA-R2C2N8\SP\RB3LYP TD-FC\6-31G(d)\C16H12Cl2N2O4\BJS4\22-A
 ug-2020\0\\# TD(NStates=10, Root=1) B3LYP/6-31G* scf=qc volume pop=NPA
  density=current Geom=AllCheck Guess=Read\\Title Card Required\\0,1\C,
 0,-2.3124684543,-0.6443335684,-1.129667537\C,0,-3.7350787812,-0.619692
 7319,-0.6392393982\O,0,-4.1491843086,0.7313600527,-0.2439516263\C,0,-4
 .6672532535,1.4926942474,-1.203742257\O,0,-4.8569855907,1.2131657138,-
 2.3614980263\N,0,-4.895190626,2.8325444459,-0.7041694922\N,0,-5.979694
 4625,2.9503520937,-0.1037793366\C,0,-6.2072343558,4.2933785893,0.39104
 93327\O,0,-6.2082147656,4.5247109171,1.5749135463\O,0,-6.5048969261,5.
 117599811,-0.6100754962\C,0,-6.8808592138,6.4840070805,-0.2326930018\C
 ,0,-5.6818145781,7.3901641086,-0.1528264425\C,0,-5.2286802307,8.064088
 173,-1.2933499621\C,0,-4.1158974761,8.9012713581,-1.237752422\C,0,-3.4
 5265619,9.0620430617,-0.0215779678\C,0,-3.8823005689,8.4013935668,1.12
 91023729\C,0,-4.996335854,7.5668883316,1.0563202399\Cl,0,-2.052120231,
 10.1200146056,0.0627096375\C,0,-1.2559788288,-0.8124773834,-0.22617940
 55\C,0,0.0671024391,-0.8286038738,-0.6636626105\C,0,0.329771141,-0.674
 1760434,-2.024638556\C,0,-0.7036396723,-0.5038602915,-2.9455523811\C,0
 ,-2.0214530926,-0.4892823168,-2.4915624386\Cl,0,1.9935973936,-0.698992
 7859,-2.5891166841\H,0,-3.8545834555,-1.1965908497,0.278925006\H,0,-4.
 4334026124,-0.981007408,-1.3957872039\H,0,-7.4182672888,6.4364707299,0
 .7162549305\H,0,-7.5615210269,6.7875989731,-1.0294952889\H,0,-5.750114
 0955,7.9359500178,-2.2387383827\H,0,-3.7678447955,9.424269124,-2.12190
 10425\H,0,-3.3530660822,8.539596604,2.0657407523\H,0,-5.331168495,7.03
 85165348,1.9437439585\H,0,-1.46643511,-0.9339842264,0.8335698102\H,0,0
 .8838551119,-0.9618062772,0.0374713902\H,0,-0.4790030209,-0.3856958443
 ,-4.0000925986\H,0,-2.8322126421,-0.3452345398,-3.1991914187\\Version=
 ES64L-G16RevA.03\State=1-A\HF=-1947.6738485\RMSD=8.138e-13\Dipole=-0.5
 288856,-0.3056307,0.0320978\Quadrupole=-4.2385047,6.4224743,-2.1839695
 ,-6.909913,3.8162296,-5.4916906\PG=C01 [X(C16H12Cl2N2O4)]\\@


 I LOVE THOSE WHO LONG FOR THE IMPOSSIBLE.

                                 -- GOETHE
 Job cpu time:       0 days  0 hours 53 minutes 29.2 seconds.
 Elapsed time:       0 days  0 hours 10 minutes 43.9 seconds.
 File lengths (MBytes):  RWF=   1224 Int=      0 D2E=      0 Chk=    268 Scr=      1
 Normal termination of Gaussian 16 at Sat Aug 22 17:01:52 2020.
