 Entering Gaussian System, Link 0=g16
 Input=azadicarboxylate_1_conf22123.com
 Output=azadicarboxylate_1_conf22123.log
 Initial command:
 /opt/export//g16/l1.exe "/scratch/bjs4/job.113986/Gau-113988.inp" -scrdir="/scratch/bjs4/job.113986/"
 Entering Link 1 = /opt/export//g16/l1.exe PID=    113989.
  
 Copyright (c) 1988,1990,1992,1993,1995,1998,2003,2009,2016,
            Gaussian, Inc.  All Rights Reserved.
  
 This is part of the Gaussian(R) 16 program.  It is based on
 the Gaussian(R) 09 system (copyright 2009, Gaussian, Inc.),
 the Gaussian(R) 03 system (copyright 2003, Gaussian, Inc.),
 the Gaussian(R) 98 system (copyright 1998, Gaussian, Inc.),
 the Gaussian(R) 94 system (copyright 1995, Gaussian, Inc.),
 the Gaussian 92(TM) system (copyright 1992, Gaussian, Inc.),
 the Gaussian 90(TM) system (copyright 1990, Gaussian, Inc.),
 the Gaussian 88(TM) system (copyright 1988, Gaussian, Inc.),
 the Gaussian 86(TM) system (copyright 1986, Carnegie Mellon
 University), and the Gaussian 82(TM) system (copyright 1983,
 Carnegie Mellon University). Gaussian is a federally registered
 trademark of Gaussian, Inc.
  
 This software contains proprietary and confidential information,
 including trade secrets, belonging to Gaussian, Inc.
  
 This software is provided under written license and may be
 used, copied, transmitted, or stored only in accord with that
 written license.
  
 The following legend is applicable only to US Government
 contracts under FAR:
  
                    RESTRICTED RIGHTS LEGEND
  
 Use, reproduction and disclosure by the US Government is
 subject to restrictions as set forth in subparagraphs (a)
 and (c) of the Commercial Computer Software - Restricted
 Rights clause in FAR 52.227-19.
  
 Gaussian, Inc.
 340 Quinnipiac St., Bldg. 40, Wallingford CT 06492
  
  
 ---------------------------------------------------------------
 Warning -- This program may not be used in any manner that
 competes with the business of Gaussian, Inc. or will provide
 assistance to any competitor of Gaussian, Inc.  The licensee
 of this program is prohibited from giving any competitor of
 Gaussian, Inc. access to this program.  By using this program,
 the user acknowledges that Gaussian, Inc. is engaged in the
 business of creating and licensing software in the field of
 computational chemistry and represents and warrants to the
 licensee that it is not a competitor of Gaussian, Inc. and that
 it will not use this program in any manner prohibited above.
 ---------------------------------------------------------------
  

 Cite this work as:
 Gaussian 16, Revision A.03,
 M. J. Frisch, G. W. Trucks, H. B. Schlegel, G. E. Scuseria, 
 M. A. Robb, J. R. Cheeseman, G. Scalmani, V. Barone, 
 G. A. Petersson, H. Nakatsuji, X. Li, M. Caricato, A. V. Marenich, 
 J. Bloino, B. G. Janesko, R. Gomperts, B. Mennucci, H. P. Hratchian, 
 J. V. Ortiz, A. F. Izmaylov, J. L. Sonnenberg, D. Williams-Young, 
 F. Ding, F. Lipparini, F. Egidi, J. Goings, B. Peng, A. Petrone, 
 T. Henderson, D. Ranasinghe, V. G. Zakrzewski, J. Gao, N. Rega, 
 G. Zheng, W. Liang, M. Hada, M. Ehara, K. Toyota, R. Fukuda, 
 J. Hasegawa, M. Ishida, T. Nakajima, Y. Honda, O. Kitao, H. Nakai, 
 T. Vreven, K. Throssell, J. A. Montgomery, Jr., J. E. Peralta, 
 F. Ogliaro, M. J. Bearpark, J. J. Heyd, E. N. Brothers, K. N. Kudin, 
 V. N. Staroverov, T. A. Keith, R. Kobayashi, J. Normand, 
 K. Raghavachari, A. P. Rendell, J. C. Burant, S. S. Iyengar, 
 J. Tomasi, M. Cossi, J. M. Millam, M. Klene, C. Adamo, R. Cammi, 
 J. W. Ochterski, R. L. Martin, K. Morokuma, O. Farkas, 
 J. B. Foresman, and D. J. Fox, Gaussian, Inc., Wallingford CT, 2016.
 
 ******************************************
 Gaussian 16:  ES64L-G16RevA.03 25-Dec-2016
                22-Aug-2020 
 ******************************************
 %nprocshared=5
 Will use up to    5 processors via shared memory.
 %Mem=10GB
 %Chk=azadicarboxylate_1_conf221.chk
 ---------------------------------
 # opt=CalcAll B3LYP/6-31G* scf=qc
 ---------------------------------
 1/10=4,18=20,19=15,26=3,38=1/1,3;
 2/9=110,12=2,17=6,18=5,40=1/2;
 3/5=1,6=6,7=1,11=2,25=1,30=1,71=2,74=-5,140=1/1,2,3;
 4//1;
 5/5=2,8=3,38=5/8;
 8/6=4,10=90,11=11/1;
 11/6=1,8=1,9=11,15=111,16=1/1,2,10;
 10/6=1/2;
 6/7=2,8=2,9=2,10=2,18=1,28=1/1;
 7/10=1,25=1/1,2,3,16;
 1/10=4,18=20,19=15,26=3/3(3);
 2/9=110/2;
 7/8=1,9=1,25=1,44=-1/16;
 99//99;
 2/9=110/2;
 3/5=1,6=6,7=1,11=2,25=1,30=1,71=2,74=-5,140=1/1,2,3;
 4/5=5,16=3,69=1/1;
 5/5=2,8=3,38=5/8;
 8/6=4,10=90,11=11/1;
 11/6=1,8=1,9=11,15=111,16=1/1,2,10;
 10/6=1/2;
 7/10=1,25=1/1,2,3,16;
 1/10=4,18=20,19=15,26=3/3(-8);
 2/9=110/2;
 6/7=2,8=2,9=2,10=2,18=1,19=2,28=1/1;
 7/8=1,9=1,25=1,44=-1/16;
 99//99;
 -------------------
 Title Card Required
 -------------------
 Symbolic Z-matrix:
 Charge =  0 Multiplicity = 1
 C                     5.65233   0.17442  -1.20862 
 C                     5.65571  -0.85754  -0.07361 
 C                     4.48654  -1.84471  -0.18259 
 C                     6.96464  -1.66145  -0.1708 
 O1                    5.67942  -0.20397   1.22494 
 C2                    4.6771    0.6551    1.5808 
 O3                    3.72021   0.93162   0.86621 
 N4                    4.9172    1.1559    2.8418 
 N5                    6.1448    1.2226    3.0972 
 C6                    6.3853    1.7078    4.365 
 O7                    5.64885   1.57655   5.33598 
 O8                    7.57917   2.3714    4.38681 
 C                     8.05456   2.9803    5.61553 
 C                     8.70362   1.94215   6.54042 
 C                     9.14099   3.98658   5.19724 
 C                     6.93401   3.76165   6.3143 
 H                     5.71886  -0.31003  -2.18851 
 H                     6.49879   0.86328  -1.10463 
 H                     4.74933   0.79068  -1.20812 
 H                     4.51843  -2.39606  -1.1287 
 H                     3.5145   -1.34795  -0.12746 
 H                     4.51397  -2.56837   0.64008 
 H                     7.03916  -2.19291  -1.12684 
 H                     7.03691  -2.39823   0.63736 
 H                     7.83805  -1.00624  -0.07456 
 H                     9.50417   1.40618   6.01758 
 H                     7.99337   1.18452   6.88051 
 H                     9.12999   2.41504   7.43181 
 H                     9.95923   3.48677   4.66576 
 H                     9.56306   4.50646   6.06499 
 H                     8.73739   4.73936   4.50985 
 H                     6.12046   3.11282   6.64865 
 H                     6.48861   4.4907    5.6275 
 H                     7.30915   4.29736   7.19283 
 

 GradGradGradGradGradGradGradGradGradGradGradGradGradGradGradGradGradGrad
 Berny optimization.
 Initialization pass.
                           ----------------------------
                           !    Initial Parameters    !
                           ! (Angstroms and Degrees)  !
 --------------------------                            --------------------------
 ! Name  Definition              Value          Derivative Info.                !
 --------------------------------------------------------------------------------
 ! R1    R(1,2)                  1.534          calculate D2E/DX2 analytically  !
 ! R2    R(1,17)                 1.0951         calculate D2E/DX2 analytically  !
 ! R3    R(1,18)                 1.0963         calculate D2E/DX2 analytically  !
 ! R4    R(1,19)                 1.0932         calculate D2E/DX2 analytically  !
 ! R5    R(2,3)                  1.5341         calculate D2E/DX2 analytically  !
 ! R6    R(2,4)                  1.5392         calculate D2E/DX2 analytically  !
 ! R7    R(2,5)                  1.4539         calculate D2E/DX2 analytically  !
 ! R8    R(3,20)                 1.0955         calculate D2E/DX2 analytically  !
 ! R9    R(3,21)                 1.093          calculate D2E/DX2 analytically  !
 ! R10   R(3,22)                 1.096          calculate D2E/DX2 analytically  !
 ! R11   R(4,23)                 1.0964         calculate D2E/DX2 analytically  !
 ! R12   R(4,24)                 1.096          calculate D2E/DX2 analytically  !
 ! R13   R(4,25)                 1.0961         calculate D2E/DX2 analytically  !
 ! R14   R(5,6)                  1.3672         calculate D2E/DX2 analytically  !
 ! R15   R(6,7)                  1.2259         calculate D2E/DX2 analytically  !
 ! R16   R(6,8)                  1.3779         calculate D2E/DX2 analytically  !
 ! R17   R(8,9)                  1.2557         calculate D2E/DX2 analytically  !
 ! R18   R(9,10)                 1.3786         calculate D2E/DX2 analytically  !
 ! R19   R(10,11)                1.2257         calculate D2E/DX2 analytically  !
 ! R20   R(10,12)                1.3661         calculate D2E/DX2 analytically  !
 ! R21   R(12,13)                1.4514         calculate D2E/DX2 analytically  !
 ! R22   R(13,14)                1.5344         calculate D2E/DX2 analytically  !
 ! R23   R(13,15)                1.5388         calculate D2E/DX2 analytically  !
 ! R24   R(13,16)                1.5344         calculate D2E/DX2 analytically  !
 ! R25   R(14,26)                1.0961         calculate D2E/DX2 analytically  !
 ! R26   R(14,27)                1.0928         calculate D2E/DX2 analytically  !
 ! R27   R(14,28)                1.0954         calculate D2E/DX2 analytically  !
 ! R28   R(15,29)                1.0963         calculate D2E/DX2 analytically  !
 ! R29   R(15,30)                1.0961         calculate D2E/DX2 analytically  !
 ! R30   R(15,31)                1.0964         calculate D2E/DX2 analytically  !
 ! R31   R(16,32)                1.093          calculate D2E/DX2 analytically  !
 ! R32   R(16,33)                1.0962         calculate D2E/DX2 analytically  !
 ! R33   R(16,34)                1.0952         calculate D2E/DX2 analytically  !
 ! A1    A(2,1,17)             111.3654         calculate D2E/DX2 analytically  !
 ! A2    A(2,1,18)             110.5377         calculate D2E/DX2 analytically  !
 ! A3    A(2,1,19)             112.3765         calculate D2E/DX2 analytically  !
 ! A4    A(17,1,18)            108.4173         calculate D2E/DX2 analytically  !
 ! A5    A(17,1,19)            107.4546         calculate D2E/DX2 analytically  !
 ! A6    A(18,1,19)            106.4696         calculate D2E/DX2 analytically  !
 ! A7    A(1,2,3)              112.2503         calculate D2E/DX2 analytically  !
 ! A8    A(1,2,4)              107.8495         calculate D2E/DX2 analytically  !
 ! A9    A(1,2,5)              111.0054         calculate D2E/DX2 analytically  !
 ! A10   A(3,2,4)              107.9116         calculate D2E/DX2 analytically  !
 ! A11   A(3,2,5)              111.4162         calculate D2E/DX2 analytically  !
 ! A12   A(4,2,5)              106.0998         calculate D2E/DX2 analytically  !
 ! A13   A(2,3,20)             111.2865         calculate D2E/DX2 analytically  !
 ! A14   A(2,3,21)             112.4417         calculate D2E/DX2 analytically  !
 ! A15   A(2,3,22)             110.6396         calculate D2E/DX2 analytically  !
 ! A16   A(20,3,21)            107.3486         calculate D2E/DX2 analytically  !
 ! A17   A(20,3,22)            108.3738         calculate D2E/DX2 analytically  !
 ! A18   A(21,3,22)            106.528          calculate D2E/DX2 analytically  !
 ! A19   A(2,4,23)             111.4723         calculate D2E/DX2 analytically  !
 ! A20   A(2,4,24)             111.1392         calculate D2E/DX2 analytically  !
 ! A21   A(2,4,25)             111.0933         calculate D2E/DX2 analytically  !
 ! A22   A(23,4,24)            108.2189         calculate D2E/DX2 analytically  !
 ! A23   A(23,4,25)            108.1902         calculate D2E/DX2 analytically  !
 ! A24   A(24,4,25)            106.5328         calculate D2E/DX2 analytically  !
 ! A25   A(2,5,6)              120.1956         calculate D2E/DX2 analytically  !
 ! A26   A(5,6,7)              124.2125         calculate D2E/DX2 analytically  !
 ! A27   A(5,6,8)              109.8054         calculate D2E/DX2 analytically  !
 ! A28   A(7,6,8)              125.9806         calculate D2E/DX2 analytically  !
 ! A29   A(6,8,9)              112.0744         calculate D2E/DX2 analytically  !
 ! A30   A(8,9,10)             112.1045         calculate D2E/DX2 analytically  !
 ! A31   A(9,10,11)            125.8733         calculate D2E/DX2 analytically  !
 ! A32   A(9,10,12)            109.7616         calculate D2E/DX2 analytically  !
 ! A33   A(11,10,12)           124.3648         calculate D2E/DX2 analytically  !
 ! A34   A(10,12,13)           120.2362         calculate D2E/DX2 analytically  !
 ! A35   A(12,13,14)           111.4073         calculate D2E/DX2 analytically  !
 ! A36   A(12,13,15)           105.9903         calculate D2E/DX2 analytically  !
 ! A37   A(12,13,16)           111.0983         calculate D2E/DX2 analytically  !
 ! A38   A(14,13,15)           107.9169         calculate D2E/DX2 analytically  !
 ! A39   A(14,13,16)           112.2677         calculate D2E/DX2 analytically  !
 ! A40   A(15,13,16)           107.8418         calculate D2E/DX2 analytically  !
 ! A41   A(13,14,26)           110.6247         calculate D2E/DX2 analytically  !
 ! A42   A(13,14,27)           112.4415         calculate D2E/DX2 analytically  !
 ! A43   A(13,14,28)           111.2879         calculate D2E/DX2 analytically  !
 ! A44   A(26,14,27)           106.507          calculate D2E/DX2 analytically  !
 ! A45   A(26,14,28)           108.3579         calculate D2E/DX2 analytically  !
 ! A46   A(27,14,28)           107.3992         calculate D2E/DX2 analytically  !
 ! A47   A(13,15,29)           111.1377         calculate D2E/DX2 analytically  !
 ! A48   A(13,15,30)           111.5205         calculate D2E/DX2 analytically  !
 ! A49   A(13,15,31)           111.0706         calculate D2E/DX2 analytically  !
 ! A50   A(29,15,30)           108.2189         calculate D2E/DX2 analytically  !
 ! A51   A(29,15,31)           106.4894         calculate D2E/DX2 analytically  !
 ! A52   A(30,15,31)           108.2065         calculate D2E/DX2 analytically  !
 ! A53   A(13,16,32)           112.3704         calculate D2E/DX2 analytically  !
 ! A54   A(13,16,33)           110.492          calculate D2E/DX2 analytically  !
 ! A55   A(13,16,34)           111.3603         calculate D2E/DX2 analytically  !
 ! A56   A(32,16,33)           106.5013         calculate D2E/DX2 analytically  !
 ! A57   A(32,16,34)           107.4536         calculate D2E/DX2 analytically  !
 ! A58   A(33,16,34)           108.4476         calculate D2E/DX2 analytically  !
 ! D1    D(17,1,2,3)           -59.3135         calculate D2E/DX2 analytically  !
 ! D2    D(17,1,2,4)            59.4267         calculate D2E/DX2 analytically  !
 ! D3    D(17,1,2,5)           175.2578         calculate D2E/DX2 analytically  !
 ! D4    D(18,1,2,3)          -179.8996         calculate D2E/DX2 analytically  !
 ! D5    D(18,1,2,4)           -61.1594         calculate D2E/DX2 analytically  !
 ! D6    D(18,1,2,5)            54.6717         calculate D2E/DX2 analytically  !
 ! D7    D(19,1,2,3)            61.3081         calculate D2E/DX2 analytically  !
 ! D8    D(19,1,2,4)          -179.9517         calculate D2E/DX2 analytically  !
 ! D9    D(19,1,2,5)           -64.1206         calculate D2E/DX2 analytically  !
 ! D10   D(1,2,3,20)            59.4902         calculate D2E/DX2 analytically  !
 ! D11   D(1,2,3,21)           -60.9845         calculate D2E/DX2 analytically  !
 ! D12   D(1,2,3,22)          -179.9625         calculate D2E/DX2 analytically  !
 ! D13   D(4,2,3,20)           -59.2134         calculate D2E/DX2 analytically  !
 ! D14   D(4,2,3,21)          -179.6881         calculate D2E/DX2 analytically  !
 ! D15   D(4,2,3,22)            61.3339         calculate D2E/DX2 analytically  !
 ! D16   D(5,2,3,20)          -175.3061         calculate D2E/DX2 analytically  !
 ! D17   D(5,2,3,21)            64.2192         calculate D2E/DX2 analytically  !
 ! D18   D(5,2,3,22)           -54.7588         calculate D2E/DX2 analytically  !
 ! D19   D(1,2,4,23)           -60.874          calculate D2E/DX2 analytically  !
 ! D20   D(1,2,4,24)           178.3091         calculate D2E/DX2 analytically  !
 ! D21   D(1,2,4,25)            59.8748         calculate D2E/DX2 analytically  !
 ! D22   D(3,2,4,23)            60.6023         calculate D2E/DX2 analytically  !
 ! D23   D(3,2,4,24)           -60.2146         calculate D2E/DX2 analytically  !
 ! D24   D(3,2,4,25)          -178.6489         calculate D2E/DX2 analytically  !
 ! D25   D(5,2,4,23)          -179.8799         calculate D2E/DX2 analytically  !
 ! D26   D(5,2,4,24)            59.3032         calculate D2E/DX2 analytically  !
 ! D27   D(5,2,4,25)           -59.1311         calculate D2E/DX2 analytically  !
 ! D28   D(1,2,5,6)             59.2943         calculate D2E/DX2 analytically  !
 ! D29   D(3,2,5,6)            -66.6002         calculate D2E/DX2 analytically  !
 ! D30   D(4,2,5,6)            176.2027         calculate D2E/DX2 analytically  !
 ! D31   D(2,5,6,7)             -0.0004         calculate D2E/DX2 analytically  !
 ! D32   D(2,5,6,8)           -179.5807         calculate D2E/DX2 analytically  !
 ! D33   D(5,6,8,9)             29.6469         calculate D2E/DX2 analytically  !
 ! D34   D(7,6,8,9)           -149.9242         calculate D2E/DX2 analytically  !
 ! D35   D(6,8,9,10)          -179.2377         calculate D2E/DX2 analytically  !
 ! D36   D(8,9,10,11)           29.647          calculate D2E/DX2 analytically  !
 ! D37   D(8,9,10,12)         -150.147          calculate D2E/DX2 analytically  !
 ! D38   D(9,10,12,13)         179.7976         calculate D2E/DX2 analytically  !
 ! D39   D(11,10,12,13)         -0.0002         calculate D2E/DX2 analytically  !
 ! D40   D(10,12,13,14)         80.4709         calculate D2E/DX2 analytically  !
 ! D41   D(10,12,13,15)       -162.3947         calculate D2E/DX2 analytically  !
 ! D42   D(10,12,13,16)        -45.5106         calculate D2E/DX2 analytically  !
 ! D43   D(12,13,14,26)         55.119          calculate D2E/DX2 analytically  !
 ! D44   D(12,13,14,27)        -63.8223         calculate D2E/DX2 analytically  !
 ! D45   D(12,13,14,28)        175.6371         calculate D2E/DX2 analytically  !
 ! D46   D(15,13,14,26)        -60.8398         calculate D2E/DX2 analytically  !
 ! D47   D(15,13,14,27)       -179.781          calculate D2E/DX2 analytically  !
 ! D48   D(15,13,14,28)         59.6784         calculate D2E/DX2 analytically  !
 ! D49   D(16,13,14,26)       -179.5476         calculate D2E/DX2 analytically  !
 ! D50   D(16,13,14,27)         61.5111         calculate D2E/DX2 analytically  !
 ! D51   D(16,13,14,28)        -59.0295         calculate D2E/DX2 analytically  !
 ! D52   D(12,13,15,29)        -59.3889         calculate D2E/DX2 analytically  !
 ! D53   D(12,13,15,30)        179.7623         calculate D2E/DX2 analytically  !
 ! D54   D(12,13,15,31)         58.9754         calculate D2E/DX2 analytically  !
 ! D55   D(14,13,15,29)         60.0628         calculate D2E/DX2 analytically  !
 ! D56   D(14,13,15,30)        -60.7861         calculate D2E/DX2 analytically  !
 ! D57   D(14,13,15,31)        178.4271         calculate D2E/DX2 analytically  !
 ! D58   D(16,13,15,29)       -178.4415         calculate D2E/DX2 analytically  !
 ! D59   D(16,13,15,30)         60.7096         calculate D2E/DX2 analytically  !
 ! D60   D(16,13,15,31)        -60.0772         calculate D2E/DX2 analytically  !
 ! D61   D(12,13,16,32)         64.5404         calculate D2E/DX2 analytically  !
 ! D62   D(12,13,16,33)        -54.257          calculate D2E/DX2 analytically  !
 ! D63   D(12,13,16,34)       -174.8472         calculate D2E/DX2 analytically  !
 ! D64   D(14,13,16,32)        -60.962          calculate D2E/DX2 analytically  !
 ! D65   D(14,13,16,33)       -179.7594         calculate D2E/DX2 analytically  !
 ! D66   D(14,13,16,34)         59.6504         calculate D2E/DX2 analytically  !
 ! D67   D(15,13,16,32)       -179.7141         calculate D2E/DX2 analytically  !
 ! D68   D(15,13,16,33)         61.4885         calculate D2E/DX2 analytically  !
 ! D69   D(15,13,16,34)        -59.1017         calculate D2E/DX2 analytically  !
 --------------------------------------------------------------------------------
 Trust Radius=3.00D-01 FncErr=1.00D-07 GrdErr=1.00D-06 EigMax=2.50D+02 EigMin=1.00D-04
 Number of steps in this run=    170 maximum allowed number of steps=    204.
 GradGradGradGradGradGradGradGradGradGradGradGradGradGradGradGradGradGrad

                          Input orientation:                          
 ---------------------------------------------------------------------
 Center     Atomic      Atomic             Coordinates (Angstroms)
 Number     Number       Type             X           Y           Z
 ---------------------------------------------------------------------
      1          6           0        5.652330    0.174420   -1.208620
      2          6           0        5.655710   -0.857540   -0.073610
      3          6           0        4.486540   -1.844710   -0.182590
      4          6           0        6.964640   -1.661450   -0.170800
      5          8           0        5.679420   -0.203970    1.224940
      6          6           0        4.677100    0.655100    1.580800
      7          8           0        3.720210    0.931620    0.866210
      8          7           0        4.917200    1.155900    2.841800
      9          7           0        6.144800    1.222600    3.097200
     10          6           0        6.385300    1.707800    4.365000
     11          8           0        5.648850    1.576550    5.335980
     12          8           0        7.579170    2.371400    4.386810
     13          6           0        8.054560    2.980300    5.615530
     14          6           0        8.703620    1.942150    6.540420
     15          6           0        9.140990    3.986580    5.197240
     16          6           0        6.934010    3.761650    6.314300
     17          1           0        5.718860   -0.310030   -2.188510
     18          1           0        6.498790    0.863280   -1.104630
     19          1           0        4.749330    0.790680   -1.208120
     20          1           0        4.518430   -2.396060   -1.128700
     21          1           0        3.514500   -1.347950   -0.127460
     22          1           0        4.513970   -2.568370    0.640080
     23          1           0        7.039160   -2.192910   -1.126840
     24          1           0        7.036910   -2.398230    0.637360
     25          1           0        7.838050   -1.006240   -0.074560
     26          1           0        9.504170    1.406180    6.017580
     27          1           0        7.993370    1.184520    6.880510
     28          1           0        9.129990    2.415040    7.431810
     29          1           0        9.959230    3.486770    4.665760
     30          1           0        9.563060    4.506460    6.064990
     31          1           0        8.737390    4.739360    4.509850
     32          1           0        6.120460    3.112820    6.648650
     33          1           0        6.488610    4.490700    5.627500
     34          1           0        7.309150    4.297360    7.192830
 ---------------------------------------------------------------------
                    Distance matrix (angstroms):
                    1          2          3          4          5
     1  C    0.000000
     2  C    1.534015   0.000000
     3  C    2.547291   1.534060   0.000000
     4  C    2.483877   1.539160   2.484895   0.000000
     5  O    2.462951   1.453942   2.469034   2.392515   0.000000
     6  C    2.993825   2.445982   3.065111   3.696937   1.367217
     7  O    2.934512   2.798306   3.065167   4.280856   2.292762
     8  N    4.231976   3.619248   4.282063   4.604914   2.245988
     9  N    4.458844   3.823641   4.786986   4.435054   2.399383
    10  C    5.826984   5.178275   6.075047   5.679873   3.743409
    11  O    6.693114   5.931990   6.596256   6.522313   4.480160
    12  O    6.312549   5.832761   6.944016   6.116644   4.498778
    13  C    7.759684   7.269788   8.344440   7.497692   5.920992
    14  C    8.513687   7.802142   8.793346   7.813479   6.481199
    15  C    8.230331   7.962069   9.198392   8.090278   6.732187
    16  C    8.432393   7.986010   8.923618   8.453844   6.572802
    17  H    1.095127   2.185534   2.810262   2.729369   3.415325
    18  H    1.096283   2.176007   3.497502   2.731907   2.690220
    19  H    1.093245   2.196649   2.840079   3.463607   2.788221
    20  H    2.810602   2.184872   1.095504   2.727850   3.419470
    21  H    2.838456   2.197312   1.093010   3.464625   2.797241
    22  H    3.498064   2.177123   1.096003   2.736022   2.700134
    23  H    2.744856   2.192360   2.743851   1.096365   3.366845
    24  H    3.455898   2.187903   2.735524   1.095988   2.646282
    25  H    2.730828   2.187400   3.456490   1.096087   2.644243
    26  H    8.280813   7.552329   8.613188   7.359050   6.339613
    27  H    8.481438   7.615409   8.447572   7.673252   6.266398
    28  H    9.579746   8.894478   9.883632   8.894166   7.569074
    29  H    8.001837   7.736598   9.048840   7.672291   6.616463
    30  H    9.325545   9.040038  10.253813   9.147676   7.790821
    31  H    7.940855   7.863215   9.134478   8.125361   6.676700
    32  H    8.401787   7.821031   8.597246   8.367269   6.372774
    33  H    8.127864   7.861301   8.826259   8.467339   6.486698
    34  H    9.504107   9.061347  10.004448   9.478879   7.650732
                    6          7          8          9         10
     6  C    0.000000
     7  O    1.225863   0.000000
     8  N    1.377886   2.320785   0.000000
     9  N    2.185330   3.307661   1.255659   0.000000
    10  C    3.431894   4.466172   2.186332   1.378614   0.000000
    11  O    3.986821   4.910645   2.633096   2.320212   1.225719
    12  O    4.386501   5.418410   3.309166   2.245051   1.366077
    13  C    5.752637   6.748312   4.567827   3.616446   2.443258
    14  C    6.516686   7.619200   5.351164   4.349836   3.187786
    15  C    6.641063   7.581257   5.603682   4.585511   3.671415
    16  C    6.095106   6.929593   4.787036   4.173651   2.884294
    17  H    4.027957   3.855854   5.300531   5.519883   6.889432
    18  H    3.251681   3.407255   4.261615   4.231997   5.535607
    19  H    2.793148   2.319870   4.069818   4.546391   5.880236
    20  H    4.083643   3.961095   5.342313   5.796379   7.106871
    21  H    2.877846   2.495223   4.129569   4.891282   6.145022
    22  H    3.361893   3.595987   4.345153   4.802968   5.971812
    23  H    4.584954   4.974974   5.609576   5.505279   6.767819
    24  H    3.972607   4.705398   4.688770   4.467335   5.583850
    25  H    3.935972   4.647253   4.659546   4.230235   5.402424
    26  H    6.599223   7.759898   5.584668   4.455074   3.542506
    27  H    6.274142   7.382118   5.076891   4.210949   3.031089
    28  H    7.560419   8.635587   6.356196   5.396491   4.175983
    29  H    6.740640   7.738911   5.846525   4.704968   4.003519
    30  H    7.668999   8.599168   6.572611   5.592496   4.562962
    31  H    6.461151   7.276475   5.497038   4.591808   3.839748
    32  H    5.814360   6.629890   4.446288   4.023223   2.694305
    33  H    5.862523   6.557513   4.620643   4.147421   3.057632
    34  H    7.189480   8.014663   5.875513   5.252052   3.944102
                   11         12         13         14         15
    11  O    0.000000
    12  O    2.293217   0.000000
    13  C    2.799304   1.451381   0.000000
    14  C    3.303931   2.467120   1.534424   0.000000
    15  C    4.245296   2.388490   1.538797   2.484979   0.000000
    16  C    2.717243   2.462569   1.534412   2.548182   2.483783
    17  H    7.757708   7.340685   8.785488   9.496069   9.204408
    18  H    6.535488   5.796340   7.215452   8.029447   7.513307
    19  H    6.652216   6.466058   7.891843   8.775088   8.398160
    20  H    7.671478   7.906811   9.321701   9.754552  10.105626
    21  H    6.554184   7.122762   8.504577   9.067103   9.405691
    22  H    6.365516   6.916268   8.250977   8.527131   9.227372
    23  H    7.609851   7.178083   8.558779   8.868823   9.088332
    24  H    6.308931   6.091124   7.399079   7.514182   8.123143
    25  H    6.382581   5.601722   6.951007   7.293845   7.376841
    26  H    3.918813   2.701238   2.177353   1.096132   2.731908
    27  H    2.834790   2.792631   2.197440   1.092758   3.464386
    28  H    4.148964   3.417451   2.185164   1.095442   2.731879
    29  H    4.762091   2.643208   2.187771   2.734366   1.096265
    30  H    4.943366   3.363122   2.192430   2.745971   1.096088
    31  H    4.497214   2.638910   2.187025   3.456695   1.096392
    32  H    2.075005   2.791677   2.196734   2.838115   3.463185
    33  H    3.046712   2.687018   2.175695   3.497828   2.733931
    34  H    3.688807   3.414086   2.185900   2.813752   2.726647
                   16         17         18         19         20
    16  C    0.000000
    17  H    9.505417   0.000000
    18  H    7.976872   1.777567   0.000000
    19  H    8.377726   1.764289   1.754021   0.000000
    20  H    9.957443   2.629781   3.813883   3.196081   0.000000
    21  H    8.904905   3.191302   3.840623   2.695620   1.763205
    22  H    8.838694   3.814811   4.331252   3.841153   1.777159
    23  H    9.530918   2.532898   3.103674   3.761879   2.528904
    24  H    8.377491   3.752782   3.736516   4.336815   3.075990
    25  H    8.022942   3.073184   2.519874   3.748876   3.750025
    26  H    3.498858   9.198579   7.749382   8.671683   9.507047
    27  H    2.843314   9.468590   8.130155   8.723809   9.436271
    28  H    2.807938  10.564676   9.066531   9.822277  10.848756
    29  H    3.456183   8.909402   7.221824   8.301471   9.888668
    30  H    2.743866  10.300326   8.606158   9.480356  11.173283
    31  H    2.732057   8.914925   7.180370   8.011983  10.025322
    32  H    1.092993   9.485388   8.081888   8.306694   9.664442
    33  H    1.096170   9.204865   7.647212   7.964982   9.846589
    34  H    1.095231  10.571973   9.016509   9.456503  11.038018
                   21         22         23         24         25
    21  H    0.000000
    22  H    1.754276   0.000000
    23  H    3.759780   3.104764   0.000000
    24  H    3.754385   2.528672   1.776109   0.000000
    25  H    4.337355   3.741720   1.775867   1.756784   0.000000
    26  H    9.012375   8.343659   8.370929   7.036169   6.760909
    27  H    8.693982   8.070525   8.742723   7.261393   7.293597
    28  H   10.140828   9.605707   9.942598   8.585634   8.349842
    29  H    9.374648   9.084144   8.622052   7.707216   6.867108
    30  H   10.450150  10.245788  10.147613   9.138673   8.429685
    31  H    9.264911   9.285220   9.094648   8.296566   7.405238
    32  H    8.520866   8.423755   9.457961   8.206532   8.069593
    33  H    8.720936   8.865891   9.518133   8.524053   8.034353
    34  H    9.992774   9.893928  10.555255   9.374392   9.012373
                   26         27         28         29         30
    26  H    0.000000
    27  H    1.753938   0.000000
    28  H    1.777036   1.763524   0.000000
    29  H    2.522568   3.751010   3.080142   0.000000
    30  H    3.101202   3.763547   2.535702   1.776109   0.000000
    31  H    3.737819   4.337105   3.754257   1.756753   1.776073
    32  H    3.841922   2.698127   3.187084   4.336801   3.759573
    33  H    4.331285   3.842546   3.813238   3.738719   3.105461
    34  H    3.815527   3.202417   2.629772   3.750475   2.529003
                   31         32         33         34
    31  H    0.000000
    32  H    3.750789   0.000000
    33  H    2.523487   1.754091   0.000000
    34  H    3.071419   1.764157   1.777899   0.000000
 Stoichiometry    C10H18N2O4
 Framework group  C1[X(C10H18N2O4)]
 Deg. of freedom    96
 Full point group                 C1      NOp   1
 Largest Abelian subgroup         C1      NOp   1
 Largest concise Abelian subgroup C1      NOp   1
                         Standard orientation:                         
 ---------------------------------------------------------------------
 Center     Atomic      Atomic             Coordinates (Angstroms)
 Number     Number       Type             X           Y           Z
 ---------------------------------------------------------------------
      1          6           0       -3.920474    0.671487    1.408908
      2          6           0       -3.534269    0.621856   -0.074865
      3          6           0       -4.525093   -0.203567   -0.905699
      4          6           0       -3.549347    2.063143   -0.614753
      5          8           0       -2.171954    0.142528   -0.243063
      6          6           0       -1.816258   -1.094314    0.218440
      7          8           0       -2.582435   -1.864827    0.785911
      8          7           0       -0.483345   -1.324897   -0.043751
      9          7           0        0.185678   -0.262393   -0.056928
     10          6           0        1.516349   -0.490654   -0.335832
     11          8           0        1.959930   -1.404196   -1.022174
     12          8           0        2.285717    0.458753    0.274795
     13          6           0        3.729991    0.430434    0.134164
     14          6           0        4.174719    1.040903   -1.201501
     15          6           0        4.283511    1.313807    1.266050
     16          6           0        4.276816   -0.989035    0.335431
     17          1           0       -4.914317    1.109916    1.548040
     18          1           0       -3.196128    1.268639    1.975096
     19          1           0       -3.932071   -0.320006    1.869335
     20          1           0       -5.537732    0.209649   -0.842906
     21          1           0       -4.577316   -1.245273   -0.578911
     22          1           0       -4.224234   -0.222062   -1.959438
     23          1           0       -4.544891    2.514014   -0.527437
     24          1           0       -3.250679    2.093519   -1.668823
     25          1           0       -2.838380    2.695607   -0.070765
     26          1           0        3.776425    2.055922   -1.313766
     27          1           0        3.815942    0.469727   -2.061243
     28          1           0        5.266781    1.088959   -1.272805
     29          1           0        3.902629    2.338939    1.189697
     30          1           0        5.378732    1.352817    1.246645
     31          1           0        3.971452    0.938186    2.247683
     32          1           0        3.931195   -1.681308   -0.436540
     33          1           0        3.938645   -1.398137    1.294527
     34          1           0        5.371885   -1.000511    0.320546
 ---------------------------------------------------------------------
 Rotational constants (GHZ):           1.1823104           0.2083751           0.1968466
 Standard basis: 6-31G(d) (6D, 7F)
 There are   276 symmetry adapted cartesian basis functions of A   symmetry.
 There are   276 symmetry adapted basis functions of A   symmetry.
   276 basis functions,   520 primitive gaussians,   276 cartesian basis functions
    62 alpha electrons       62 beta electrons
       nuclear repulsion energy      1156.6219384752 Hartrees.
 NAtoms=   34 NActive=   34 NUniq=   34 SFac= 1.00D+00 NAtFMM=   60 NAOKFM=F Big=F
 Integral buffers will be    131072 words long.
 Raffenetti 2 integral format.
 Two-electron integral symmetry is turned on.
 One-electron integrals computed using PRISM.
 NBasis=   276 RedAO= T EigKep=  2.16D-03  NBF=   276
 NBsUse=   276 1.00D-06 EigRej= -1.00D+00 NBFU=   276
 ExpMin= 1.61D-01 ExpMax= 5.48D+03 ExpMxC= 8.25D+02 IAcc=3 IRadAn=         5 AccDes= 0.00D+00
 Harris functional with IExCor=  402 and IRadAn=       5 diagonalized for initial guess.
 HarFok:  IExCor=  402 AccDes= 0.00D+00 IRadAn=         5 IDoV= 1 UseB2=F ITyADJ=14
 ICtDFT=  3500011 ScaDFX=  1.000000  1.000000  1.000000  1.000000
 FoFCou: FMM=F IPFlag=           0 FMFlag=      100000 FMFlg1=           0
         NFxFlg=           0 DoJE=T BraDBF=F KetDBF=T FulRan=T
         wScrn=  0.000000 ICntrl=       500 IOpCl=  0 I1Cent=   200000004 NGrid=           0
         NMat0=    1 NMatS0=      1 NMatT0=    0 NMatD0=    1 NMtDS0=    0 NMtDT0=    0
 Petite list used in FoFCou.
 Gradient too large for Newton-Raphson -- use scaled steepest descent instead.
     Minimum is close to point  2 DX=  1.41D-02 DF= -9.78D-04 DXR=  4.48D-02 DFR=  2.01D-03 which will be used.
 Gradient too large for Newton-Raphson -- use scaled steepest descent instead.
 Gradient too large for Newton-Raphson -- use scaled steepest descent instead.
     Accept linear search using points  1 and  2.
 Gradient too large for Newton-Raphson -- use scaled steepest descent instead.
     Minimum is close to point  3 DX=  4.49D-02 DF= -1.55D-05 DXR=  5.32D-02 DFR=  2.84D-03 which will be used.
 Gradient too large for Newton-Raphson -- use scaled steepest descent instead.
     Accept linear search using points  1 and  2.
 Gradient too large for Newton-Raphson -- use scaled steepest descent instead.
     Accept linear search using points  1 and  2.
 LinEq1:  Iter=  0 NonCon=     1 RMS=7.98D-05 Max=3.20D-03 NDo=     1
 AX will form     1 AO Fock derivatives at one time.
 LinEq1:  Iter=  1 NonCon=     1 RMS=1.03D-04 Max=7.57D-03 NDo=     1
 LinEq1:  Iter=  2 NonCon=     1 RMS=4.36D-05 Max=1.35D-03 NDo=     1
 LinEq1:  Iter=  3 NonCon=     1 RMS=3.39D-05 Max=2.22D-03 NDo=     1
 LinEq1:  Iter=  4 NonCon=     1 RMS=3.04D-05 Max=1.53D-03 NDo=     1
 LinEq1:  Iter=  5 NonCon=     1 RMS=1.80D-05 Max=6.08D-04 NDo=     1
 LinEq1:  Iter=  6 NonCon=     1 RMS=1.18D-05 Max=3.52D-04 NDo=     1
 LinEq1:  Iter=  7 NonCon=     1 RMS=5.71D-06 Max=1.38D-04 NDo=     1
 LinEq1:  Iter=  8 NonCon=     1 RMS=4.84D-06 Max=2.22D-04 NDo=     1
 LinEq1:  Iter=  9 NonCon=     1 RMS=3.09D-06 Max=9.61D-05 NDo=     1
 LinEq1:  Iter= 10 NonCon=     1 RMS=1.46D-06 Max=3.70D-05 NDo=     1
 LinEq1:  Iter= 11 NonCon=     1 RMS=7.21D-07 Max=2.95D-05 NDo=     1
 LinEq1:  Iter= 12 NonCon=     1 RMS=3.80D-07 Max=8.45D-06 NDo=     1
 LinEq1:  Iter= 13 NonCon=     1 RMS=2.14D-07 Max=5.90D-06 NDo=     1
 LinEq1:  Iter= 14 NonCon=     1 RMS=5.45D-08 Max=1.51D-06 NDo=     1
 LinEq1:  Iter= 15 NonCon=     1 RMS=2.06D-08 Max=4.30D-07 NDo=     1
 LinEq1:  Iter= 16 NonCon=     1 RMS=9.71D-09 Max=2.42D-07 NDo=     1
 LinEq1:  Iter= 17 NonCon=     0 RMS=3.46D-09 Max=1.23D-07 NDo=     1
 Linear equations converged to 1.629D-08 1.629D-07 after    17 iterations.
     Accept linear search using points  1 and  2.
     Minimum is close to point  2 DX= -1.07D-03 DF= -5.18D-11 DXR=  1.07D-03 DFR=  1.15D-06 which will be used.
 LinEq1:  Iter=  0 NonCon=     1 RMS=2.20D-07 Max=1.37D-05 NDo=     1
 LinEq1:  Iter=  1 NonCon=     1 RMS=1.78D-07 Max=7.90D-06 NDo=     1
 LinEq1:  Iter=  2 NonCon=     1 RMS=1.01D-07 Max=3.91D-06 NDo=     1
 LinEq1:  Iter=  3 NonCon=     1 RMS=6.37D-08 Max=3.25D-06 NDo=     1
 LinEq1:  Iter=  4 NonCon=     1 RMS=5.41D-08 Max=2.01D-06 NDo=     1
 LinEq1:  Iter=  5 NonCon=     1 RMS=4.01D-08 Max=1.18D-06 NDo=     1
 LinEq1:  Iter=  6 NonCon=     1 RMS=2.94D-08 Max=7.57D-07 NDo=     1
 LinEq1:  Iter=  7 NonCon=     1 RMS=1.86D-08 Max=5.88D-07 NDo=     1
 LinEq1:  Iter=  8 NonCon=     1 RMS=1.07D-08 Max=4.41D-07 NDo=     1
 LinEq1:  Iter=  9 NonCon=     1 RMS=9.66D-09 Max=3.41D-07 NDo=     1
 LinEq1:  Iter= 10 NonCon=     1 RMS=6.58D-09 Max=3.02D-07 NDo=     1
 LinEq1:  Iter= 11 NonCon=     1 RMS=3.03D-09 Max=1.77D-07 NDo=     1
 LinEq1:  Iter= 12 NonCon=     1 RMS=1.09D-09 Max=4.49D-08 NDo=     1
 LinEq1:  Iter= 13 NonCon=     1 RMS=7.58D-10 Max=2.06D-08 NDo=     1
 LinEq1:  Iter= 14 NonCon=     1 RMS=3.63D-10 Max=1.13D-08 NDo=     1
 LinEq1:  Iter= 15 NonCon=     1 RMS=1.24D-10 Max=3.44D-09 NDo=     1
 LinEq1:  Iter= 16 NonCon=     0 RMS=5.58D-11 Max=8.38D-10 NDo=     1
 Linear equations converged to 1.650D-10 1.650D-09 after    16 iterations.
 SCF Done:  E(RB3LYP) =  -802.252905324     a.u. after    9 cycles
            Convg  =    0.4299D-09                    50 Fock formations.
              S**2 =  0.0000                  -V/T =  2.0091
 DoSCS=F DFT=T ScalE2(SS,OS)=  1.000000  1.000000
 Range of M.O.s used for correlation:     1   276
 NBasis=   276 NAE=    62 NBE=    62 NFC=     0 NFV=     0
 NROrb=    276 NOA=    62 NOB=    62 NVA=   214 NVB=   214
 Symmetrizing basis deriv contribution to polar:
 IMax=3 JMax=2 DiffMx= 0.00D+00
 G2DrvN: will do    35 centers at a time, making    1 passes.
 Calling FoFCou, ICntrl=  3107 FMM=F I1Cent=   0 AccDes= 0.00D+00.
 End of G2Drv F.D. properties file   721 does not exist.
 End of G2Drv F.D. properties file   722 does not exist.
 End of G2Drv F.D. properties file   788 does not exist.
          IDoAtm=1111111111111111111111111111111111
          Differentiating once with respect to electric field.
                with respect to dipole field.
          Differentiating once with respect to nuclear coordinates.
 Keep R1 ints in memory in canonical form, NReq=741275395.
          There are   105 degrees of freedom in the 1st order CPHF.  IDoFFX=6 NUNeed=     3.
    102 vectors produced by pass  0 Test12= 1.33D-14 1.00D-09 XBig12= 1.33D+02 4.39D+00.
 AX will form   102 AO Fock derivatives at one time.
    102 vectors produced by pass  1 Test12= 1.33D-14 1.00D-09 XBig12= 4.45D+01 1.30D+00.
    102 vectors produced by pass  2 Test12= 1.33D-14 1.00D-09 XBig12= 7.73D-01 1.68D-01.
    102 vectors produced by pass  3 Test12= 1.33D-14 1.00D-09 XBig12= 4.12D-03 7.77D-03.
    102 vectors produced by pass  4 Test12= 1.33D-14 1.00D-09 XBig12= 7.29D-06 2.02D-04.
     56 vectors produced by pass  5 Test12= 1.33D-14 1.00D-09 XBig12= 6.29D-09 5.48D-06.
     11 vectors produced by pass  6 Test12= 1.33D-14 1.00D-09 XBig12= 4.93D-12 2.27D-07.
      3 vectors produced by pass  7 Test12= 1.33D-14 1.00D-09 XBig12= 4.24D-15 6.61D-09.
 InvSVY:  IOpt=1 It=  1 EMax= 2.33D-15
 Solved reduced A of dimension   580 with   105 vectors.
 Isotropic polarizability for W=    0.000000      137.39 Bohr**3.
 End of Minotr F.D. properties file   721 does not exist.
 End of Minotr F.D. properties file   722 does not exist.
 End of Minotr F.D. properties file   788 does not exist.

 **********************************************************************

            Population analysis using the SCF density.

 **********************************************************************

 Orbital symmetries:
       Occupied  (A) (A) (A) (A) (A) (A) (A) (A) (A) (A) (A) (A)
                 (A) (A) (A) (A) (A) (A) (A) (A) (A) (A) (A) (A)
                 (A) (A) (A) (A) (A) (A) (A) (A) (A) (A) (A) (A)
                 (A) (A) (A) (A) (A) (A) (A) (A) (A) (A) (A) (A)
                 (A) (A) (A) (A) (A) (A) (A) (A) (A) (A) (A) (A)
                 (A) (A)
       Virtual   (A) (A) (A) (A) (A) (A) (A) (A) (A) (A) (A) (A)
                 (A) (A) (A) (A) (A) (A) (A) (A) (A) (A) (A) (A)
                 (A) (A) (A) (A) (A) (A) (A) (A) (A) (A) (A) (A)
                 (A) (A) (A) (A) (A) (A) (A) (A) (A) (A) (A) (A)
                 (A) (A) (A) (A) (A) (A) (A) (A) (A) (A) (A) (A)
                 (A) (A) (A) (A) (A) (A) (A) (A) (A) (A) (A) (A)
                 (A) (A) (A) (A) (A) (A) (A) (A) (A) (A) (A) (A)
                 (A) (A) (A) (A) (A) (A) (A) (A) (A) (A) (A) (A)
                 (A) (A) (A) (A) (A) (A) (A) (A) (A) (A) (A) (A)
                 (A) (A) (A) (A) (A) (A) (A) (A) (A) (A) (A) (A)
                 (A) (A) (A) (A) (A) (A) (A) (A) (A) (A) (A) (A)
                 (A) (A) (A) (A) (A) (A) (A) (A) (A) (A) (A) (A)
                 (A) (A) (A) (A) (A) (A) (A) (A) (A) (A) (A) (A)
                 (A) (A) (A) (A) (A) (A) (A) (A) (A) (A) (A) (A)
                 (A) (A) (A) (A) (A) (A) (A) (A) (A) (A) (A) (A)
                 (A) (A) (A) (A) (A) (A) (A) (A) (A) (A) (A) (A)
                 (A) (A) (A) (A) (A) (A) (A) (A) (A) (A) (A) (A)
                 (A) (A) (A) (A) (A) (A) (A) (A) (A) (A)
 The electronic state is 1-A.
 Alpha  occ. eigenvalues --  -19.20710 -19.19863 -19.16239 -19.15644 -14.42933
 Alpha  occ. eigenvalues --  -14.42869 -10.35532 -10.35495 -10.26793 -10.26386
 Alpha  occ. eigenvalues --  -10.18617 -10.18602 -10.18322 -10.18026 -10.17732
 Alpha  occ. eigenvalues --  -10.17418  -1.13970  -1.11461  -1.06237  -1.02965
 Alpha  occ. eigenvalues --   -1.02503  -0.84870  -0.81456  -0.79188  -0.70037
 Alpha  occ. eigenvalues --   -0.69705  -0.69538  -0.69410  -0.66845  -0.62175
 Alpha  occ. eigenvalues --   -0.57910  -0.52045  -0.51822  -0.50787  -0.50373
 Alpha  occ. eigenvalues --   -0.47986  -0.47932  -0.46592  -0.45442  -0.45283
 Alpha  occ. eigenvalues --   -0.45003  -0.43465  -0.42132  -0.41717  -0.40926
 Alpha  occ. eigenvalues --   -0.40039  -0.39769  -0.38824  -0.37684  -0.37203
 Alpha  occ. eigenvalues --   -0.36702  -0.36570  -0.36358  -0.35625  -0.34974
 Alpha  occ. eigenvalues --   -0.34033  -0.33992  -0.30959  -0.30666  -0.30141
 Alpha  occ. eigenvalues --   -0.29005  -0.26236
 Alpha virt. eigenvalues --   -0.13713   0.01370   0.04062   0.08019   0.08228
 Alpha virt. eigenvalues --    0.09908   0.10164   0.14147   0.14499   0.14807
 Alpha virt. eigenvalues --    0.14945   0.15393   0.15871   0.16469   0.16806
 Alpha virt. eigenvalues --    0.17729   0.18354   0.18772   0.19039   0.19051
 Alpha virt. eigenvalues --    0.19329   0.20268   0.20468   0.21936   0.22248
 Alpha virt. eigenvalues --    0.22291   0.22447   0.24586   0.24762   0.25180
 Alpha virt. eigenvalues --    0.25237   0.29022   0.32522   0.34893   0.40508
 Alpha virt. eigenvalues --    0.43924   0.48265   0.48541   0.48696   0.49261
 Alpha virt. eigenvalues --    0.50672   0.51099   0.51384   0.52802   0.55249
 Alpha virt. eigenvalues --    0.55349   0.55843   0.57610   0.58543   0.59311
 Alpha virt. eigenvalues --    0.59704   0.60356   0.61322   0.62667   0.64965
 Alpha virt. eigenvalues --    0.65439   0.68425   0.69327   0.70344   0.70626
 Alpha virt. eigenvalues --    0.70844   0.70901   0.71608   0.72398   0.74805
 Alpha virt. eigenvalues --    0.75849   0.78481   0.80624   0.81200   0.82861
 Alpha virt. eigenvalues --    0.83968   0.85187   0.85709   0.86030   0.86952
 Alpha virt. eigenvalues --    0.88508   0.89016   0.89171   0.89408   0.90023
 Alpha virt. eigenvalues --    0.90111   0.91680   0.92192   0.92504   0.92736
 Alpha virt. eigenvalues --    0.93301   0.93742   0.95260   0.96112   0.96877
 Alpha virt. eigenvalues --    0.97691   0.98591   0.99098   1.01523   1.02964
 Alpha virt. eigenvalues --    1.06757   1.07227   1.10126   1.10667   1.12210
 Alpha virt. eigenvalues --    1.13299   1.15468   1.18322   1.20832   1.22927
 Alpha virt. eigenvalues --    1.26924   1.31926   1.32405   1.34475   1.38588
 Alpha virt. eigenvalues --    1.39721   1.40390   1.41856   1.43201   1.44862
 Alpha virt. eigenvalues --    1.47568   1.49129   1.50323   1.52287   1.53800
 Alpha virt. eigenvalues --    1.56254   1.59251   1.63638   1.66499   1.69134
 Alpha virt. eigenvalues --    1.71270   1.72068   1.72517   1.73610   1.75836
 Alpha virt. eigenvalues --    1.77269   1.77677   1.79321   1.79892   1.81448
 Alpha virt. eigenvalues --    1.82496   1.83793   1.84487   1.85008   1.85538
 Alpha virt. eigenvalues --    1.86904   1.88182   1.89493   1.90846   1.94324
 Alpha virt. eigenvalues --    1.96023   1.96153   1.98890   2.03480   2.05554
 Alpha virt. eigenvalues --    2.08093   2.08797   2.09440   2.09755   2.13637
 Alpha virt. eigenvalues --    2.14480   2.15906   2.16687   2.17337   2.19323
 Alpha virt. eigenvalues --    2.20973   2.22549   2.23152   2.24781   2.25038
 Alpha virt. eigenvalues --    2.25651   2.26465   2.26786   2.26929   2.31544
 Alpha virt. eigenvalues --    2.32143   2.33848   2.37161   2.44268   2.44909
 Alpha virt. eigenvalues --    2.50031   2.52430   2.54333   2.56009   2.56936
 Alpha virt. eigenvalues --    2.60861   2.63207   2.66825   2.69598   2.71173
 Alpha virt. eigenvalues --    2.71430   2.75113   2.75618   2.76783   2.78260
 Alpha virt. eigenvalues --    2.85823   2.88048   2.93850   2.96022   3.08814
 Alpha virt. eigenvalues --    3.10960   3.20402   3.24672   3.77973   3.90082
 Alpha virt. eigenvalues --    4.04607   4.08256   4.16798   4.18857   4.24752
 Alpha virt. eigenvalues --    4.27891   4.28826   4.29782   4.30401   4.31948
 Alpha virt. eigenvalues --    4.38257   4.43104   4.65711   4.67471
          Condensed to atoms (all electrons):
               1          2          3          4          5          6
     1  C    5.202574   0.379925  -0.064262  -0.072294  -0.041794  -0.006102
     2  C    0.379925   4.575885   0.377819   0.402218   0.176381  -0.011250
     3  C   -0.064262   0.377819   5.194581  -0.073975  -0.040553  -0.004840
     4  C   -0.072294   0.402218  -0.073975   5.156785  -0.044845   0.003309
     5  O   -0.041794   0.176381  -0.040553  -0.044845   8.326742   0.281961
     6  C   -0.006102  -0.011250  -0.004840   0.003309   0.281961   4.225688
     7  O   -0.008970   0.002035  -0.005914   0.000181  -0.076862   0.524385
     8  N   -0.000457   0.004438  -0.000493  -0.000225  -0.102490   0.245687
     9  N   -0.000091   0.000260   0.000045  -0.000001  -0.007233  -0.054448
    10  C   -0.000002   0.000001   0.000002  -0.000001   0.000214   0.004251
    11  O   -0.000000   0.000000  -0.000000   0.000000  -0.000006   0.000462
    12  O   -0.000000   0.000000   0.000000  -0.000000  -0.000000  -0.000189
    13  C   -0.000000  -0.000000   0.000000   0.000000   0.000000   0.000001
    14  C   -0.000000   0.000000  -0.000000  -0.000000   0.000000  -0.000000
    15  C    0.000000  -0.000000   0.000000   0.000000   0.000000  -0.000000
    16  C   -0.000000   0.000000   0.000000  -0.000000  -0.000000   0.000000
    17  H    0.361027  -0.024597  -0.002215  -0.002903   0.002626   0.000328
    18  H    0.362260  -0.027937   0.005587  -0.006540   0.000089   0.000631
    19  H    0.366376  -0.024118  -0.005054   0.005180  -0.002967   0.000746
    20  H   -0.002040  -0.023594   0.361674  -0.002938   0.002651   0.000201
    21  H   -0.005184  -0.024355   0.367086   0.005193  -0.003176   0.001955
    22  H    0.005555  -0.027568   0.362459  -0.006449   0.000028   0.000404
    23  H   -0.002131  -0.026350  -0.001893   0.364558   0.002878  -0.000033
    24  H    0.006034  -0.025489  -0.005872   0.362267   0.000356  -0.000011
    25  H   -0.005898  -0.025037   0.005955   0.363224   0.000292  -0.000082
    26  H    0.000000  -0.000000   0.000000   0.000000   0.000000  -0.000000
    27  H    0.000000  -0.000000   0.000000   0.000000   0.000000  -0.000000
    28  H    0.000000  -0.000000   0.000000   0.000000   0.000000   0.000000
    29  H    0.000000  -0.000000   0.000000   0.000000   0.000000   0.000000
    30  H    0.000000   0.000000   0.000000   0.000000   0.000000   0.000000
    31  H   -0.000000   0.000000   0.000000  -0.000000   0.000000  -0.000000
    32  H    0.000000  -0.000000   0.000000  -0.000000   0.000000  -0.000000
    33  H    0.000000  -0.000000   0.000000  -0.000000   0.000000  -0.000001
    34  H   -0.000000   0.000000  -0.000000  -0.000000  -0.000000   0.000000
               7          8          9         10         11         12
     1  C   -0.008970  -0.000457  -0.000091  -0.000002  -0.000000  -0.000000
     2  C    0.002035   0.004438   0.000260   0.000001   0.000000   0.000000
     3  C   -0.005914  -0.000493   0.000045   0.000002  -0.000000   0.000000
     4  C    0.000181  -0.000225  -0.000001  -0.000001   0.000000  -0.000000
     5  O   -0.076862  -0.102490  -0.007233   0.000214  -0.000006  -0.000000
     6  C    0.524385   0.245687  -0.054448   0.004251   0.000462  -0.000189
     7  O    8.053974  -0.058970   0.000418  -0.000157   0.000000   0.000000
     8  N   -0.058970   6.955228   0.218911  -0.051938   0.000719   0.001785
     9  N    0.000418   0.218911   6.967364   0.244203  -0.075854  -0.088271
    10  C   -0.000157  -0.051938   0.244203   4.237947   0.511135   0.298591
    11  O    0.000000   0.000719  -0.075854   0.511135   8.078136  -0.074158
    12  O    0.000000   0.001785  -0.088271   0.298591  -0.074158   8.296453
    13  C   -0.000000  -0.000085   0.003403  -0.014905   0.000128   0.176494
    14  C    0.000000   0.000001  -0.000325  -0.003726  -0.002456  -0.042451
    15  C    0.000000   0.000003  -0.000192   0.003106   0.000206  -0.045623
    16  C    0.000000   0.000046  -0.000699  -0.007071  -0.018117  -0.041066
    17  H    0.000278   0.000006  -0.000000   0.000000  -0.000000   0.000000
    18  H   -0.000050  -0.000032   0.000031   0.000002  -0.000000  -0.000000
    19  H    0.011239   0.000086  -0.000016   0.000000   0.000000  -0.000000
    20  H    0.000131   0.000006  -0.000000  -0.000000   0.000000  -0.000000
    21  H    0.008378   0.000046  -0.000007   0.000000   0.000000  -0.000000
    22  H    0.000088  -0.000007  -0.000012  -0.000000   0.000000  -0.000000
    23  H    0.000009   0.000003  -0.000001   0.000000  -0.000000   0.000000
    24  H    0.000004  -0.000001  -0.000002  -0.000001   0.000000  -0.000000
    25  H   -0.000000  -0.000014   0.000078   0.000002  -0.000000  -0.000000
    26  H   -0.000000   0.000001  -0.000006   0.000134   0.000061   0.000258
    27  H   -0.000000  -0.000000  -0.000009   0.002763   0.004166  -0.003109
    28  H   -0.000000   0.000000   0.000004   0.000104   0.000032   0.002757
    29  H   -0.000000   0.000000   0.000007  -0.000012   0.000006   0.000403
    30  H   -0.000000  -0.000000   0.000002  -0.000040   0.000009   0.002905
    31  H    0.000000  -0.000001  -0.000003   0.000048  -0.000004   0.000421
    32  H    0.000000  -0.000016   0.000225  -0.001580   0.012750  -0.001787
    33  H    0.000000  -0.000015  -0.000022   0.001150  -0.000505  -0.000542
    34  H    0.000000  -0.000001   0.000010   0.000596   0.000776   0.002489
              13         14         15         16         17         18
     1  C   -0.000000  -0.000000   0.000000  -0.000000   0.361027   0.362260
     2  C   -0.000000   0.000000  -0.000000   0.000000  -0.024597  -0.027937
     3  C    0.000000  -0.000000   0.000000   0.000000  -0.002215   0.005587
     4  C    0.000000  -0.000000   0.000000  -0.000000  -0.002903  -0.006540
     5  O    0.000000   0.000000   0.000000  -0.000000   0.002626   0.000089
     6  C    0.000001  -0.000000  -0.000000   0.000000   0.000328   0.000631
     7  O   -0.000000   0.000000   0.000000   0.000000   0.000278  -0.000050
     8  N   -0.000085   0.000001   0.000003   0.000046   0.000006  -0.000032
     9  N    0.003403  -0.000325  -0.000192  -0.000699  -0.000000   0.000031
    10  C   -0.014905  -0.003726   0.003106  -0.007071   0.000000   0.000002
    11  O    0.000128  -0.002456   0.000206  -0.018117  -0.000000  -0.000000
    12  O    0.176494  -0.042451  -0.045623  -0.041066   0.000000  -0.000000
    13  C    4.588100   0.380440   0.403430   0.381046   0.000000   0.000000
    14  C    0.380440   5.175669  -0.073328  -0.063906   0.000000   0.000000
    15  C    0.403430  -0.073328   5.153882  -0.071920  -0.000000   0.000000
    16  C    0.381046  -0.063906  -0.071920   5.219385   0.000000   0.000000
    17  H    0.000000   0.000000  -0.000000   0.000000   0.567221  -0.026678
    18  H    0.000000   0.000000   0.000000   0.000000  -0.026678   0.567647
    19  H    0.000000  -0.000000  -0.000000  -0.000000  -0.025776  -0.029791
    20  H    0.000000  -0.000000  -0.000000  -0.000000   0.001512  -0.000040
    21  H    0.000000  -0.000000  -0.000000  -0.000000   0.000185  -0.000021
    22  H   -0.000000  -0.000000  -0.000000  -0.000000  -0.000032  -0.000186
    23  H    0.000000   0.000000  -0.000000   0.000000   0.001838   0.000178
    24  H    0.000000  -0.000000   0.000000  -0.000000  -0.000005  -0.000041
    25  H    0.000000   0.000000   0.000000   0.000000   0.000096   0.004449
    26  H   -0.027218   0.363541  -0.006400   0.005438  -0.000000  -0.000000
    27  H   -0.024130   0.366810   0.005314  -0.005247  -0.000000   0.000000
    28  H   -0.022782   0.362930  -0.002867  -0.002047  -0.000000  -0.000000
    29  H   -0.025625  -0.005976   0.361704   0.006060  -0.000000  -0.000000
    30  H   -0.026751  -0.001590   0.365680  -0.002279   0.000000   0.000000
    31  H   -0.025413   0.005940   0.363064  -0.005809   0.000000   0.000000
    32  H   -0.023789  -0.004192   0.004928   0.365816  -0.000000  -0.000000
    33  H   -0.028052   0.005584  -0.006681   0.362721   0.000000   0.000000
    34  H   -0.025526  -0.002735  -0.003372   0.356441   0.000000   0.000000
              19         20         21         22         23         24
     1  C    0.366376  -0.002040  -0.005184   0.005555  -0.002131   0.006034
     2  C   -0.024118  -0.023594  -0.024355  -0.027568  -0.026350  -0.025489
     3  C   -0.005054   0.361674   0.367086   0.362459  -0.001893  -0.005872
     4  C    0.005180  -0.002938   0.005193  -0.006449   0.364558   0.362267
     5  O   -0.002967   0.002651  -0.003176   0.000028   0.002878   0.000356
     6  C    0.000746   0.000201   0.001955   0.000404  -0.000033  -0.000011
     7  O    0.011239   0.000131   0.008378   0.000088   0.000009   0.000004
     8  N    0.000086   0.000006   0.000046  -0.000007   0.000003  -0.000001
     9  N   -0.000016  -0.000000  -0.000007  -0.000012  -0.000001  -0.000002
    10  C    0.000000  -0.000000   0.000000  -0.000000   0.000000  -0.000001
    11  O    0.000000   0.000000   0.000000   0.000000  -0.000000   0.000000
    12  O   -0.000000  -0.000000  -0.000000  -0.000000   0.000000  -0.000000
    13  C    0.000000   0.000000   0.000000  -0.000000   0.000000   0.000000
    14  C   -0.000000  -0.000000  -0.000000  -0.000000   0.000000  -0.000000
    15  C   -0.000000  -0.000000  -0.000000  -0.000000  -0.000000   0.000000
    16  C   -0.000000  -0.000000  -0.000000  -0.000000   0.000000  -0.000000
    17  H   -0.025776   0.001512   0.000185  -0.000032   0.001838  -0.000005
    18  H   -0.029791  -0.000040  -0.000021  -0.000186   0.000178  -0.000041
    19  H    0.514809   0.000195   0.002387  -0.000033  -0.000001  -0.000182
    20  H    0.000195   0.564183  -0.026683  -0.026817   0.001800   0.000116
    21  H    0.002387  -0.026683   0.525116  -0.030166   0.000013  -0.000062
    22  H   -0.000033  -0.026817  -0.030166   0.567220   0.000162   0.004440
    23  H   -0.000001   0.001800   0.000013   0.000162   0.563513  -0.027535
    24  H   -0.000182   0.000116  -0.000062   0.004440  -0.027535   0.562349
    25  H   -0.000057  -0.000011  -0.000182  -0.000044  -0.027354  -0.029572
    26  H   -0.000000  -0.000000   0.000000   0.000000   0.000000   0.000000
    27  H   -0.000000  -0.000000   0.000000   0.000000  -0.000000   0.000000
    28  H    0.000000   0.000000   0.000000   0.000000  -0.000000   0.000000
    29  H   -0.000000  -0.000000  -0.000000   0.000000   0.000000  -0.000000
    30  H    0.000000  -0.000000   0.000000   0.000000   0.000000  -0.000000
    31  H   -0.000000  -0.000000  -0.000000  -0.000000  -0.000000  -0.000000
    32  H   -0.000000  -0.000000   0.000000   0.000000   0.000000   0.000000
    33  H   -0.000000  -0.000000  -0.000000   0.000000   0.000000  -0.000000
    34  H    0.000000  -0.000000  -0.000000  -0.000000   0.000000  -0.000000
              25         26         27         28         29         30
     1  C   -0.005898   0.000000   0.000000   0.000000   0.000000   0.000000
     2  C   -0.025037  -0.000000  -0.000000  -0.000000  -0.000000   0.000000
     3  C    0.005955   0.000000   0.000000   0.000000   0.000000   0.000000
     4  C    0.363224   0.000000   0.000000   0.000000   0.000000   0.000000
     5  O    0.000292   0.000000   0.000000   0.000000   0.000000   0.000000
     6  C   -0.000082  -0.000000  -0.000000   0.000000   0.000000   0.000000
     7  O   -0.000000  -0.000000  -0.000000  -0.000000  -0.000000  -0.000000
     8  N   -0.000014   0.000001  -0.000000   0.000000   0.000000  -0.000000
     9  N    0.000078  -0.000006  -0.000009   0.000004   0.000007   0.000002
    10  C    0.000002   0.000134   0.002763   0.000104  -0.000012  -0.000040
    11  O   -0.000000   0.000061   0.004166   0.000032   0.000006   0.000009
    12  O   -0.000000   0.000258  -0.003109   0.002757   0.000403   0.002905
    13  C    0.000000  -0.027218  -0.024130  -0.022782  -0.025625  -0.026751
    14  C    0.000000   0.363541   0.366810   0.362930  -0.005976  -0.001590
    15  C    0.000000  -0.006400   0.005314  -0.002867   0.361704   0.365680
    16  C    0.000000   0.005438  -0.005247  -0.002047   0.006060  -0.002279
    17  H    0.000096  -0.000000  -0.000000  -0.000000  -0.000000   0.000000
    18  H    0.004449  -0.000000   0.000000  -0.000000  -0.000000   0.000000
    19  H   -0.000057  -0.000000  -0.000000   0.000000  -0.000000   0.000000
    20  H   -0.000011  -0.000000  -0.000000   0.000000  -0.000000  -0.000000
    21  H   -0.000182   0.000000   0.000000   0.000000  -0.000000   0.000000
    22  H   -0.000044   0.000000   0.000000   0.000000   0.000000   0.000000
    23  H   -0.027354   0.000000  -0.000000  -0.000000   0.000000   0.000000
    24  H   -0.029572   0.000000   0.000000   0.000000  -0.000000  -0.000000
    25  H    0.557273  -0.000000   0.000000  -0.000000  -0.000000   0.000000
    26  H   -0.000000   0.563056  -0.030595  -0.026998   0.004470   0.000118
    27  H    0.000000  -0.030595   0.539517  -0.027416  -0.000061   0.000018
    28  H   -0.000000  -0.026998  -0.027416   0.558544   0.000143   0.001530
    29  H   -0.000000   0.004470  -0.000061   0.000143   0.562204  -0.027481
    30  H    0.000000   0.000118   0.000018   0.001530  -0.027481   0.559658
    31  H    0.000000  -0.000045  -0.000185  -0.000019  -0.029851  -0.026661
    32  H   -0.000000  -0.000055   0.002555   0.000146  -0.000180   0.000000
    33  H    0.000000  -0.000186  -0.000023  -0.000041  -0.000044   0.000196
    34  H    0.000000  -0.000027   0.000132   0.001653   0.000022   0.002065
              31         32         33         34
     1  C   -0.000000   0.000000   0.000000  -0.000000
     2  C    0.000000  -0.000000  -0.000000   0.000000
     3  C    0.000000   0.000000   0.000000  -0.000000
     4  C   -0.000000  -0.000000  -0.000000  -0.000000
     5  O    0.000000   0.000000   0.000000  -0.000000
     6  C   -0.000000  -0.000000  -0.000001   0.000000
     7  O    0.000000   0.000000   0.000000   0.000000
     8  N   -0.000001  -0.000016  -0.000015  -0.000001
     9  N   -0.000003   0.000225  -0.000022   0.000010
    10  C    0.000048  -0.001580   0.001150   0.000596
    11  O   -0.000004   0.012750  -0.000505   0.000776
    12  O    0.000421  -0.001787  -0.000542   0.002489
    13  C   -0.025413  -0.023789  -0.028052  -0.025526
    14  C    0.005940  -0.004192   0.005584  -0.002735
    15  C    0.363064   0.004928  -0.006681  -0.003372
    16  C   -0.005809   0.365816   0.362721   0.356441
    17  H    0.000000  -0.000000   0.000000   0.000000
    18  H    0.000000  -0.000000   0.000000   0.000000
    19  H   -0.000000  -0.000000  -0.000000   0.000000
    20  H   -0.000000  -0.000000  -0.000000  -0.000000
    21  H   -0.000000   0.000000  -0.000000  -0.000000
    22  H   -0.000000   0.000000   0.000000  -0.000000
    23  H   -0.000000   0.000000   0.000000   0.000000
    24  H   -0.000000   0.000000  -0.000000  -0.000000
    25  H    0.000000  -0.000000   0.000000   0.000000
    26  H   -0.000045  -0.000055  -0.000186  -0.000027
    27  H   -0.000185   0.002555  -0.000023   0.000132
    28  H   -0.000019   0.000146  -0.000041   0.001653
    29  H   -0.029851  -0.000180  -0.000044   0.000022
    30  H   -0.026661   0.000000   0.000196   0.002065
    31  H    0.559097  -0.000045   0.004473   0.000047
    32  H   -0.000045   0.492836  -0.028444  -0.024504
    33  H    0.004473  -0.028444   0.570092  -0.026789
    34  H    0.000047  -0.024504  -0.026789   0.576289
 Mulliken charges:
               1
     1  C   -0.474526
     2  C    0.321333
     3  C   -0.470140
     4  C   -0.452744
     5  O   -0.474294
     6  C    0.786948
     7  O   -0.450198
     8  N   -0.212220
     9  N   -0.207769
    10  C    0.775185
    11  O   -0.437486
    12  O   -0.485360
    13  C    0.311235
    14  C   -0.460229
    15  C   -0.450935
    16  C   -0.478792
    17  H    0.147089
    18  H    0.150441
    19  H    0.186979
    20  H    0.149655
    21  H    0.179478
    22  H    0.150961
    23  H    0.150343
    24  H    0.153208
    25  H    0.156882
    26  H    0.154453
    27  H    0.169500
    28  H    0.154327
    29  H    0.154212
    30  H    0.152621
    31  H    0.154944
    32  H    0.205336
    33  H    0.147130
    34  H    0.142434
 Sum of Mulliken charges =   0.00000
 Mulliken charges with hydrogens summed into heavy atoms:
               1
     1  C    0.009983
     2  C    0.321333
     3  C    0.009954
     4  C    0.007689
     5  O   -0.474294
     6  C    0.786948
     7  O   -0.450198
     8  N   -0.212220
     9  N   -0.207769
    10  C    0.775185
    11  O   -0.437486
    12  O   -0.485360
    13  C    0.311235
    14  C    0.018050
    15  C    0.010842
    16  C    0.016107
 APT charges:
               1
     1  C   -0.054463
     2  C    0.651754
     3  C   -0.038095
     4  C    0.013223
     5  O   -0.917752
     6  C    1.235020
     7  O   -0.652293
     8  N   -0.240736
     9  N   -0.208950
    10  C    1.275579
    11  O   -0.663828
    12  O   -0.965373
    13  C    0.670935
    14  C   -0.033555
    15  C    0.022213
    16  C   -0.066358
    17  H   -0.005509
    18  H   -0.013656
    19  H    0.035534
    20  H   -0.007996
    21  H    0.026349
    22  H   -0.015039
    23  H   -0.008367
    24  H   -0.014440
    25  H   -0.010985
    26  H   -0.012710
    27  H    0.005716
    28  H   -0.005000
    29  H   -0.014308
    30  H   -0.008932
    31  H   -0.012440
    32  H    0.061404
    33  H   -0.015462
    34  H   -0.011479
 Sum of APT charges =   0.00000
 APT charges with hydrogens summed into heavy atoms:
               1
     1  C   -0.038095
     2  C    0.651754
     3  C   -0.034780
     4  C   -0.020570
     5  O   -0.917752
     6  C    1.235020
     7  O   -0.652293
     8  N   -0.240736
     9  N   -0.208950
    10  C    1.275579
    11  O   -0.663828
    12  O   -0.965373
    13  C    0.670935
    14  C   -0.045550
    15  C   -0.013467
    16  C   -0.031896
 Electronic spatial extent (au):  <R**2>=           5775.1665
 Charge=              0.0000 electrons
 Dipole moment (field-independent basis, Debye):
    X=              0.6850    Y=              3.2166    Z=              0.0932  Tot=              3.2901
 Quadrupole moment (field-independent basis, Debye-Ang):
   XX=            -77.0186   YY=           -102.4334   ZZ=            -95.2698
   XY=             -2.3426   XZ=              3.9300   YZ=             -0.6251
 Traceless Quadrupole moment (field-independent basis, Debye-Ang):
   XX=             14.5553   YY=            -10.8595   ZZ=             -3.6959
   XY=             -2.3426   XZ=              3.9300   YZ=             -0.6251
 Octapole moment (field-independent basis, Debye-Ang**2):
  XXX=             17.9305  YYY=              9.6774  ZZZ=             -0.4991  XYY=              3.3095
  XXY=             31.1139  XXZ=             -4.2410  XZZ=             -1.0479  YZZ=             -0.1622
  YYZ=             -1.2772  XYZ=            -11.0234
 Hexadecapole moment (field-independent basis, Debye-Ang**3):
 XXXX=          -5796.4458 YYYY=           -872.7022 ZZZZ=           -499.1496 XXXY=            -26.3903
 XXXZ=              8.9770 YYYX=             -5.2644 YYYZ=              5.3346 ZZZX=             -4.7167
 ZZZY=             -3.0910 XXYY=          -1207.4586 XXZZ=          -1139.4713 YYZZ=           -231.3738
 XXYZ=              8.0534 YYXZ=             15.3926 ZZXY=              5.0218
 N-N= 1.156621938475D+03 E-N=-4.183720323158D+03  KE= 7.949888846547D+02
  Exact polarizability: 182.963   7.121 122.249  -3.210  -0.398 106.969
 Approx polarizability: 218.827  19.536 194.065 -13.179   0.130 158.072
 Calling FoFJK, ICntrl=    100127 FMM=F ISym2X=0 I1Cent= 0 IOpClX= 0 NMat=1 NMatS=1 NMatT=0.
 ***** Axes restored to original set *****
 -------------------------------------------------------------------
 Center     Atomic                   Forces (Hartrees/Bohr)
 Number     Number              X              Y              Z
 -------------------------------------------------------------------
      1        6          -0.004991350    0.011268666   -0.000133959
      2        6           0.003121110   -0.011707929   -0.022800910
      3        6          -0.010295654    0.001692753    0.006567453
      4        6           0.005983299    0.002654682    0.011958360
      5        8          -0.012588722    0.001719868    0.000853022
      6        6           0.002398823   -0.035051893   -0.073806816
      7        8           0.014148974    0.003145490    0.031241863
      8        7           0.002459659    0.022201026    0.036600749
      9        7          -0.006641562   -0.006939001   -0.034700689
     10        6           0.007242125    0.032376878    0.074191280
     11        8           0.011367089   -0.013106181   -0.023984120
     12        8          -0.013410634   -0.017701176   -0.014493418
     13        6           0.006180418    0.019301975    0.021143819
     14        6          -0.003773366   -0.012373606   -0.003565264
     15        6           0.001023141   -0.001495702   -0.013722255
     16        6          -0.010668962    0.000060892    0.005466191
     17        1           0.001704068   -0.002546983    0.001886301
     18        1           0.002105684   -0.002289836   -0.000192041
     19        1          -0.000564397   -0.002948659    0.000385613
     20        1           0.003110432    0.001086981    0.000518449
     21        1           0.000706408    0.002621755   -0.001241578
     22        1           0.002635558   -0.001003681   -0.000631808
     23        1          -0.003051713    0.002177394    0.001035721
     24        1          -0.001675812   -0.000780406   -0.000296747
     25        1          -0.000780754    0.001135786   -0.001204570
     26        1           0.001184062    0.002172283   -0.000421088
     27        1          -0.003775187    0.000805928    0.000273602
     28        1          -0.000818115    0.002486970   -0.002329573
     29        1           0.000290892   -0.001249273    0.001264225
     30        1          -0.002745034   -0.002728501    0.000280736
     31        1          -0.001403308    0.000174413    0.001523707
     32        1           0.004880393    0.002344985    0.001043479
     33        1           0.002290824    0.001586441   -0.000234124
     34        1           0.004351612    0.000907660   -0.002475613
 -------------------------------------------------------------------
 Cartesian Forces:  Max     0.074191280 RMS     0.014713515
 FormGI is forming the generalized inverse of G from B-inverse, IUseBI=4.

 GradGradGradGradGradGradGradGradGradGradGradGradGradGradGradGradGradGrad
 Berny optimization.
 Internal  Forces:  Max     0.052105882 RMS     0.009231128
 Search for a local minimum.
 Step number   1 out of a maximum of  170
 All quantities printed in internal units (Hartrees-Bohrs-Radians)
 Mixed Optimization -- RFO/linear search
 Second derivative matrix not updated -- analytic derivatives used.
 ITU=  0
     Eigenvalues ---   -0.00574  -0.00329  -0.00138   0.00149   0.00200
     Eigenvalues ---    0.00275   0.00291   0.00327   0.00336   0.00588
     Eigenvalues ---    0.00812   0.02565   0.04498   0.04523   0.04557
     Eigenvalues ---    0.04598   0.04608   0.04664   0.04699   0.04718
     Eigenvalues ---    0.04723   0.04740   0.04817   0.04876   0.04891
     Eigenvalues ---    0.04900   0.05778   0.05882   0.06847   0.06974
     Eigenvalues ---    0.07232   0.10060   0.11156   0.11321   0.11897
     Eigenvalues ---    0.12217   0.12222   0.12234   0.12252   0.12799
     Eigenvalues ---    0.12808   0.13350   0.13989   0.14224   0.14360
     Eigenvalues ---    0.14836   0.14870   0.15214   0.15236   0.15307
     Eigenvalues ---    0.15415   0.17778   0.17851   0.18848   0.19723
     Eigenvalues ---    0.20292   0.21458   0.23620   0.24152   0.26825
     Eigenvalues ---    0.26890   0.27038   0.27803   0.27908   0.28797
     Eigenvalues ---    0.29587   0.30494   0.32112   0.32417   0.33641
     Eigenvalues ---    0.33680   0.33828   0.33830   0.33855   0.33867
     Eigenvalues ---    0.33902   0.33949   0.34136   0.34212   0.34246
     Eigenvalues ---    0.34292   0.34597   0.34609   0.34886   0.34945
     Eigenvalues ---    0.35130   0.35138   0.35493   0.36598   0.49057
     Eigenvalues ---    0.54115   0.63485   0.78483   0.78889   0.81590
     Eigenvalues ---    0.86373
 RFO step:  Lambda=-3.60212524D-02 EMin=-5.74272471D-03
 Linear search not attempted -- first point.
 Maximum step size (   0.300) exceeded in Quadratic search.
    -- Step size scaled by   0.995
 Iteration  1 RMS(Cart)=  0.10912952 RMS(Int)=  0.04088448
 Iteration  2 RMS(Cart)=  0.11112345 RMS(Int)=  0.01461106
 Iteration  3 RMS(Cart)=  0.10881261 RMS(Int)=  0.00220695
 Iteration  4 RMS(Cart)=  0.00410452 RMS(Int)=  0.00053847
 Iteration  5 RMS(Cart)=  0.00000624 RMS(Int)=  0.00053846
 Iteration  6 RMS(Cart)=  0.00000000 RMS(Int)=  0.00053846
 Variable       Old X    -DE/DX   Delta X   Delta X   Delta X     New X
                                 (Linear)    (Quad)   (Total)
    R1        2.89887   0.00091   0.00000  -0.00304  -0.00304   2.89583
    R2        2.06949  -0.00046   0.00000  -0.00071  -0.00071   2.06878
    R3        2.07167   0.00017   0.00000  -0.00117  -0.00117   2.07051
    R4        2.06593  -0.00120   0.00000  -0.00268  -0.00268   2.06325
    R5        2.89895  -0.00027   0.00000  -0.00359  -0.00359   2.89537
    R6        2.90859  -0.00303   0.00000  -0.01496  -0.01496   2.89363
    R7        2.74755   0.00313   0.00000   0.03360   0.03360   2.78116
    R8        2.07020  -0.00090   0.00000  -0.00158  -0.00158   2.06862
    R9        2.06549   0.00050   0.00000  -0.00075  -0.00075   2.06474
   R10        2.07115   0.00025   0.00000  -0.00070  -0.00070   2.07045
   R11        2.07183  -0.00217   0.00000  -0.00385  -0.00385   2.06797
   R12        2.07112   0.00020   0.00000  -0.00132  -0.00132   2.06980
   R13        2.07130  -0.00005   0.00000  -0.00191  -0.00191   2.06939
   R14        2.58367  -0.01177   0.00000  -0.06358  -0.06358   2.52009
   R15        2.31655  -0.02855   0.00000  -0.03812  -0.03812   2.27843
   R16        2.60383   0.05211   0.00000   0.10206   0.10206   2.70589
   R17        2.37285  -0.00209   0.00000  -0.01576  -0.01576   2.35709
   R18        2.60520   0.04559   0.00000   0.12372   0.12372   2.72892
   R19        2.31627  -0.02443   0.00000  -0.03361  -0.03361   2.28266
   R20        2.58151  -0.01720   0.00000  -0.06493  -0.06493   2.51658
   R21        2.74271   0.01104   0.00000   0.03388   0.03388   2.77660
   R22        2.89964  -0.00201   0.00000  -0.00676  -0.00676   2.89288
   R23        2.90790  -0.00257   0.00000  -0.01506  -0.01506   2.89285
   R24        2.89962   0.00360   0.00000   0.00322   0.00322   2.90284
   R25        2.07139   0.00000   0.00000  -0.00066  -0.00066   2.07073
   R26        2.06501   0.00198   0.00000  -0.00178  -0.00178   2.06323
   R27        2.07008  -0.00114   0.00000  -0.00143  -0.00143   2.06865
   R28        2.07164   0.00017   0.00000  -0.00139  -0.00139   2.07025
   R29        2.07131  -0.00213   0.00000  -0.00358  -0.00358   2.06772
   R30        2.07188  -0.00032   0.00000  -0.00261  -0.00261   2.06927
   R31        2.06546  -0.00471   0.00000  -0.00248  -0.00248   2.06298
   R32        2.07146   0.00027   0.00000   0.00059   0.00059   2.07205
   R33        2.06969  -0.00005   0.00000  -0.00179  -0.00179   2.06790
    A1        1.94369  -0.00441   0.00000  -0.02894  -0.02919   1.91450
    A2        1.92925  -0.00096   0.00000  -0.00154  -0.00162   1.92762
    A3        1.96134  -0.00106   0.00000  -0.01476  -0.01488   1.94646
    A4        1.89224   0.00126   0.00000   0.00195   0.00174   1.89398
    A5        1.87544   0.00266   0.00000   0.01899   0.01870   1.89414
    A6        1.85825   0.00299   0.00000   0.02767   0.02771   1.88596
    A7        1.95914  -0.00270   0.00000  -0.00453  -0.00595   1.95319
    A8        1.88233   0.00238   0.00000   0.03580   0.03531   1.91764
    A9        1.93741   0.00287   0.00000  -0.00681  -0.00653   1.93088
   A10        1.88341   0.00498   0.00000   0.03809   0.03754   1.92096
   A11        1.94458  -0.00099   0.00000  -0.01792  -0.01758   1.92700
   A12        1.85179  -0.00656   0.00000  -0.04326  -0.04280   1.80900
   A13        1.94232  -0.00391   0.00000  -0.02641  -0.02664   1.91568
   A14        1.96248  -0.00206   0.00000  -0.01579  -0.01591   1.94656
   A15        1.93103  -0.00077   0.00000  -0.00106  -0.00112   1.92990
   A16        1.87359   0.00286   0.00000   0.01762   0.01734   1.89093
   A17        1.89148   0.00130   0.00000   0.00195   0.00179   1.89327
   A18        1.85926   0.00308   0.00000   0.02687   0.02692   1.88618
   A19        1.94556  -0.00457   0.00000  -0.02369  -0.02384   1.92171
   A20        1.93975  -0.00036   0.00000  -0.00401  -0.00407   1.93567
   A21        1.93894  -0.00050   0.00000  -0.00522  -0.00528   1.93366
   A22        1.88878   0.00190   0.00000   0.00650   0.00636   1.89513
   A23        1.88827   0.00204   0.00000   0.00809   0.00794   1.89621
   A24        1.85935   0.00190   0.00000   0.02088   0.02089   1.88024
   A25        2.09781   0.00870   0.00000   0.01280   0.01280   2.11061
   A26        2.16792   0.00995   0.00000   0.08802   0.08660   2.25452
   A27        1.91647   0.02440   0.00000  -0.01529  -0.01654   1.89992
   A28        2.19878  -0.03428   0.00000  -0.07211  -0.07323   2.12555
   A29        1.95607   0.02476   0.00000  -0.01082  -0.01082   1.94524
   A30        1.95659   0.00319   0.00000  -0.01469  -0.01469   1.94190
   A31        2.19690  -0.00402   0.00000  -0.00623  -0.00679   2.19012
   A32        1.91570  -0.02164   0.00000  -0.04197  -0.04256   1.87314
   A33        2.17057   0.02569   0.00000   0.04841   0.04780   2.21837
   A34        2.09852   0.03423   0.00000  -0.04740  -0.04740   2.05112
   A35        1.94442  -0.00669   0.00000  -0.00419  -0.00372   1.94070
   A36        1.84988  -0.00841   0.00000  -0.03712  -0.03674   1.81314
   A37        1.93903   0.01209   0.00000  -0.03753  -0.03723   1.90180
   A38        1.88351   0.00933   0.00000   0.03870   0.03794   1.92144
   A39        1.95944  -0.00351   0.00000   0.01310   0.01170   1.97114
   A40        1.88219  -0.00305   0.00000   0.02794   0.02665   1.90884
   A41        1.93077  -0.00023   0.00000  -0.00421  -0.00433   1.92644
   A42        1.96247  -0.00281   0.00000  -0.01407  -0.01418   1.94829
   A43        1.94234  -0.00418   0.00000  -0.02862  -0.02891   1.91343
   A44        1.85890   0.00310   0.00000   0.03172   0.03177   1.89067
   A45        1.89120   0.00153   0.00000   0.00018  -0.00011   1.89110
   A46        1.87447   0.00312   0.00000   0.01846   0.01819   1.89266
   A47        1.93972  -0.00023   0.00000  -0.00276  -0.00283   1.93688
   A48        1.94640  -0.00464   0.00000  -0.02527  -0.02541   1.92099
   A49        1.93855  -0.00054   0.00000  -0.00316  -0.00323   1.93532
   A50        1.88878   0.00190   0.00000   0.00615   0.00601   1.89478
   A51        1.85859   0.00194   0.00000   0.02012   0.02013   1.87872
   A52        1.88856   0.00198   0.00000   0.00744   0.00731   1.89587
   A53        1.96123   0.00204   0.00000  -0.01159  -0.01164   1.94960
   A54        1.92845  -0.00062   0.00000  -0.01354  -0.01367   1.91478
   A55        1.94360  -0.00654   0.00000  -0.01759  -0.01780   1.92580
   A56        1.85880   0.00196   0.00000   0.03219   0.03222   1.89102
[...]
     8    C    1  py     Ryd( 3p)     0.00249
     9    C    1  pz     Val( 2p)     1.10085
    10    C    1  pz     Ryd( 3p)     0.00168
    11    C    1  dxy    Ryd( 3d)     0.00042
    12    C    1  dxz    Ryd( 3d)     0.00035
    13    C    1  dyz    Ryd( 3d)     0.00072
    14    C    1  dx2y2  Ryd( 3d)     0.00098
    15    C    1  dz2    Ryd( 3d)     0.00081
 
    16    C    2  S      Cor( 1S)     1.99900
    17    C    2  S      Val( 2S)     0.91216
    18    C    2  S      Ryd( 3S)     0.00081
    19    C    2  S      Ryd( 4S)     0.00004
    20    C    2  px     Val( 2p)     0.67497
    21    C    2  px     Ryd( 3p)     0.00339
    22    C    2  py     Val( 2p)     1.06156
    23    C    2  py     Ryd( 3p)     0.00554
    24    C    2  pz     Val( 2p)     1.05387
    25    C    2  pz     Ryd( 3p)     0.00290
    26    C    2  dxy    Ryd( 3d)     0.00096
    27    C    2  dxz    Ryd( 3d)     0.00110
    28    C    2  dyz    Ryd( 3d)     0.00090
    29    C    2  dx2y2  Ryd( 3d)     0.00185
    30    C    2  dz2    Ryd( 3d)     0.00122
 
    31    C    3  S      Cor( 1S)     1.99932
    32    C    3  S      Val( 2S)     1.09990
    33    C    3  S      Ryd( 3S)     0.00051
    34    C    3  S      Ryd( 4S)     0.00002
    35    C    3  px     Val( 2p)     1.22299
    36    C    3  px     Ryd( 3p)     0.00130
    37    C    3  py     Val( 2p)     1.20876
    38    C    3  py     Ryd( 3p)     0.00230
    39    C    3  pz     Val( 2p)     1.16412
    40    C    3  pz     Ryd( 3p)     0.00183
    41    C    3  dxy    Ryd( 3d)     0.00036
    42    C    3  dxz    Ryd( 3d)     0.00027
    43    C    3  dyz    Ryd( 3d)     0.00061
    44    C    3  dx2y2  Ryd( 3d)     0.00103
    45    C    3  dz2    Ryd( 3d)     0.00101
 
    46    C    4  S      Cor( 1S)     1.99932
    47    C    4  S      Val( 2S)     1.09915
    48    C    4  S      Ryd( 3S)     0.00060
    49    C    4  S      Ryd( 4S)     0.00002
    50    C    4  px     Val( 2p)     1.22534
    51    C    4  px     Ryd( 3p)     0.00215
    52    C    4  py     Val( 2p)     1.09607
    53    C    4  py     Ryd( 3p)     0.00168
    54    C    4  pz     Val( 2p)     1.25672
    55    C    4  pz     Ryd( 3p)     0.00252
    56    C    4  dxy    Ryd( 3d)     0.00035
    57    C    4  dxz    Ryd( 3d)     0.00034
    58    C    4  dyz    Ryd( 3d)     0.00085
    59    C    4  dx2y2  Ryd( 3d)     0.00091
    60    C    4  dz2    Ryd( 3d)     0.00083
 
    61    O    5  S      Cor( 1S)     1.99970
    62    O    5  S      Val( 2S)     1.61380
    63    O    5  S      Ryd( 3S)     0.00231
    64    O    5  S      Ryd( 4S)     0.00015
    65    O    5  px     Val( 2p)     1.44324
    66    O    5  px     Ryd( 3p)     0.00127
    67    O    5  py     Val( 2p)     1.70068
    68    O    5  py     Ryd( 3p)     0.00185
    69    O    5  pz     Val( 2p)     1.77040
    70    O    5  pz     Ryd( 3p)     0.00196
    71    O    5  dxy    Ryd( 3d)     0.00143
    72    O    5  dxz    Ryd( 3d)     0.00033
    73    O    5  dyz    Ryd( 3d)     0.00180
    74    O    5  dx2y2  Ryd( 3d)     0.00128
    75    O    5  dz2    Ryd( 3d)     0.00076
 
    76    C    6  S      Cor( 1S)     1.99951
    77    C    6  S      Val( 2S)     0.72883
    78    C    6  S      Ryd( 3S)     0.00405
    79    C    6  S      Ryd( 4S)     0.00044
    80    C    6  px     Val( 2p)     0.79344
    81    C    6  px     Ryd( 3p)     0.00647
    82    C    6  py     Val( 2p)     0.71463
    83    C    6  py     Ryd( 3p)     0.02397
    84    C    6  pz     Val( 2p)     0.78776
    85    C    6  pz     Ryd( 3p)     0.00463
    86    C    6  dxy    Ryd( 3d)     0.00411
    87    C    6  dxz    Ryd( 3d)     0.00172
    88    C    6  dyz    Ryd( 3d)     0.00284
    89    C    6  dx2y2  Ryd( 3d)     0.00301
    90    C    6  dz2    Ryd( 3d)     0.00066
 
    91    O    7  S      Cor( 1S)     1.99977
    92    O    7  S      Val( 2S)     1.70730
    93    O    7  S      Ryd( 3S)     0.00082
    94    O    7  S      Ryd( 4S)     0.00013
    95    O    7  px     Val( 2p)     1.75605
    96    O    7  px     Ryd( 3p)     0.00140
    97    O    7  py     Val( 2p)     1.59435
    98    O    7  py     Ryd( 3p)     0.00042
    99    O    7  pz     Val( 2p)     1.47658
   100    O    7  pz     Ryd( 3p)     0.00071
   101    O    7  dxy    Ryd( 3d)     0.00496
   102    O    7  dxz    Ryd( 3d)     0.00034
   103    O    7  dyz    Ryd( 3d)     0.00501
   104    O    7  dx2y2  Ryd( 3d)     0.00486
   105    O    7  dz2    Ryd( 3d)     0.00168
 
   106    N    8  S      Cor( 1S)     1.99939
   107    N    8  S      Val( 2S)     1.39540
   108    N    8  S      Ryd( 3S)     0.00610
   109    N    8  S      Ryd( 4S)     0.00003
   110    N    8  px     Val( 2p)     1.15640
   111    N    8  px     Ryd( 3p)     0.00384
   112    N    8  py     Val( 2p)     1.37624
   113    N    8  py     Ryd( 3p)     0.00457
   114    N    8  pz     Val( 2p)     1.26762
   115    N    8  pz     Ryd( 3p)     0.00430
   116    N    8  dxy    Ryd( 3d)     0.00090
   117    N    8  dxz    Ryd( 3d)     0.00158
   118    N    8  dyz    Ryd( 3d)     0.00179
   119    N    8  dx2y2  Ryd( 3d)     0.00110
   120    N    8  dz2    Ryd( 3d)     0.00226
 
   121    N    9  S      Cor( 1S)     1.99939
   122    N    9  S      Val( 2S)     1.39540
   123    N    9  S      Ryd( 3S)     0.00610
   124    N    9  S      Ryd( 4S)     0.00003
   125    N    9  px     Val( 2p)     1.15640
   126    N    9  px     Ryd( 3p)     0.00384
   127    N    9  py     Val( 2p)     1.37624
   128    N    9  py     Ryd( 3p)     0.00457
   129    N    9  pz     Val( 2p)     1.26762
   130    N    9  pz     Ryd( 3p)     0.00430
   131    N    9  dxy    Ryd( 3d)     0.00090
   132    N    9  dxz    Ryd( 3d)     0.00158
   133    N    9  dyz    Ryd( 3d)     0.00179
   134    N    9  dx2y2  Ryd( 3d)     0.00110
   135    N    9  dz2    Ryd( 3d)     0.00226
 
   136    C   10  S      Cor( 1S)     1.99951
   137    C   10  S      Val( 2S)     0.72883
   138    C   10  S      Ryd( 3S)     0.00405
   139    C   10  S      Ryd( 4S)     0.00044
   140    C   10  px     Val( 2p)     0.79344
   141    C   10  px     Ryd( 3p)     0.00647
   142    C   10  py     Val( 2p)     0.71463
   143    C   10  py     Ryd( 3p)     0.02397
   144    C   10  pz     Val( 2p)     0.78776
   145    C   10  pz     Ryd( 3p)     0.00463
   146    C   10  dxy    Ryd( 3d)     0.00411
   147    C   10  dxz    Ryd( 3d)     0.00172
   148    C   10  dyz    Ryd( 3d)     0.00284
   149    C   10  dx2y2  Ryd( 3d)     0.00301
   150    C   10  dz2    Ryd( 3d)     0.00066
 
   151    O   11  S      Cor( 1S)     1.99977
   152    O   11  S      Val( 2S)     1.70730
   153    O   11  S      Ryd( 3S)     0.00082
   154    O   11  S      Ryd( 4S)     0.00013
   155    O   11  px     Val( 2p)     1.75605
   156    O   11  px     Ryd( 3p)     0.00140
   157    O   11  py     Val( 2p)     1.59435
   158    O   11  py     Ryd( 3p)     0.00042
   159    O   11  pz     Val( 2p)     1.47658
   160    O   11  pz     Ryd( 3p)     0.00071
   161    O   11  dxy    Ryd( 3d)     0.00496
   162    O   11  dxz    Ryd( 3d)     0.00034
   163    O   11  dyz    Ryd( 3d)     0.00501
   164    O   11  dx2y2  Ryd( 3d)     0.00486
   165    O   11  dz2    Ryd( 3d)     0.00168
 
   166    O   12  S      Cor( 1S)     1.99970
   167    O   12  S      Val( 2S)     1.61380
   168    O   12  S      Ryd( 3S)     0.00231
   169    O   12  S      Ryd( 4S)     0.00015
   170    O   12  px     Val( 2p)     1.44324
   171    O   12  px     Ryd( 3p)     0.00127
   172    O   12  py     Val( 2p)     1.70068
   173    O   12  py     Ryd( 3p)     0.00185
   174    O   12  pz     Val( 2p)     1.77040
   175    O   12  pz     Ryd( 3p)     0.00196
   176    O   12  dxy    Ryd( 3d)     0.00143
   177    O   12  dxz    Ryd( 3d)     0.00033
   178    O   12  dyz    Ryd( 3d)     0.00180
   179    O   12  dx2y2  Ryd( 3d)     0.00128
   180    O   12  dz2    Ryd( 3d)     0.00076
 
   181    C   13  S      Cor( 1S)     1.99900
   182    C   13  S      Val( 2S)     0.91216
   183    C   13  S      Ryd( 3S)     0.00081
   184    C   13  S      Ryd( 4S)     0.00004
   185    C   13  px     Val( 2p)     0.67497
   186    C   13  px     Ryd( 3p)     0.00339
   187    C   13  py     Val( 2p)     1.06156
   188    C   13  py     Ryd( 3p)     0.00554
   189    C   13  pz     Val( 2p)     1.05387
   190    C   13  pz     Ryd( 3p)     0.00290
   191    C   13  dxy    Ryd( 3d)     0.00096
   192    C   13  dxz    Ryd( 3d)     0.00110
   193    C   13  dyz    Ryd( 3d)     0.00090
   194    C   13  dx2y2  Ryd( 3d)     0.00185
   195    C   13  dz2    Ryd( 3d)     0.00122
 
   196    C   14  S      Cor( 1S)     1.99932
   197    C   14  S      Val( 2S)     1.09990
   198    C   14  S      Ryd( 3S)     0.00051
   199    C   14  S      Ryd( 4S)     0.00002
   200    C   14  px     Val( 2p)     1.22299
   201    C   14  px     Ryd( 3p)     0.00130
   202    C   14  py     Val( 2p)     1.20876
   203    C   14  py     Ryd( 3p)     0.00230
   204    C   14  pz     Val( 2p)     1.16412
   205    C   14  pz     Ryd( 3p)     0.00183
   206    C   14  dxy    Ryd( 3d)     0.00036
   207    C   14  dxz    Ryd( 3d)     0.00027
   208    C   14  dyz    Ryd( 3d)     0.00061
   209    C   14  dx2y2  Ryd( 3d)     0.00103
   210    C   14  dz2    Ryd( 3d)     0.00101
 
   211    C   15  S      Cor( 1S)     1.99932
   212    C   15  S      Val( 2S)     1.09915
   213    C   15  S      Ryd( 3S)     0.00060
   214    C   15  S      Ryd( 4S)     0.00002
   215    C   15  px     Val( 2p)     1.22534
   216    C   15  px     Ryd( 3p)     0.00215
   217    C   15  py     Val( 2p)     1.09607
   218    C   15  py     Ryd( 3p)     0.00168
   219    C   15  pz     Val( 2p)     1.25672
   220    C   15  pz     Ryd( 3p)     0.00252
   221    C   15  dxy    Ryd( 3d)     0.00035
   222    C   15  dxz    Ryd( 3d)     0.00034
   223    C   15  dyz    Ryd( 3d)     0.00085
   224    C   15  dx2y2  Ryd( 3d)     0.00091
   225    C   15  dz2    Ryd( 3d)     0.00083
 
   226    C   16  S      Cor( 1S)     1.99932
   227    C   16  S      Val( 2S)     1.09990
   228    C   16  S      Ryd( 3S)     0.00050
   229    C   16  S      Ryd( 4S)     0.00002
   230    C   16  px     Val( 2p)     1.24238
   231    C   16  px     Ryd( 3p)     0.00113
   232    C   16  py     Val( 2p)     1.25182
   233    C   16  py     Ryd( 3p)     0.00249
   234    C   16  pz     Val( 2p)     1.10085
   235    C   16  pz     Ryd( 3p)     0.00168
   236    C   16  dxy    Ryd( 3d)     0.00042
   237    C   16  dxz    Ryd( 3d)     0.00035
   238    C   16  dyz    Ryd( 3d)     0.00072
   239    C   16  dx2y2  Ryd( 3d)     0.00098
   240    C   16  dz2    Ryd( 3d)     0.00081
 
   241    H   17  S      Val( 1S)     0.75946
   242    H   17  S      Ryd( 2S)     0.00077
 
   243    H   18  S      Val( 1S)     0.75724
   244    H   18  S      Ryd( 2S)     0.00112
 
   245    H   19  S      Val( 1S)     0.74130
   246    H   19  S      Ryd( 2S)     0.00125
 
   247    H   20  S      Val( 1S)     0.75771
   248    H   20  S      Ryd( 2S)     0.00074
 
   249    H   21  S      Val( 1S)     0.74141
   250    H   21  S      Ryd( 2S)     0.00138
 
   251    H   22  S      Val( 1S)     0.75805
   252    H   22  S      Ryd( 2S)     0.00112
 
   253    H   23  S      Val( 1S)     0.76041
   254    H   23  S      Ryd( 2S)     0.00068
 
   255    H   24  S      Val( 1S)     0.75432
   256    H   24  S      Ryd( 2S)     0.00105
 
   257    H   25  S      Val( 1S)     0.75319
   258    H   25  S      Ryd( 2S)     0.00104
 
   259    H   26  S      Val( 1S)     0.75805
   260    H   26  S      Ryd( 2S)     0.00112
 
   261    H   27  S      Val( 1S)     0.74141
   262    H   27  S      Ryd( 2S)     0.00138
 
   263    H   28  S      Val( 1S)     0.75771
   264    H   28  S      Ryd( 2S)     0.00074
 
   265    H   29  S      Val( 1S)     0.75432
   266    H   29  S      Ryd( 2S)     0.00105
 
   267    H   30  S      Val( 1S)     0.76041
   268    H   30  S      Ryd( 2S)     0.00068
 
   269    H   31  S      Val( 1S)     0.75319
   270    H   31  S      Ryd( 2S)     0.00104
 
   271    H   32  S      Val( 1S)     0.74130
   272    H   32  S      Ryd( 2S)     0.00125
 
   273    H   33  S      Val( 1S)     0.75724
   274    H   33  S      Ryd( 2S)     0.00112
 
   275    H   34  S      Val( 1S)     0.75946
   276    H   34  S      Ryd( 2S)     0.00077

 WARNING:  1 low occupancy (<1.9990e) core orbital  found on  C    2
           1 low occupancy (<1.9990e) core orbital  found on  C   13


 Summary of Natural Population Analysis:                  
                                                          
                                       Natural Population 
                Natural  -----------------------------------------------
    Atom  No    Charge         Core      Valence    Rydberg      Total
 -----------------------------------------------------------------------
      C    1   -0.70336      1.99932     4.69495    0.00909     6.70336
      C    2    0.27974      1.99900     3.70255    0.01871     5.72026
      C    3   -0.70432      1.99932     4.69578    0.00922     6.70432
      C    4   -0.68686      1.99932     4.67729    0.01025     6.68686
      O    5   -0.54098      1.99970     6.52813    0.01315     8.54098
      C    6    0.92394      1.99951     3.02466    0.05189     5.07606
      O    7   -0.55437      1.99977     6.53429    0.02032     8.55437
      N    8   -0.22153      1.99939     5.19566    0.02648     7.22153
      N    9   -0.22153      1.99939     5.19566    0.02648     7.22153
      C   10    0.92394      1.99951     3.02466    0.05189     5.07606
      O   11   -0.55437      1.99977     6.53429    0.02032     8.55437
      O   12   -0.54098      1.99970     6.52813    0.01315     8.54098
      C   13    0.27974      1.99900     3.70255    0.01871     5.72026
      C   14   -0.70432      1.99932     4.69578    0.00922     6.70432
      C   15   -0.68686      1.99932     4.67729    0.01025     6.68686
      C   16   -0.70336      1.99932     4.69495    0.00909     6.70336
      H   17    0.23977      0.00000     0.75946    0.00077     0.76023
      H   18    0.24163      0.00000     0.75724    0.00112     0.75837
      H   19    0.25745      0.00000     0.74130    0.00125     0.74255
      H   20    0.24155      0.00000     0.75771    0.00074     0.75845
      H   21    0.25721      0.00000     0.74141    0.00138     0.74279
      H   22    0.24083      0.00000     0.75805    0.00112     0.75917
      H   23    0.23891      0.00000     0.76041    0.00068     0.76109
      H   24    0.24463      0.00000     0.75432    0.00105     0.75537
      H   25    0.24576      0.00000     0.75319    0.00104     0.75424
      H   26    0.24083      0.00000     0.75805    0.00112     0.75917
      H   27    0.25721      0.00000     0.74141    0.00138     0.74279
      H   28    0.24155      0.00000     0.75771    0.00074     0.75845
      H   29    0.24463      0.00000     0.75432    0.00105     0.75537
      H   30    0.23891      0.00000     0.76041    0.00068     0.76109
      H   31    0.24576      0.00000     0.75319    0.00104     0.75424
      H   32    0.25745      0.00000     0.74130    0.00125     0.74255
      H   33    0.24163      0.00000     0.75724    0.00112     0.75837
      H   34    0.23977      0.00000     0.75946    0.00077     0.76023
 =======================================================================
   * Total *    0.00000     31.99063    91.67281    0.33656   124.00000

                                 Natural Population      
 --------------------------------------------------------
   Core                      31.99063 ( 99.9707% of  32)
   Valence                   91.67281 ( 99.6444% of  92)
   Natural Minimal Basis    123.66344 ( 99.7286% of 124)
   Natural Rydberg Basis      0.33656 (  0.2714% of 124)
 --------------------------------------------------------

    Atom  No          Natural Electron Configuration
 ----------------------------------------------------------------------------
      C    1      [core]2S( 1.10)2p( 3.60)3p( 0.01)
      C    2      [core]2S( 0.91)2p( 2.79)3p( 0.01)3d( 0.01)
      C    3      [core]2S( 1.10)2p( 3.60)3p( 0.01)
      C    4      [core]2S( 1.10)2p( 3.58)3p( 0.01)
      O    5      [core]2S( 1.61)2p( 4.91)3p( 0.01)3d( 0.01)
      C    6      [core]2S( 0.73)2p( 2.30)3p( 0.04)3d( 0.01)
      O    7      [core]2S( 1.71)2p( 4.83)3d( 0.02)
      N    8      [core]2S( 1.40)2p( 3.80)3S( 0.01)3p( 0.01)3d( 0.01)
      N    9      [core]2S( 1.40)2p( 3.80)3S( 0.01)3p( 0.01)3d( 0.01)
      C   10      [core]2S( 0.73)2p( 2.30)3p( 0.04)3d( 0.01)
      O   11      [core]2S( 1.71)2p( 4.83)3d( 0.02)
      O   12      [core]2S( 1.61)2p( 4.91)3p( 0.01)3d( 0.01)
      C   13      [core]2S( 0.91)2p( 2.79)3p( 0.01)3d( 0.01)
      C   14      [core]2S( 1.10)2p( 3.60)3p( 0.01)
      C   15      [core]2S( 1.10)2p( 3.58)3p( 0.01)
      C   16      [core]2S( 1.10)2p( 3.60)3p( 0.01)
      H   17            1S( 0.76)
      H   18            1S( 0.76)
      H   19            1S( 0.74)
      H   20            1S( 0.76)
      H   21            1S( 0.74)
      H   22            1S( 0.76)
      H   23            1S( 0.76)
      H   24            1S( 0.75)
      H   25            1S( 0.75)
      H   26            1S( 0.76)
      H   27            1S( 0.74)
      H   28            1S( 0.76)
      H   29            1S( 0.75)
      H   30            1S( 0.76)
      H   31            1S( 0.75)
      H   32            1S( 0.74)
      H   33            1S( 0.76)
      H   34            1S( 0.76)


 NBO analysis skipped by request.
 1\1\GINC-DELLA-R2C1N3\SP\RB3LYP TD-FC\6-31G(d)\C10H18N2O4\BJS4\22-Aug-
 2020\0\\# TD(NStates=10, Root=1) B3LYP/6-31G* scf=qc volume pop=NPA de
 nsity=current Geom=AllCheck Guess=Read\\Title Card Required\\0,1\C,0,6
 .4596242111,-0.6448891489,-1.2970780232\C,0,5.4449227828,-1.0944005752
 ,-0.2433618816\C,0,4.0080596058,-0.7119376258,-0.6054111627\C,0,5.5665
 513874,-2.5913288858,0.0414065753\O,0,5.8015292433,-0.4916677136,1.070
 9803658\C,0,5.8053636133,0.8217977036,1.2486897188\O,0,5.5540449147,1.
 7097095292,0.4704606517\N,0,6.0608602723,1.1255113347,2.646946008\N,0,
 7.2672381696,1.0493003145,2.9465098779\C,0,7.522735071,1.3530133763,4.
 344766134\O,0,7.774045504,0.4651006888,5.1229968916\O,0,7.5265800988,2
 .6664790378,4.5224733524\C,0,7.8831897548,3.2692111937,5.8368150458\C,
 0,9.3200487828,2.886735918,6.1988678176\C,0,7.7615754545,4.7661400778,
 5.5520433665\C,0,6.8684822464,2.8197110374,6.8905300926\H,0,6.27100014
 35,-1.1810626026,-2.2337515971\H,0,7.4783411606,-0.8783538728,-0.97014
 22431\H,0,6.385626316,0.427224255,-1.4882013563\H,0,3.709571485,-1.246
 6165175,-1.5138903956\H,0,3.914673966,0.360388158,-0.7867252121\H,0,3.
 3213441585,-0.998557054,0.1981930971\H,0,5.3293718377,-3.1621727713,-0
 .862399755\H,0,4.8749559044,-2.8926607311,0.8343547779\H,0,6.58390291,
 -2.8440413133,0.3557520403\H,0,10.0067683053,3.1733472931,5.3952641634
 \H,0,9.4134243817,1.8144097088,6.3801844697\H,0,9.6185400783,3.4214141
 99,7.1073463683\H,0,8.4531754717,5.0674640071,4.759096112\H,0,7.998758
 2151,5.3369836041,6.4558490847\H,0,6.7442269449,5.0188611981,5.2376951
 224\H,0,6.9424696315,1.7475971741,7.0816549714\H,0,5.8497680898,3.0531
 85056,6.5635922682\H,0,7.0571098877,3.3558839466,7.8272032532\\Version
 =ES64L-G16RevA.03\State=1-A\HF=-802.2811441\RMSD=5.500e-09\Dipole=0.00
 0009,-0.0000002,0.0000008\Quadrupole=-3.526284,-0.7672466,4.2935306,5.
 7939132,3.1055868,14.3738297\PG=C01 [X(C10H18N2O4)]\\@


 A people that values its privileges above its principles soon loses both.
 -- Dwight D. Eisenhower
 Job cpu time:       0 days  0 hours 33 minutes 18.5 seconds.
 Elapsed time:       0 days  0 hours  6 minutes 40.7 seconds.
 File lengths (MBytes):  RWF=    679 Int=      0 D2E=      0 Chk=    268 Scr=      1
 Normal termination of Gaussian 16 at Sat Aug 22 14:27:22 2020.
