 Entering Gaussian System, Link 0=g16
 Input=azadicarboxylate_4_conf30123.com
 Output=azadicarboxylate_4_conf30123.log
 Initial command:
 /opt/export//g16/l1.exe "/scratch/bjs4/job.10227/Gau-10229.inp" -scrdir="/scratch/bjs4/job.10227/"
 Entering Link 1 = /opt/export//g16/l1.exe PID=     10230.
  
 Copyright (c) 1988,1990,1992,1993,1995,1998,2003,2009,2016,
            Gaussian, Inc.  All Rights Reserved.
  
 This is part of the Gaussian(R) 16 program.  It is based on
 the Gaussian(R) 09 system (copyright 2009, Gaussian, Inc.),
 the Gaussian(R) 03 system (copyright 2003, Gaussian, Inc.),
 the Gaussian(R) 98 system (copyright 1998, Gaussian, Inc.),
 the Gaussian(R) 94 system (copyright 1995, Gaussian, Inc.),
 the Gaussian 92(TM) system (copyright 1992, Gaussian, Inc.),
 the Gaussian 90(TM) system (copyright 1990, Gaussian, Inc.),
 the Gaussian 88(TM) system (copyright 1988, Gaussian, Inc.),
 the Gaussian 86(TM) system (copyright 1986, Carnegie Mellon
 University), and the Gaussian 82(TM) system (copyright 1983,
 Carnegie Mellon University). Gaussian is a federally registered
 trademark of Gaussian, Inc.
  
 This software contains proprietary and confidential information,
 including trade secrets, belonging to Gaussian, Inc.
  
 This software is provided under written license and may be
 used, copied, transmitted, or stored only in accord with that
 written license.
  
 The following legend is applicable only to US Government
 contracts under FAR:
  
                    RESTRICTED RIGHTS LEGEND
  
 Use, reproduction and disclosure by the US Government is
 subject to restrictions as set forth in subparagraphs (a)
 and (c) of the Commercial Computer Software - Restricted
 Rights clause in FAR 52.227-19.
  
 Gaussian, Inc.
 340 Quinnipiac St., Bldg. 40, Wallingford CT 06492
  
  
 ---------------------------------------------------------------
 Warning -- This program may not be used in any manner that
 competes with the business of Gaussian, Inc. or will provide
 assistance to any competitor of Gaussian, Inc.  The licensee
 of this program is prohibited from giving any competitor of
 Gaussian, Inc. access to this program.  By using this program,
 the user acknowledges that Gaussian, Inc. is engaged in the
 business of creating and licensing software in the field of
 computational chemistry and represents and warrants to the
 licensee that it is not a competitor of Gaussian, Inc. and that
 it will not use this program in any manner prohibited above.
 ---------------------------------------------------------------
  

 Cite this work as:
 Gaussian 16, Revision A.03,
 M. J. Frisch, G. W. Trucks, H. B. Schlegel, G. E. Scuseria, 
 M. A. Robb, J. R. Cheeseman, G. Scalmani, V. Barone, 
 G. A. Petersson, H. Nakatsuji, X. Li, M. Caricato, A. V. Marenich, 
 J. Bloino, B. G. Janesko, R. Gomperts, B. Mennucci, H. P. Hratchian, 
 J. V. Ortiz, A. F. Izmaylov, J. L. Sonnenberg, D. Williams-Young, 
 F. Ding, F. Lipparini, F. Egidi, J. Goings, B. Peng, A. Petrone, 
 T. Henderson, D. Ranasinghe, V. G. Zakrzewski, J. Gao, N. Rega, 
 G. Zheng, W. Liang, M. Hada, M. Ehara, K. Toyota, R. Fukuda, 
 J. Hasegawa, M. Ishida, T. Nakajima, Y. Honda, O. Kitao, H. Nakai, 
 T. Vreven, K. Throssell, J. A. Montgomery, Jr., J. E. Peralta, 
 F. Ogliaro, M. J. Bearpark, J. J. Heyd, E. N. Brothers, K. N. Kudin, 
 V. N. Staroverov, T. A. Keith, R. Kobayashi, J. Normand, 
 K. Raghavachari, A. P. Rendell, J. C. Burant, S. S. Iyengar, 
 J. Tomasi, M. Cossi, J. M. Millam, M. Klene, C. Adamo, R. Cammi, 
 J. W. Ochterski, R. L. Martin, K. Morokuma, O. Farkas, 
 J. B. Foresman, and D. J. Fox, Gaussian, Inc., Wallingford CT, 2016.
 
 ******************************************
 Gaussian 16:  ES64L-G16RevA.03 25-Dec-2016
                22-Aug-2020 
 ******************************************
 %nprocshared=5
 Will use up to    5 processors via shared memory.
 %Mem=10GB
 %Chk=azadicarboxylate_4_conf301.chk
 ---------------------------------
 # opt=CalcAll B3LYP/6-31G* scf=qc
 ---------------------------------
 1/10=4,18=20,19=15,26=3,38=1/1,3;
 2/9=110,12=2,17=6,18=5,40=1/2;
 3/5=1,6=6,7=1,11=2,25=1,30=1,71=2,74=-5,140=1/1,2,3;
 4//1;
 5/5=2,8=3,38=5/8;
 8/6=4,10=90,11=11/1;
 11/6=1,8=1,9=11,15=111,16=1/1,2,10;
 10/6=1/2;
 6/7=2,8=2,9=2,10=2,18=1,28=1/1;
 7/10=1,25=1/1,2,3,16;
 1/10=4,18=20,19=15,26=3/3(3);
 2/9=110/2;
 7/8=1,9=1,25=1,44=-1/16;
 99//99;
 2/9=110/2;
 3/5=1,6=6,7=1,11=2,25=1,30=1,71=2,74=-5,140=1/1,2,3;
 4/5=5,16=3,69=1/1;
 5/5=2,8=3,38=5/8;
 8/6=4,10=90,11=11/1;
 11/6=1,8=1,9=11,15=111,16=1/1,2,10;
 10/6=1/2;
 7/10=1,25=1/1,2,3,16;
 1/10=4,18=20,19=15,26=3/3(-8);
 2/9=110/2;
 6/7=2,8=2,9=2,10=2,18=1,19=2,28=1/1;
 7/8=1,9=1,25=1,44=-1/16;
 99//99;
 -------------------
 Title Card Required
 -------------------
 Symbolic Z-matrix:
 Charge =  0 Multiplicity = 1
 C                    -4.00577  -0.90175  -1.79565 
 C                    -3.15662   0.01485  -0.94516 
 O1                   -3.74694   1.31968  -0.86218 
 C2                   -5.0001    1.3961   -0.3376 
 O3                   -5.64075   0.42951   0.06066 
 N4                   -5.3965    2.7153   -0.3106 
 N5                   -6.637     2.8452   -0.4364 
 C6                   -7.0368    4.1615   -0.3722 
 O7                   -6.38476   5.14408  -0.71049 
 O8                   -8.28794   4.22093   0.16027 
 C                    -8.86003   5.52544   0.32713 
 C                    -8.95353   6.24278  -1.00014 
 C                    -9.96565   7.17828  -1.26057 
 C                    -10.02584   7.83783  -2.49021 
 C                    -9.06546   7.58449  -3.46713 
 C                    -8.0371    6.68074  -3.21135 
 C                    -7.97778   6.01793  -1.98374 
 C                    -4.29245  -0.60329  -3.13606 
 C                    -5.06997  -1.47017  -3.90745 
 C                    -5.55465  -2.65365  -3.3549 
 C                    -5.2525   -2.97772  -2.03447 
 C                    -4.47814  -2.11047  -1.26091 
 H                    -2.17678   0.12583  -1.4227 
 H                    -2.99142  -0.43536   0.03994 
 H                    -8.30595   6.13921   1.04531 
 H                    -9.87321   5.39261   0.72378 
 H                    -10.72077   7.39715  -0.50804 
 H                    -10.82384   8.54969  -2.68534 
 H                    -9.1167    8.0941   -4.42603 
 H                    -7.28112   6.49003  -3.96894 
 H                    -7.16355   5.31876  -1.80276 
 H                    -3.91667   0.31172  -3.58926 
 H                    -5.29758  -1.22038  -4.94064 
 H                    -6.16457  -3.32447  -3.95435 
 H                    -5.62133  -3.9059   -1.60537 
 H                    -4.25031  -2.38472  -0.23285 
 

 GradGradGradGradGradGradGradGradGradGradGradGradGradGradGradGradGradGrad
 Berny optimization.
 Initialization pass.
                           ----------------------------
                           !    Initial Parameters    !
                           ! (Angstroms and Degrees)  !
 --------------------------                            --------------------------
 ! Name  Definition              Value          Derivative Info.                !
 --------------------------------------------------------------------------------
 ! R1    R(1,2)                  1.5115         calculate D2E/DX2 analytically  !
 ! R2    R(1,18)                 1.4028         calculate D2E/DX2 analytically  !
 ! R3    R(1,22)                 1.4036         calculate D2E/DX2 analytically  !
 ! R4    R(2,3)                  1.4346         calculate D2E/DX2 analytically  !
 ! R5    R(2,23)                 1.0956         calculate D2E/DX2 analytically  !
 ! R6    R(2,24)                 1.0956         calculate D2E/DX2 analytically  !
 ! R7    R(3,4)                  1.3607         calculate D2E/DX2 analytically  !
 ! R8    R(4,5)                  1.2261         calculate D2E/DX2 analytically  !
 ! R9    R(4,6)                  1.3777         calculate D2E/DX2 analytically  !
 ! R10   R(6,7)                  1.2536         calculate D2E/DX2 analytically  !
 ! R11   R(7,8)                  1.3772         calculate D2E/DX2 analytically  !
 ! R12   R(8,9)                  1.2268         calculate D2E/DX2 analytically  !
 ! R13   R(8,10)                 1.361          calculate D2E/DX2 analytically  !
 ! R14   R(10,11)                1.4342         calculate D2E/DX2 analytically  !
 ! R15   R(11,12)                1.5116         calculate D2E/DX2 analytically  !
 ! R16   R(11,25)                1.0952         calculate D2E/DX2 analytically  !
 ! R17   R(11,26)                1.0961         calculate D2E/DX2 analytically  !
 ! R18   R(12,13)                1.4026         calculate D2E/DX2 analytically  !
 ! R19   R(12,17)                1.4036         calculate D2E/DX2 analytically  !
 ! R20   R(13,14)                1.3967         calculate D2E/DX2 analytically  !
 ! R21   R(13,27)                1.0883         calculate D2E/DX2 analytically  !
 ! R22   R(14,15)                1.3932         calculate D2E/DX2 analytically  !
 ! R23   R(14,28)                1.087          calculate D2E/DX2 analytically  !
 ! R24   R(15,16)                1.3927         calculate D2E/DX2 analytically  !
 ! R25   R(15,29)                1.0871         calculate D2E/DX2 analytically  !
 ! R26   R(16,17)                1.3964         calculate D2E/DX2 analytically  !
 ! R27   R(16,30)                1.0871         calculate D2E/DX2 analytically  !
 ! R28   R(17,31)                1.0884         calculate D2E/DX2 analytically  !
 ! R29   R(18,19)                1.3968         calculate D2E/DX2 analytically  !
 ! R30   R(18,32)                1.088          calculate D2E/DX2 analytically  !
 ! R31   R(19,20)                1.3931         calculate D2E/DX2 analytically  !
 ! R32   R(19,33)                1.0871         calculate D2E/DX2 analytically  !
 ! R33   R(20,21)                1.3928         calculate D2E/DX2 analytically  !
 ! R34   R(20,34)                1.0869         calculate D2E/DX2 analytically  !
 ! R35   R(21,22)                1.3965         calculate D2E/DX2 analytically  !
 ! R36   R(21,35)                1.0871         calculate D2E/DX2 analytically  !
 ! R37   R(22,36)                1.0881         calculate D2E/DX2 analytically  !
 ! A1    A(2,1,18)             121.5631         calculate D2E/DX2 analytically  !
 ! A2    A(2,1,22)             119.7971         calculate D2E/DX2 analytically  !
 ! A3    A(18,1,22)            118.5851         calculate D2E/DX2 analytically  !
 ! A4    A(1,2,3)              110.6682         calculate D2E/DX2 analytically  !
 ! A5    A(1,2,23)             108.5782         calculate D2E/DX2 analytically  !
 ! A6    A(1,2,24)             109.9649         calculate D2E/DX2 analytically  !
 ! A7    A(3,2,23)             107.5228         calculate D2E/DX2 analytically  !
 ! A8    A(3,2,24)             112.5689         calculate D2E/DX2 analytically  !
 ! A9    A(23,2,24)            107.3772         calculate D2E/DX2 analytically  !
 ! A10   A(2,3,4)              116.8959         calculate D2E/DX2 analytically  !
 ! A11   A(3,4,5)              124.2061         calculate D2E/DX2 analytically  !
 ! A12   A(3,4,6)              109.0454         calculate D2E/DX2 analytically  !
 ! A13   A(5,4,6)              126.7373         calculate D2E/DX2 analytically  !
 ! A14   A(4,6,7)              112.4552         calculate D2E/DX2 analytically  !
 ! A15   A(6,7,8)              112.4347         calculate D2E/DX2 analytically  !
 ! A16   A(7,8,9)              126.7534         calculate D2E/DX2 analytically  !
 ! A17   A(7,8,10)             109.077          calculate D2E/DX2 analytically  !
 ! A18   A(9,8,10)             124.1586         calculate D2E/DX2 analytically  !
 ! A19   A(8,10,11)            116.8672         calculate D2E/DX2 analytically  !
 ! A20   A(10,11,12)           110.7422         calculate D2E/DX2 analytically  !
 ! A21   A(10,11,25)           112.5958         calculate D2E/DX2 analytically  !
 ! A22   A(10,11,26)           107.4928         calculate D2E/DX2 analytically  !
 ! A23   A(12,11,25)           109.9453         calculate D2E/DX2 analytically  !
 ! A24   A(12,11,26)           108.5461         calculate D2E/DX2 analytically  !
 ! A25   A(25,11,26)           107.3522         calculate D2E/DX2 analytically  !
 ! A26   A(11,12,13)           121.6125         calculate D2E/DX2 analytically  !
 ! A27   A(11,12,17)           119.7547         calculate D2E/DX2 analytically  !
 ! A28   A(13,12,17)           118.5782         calculate D2E/DX2 analytically  !
 ! A29   A(12,13,14)           120.6325         calculate D2E/DX2 analytically  !
 ! A30   A(12,13,27)           120.4256         calculate D2E/DX2 analytically  !
 ! A31   A(14,13,27)           118.941          calculate D2E/DX2 analytically  !
 ! A32   A(13,14,15)           120.1186         calculate D2E/DX2 analytically  !
 ! A33   A(13,14,28)           119.9294         calculate D2E/DX2 analytically  !
 ! A34   A(15,14,28)           119.952          calculate D2E/DX2 analytically  !
 ! A35   A(14,15,16)           119.8823         calculate D2E/DX2 analytically  !
 ! A36   A(14,15,29)           120.0522         calculate D2E/DX2 analytically  !
 ! A37   A(16,15,29)           120.0651         calculate D2E/DX2 analytically  !
 ! A38   A(15,16,17)           120.0553         calculate D2E/DX2 analytically  !
 ! A39   A(15,16,30)           119.9548         calculate D2E/DX2 analytically  !
 ! A40   A(17,16,30)           119.9898         calculate D2E/DX2 analytically  !
 ! A41   A(12,17,16)           120.6972         calculate D2E/DX2 analytically  !
 ! A42   A(12,17,31)           120.4277         calculate D2E/DX2 analytically  !
 ! A43   A(16,17,31)           118.8744         calculate D2E/DX2 analytically  !
 ! A44   A(1,18,19)            120.6233         calculate D2E/DX2 analytically  !
 ! A45   A(1,18,32)            120.4197         calculate D2E/DX2 analytically  !
 ! A46   A(19,18,32)           118.956          calculate D2E/DX2 analytically  !
 ! A47   A(18,19,20)           120.1217         calculate D2E/DX2 analytically  !
 ! A48   A(18,19,33)           119.9227         calculate D2E/DX2 analytically  !
 ! A49   A(20,19,33)           119.9555         calculate D2E/DX2 analytically  !
 ! A50   A(19,20,21)           119.8812         calculate D2E/DX2 analytically  !
 ! A51   A(19,20,34)           120.052          calculate D2E/DX2 analytically  !
 ! A52   A(21,20,34)           120.0665         calculate D2E/DX2 analytically  !
 ! A53   A(20,21,22)           120.0632         calculate D2E/DX2 analytically  !
 ! A54   A(20,21,35)           119.9535         calculate D2E/DX2 analytically  !
 ! A55   A(22,21,35)           119.9832         calculate D2E/DX2 analytically  !
 ! A56   A(1,22,21)            120.6892         calculate D2E/DX2 analytically  !
 ! A57   A(1,22,36)            120.4328         calculate D2E/DX2 analytically  !
 ! A58   A(21,22,36)           118.8773         calculate D2E/DX2 analytically  !
 ! D1    D(18,1,2,3)            59.2941         calculate D2E/DX2 analytically  !
 ! D2    D(18,1,2,23)          -58.499          calculate D2E/DX2 analytically  !
 ! D3    D(18,1,2,24)         -175.7138         calculate D2E/DX2 analytically  !
 ! D4    D(22,1,2,3)          -123.4346         calculate D2E/DX2 analytically  !
 ! D5    D(22,1,2,23)          118.7723         calculate D2E/DX2 analytically  !
 ! D6    D(22,1,2,24)            1.5575         calculate D2E/DX2 analytically  !
 ! D7    D(2,1,18,19)          179.4489         calculate D2E/DX2 analytically  !
 ! D8    D(2,1,18,32)           -0.9246         calculate D2E/DX2 analytically  !
 ! D9    D(22,1,18,19)           2.1455         calculate D2E/DX2 analytically  !
 ! D10   D(22,1,18,32)        -178.228          calculate D2E/DX2 analytically  !
 ! D11   D(2,1,22,21)         -179.3351         calculate D2E/DX2 analytically  !
 ! D12   D(2,1,22,36)            0.9777         calculate D2E/DX2 analytically  !
 ! D13   D(18,1,22,21)          -1.9828         calculate D2E/DX2 analytically  !
 ! D14   D(18,1,22,36)         178.33           calculate D2E/DX2 analytically  !
 ! D15   D(1,2,3,4)             59.2941         calculate D2E/DX2 analytically  !
 ! D16   D(23,2,3,4)           177.731          calculate D2E/DX2 analytically  !
 ! D17   D(24,2,3,4)           -64.2091         calculate D2E/DX2 analytically  !
 ! D18   D(2,3,4,5)             -0.0004         calculate D2E/DX2 analytically  !
 ! D19   D(2,3,4,6)            178.8513         calculate D2E/DX2 analytically  !
 ! D20   D(3,4,6,7)            149.6469         calculate D2E/DX2 analytically  !
 ! D21   D(5,4,6,7)            -31.5382         calculate D2E/DX2 analytically  !
 ! D22   D(4,6,7,8)            178.3141         calculate D2E/DX2 analytically  !
 ! D23   D(6,7,8,9)             29.6471         calculate D2E/DX2 analytically  !
 ! D24   D(6,7,8,10)          -149.1785         calculate D2E/DX2 analytically  !
 ! D25   D(7,8,10,11)          178.8631         calculate D2E/DX2 analytically  !
 ! D26   D(9,8,10,11)            0.0002         calculate D2E/DX2 analytically  !
 ! D27   D(8,10,11,12)          59.294          calculate D2E/DX2 analytically  !
 ! D28   D(8,10,11,25)         -64.2586         calculate D2E/DX2 analytically  !
 ! D29   D(8,10,11,26)         177.7157         calculate D2E/DX2 analytically  !
 ! D30   D(10,11,12,13)        149.6476         calculate D2E/DX2 analytically  !
 ! D31   D(10,11,12,17)        -33.0771         calculate D2E/DX2 analytically  !
 ! D32   D(25,11,12,13)        -85.2875         calculate D2E/DX2 analytically  !
 ! D33   D(25,11,12,17)         91.9878         calculate D2E/DX2 analytically  !
 ! D34   D(26,11,12,13)         31.8675         calculate D2E/DX2 analytically  !
 ! D35   D(26,11,12,17)       -150.8572         calculate D2E/DX2 analytically  !
 ! D36   D(11,12,13,14)        179.4388         calculate D2E/DX2 analytically  !
 ! D37   D(11,12,13,27)         -0.9233         calculate D2E/DX2 analytically  !
 ! D38   D(17,12,13,14)          2.1324         calculate D2E/DX2 analytically  !
 ! D39   D(17,12,13,27)       -178.2296         calculate D2E/DX2 analytically  !
 ! D40   D(11,12,17,16)       -179.3176         calculate D2E/DX2 analytically  !
 ! D41   D(11,12,17,31)          0.975          calculate D2E/DX2 analytically  !
 ! D42   D(13,12,17,16)         -1.9598         calculate D2E/DX2 analytically  !
 ! D43   D(13,12,17,31)        178.3328         calculate D2E/DX2 analytically  !
 ! D44   D(12,13,14,15)         -0.8841         calculate D2E/DX2 analytically  !
 ! D45   D(12,13,14,28)        179.0842         calculate D2E/DX2 analytically  !
 ! D46   D(27,13,14,15)        179.4727         calculate D2E/DX2 analytically  !
 ! D47   D(27,13,14,28)         -0.5591         calculate D2E/DX2 analytically  !
 ! D48   D(13,14,15,16)         -0.5827         calculate D2E/DX2 analytically  !
 ! D49   D(13,14,15,29)        179.6395         calculate D2E/DX2 analytically  !
 ! D50   D(28,14,15,16)        179.4491         calculate D2E/DX2 analytically  !
 ! D51   D(28,14,15,29)         -0.3288         calculate D2E/DX2 analytically  !
 ! D52   D(14,15,16,17)          0.7553         calculate D2E/DX2 analytically  !
 ! D53   D(14,15,16,30)       -179.3556         calculate D2E/DX2 analytically  !
 ! D54   D(29,15,16,17)       -179.4669         calculate D2E/DX2 analytically  !
 ! D55   D(29,15,16,30)          0.4222         calculate D2E/DX2 analytically  !
 ! D56   D(15,16,17,12)          0.5354         calculate D2E/DX2 analytically  !
 ! D57   D(15,16,17,31)       -179.7527         calculate D2E/DX2 analytically  !
 ! D58   D(30,16,17,12)       -179.3537         calculate D2E/DX2 analytically  !
 ! D59   D(30,16,17,31)          0.3582         calculate D2E/DX2 analytically  !
 ! D60   D(1,18,19,20)          -0.885          calculate D2E/DX2 analytically  !
 ! D61   D(1,18,19,33)         179.0823         calculate D2E/DX2 analytically  !
 ! D62   D(32,18,19,20)        179.4831         calculate D2E/DX2 analytically  !
 ! D63   D(32,18,19,33)         -0.5496         calculate D2E/DX2 analytically  !
 ! D64   D(18,19,20,21)         -0.5839         calculate D2E/DX2 analytically  !
 ! D65   D(18,19,20,34)        179.6302         calculate D2E/DX2 analytically  !
 ! D66   D(33,19,20,21)        179.4487         calculate D2E/DX2 analytically  !
 ! D67   D(33,19,20,34)         -0.3372         calculate D2E/DX2 analytically  !
 ! D68   D(19,20,21,22)          0.7468         calculate D2E/DX2 analytically  !
 ! D69   D(19,20,21,35)       -179.3557         calculate D2E/DX2 analytically  !
 ! D70   D(34,20,21,22)       -179.4673         calculate D2E/DX2 analytically  !
 ! D71   D(34,20,21,35)          0.4301         calculate D2E/DX2 analytically  !
 ! D72   D(20,21,22,1)           0.5562         calculate D2E/DX2 analytically  !
 ! D73   D(20,21,22,36)       -179.7518         calculate D2E/DX2 analytically  !
 ! D74   D(35,21,22,1)        -179.3412         calculate D2E/DX2 analytically  !
 ! D75   D(35,21,22,36)          0.3508         calculate D2E/DX2 analytically  !
 --------------------------------------------------------------------------------
 Trust Radius=3.00D-01 FncErr=1.00D-07 GrdErr=1.00D-06 EigMax=2.50D+02 EigMin=1.00D-04
 Number of steps in this run=    180 maximum allowed number of steps=    216.
 GradGradGradGradGradGradGradGradGradGradGradGradGradGradGradGradGradGrad

                          Input orientation:                          
 ---------------------------------------------------------------------
 Center     Atomic      Atomic             Coordinates (Angstroms)
 Number     Number       Type             X           Y           Z
 ---------------------------------------------------------------------
      1          6           0       -4.005770   -0.901750   -1.795650
      2          6           0       -3.156620    0.014850   -0.945160
      3          8           0       -3.746940    1.319680   -0.862180
      4          6           0       -5.000100    1.396100   -0.337600
      5          8           0       -5.640750    0.429510    0.060660
      6          7           0       -5.396500    2.715300   -0.310600
      7          7           0       -6.637000    2.845200   -0.436400
      8          6           0       -7.036800    4.161500   -0.372200
      9          8           0       -6.384760    5.144080   -0.710490
     10          8           0       -8.287940    4.220930    0.160270
     11          6           0       -8.860030    5.525440    0.327130
     12          6           0       -8.953530    6.242780   -1.000140
     13          6           0       -9.965650    7.178280   -1.260570
     14          6           0      -10.025840    7.837830   -2.490210
     15          6           0       -9.065460    7.584490   -3.467130
     16          6           0       -8.037100    6.680740   -3.211350
     17          6           0       -7.977780    6.017930   -1.983740
     18          6           0       -4.292450   -0.603290   -3.136060
     19          6           0       -5.069970   -1.470170   -3.907450
     20          6           0       -5.554650   -2.653650   -3.354900
     21          6           0       -5.252500   -2.977720   -2.034470
     22          6           0       -4.478140   -2.110470   -1.260910
     23          1           0       -2.176780    0.125830   -1.422700
     24          1           0       -2.991420   -0.435360    0.039940
     25          1           0       -8.305950    6.139210    1.045310
     26          1           0       -9.873210    5.392610    0.723780
     27          1           0      -10.720770    7.397150   -0.508040
     28          1           0      -10.823840    8.549690   -2.685340
     29          1           0       -9.116700    8.094100   -4.426030
     30          1           0       -7.281120    6.490030   -3.968940
     31          1           0       -7.163550    5.318760   -1.802760
     32          1           0       -3.916670    0.311720   -3.589260
     33          1           0       -5.297580   -1.220380   -4.940640
     34          1           0       -6.164570   -3.324470   -3.954350
     35          1           0       -5.621330   -3.905900   -1.605370
     36          1           0       -4.250310   -2.384720   -0.232850
 ---------------------------------------------------------------------
                    Distance matrix (angstroms):
                    1          2          3          4          5
     1  C    0.000000
     2  C    1.511471   0.000000
     3  O    2.423450   1.434554   0.000000
     4  C    2.897364   2.382310   1.360674   0.000000
     5  O    2.809146   2.711922   2.287040   1.226108   0.000000
     6  N    4.150007   3.565411   2.230032   1.377734   2.328589
     7  N    4.776041   4.514727   3.295595   2.188400   2.659914
     8  C    6.070408   5.707783   4.374837   3.434644   4.008001
     9  O    6.587050   6.065060   4.648348   4.012940   4.834811
    10  O    6.957331   6.726331   5.484828   4.363190   4.625192
    11  C    8.329394   8.032074   6.726557   5.691430   6.033512
    12  C    8.726825   8.508484   7.166905   6.289585   6.774505
    13  C   10.054520   9.888230   8.553027   7.677380   8.123811
    14  C   10.635032  10.524846   9.195724   8.449123   8.978817
    15  C   10.020508   9.928453   8.620920   8.038487   8.681456
    16  C    8.703447   8.566726   7.257068   6.738637   7.451605
    17  C    7.980865   7.769118   6.421173   5.739135   6.393099
    18  C    1.402841   2.544062   3.027528   3.511368   3.619891
    19  C    2.432144   3.826402   4.336743   4.578670   4.436268
    20  C    2.810595   4.321838   5.026810   5.080561   4.602102
    21  C    2.433315   3.812451   4.701981   4.698231   4.018647
    22  C    1.403597   2.522518   3.529811   3.663465   3.090260
    23  H    2.130778   1.095649   2.050576   3.280574   3.780432
    24  H    2.148445   1.095629   2.113006   2.744372   2.787002
    25  H    8.725693   8.245323   6.902967   5.944592   6.377578
    26  H    8.966234   8.764602   7.525637   6.391074   6.556356
    27  H   10.752716  10.578553   9.257179   8.292630   8.641645
    28  H   11.687914  11.604223  10.280052   9.518492  10.017098
    29  H   10.675478  10.626067   9.350300   8.861425   9.537219
    30  H    8.371948   8.251224   6.991059   6.658664   7.460455
    31  H    6.976129   6.702419   5.343272   4.713223   5.449405
    32  H    2.167368   2.767142   2.912346   3.594857   4.038346
    33  H    3.414859   4.698230   5.048785   5.303059   5.277585
    34  H    3.897432   5.408701   6.080673   6.059757   5.521509
    35  H    3.416308   4.677922   5.601103   5.486745   4.644547
    36  H    2.168258   2.731571   3.791044   3.855873   3.152675
                    6          7          8          9         10
     6  N    0.000000
     7  N    1.253611   0.000000
     8  C    2.187664   1.377174   0.000000
     9  O    2.652460   2.328862   1.226809   0.000000
    10  O    3.293792   2.230303   1.361032   2.287471   0.000000
    11  C    4.505511   3.564902   2.381924   2.710914   1.434181
    12  C    5.056782   4.150622   2.898256   2.808846   2.424343
    13  C    6.457381   5.525826   4.297479   4.154916   3.685026
    14  C    7.240290   6.374067   5.189964   4.866329   4.809086
    15  C    6.865418   6.127284   5.040924   4.554209   5.007605
    16  C    5.577798   4.936800   3.925295   3.368360   4.181077
    17  C    4.513288   3.775999   2.632268   2.218669   2.814638
    18  C    4.496131   4.967611   6.154153   6.579773   7.078335
    19  C    5.528301   5.755536   6.934127   7.463078   7.700019
    20  C    6.174010   6.318740   7.585482   8.275662   8.190674
    21  C    5.950037   6.194923   7.544225   8.306538   8.114884
    22  C    5.003452   5.468012   6.831849   7.521081   7.524690
    23  H    4.278869   5.316138   6.403903   6.587653   7.524753
    24  H    3.979189   4.927396   6.137270   6.573283   7.053272
    25  H    4.693245   3.978864   2.744342   2.786411   2.112680
    26  H    5.317787   4.278828   3.280553   3.779971   2.050234
    27  H    7.092711   6.115763   4.905050   4.890633   4.056313
    28  H    8.314777   7.424861   6.240873   5.933266   5.767707
    29  H    7.727104   7.043934   6.018710   5.474610   6.059904
    30  H    5.584248   5.116494   4.291653   3.637656   4.817974
    31  H    3.482386   2.874490   1.844402   1.352805   2.514552
    32  H    4.326281   4.874345   5.908087   6.142515   6.960524
    33  H    6.077552   6.213788   7.270499   7.718969   8.035508
    34  H    7.095468   7.117864   8.344599   9.071243   8.852788
    35  H    6.750353   6.926430   8.282947   9.126104   8.733479
    36  H    5.227810   5.752372   7.115964   7.840079   7.751878
                   11         12         13         14         15
    11  C    0.000000
    12  C    1.511610   0.000000
    13  C    2.544615   1.402630   0.000000
    14  C    3.826704   2.431942   1.396654   0.000000
    15  C    4.321840   2.810472   2.417490   1.393156   0.000000
    16  C    3.812187   2.433332   2.787901   2.411221   1.392735
    17  C    2.522109   1.403608   2.412678   2.786234   2.416113
    18  C    8.391532   8.553157   9.810988  10.224548   9.483194
    19  C    9.013034   9.111755  10.284422  10.639929   9.906800
    20  C    9.559309   9.810390  10.977704  11.437237  10.823950
    21  C    9.533895   9.989248  11.223058  11.830832  11.320400
    22  C    8.945946   9.480185  10.788589  11.456737  10.950030
    23  H    8.768325   9.138926  10.508560  11.055418  10.356892
    24  H    8.369839   9.012551  10.406667  11.150354  10.654177
    25  H    1.095217   2.148011   3.025120   4.282900   4.798729
    26  H    1.096134   2.130845   2.671106   4.041303   4.797971
    27  H    2.768241   2.167457   1.088307   2.146188   3.395786
    28  H    4.698682   3.414644   2.155742   1.087025   2.152837
    29  H    5.408921   3.897529   3.402878   2.153975   1.087114
    30  H    4.677564   3.416411   3.875004   3.396571   2.152562
    31  H    2.730786   2.168419   3.406398   3.874404   3.394248
    32  H    8.182774   8.200669   9.442595   9.755624   8.911685
    33  H    9.270736   9.197405  10.289377  10.507722   9.689886
    34  H   10.193992  10.394129  11.489666  11.901683  11.298582
    35  H   10.157456  10.698858  11.910124  12.573697  12.139079
    36  H    9.172444   9.856103  11.188042  11.956293  11.533923
                   16         17         18         19         20
    16  C    0.000000
    17  C    1.396375   0.000000
    18  C    8.190553   7.664858   0.000000
    19  C    8.702054   8.260004   1.396804   0.000000
    20  C    9.659917   9.107576   2.417647   1.393144   0.000000
    21  C   10.120518   9.399545   2.788031   2.411240   1.392785
    22  C    9.682757   8.879237   2.412936   2.786471   2.416343
    23  H    8.972707   8.287533   2.818382   4.134217   4.782145
    24  H    9.309600   8.402620   3.436256   4.579639   4.797489
    25  H    4.299382   3.049188   8.891195   9.638675  10.210087
    26  H    4.529440   3.363680   9.055057   9.571685  10.001394
    27  H    3.875979   3.406455  10.594188  11.050651  11.653840
    28  H    3.396407   3.873256  11.253410  11.618871  12.398689
    29  H    2.153734   3.401823  10.029058  10.398087  11.373199
    30  H    1.087115   2.156208   7.742159   8.261825   9.325483
    31  H    2.145275   1.088376   6.715026   7.409613   8.279917
    32  H    7.595076   7.185481   1.088046   2.146271   3.395780
    33  H    8.539503   8.265583   2.155828   1.087052   2.152886
    34  H   10.206010   9.718615   3.402830   2.153782   1.086896
    35  H   10.976888  10.206783   3.875070   3.396520   2.152541
    36  H   10.266149   9.357573   3.406449   3.874394   3.394234
                   21         22         23         24         25
    21  C    0.000000
    22  C    1.396478   0.000000
    23  H    4.412067   3.213016   0.000000
    24  H    3.984878   2.590085   1.765754   0.000000
    25  H   10.095891   9.382324   8.934122   8.513517   0.000000
    26  H    9.950946   9.452089   9.569816   9.043888   1.765530
    27  H   11.826660  11.398775  11.256485  11.017774   3.134751
    28  H   12.819697  12.487431  12.137847  12.227227   5.105677
    29  H   11.968158  11.647638  10.985254  11.411206   5.866385
    30  H    9.873994   9.442390   8.546383   9.079299   5.129918
    31  H    8.516888   7.918238   7.209635   7.342487   3.176432
    32  H    3.875852   3.406386   2.784916   3.819072   8.643186
    33  H    3.396483   3.873520   4.891582   5.544439   9.952158
    34  H    2.153612   3.401832   5.849469   5.862609  10.915280
    35  H    1.087051   2.156178   5.305953   4.654903  10.730215
    36  H    2.145197   1.088130   3.466718   2.336498   9.525717
                   26         27         28         29         30
    26  H    0.000000
    27  H    2.500784   0.000000
    28  H    4.742673   2.465686   0.000000
    29  H    5.864375   4.290621   2.480301   0.000000
    30  H    5.472192   4.963052   4.294263   2.480187   0.000000
    31  H    3.705552   4.318544   4.961409   4.289388   2.465366
    32  H    8.938575  10.295291  10.788430   9.397124   7.045225
    33  H    9.836345  11.104988  11.449026  10.080180   8.020540
    34  H   10.565339  12.148627  12.818536  11.803444   9.877819
    35  H   10.486454  12.448589  13.541572  12.813030  10.789658
    36  H    9.644636  11.731477  12.991818  12.291061  10.094819
                   31         32         33         34         35
    31  H    0.000000
    32  H    6.229307   0.000000
    33  H    7.489225   2.465861   0.000000
    34  H    8.962853   4.290480   2.480249   0.000000
    35  H    9.354772   4.962862   4.294282   2.480096   0.000000
    36  H    8.384223   4.318286   4.961426   4.289182   2.465258
                   36
    36  H    0.000000
 Stoichiometry    C16H14N2O4
 Framework group  C1[X(C16H14N2O4)]
 Deg. of freedom   102
 Full point group                 C1      NOp   1
 Largest Abelian subgroup         C1      NOp   1
 Largest concise Abelian subgroup C1      NOp   1
                         Standard orientation:                         
 ---------------------------------------------------------------------
 Center     Atomic      Atomic             Coordinates (Angstroms)
 Number     Number       Type             X           Y           Z
 ---------------------------------------------------------------------
      1          6           0       -4.327516    0.078624   -0.492175
      2          6           0       -3.904530   -1.051817   -1.401973
      3          8           0       -2.474670   -1.116166   -1.498431
      4          6           0       -1.787534   -1.306993   -0.339612
      5          8           0       -2.312990   -1.424786    0.761915
      6          7           0       -0.440215   -1.368754   -0.620801
      7          7           0        0.266018   -0.943410    0.323581
      8          6           0        1.613671   -1.039745    0.056826
      9          8           0        2.149656   -0.984166   -1.045304
     10          8           0        2.285213   -1.236901    1.224117
     11          6           0        3.708820   -1.386495    1.135565
     12          6           0        4.338040   -0.161807    0.511718
     13          6           0        5.635748    0.250444    0.848431
     14          6           0        6.201570    1.378796    0.250675
     15          6           0        5.485173    2.097783   -0.703639
     16          6           0        4.207317    1.682530   -1.070191
     17          6           0        3.638989    0.556692   -0.470729
     18          6           0       -3.972811    1.409095   -0.760491
     19          6           0       -4.384051    2.439983    0.087573
     20          6           0       -5.169400    2.156537    1.202803
     21          6           0       -5.554649    0.843968    1.464714
     22          6           0       -5.141492   -0.188233    0.619721
     23          1           0       -4.294462   -0.855653   -2.406921
     24          1           0       -4.345598   -1.993902   -1.057972
     25          1           0        4.003997   -2.282607    0.579367
     26          1           0        4.092949   -1.494105    2.156532
     27          1           0        6.215749   -0.301939    1.585236
     28          1           0        7.202537    1.696707    0.531069
     29          1           0        5.924346    2.979291   -1.163952
     30          1           0        3.651404    2.236622   -1.822363
     31          1           0        2.640862    0.246895   -0.774591
     32          1           0       -3.366987    1.652953   -1.630752
     33          1           0       -4.090160    3.465158   -0.122970
     34          1           0       -5.483748    2.958812    1.865286
     35          1           0       -6.176157    0.622860    2.328727
     36          1           0       -5.457089   -1.205986    0.840185
 ---------------------------------------------------------------------
 Rotational constants (GHZ):           0.6405120           0.1048563           0.0992715
 Standard basis: 6-31G(d) (6D, 7F)
 There are   358 symmetry adapted cartesian basis functions of A   symmetry.
 There are   358 symmetry adapted basis functions of A   symmetry.
   358 basis functions,   672 primitive gaussians,   358 cartesian basis functions
    78 alpha electrons       78 beta electrons
       nuclear repulsion energy      1631.5891071146 Hartrees.
 NAtoms=   36 NActive=   36 NUniq=   36 SFac= 1.00D+00 NAtFMM=   60 NAOKFM=F Big=F
 Integral buffers will be    131072 words long.
 Raffenetti 2 integral format.
 Two-electron integral symmetry is turned on.
 One-electron integrals computed using PRISM.
 NBasis=   358 RedAO= T EigKep=  4.44D-04  NBF=   358
 NBsUse=   358 1.00D-06 EigRej= -1.00D+00 NBFU=   358
 ExpMin= 1.61D-01 ExpMax= 5.48D+03 ExpMxC= 8.25D+02 IAcc=3 IRadAn=         5 AccDes= 0.00D+00
 Harris functional with IExCor=  402 and IRadAn=       5 diagonalized for initial guess.
 HarFok:  IExCor=  402 AccDes= 0.00D+00 IRadAn=         5 IDoV= 1 UseB2=F ITyADJ=14
 ICtDFT=  3500011 ScaDFX=  1.000000  1.000000  1.000000  1.000000
 FoFCou: FMM=F IPFlag=           0 FMFlag=      100000 FMFlg1=           0
         NFxFlg=           0 DoJE=T BraDBF=F KetDBF=T FulRan=T
         wScrn=  0.000000 ICntrl=       500 IOpCl=  0 I1Cent=   200000004 NGrid=           0
         NMat0=    1 NMatS0=      1 NMatT0=    0 NMatD0=    1 NMtDS0=    0 NMtDT0=    0
 Petite list used in FoFCou.
 Gradient too large for Newton-Raphson -- use scaled steepest descent instead.
     Minimum is close to point  2 DX=  2.47D-02 DF= -2.58D-03 DXR=  7.62D-02 DFR=  5.84D-03 which will be used.
 Gradient too large for Newton-Raphson -- use scaled steepest descent instead.
     Minimum is close to point  3 DX= -1.64D-02 DF= -8.29D-05 DXR=  3.40D-02 DFR=  1.14D-03 which will be used.
 Gradient too large for Newton-Raphson -- use scaled steepest descent instead.
     Accept linear search using points  1 and  2.
 Gradient too large for Newton-Raphson -- use scaled steepest descent instead.
 Gradient too large for Newton-Raphson -- use scaled steepest descent instead.
     Accept linear search using points  1 and  2.
 Gradient too large for Newton-Raphson -- use scaled steepest descent instead.
     Accept linear search using points  1 and  2.
 Gradient too large for Newton-Raphson -- use scaled steepest descent instead.
 LinEq1:  Iter=  0 NonCon=     1 RMS=5.87D-05 Max=2.89D-03 NDo=     1
 AX will form     1 AO Fock derivatives at one time.
 LinEq1:  Iter=  1 NonCon=     1 RMS=8.02D-05 Max=5.23D-03 NDo=     1
 LinEq1:  Iter=  2 NonCon=     1 RMS=1.39D-05 Max=7.41D-04 NDo=     1
 LinEq1:  Iter=  3 NonCon=     1 RMS=1.02D-05 Max=4.06D-04 NDo=     1
 LinEq1:  Iter=  4 NonCon=     1 RMS=6.13D-06 Max=2.89D-04 NDo=     1
 LinEq1:  Iter=  5 NonCon=     1 RMS=4.89D-06 Max=1.66D-04 NDo=     1
 LinEq1:  Iter=  6 NonCon=     1 RMS=3.77D-06 Max=1.44D-04 NDo=     1
 LinEq1:  Iter=  7 NonCon=     1 RMS=2.68D-06 Max=1.10D-04 NDo=     1
 LinEq1:  Iter=  8 NonCon=     1 RMS=2.60D-06 Max=1.51D-04 NDo=     1
 LinEq1:  Iter=  9 NonCon=     1 RMS=1.60D-06 Max=9.25D-05 NDo=     1
 LinEq1:  Iter= 10 NonCon=     1 RMS=1.22D-06 Max=5.96D-05 NDo=     1
 LinEq1:  Iter= 11 NonCon=     1 RMS=7.46D-07 Max=3.12D-05 NDo=     1
 LinEq1:  Iter= 12 NonCon=     1 RMS=4.63D-07 Max=1.73D-05 NDo=     1
 LinEq1:  Iter= 13 NonCon=     1 RMS=2.06D-07 Max=8.08D-06 NDo=     1
 LinEq1:  Iter= 14 NonCon=     1 RMS=1.36D-07 Max=4.63D-06 NDo=     1
 LinEq1:  Iter= 15 NonCon=     1 RMS=8.26D-08 Max=3.23D-06 NDo=     1
 LinEq1:  Iter= 16 NonCon=     1 RMS=4.95D-08 Max=1.25D-06 NDo=     1
 LinEq1:  Iter= 17 NonCon=     1 RMS=2.19D-08 Max=5.49D-07 NDo=     1
 LinEq1:  Iter= 18 NonCon=     1 RMS=9.79D-09 Max=4.00D-07 NDo=     1
 LinEq1:  Iter= 19 NonCon=     1 RMS=6.84D-09 Max=2.79D-07 NDo=     1
 LinEq1:  Iter= 20 NonCon=     0 RMS=3.47D-09 Max=1.21D-07 NDo=     1
 Linear equations converged to 2.090D-08 2.090D-07 after    20 iterations.
     Minimum is close to point  2 DX=  2.06D-03 DF= -1.73D-10 DXR=  2.05D-03 DFR=  4.22D-06 which will be used.
 LinEq1:  Iter=  0 NonCon=     1 RMS=5.67D-07 Max=3.37D-05 NDo=     1
 LinEq1:  Iter=  1 NonCon=     1 RMS=4.37D-07 Max=2.76D-05 NDo=     1
 LinEq1:  Iter=  2 NonCon=     1 RMS=4.13D-07 Max=2.64D-05 NDo=     1
 LinEq1:  Iter=  3 NonCon=     1 RMS=2.30D-07 Max=1.01D-05 NDo=     1
 LinEq1:  Iter=  4 NonCon=     1 RMS=1.49D-07 Max=5.58D-06 NDo=     1
 LinEq1:  Iter=  5 NonCon=     1 RMS=1.24D-07 Max=3.73D-06 NDo=     1
 LinEq1:  Iter=  6 NonCon=     1 RMS=1.04D-07 Max=4.96D-06 NDo=     1
 LinEq1:  Iter=  7 NonCon=     1 RMS=6.81D-08 Max=3.21D-06 NDo=     1
 LinEq1:  Iter=  8 NonCon=     1 RMS=5.30D-08 Max=2.24D-06 NDo=     1
 LinEq1:  Iter=  9 NonCon=     1 RMS=3.05D-08 Max=1.09D-06 NDo=     1
 LinEq1:  Iter= 10 NonCon=     1 RMS=2.45D-08 Max=1.07D-06 NDo=     1
 LinEq1:  Iter= 11 NonCon=     1 RMS=2.04D-08 Max=8.57D-07 NDo=     1
 LinEq1:  Iter= 12 NonCon=     1 RMS=1.14D-08 Max=3.93D-07 NDo=     1
 LinEq1:  Iter= 13 NonCon=     1 RMS=5.56D-09 Max=2.25D-07 NDo=     1
 LinEq1:  Iter= 14 NonCon=     1 RMS=3.65D-09 Max=1.40D-07 NDo=     1
 LinEq1:  Iter= 15 NonCon=     1 RMS=2.01D-09 Max=8.99D-08 NDo=     1
 LinEq1:  Iter= 16 NonCon=     1 RMS=1.37D-09 Max=4.88D-08 NDo=     1
 LinEq1:  Iter= 17 NonCon=     1 RMS=5.74D-10 Max=2.13D-08 NDo=     1
 LinEq1:  Iter= 18 NonCon=     1 RMS=2.72D-10 Max=8.54D-09 NDo=     1
 LinEq1:  Iter= 19 NonCon=     0 RMS=1.63D-10 Max=5.43D-09 NDo=     1
 Linear equations converged to 5.837D-10 5.837D-09 after    19 iterations.
 Restarting incremental Fock formation.
 SCF Done:  E(RB3LYP) =  -1028.38115998     a.u. after   10 cycles
            Convg  =    0.1395D-08                    60 Fock formations.
              S**2 =  0.0000                  -V/T =  2.0088
 DoSCS=F DFT=T ScalE2(SS,OS)=  1.000000  1.000000
 Range of M.O.s used for correlation:     1   358
 NBasis=   358 NAE=    78 NBE=    78 NFC=     0 NFV=     0
 NROrb=    358 NOA=    78 NOB=    78 NVA=   280 NVB=   280

 **** Warning!!: The smallest alpha delta epsilon is  0.88844829D-01

 Symmetrizing basis deriv contribution to polar:
 IMax=3 JMax=2 DiffMx= 0.00D+00
 G2DrvN: will do    37 centers at a time, making    1 passes.
 Calling FoFCou, ICntrl=  3107 FMM=F I1Cent=   0 AccDes= 0.00D+00.
 End of G2Drv F.D. properties file   721 does not exist.
 End of G2Drv F.D. properties file   722 does not exist.
 End of G2Drv F.D. properties file   788 does not exist.
          IDoAtm=111111111111111111111111111111111111
          Differentiating once with respect to electric field.
                with respect to dipole field.
          Differentiating once with respect to nuclear coordinates.
 CalDSu exits because no D1Ps are significant.
          There are   111 degrees of freedom in the 1st order CPHF.  IDoFFX=6 NUNeed=     3.
    108 vectors produced by pass  0 Test12= 2.18D-14 1.00D-09 XBig12= 2.57D+02 5.25D+00.
 AX will form   108 AO Fock derivatives at one time.
    108 vectors produced by pass  1 Test12= 2.18D-14 1.00D-09 XBig12= 7.03D+01 1.74D+00.
    108 vectors produced by pass  2 Test12= 2.18D-14 1.00D-09 XBig12= 1.21D+00 2.21D-01.
    108 vectors produced by pass  3 Test12= 2.18D-14 1.00D-09 XBig12= 1.06D-02 9.74D-03.
    108 vectors produced by pass  4 Test12= 2.18D-14 1.00D-09 XBig12= 2.82D-05 4.51D-04.
     94 vectors produced by pass  5 Test12= 2.18D-14 1.00D-09 XBig12= 3.97D-08 1.67D-05.
     21 vectors produced by pass  6 Test12= 2.18D-14 1.00D-09 XBig12= 4.26D-11 4.01D-07.
      3 vectors produced by pass  7 Test12= 2.18D-14 1.00D-09 XBig12= 3.70D-14 1.81D-08.
 InvSVY:  IOpt=1 It=  1 EMax= 1.07D-14
 Solved reduced A of dimension   658 with   111 vectors.
 Isotropic polarizability for W=    0.000000      194.61 Bohr**3.
 End of Minotr F.D. properties file   721 does not exist.
 End of Minotr F.D. properties file   722 does not exist.
 End of Minotr F.D. properties file   788 does not exist.

 **********************************************************************

            Population analysis using the SCF density.

 **********************************************************************

 Orbital symmetries:
       Occupied  (A) (A) (A) (A) (A) (A) (A) (A) (A) (A) (A) (A)
                 (A) (A) (A) (A) (A) (A) (A) (A) (A) (A) (A) (A)
                 (A) (A) (A) (A) (A) (A) (A) (A) (A) (A) (A) (A)
                 (A) (A) (A) (A) (A) (A) (A) (A) (A) (A) (A) (A)
                 (A) (A) (A) (A) (A) (A) (A) (A) (A) (A) (A) (A)
                 (A) (A) (A) (A) (A) (A) (A) (A) (A) (A) (A) (A)
                 (A) (A) (A) (A) (A) (A)
       Virtual   (A) (A) (A) (A) (A) (A) (A) (A) (A) (A) (A) (A)
                 (A) (A) (A) (A) (A) (A) (A) (A) (A) (A) (A) (A)
                 (A) (A) (A) (A) (A) (A) (A) (A) (A) (A) (A) (A)
                 (A) (A) (A) (A) (A) (A) (A) (A) (A) (A) (A) (A)
                 (A) (A) (A) (A) (A) (A) (A) (A) (A) (A) (A) (A)
                 (A) (A) (A) (A) (A) (A) (A) (A) (A) (A) (A) (A)
                 (A) (A) (A) (A) (A) (A) (A) (A) (A) (A) (A) (A)
                 (A) (A) (A) (A) (A) (A) (A) (A) (A) (A) (A) (A)
                 (A) (A) (A) (A) (A) (A) (A) (A) (A) (A) (A) (A)
                 (A) (A) (A) (A) (A) (A) (A) (A) (A) (A) (A) (A)
                 (A) (A) (A) (A) (A) (A) (A) (A) (A) (A) (A) (A)
                 (A) (A) (A) (A) (A) (A) (A) (A) (A) (A) (A) (A)
                 (A) (A) (A) (A) (A) (A) (A) (A) (A) (A) (A) (A)
                 (A) (A) (A) (A) (A) (A) (A) (A) (A) (A) (A) (A)
                 (A) (A) (A) (A) (A) (A) (A) (A) (A) (A) (A) (A)
                 (A) (A) (A) (A) (A) (A) (A) (A) (A) (A) (A) (A)
                 (A) (A) (A) (A) (A) (A) (A) (A) (A) (A) (A) (A)
                 (A) (A) (A) (A) (A) (A) (A) (A) (A) (A) (A) (A)
                 (A) (A) (A) (A) (A) (A) (A) (A) (A) (A) (A) (A)
                 (A) (A) (A) (A) (A) (A) (A) (A) (A) (A) (A) (A)
                 (A) (A) (A) (A) (A) (A) (A) (A) (A) (A) (A) (A)
                 (A) (A) (A) (A) (A) (A) (A) (A) (A) (A) (A) (A)
                 (A) (A) (A) (A) (A) (A) (A) (A) (A) (A) (A) (A)
                 (A) (A) (A) (A)
 The electronic state is 1-A.
 Alpha  occ. eigenvalues --  -19.22564 -19.21564 -19.17489 -19.16143 -14.43613
 Alpha  occ. eigenvalues --  -14.43529 -10.36582 -10.35767 -10.26334 -10.26285
 Alpha  occ. eigenvalues --  -10.20291 -10.19517 -10.19480 -10.19343 -10.19306
 Alpha  occ. eigenvalues --  -10.19191 -10.19133 -10.18798 -10.18353 -10.18075
 Alpha  occ. eigenvalues --  -10.17683 -10.15845  -1.15519  -1.13150  -1.07877
 Alpha  occ. eigenvalues --   -1.05714  -1.02912  -0.86274  -0.85422  -0.83992
 Alpha  occ. eigenvalues --   -0.78514  -0.76739  -0.74657  -0.73608  -0.72178
 Alpha  occ. eigenvalues --   -0.69883  -0.64100  -0.61091  -0.60688  -0.60296
 Alpha  occ. eigenvalues --   -0.58560  -0.56068  -0.54862  -0.54500  -0.52239
 Alpha  occ. eigenvalues --   -0.51866  -0.50627  -0.49396  -0.48203  -0.48015
 Alpha  occ. eigenvalues --   -0.47086  -0.46291  -0.45851  -0.45461  -0.43810
 Alpha  occ. eigenvalues --   -0.43458  -0.42470  -0.42137  -0.41906  -0.40424
 Alpha  occ. eigenvalues --   -0.38989  -0.38351  -0.36847  -0.36655  -0.36147
 Alpha  occ. eigenvalues --   -0.35258  -0.34982  -0.34343  -0.33631  -0.32895
 Alpha  occ. eigenvalues --   -0.31784  -0.30623  -0.27761  -0.26396  -0.25164
 Alpha  occ. eigenvalues --   -0.24687  -0.24104  -0.23230
 Alpha virt. eigenvalues --   -0.14345  -0.01398  -0.00955  -0.00254   0.00241
 Alpha virt. eigenvalues --    0.01368   0.03552   0.09030   0.10109   0.10963
 Alpha virt. eigenvalues --    0.11344   0.11665   0.12441   0.12633   0.13632
 Alpha virt. eigenvalues --    0.14852   0.15504   0.15907   0.16567   0.17525
 Alpha virt. eigenvalues --    0.17834   0.18797   0.19298   0.19861   0.21622
 Alpha virt. eigenvalues --    0.22604   0.23962   0.24417   0.25713   0.29122
 Alpha virt. eigenvalues --    0.29998   0.30412   0.31200   0.31468   0.32076
 Alpha virt. eigenvalues --    0.32826   0.33519   0.33725   0.34388   0.36856
 Alpha virt. eigenvalues --    0.40422   0.41217   0.45147   0.47247   0.47941
 Alpha virt. eigenvalues --    0.49965   0.50170   0.51087   0.51757   0.52502
 Alpha virt. eigenvalues --    0.52799   0.53449   0.54229   0.54542   0.55059
 Alpha virt. eigenvalues --    0.56175   0.57398   0.57877   0.58136   0.59077
 Alpha virt. eigenvalues --    0.59382   0.59435   0.59467   0.60548   0.60945
 Alpha virt. eigenvalues --    0.61103   0.61407   0.61962   0.62150   0.62663
 Alpha virt. eigenvalues --    0.62881   0.63579   0.63706   0.64897   0.66165
 Alpha virt. eigenvalues --    0.66596   0.67500   0.68497   0.69867   0.70340
 Alpha virt. eigenvalues --    0.71146   0.72766   0.73011   0.74317   0.75609
 Alpha virt. eigenvalues --    0.77348   0.79587   0.80396   0.80932   0.82722
 Alpha virt. eigenvalues --    0.83568   0.83630   0.83903   0.84030   0.84779
 Alpha virt. eigenvalues --    0.85318   0.85932   0.86190   0.86779   0.87607
 Alpha virt. eigenvalues --    0.88728   0.89822   0.91171   0.91588   0.92212
 Alpha virt. eigenvalues --    0.93087   0.93969   0.94610   0.95233   0.95957
 Alpha virt. eigenvalues --    0.96915   0.98611   0.98954   1.00918   1.02372
 Alpha virt. eigenvalues --    1.04143   1.06601   1.07711   1.09968   1.11094
 Alpha virt. eigenvalues --    1.11821   1.12490   1.13244   1.14078   1.15865
 Alpha virt. eigenvalues --    1.16460   1.17540   1.19019   1.19984   1.21193
 Alpha virt. eigenvalues --    1.21722   1.24862   1.24986   1.26853   1.27984
 Alpha virt. eigenvalues --    1.29844   1.32970   1.34071   1.36763   1.38173
 Alpha virt. eigenvalues --    1.41143   1.41559   1.43184   1.43901   1.44337
 Alpha virt. eigenvalues --    1.44670   1.45913   1.47847   1.48347   1.48714
 Alpha virt. eigenvalues --    1.49284   1.49904   1.50355   1.51071   1.51096
 Alpha virt. eigenvalues --    1.52882   1.54958   1.56272   1.61645   1.63995
 Alpha virt. eigenvalues --    1.67212   1.68364   1.69583   1.71754   1.72133
 Alpha virt. eigenvalues --    1.73336   1.76504   1.78241   1.79098   1.79887
 Alpha virt. eigenvalues --    1.81002   1.82250   1.82890   1.83703   1.85728
 Alpha virt. eigenvalues --    1.85899   1.86649   1.87782   1.89078   1.90533
 Alpha virt. eigenvalues --    1.91238   1.91700   1.92091   1.94164   1.96827
 Alpha virt. eigenvalues --    1.97270   1.97430   1.99547   2.00706   2.02306
 Alpha virt. eigenvalues --    2.04759   2.05900   2.07191   2.07614   2.08261
 Alpha virt. eigenvalues --    2.09681   2.11948   2.13028   2.13386   2.14289
 Alpha virt. eigenvalues --    2.14930   2.15400   2.16679   2.17847   2.19544
 Alpha virt. eigenvalues --    2.21367   2.24081   2.24579   2.26046   2.28065
 Alpha virt. eigenvalues --    2.29477   2.30325   2.30905   2.32622   2.33270
 Alpha virt. eigenvalues --    2.34472   2.35120   2.37430   2.40132   2.43265
 Alpha virt. eigenvalues --    2.45807   2.46354   2.49562   2.51331   2.56105
 Alpha virt. eigenvalues --    2.57764   2.59238   2.61745   2.63868   2.63979
 Alpha virt. eigenvalues --    2.65172   2.65696   2.67690   2.68774   2.70434
 Alpha virt. eigenvalues --    2.71330   2.72069   2.72796   2.74130   2.75551
 Alpha virt. eigenvalues --    2.76954   2.77582   2.78840   2.80548   2.80750
 Alpha virt. eigenvalues --    2.83925   2.88407   2.90370   2.93246   2.94421
 Alpha virt. eigenvalues --    3.04616   3.05139   3.08411   3.11733   3.21169
 Alpha virt. eigenvalues --    3.25007   3.40426   3.42267   3.78024   3.90251
 Alpha virt. eigenvalues --    4.00297   4.03797   4.08975   4.10080   4.11503
 Alpha virt. eigenvalues --    4.12758   4.16591   4.17029   4.23288   4.26086
 Alpha virt. eigenvalues --    4.29920   4.30601   4.34528   4.35388   4.38018
 Alpha virt. eigenvalues --    4.39621   4.44795   4.45372   4.70967   4.71153
          Condensed to atoms (all electrons):
               1          2          3          4          5          6
     1  C    4.744779   0.342380  -0.048622  -0.004509  -0.004801  -0.001132
     2  C    0.342380   4.982827   0.198349  -0.021980   0.005063   0.004756
     3  O   -0.048622   0.198349   8.223548   0.290885  -0.076847  -0.091342
     4  C   -0.004509  -0.021980   0.290885   4.239606   0.532130   0.240768
     5  O   -0.004801   0.005063  -0.076847   0.532130   8.037572  -0.073166
     6  N   -0.001132   0.004756  -0.091342   0.240768  -0.073166   6.940160
     7  N    0.000077  -0.000072   0.002258  -0.050903  -0.000843   0.236525
     8  C   -0.000000   0.000003  -0.000206   0.005881   0.000105  -0.052126
     9  O    0.000000   0.000000   0.000005   0.000084  -0.000005  -0.000016
    10  O    0.000000  -0.000000   0.000000  -0.000173   0.000007   0.001938
    11  C   -0.000000   0.000000  -0.000000   0.000002   0.000000  -0.000168
    12  C    0.000000  -0.000000   0.000000   0.000001  -0.000000  -0.000009
    13  C    0.000000   0.000000   0.000000   0.000000   0.000000   0.000000
    14  C   -0.000000   0.000000  -0.000000   0.000000   0.000000   0.000000
    15  C    0.000000   0.000000  -0.000000   0.000000  -0.000000   0.000000
    16  C    0.000000  -0.000000   0.000000  -0.000000   0.000000  -0.000001
    17  C   -0.000000   0.000000  -0.000000   0.000013   0.000000   0.000290
    18  C    0.527971  -0.065658   0.003789   0.000952  -0.001150  -0.000211
    19  C   -0.021211   0.005035   0.000185  -0.000102  -0.000089  -0.000000
    20  C   -0.035077   0.000410  -0.000001   0.000014   0.000060   0.000001
    21  C   -0.021681   0.006078  -0.000050  -0.000105  -0.000246  -0.000000
    22  C    0.548514  -0.045146   0.000346   0.000338   0.002193   0.000013
    23  H   -0.032766   0.371581  -0.032659   0.004016   0.000213  -0.000092
    24  H   -0.038899   0.356872  -0.027232  -0.004712   0.004258  -0.000089
    25  H    0.000000  -0.000000  -0.000000   0.000000  -0.000000   0.000039
    26  H    0.000000   0.000000   0.000000  -0.000000   0.000000   0.000000
    27  H    0.000000  -0.000000   0.000000  -0.000000  -0.000000   0.000000
    28  H   -0.000000   0.000000  -0.000000   0.000000  -0.000000   0.000000
    29  H    0.000000  -0.000000   0.000000  -0.000000   0.000000  -0.000000
    30  H    0.000000  -0.000000   0.000000  -0.000000   0.000000  -0.000001
    31  H    0.000000   0.000000   0.000000   0.000021  -0.000001   0.001038
    32  H   -0.048316  -0.007717   0.002745   0.000326  -0.000013  -0.000021
    33  H    0.003684  -0.000167   0.000001   0.000001  -0.000001  -0.000000
    34  H    0.000727   0.000008  -0.000000  -0.000000   0.000000   0.000000
    35  H    0.003957  -0.000169   0.000001   0.000001  -0.000007  -0.000000
    36  H   -0.041908  -0.010372   0.000048   0.000104   0.000332   0.000001
               7          8          9         10         11         12
     1  C    0.000077  -0.000000   0.000000   0.000000  -0.000000   0.000000
     2  C   -0.000072   0.000003   0.000000  -0.000000   0.000000  -0.000000
     3  O    0.002258  -0.000206   0.000005   0.000000  -0.000000   0.000000
     4  C   -0.050903   0.005881   0.000084  -0.000173   0.000002   0.000001
     5  O   -0.000843   0.000105  -0.000005   0.000007   0.000000  -0.000000
     6  N    0.236525  -0.052126  -0.000016   0.001938  -0.000168  -0.000009
     7  N    6.921884   0.258621  -0.068403  -0.089474   0.004903  -0.000236
     8  C    0.258621   4.343478   0.425763   0.299083  -0.025215  -0.007875
     9  O   -0.068403   0.425763   8.324893  -0.075948   0.019220  -0.013521
    10  O   -0.089474   0.299083  -0.075948   8.189476   0.188473  -0.027791
    11  C    0.004903  -0.025215   0.019220   0.188473   5.031391   0.313734
    12  C   -0.000236  -0.007875  -0.013521  -0.027791   0.313734   4.791432
    13  C   -0.000004   0.000206  -0.000628   0.001876  -0.060237   0.537735
    14  C   -0.000000  -0.000017  -0.000002  -0.000033   0.005591  -0.018663
    15  C   -0.000000  -0.000074  -0.000084  -0.000005   0.000245  -0.037126
    16  C   -0.000009   0.000163   0.004047  -0.000008   0.008366  -0.031404
    17  C   -0.001862   0.014070  -0.142222  -0.005285  -0.061598   0.554273
    18  C    0.000013  -0.000001  -0.000000   0.000000  -0.000000   0.000000
    19  C    0.000000  -0.000000   0.000000  -0.000000   0.000000   0.000000
    20  C   -0.000000   0.000000   0.000000  -0.000000   0.000000  -0.000000
    21  C   -0.000000   0.000000  -0.000000   0.000000   0.000000  -0.000000
    22  C   -0.000001  -0.000000  -0.000000   0.000000  -0.000000   0.000000
    23  H    0.000002  -0.000000   0.000000   0.000000  -0.000000  -0.000000
    24  H   -0.000008  -0.000000   0.000000  -0.000000  -0.000000   0.000000
    25  H   -0.000204  -0.001046   0.003721  -0.031664   0.350844  -0.035360
    26  H   -0.000050   0.003407   0.000186  -0.026219   0.374271  -0.038616
    27  H    0.000000   0.000012  -0.000000   0.000008  -0.008798  -0.051788
    28  H    0.000000   0.000000  -0.000000   0.000000  -0.000154   0.003877
    29  H    0.000000   0.000000   0.000002  -0.000000   0.000012   0.000812
    30  H    0.000003   0.000216   0.000219   0.000002  -0.000208   0.004381
    31  H   -0.008602  -0.024265  -0.045704   0.001844  -0.014213  -0.046311
    32  H   -0.000005  -0.000000   0.000000  -0.000000  -0.000000   0.000000
    33  H   -0.000000  -0.000000   0.000000   0.000000  -0.000000   0.000000
    34  H    0.000000   0.000000   0.000000   0.000000   0.000000  -0.000000
    35  H   -0.000000  -0.000000  -0.000000  -0.000000   0.000000   0.000000
    36  H   -0.000000  -0.000000   0.000000  -0.000000  -0.000000   0.000000
              13         14         15         16         17         18
     1  C    0.000000  -0.000000   0.000000   0.000000  -0.000000   0.527971
     2  C    0.000000   0.000000   0.000000  -0.000000   0.000000  -0.065658
     3  O    0.000000  -0.000000  -0.000000   0.000000  -0.000000   0.003789
     4  C    0.000000   0.000000   0.000000  -0.000000   0.000013   0.000952
     5  O    0.000000   0.000000  -0.000000   0.000000   0.000000  -0.001150
     6  N    0.000000   0.000000   0.000000  -0.000001   0.000290  -0.000211
     7  N   -0.000004  -0.000000  -0.000000  -0.000009  -0.001862   0.000013
     8  C    0.000206  -0.000017  -0.000074   0.000163   0.014070  -0.000001
     9  O   -0.000628  -0.000002  -0.000084   0.004047  -0.142222  -0.000000
    10  O    0.001876  -0.000033  -0.000005  -0.000008  -0.005285   0.000000
    11  C   -0.060237   0.005591   0.000245   0.008366  -0.061598  -0.000000
    12  C    0.537735  -0.018663  -0.037126  -0.031404   0.554273   0.000000
    13  C    4.958746   0.532255  -0.034021  -0.050914  -0.030422   0.000000
    14  C    0.532255   4.860493   0.552809  -0.026196  -0.047930  -0.000000
    15  C   -0.034021   0.552809   4.854311   0.536845  -0.028568   0.000000
    16  C   -0.050914  -0.026196   0.536845   4.943004   0.510903  -0.000000
    17  C   -0.030422  -0.047930  -0.028568   0.510903   5.048309  -0.000000
    18  C    0.000000  -0.000000   0.000000  -0.000000  -0.000000   4.971234
    19  C   -0.000000  -0.000000  -0.000000   0.000000  -0.000000   0.530822
    20  C   -0.000000   0.000000  -0.000000   0.000000  -0.000000  -0.035336
    21  C    0.000000   0.000000   0.000000   0.000000   0.000000  -0.044718
    22  C    0.000000  -0.000000   0.000000  -0.000000  -0.000000  -0.041606
    23  H    0.000000   0.000000   0.000000   0.000000  -0.000000  -0.006407
    24  H    0.000000  -0.000000  -0.000000   0.000000  -0.000000   0.006214
    25  H    0.000486  -0.000178   0.000026  -0.000097  -0.001515  -0.000000
    26  H   -0.001639   0.000048   0.000010  -0.000116   0.002383   0.000000
    27  H    0.354618  -0.043477   0.005102   0.000443   0.005576  -0.000000
    28  H   -0.041676   0.357635  -0.042780   0.004722   0.000677  -0.000000
    29  H    0.004926  -0.045376   0.354535  -0.042774   0.005094  -0.000000
    30  H    0.001012   0.004381  -0.046681   0.355557  -0.037311  -0.000000
    31  H    0.005523   0.000433   0.005204  -0.030389   0.345648   0.000000
    32  H    0.000000  -0.000000   0.000000   0.000000  -0.000000   0.357434
    33  H    0.000000  -0.000000  -0.000000   0.000000  -0.000000  -0.040601
    34  H   -0.000000   0.000000  -0.000000  -0.000000   0.000000   0.004811
    35  H    0.000000  -0.000000   0.000000   0.000000  -0.000000   0.000780
    36  H   -0.000000  -0.000000  -0.000000   0.000000  -0.000000   0.005867
              19         20         21         22         23         24
     1  C   -0.021211  -0.035077  -0.021681   0.548514  -0.032766  -0.038899
     2  C    0.005035   0.000410   0.006078  -0.045146   0.371581   0.356872
     3  O    0.000185  -0.000001  -0.000050   0.000346  -0.032659  -0.027232
     4  C   -0.000102   0.000014  -0.000105   0.000338   0.004016  -0.004712
     5  O   -0.000089   0.000060  -0.000246   0.002193   0.000213   0.004258
     6  N   -0.000000   0.000001  -0.000000   0.000013  -0.000092  -0.000089
     7  N    0.000000  -0.000000  -0.000000  -0.000001   0.000002  -0.000008
     8  C   -0.000000   0.000000   0.000000  -0.000000  -0.000000  -0.000000
     9  O    0.000000   0.000000  -0.000000  -0.000000   0.000000   0.000000
    10  O   -0.000000  -0.000000   0.000000   0.000000   0.000000  -0.000000
    11  C    0.000000   0.000000   0.000000  -0.000000  -0.000000  -0.000000
    12  C    0.000000  -0.000000  -0.000000   0.000000  -0.000000   0.000000
    13  C   -0.000000  -0.000000   0.000000   0.000000   0.000000   0.000000
    14  C   -0.000000   0.000000   0.000000  -0.000000   0.000000  -0.000000
    15  C   -0.000000  -0.000000   0.000000   0.000000   0.000000  -0.000000
    16  C    0.000000   0.000000   0.000000  -0.000000   0.000000   0.000000
    17  C   -0.000000  -0.000000   0.000000  -0.000000  -0.000000  -0.000000
    18  C    0.530822  -0.035336  -0.044718  -0.041606  -0.006407   0.006214
    19  C    4.852304   0.551469  -0.027759  -0.043932  -0.000072  -0.000099
    20  C    0.551469   4.844994   0.551718  -0.035323   0.000022  -0.000009
    21  C   -0.027759   0.551718   4.856773   0.531406  -0.000252   0.000118
    22  C   -0.043932  -0.035323   0.531406   4.911022   0.002932  -0.005217
    23  H   -0.000072   0.000022  -0.000252   0.002932   0.552969  -0.038165
    24  H   -0.000099  -0.000009   0.000118  -0.005217  -0.038165   0.568196
    25  H    0.000000   0.000000   0.000000   0.000000  -0.000000   0.000000
    26  H   -0.000000  -0.000000   0.000000   0.000000   0.000000  -0.000000
    27  H    0.000000   0.000000  -0.000000  -0.000000   0.000000   0.000000
    28  H    0.000000   0.000000   0.000000  -0.000000  -0.000000  -0.000000
    29  H    0.000000   0.000000  -0.000000   0.000000  -0.000000   0.000000
    30  H    0.000000   0.000000  -0.000000  -0.000000  -0.000000   0.000000
    31  H    0.000000  -0.000000  -0.000000   0.000000   0.000000  -0.000000
    32  H   -0.041691   0.004735   0.000480   0.005249   0.001908   0.000125
    33  H    0.358187  -0.042447   0.004611   0.000851  -0.000001   0.000003
    34  H   -0.043173   0.358679  -0.043061   0.004774  -0.000000  -0.000000
    35  H    0.004669  -0.043401   0.357490  -0.039310   0.000004  -0.000007
    36  H    0.000422   0.004806  -0.043815   0.353339   0.000120   0.007740
              25         26         27         28         29         30
     1  C    0.000000   0.000000   0.000000  -0.000000   0.000000   0.000000
     2  C   -0.000000   0.000000  -0.000000   0.000000  -0.000000  -0.000000
     3  O   -0.000000   0.000000   0.000000  -0.000000   0.000000   0.000000
     4  C    0.000000  -0.000000  -0.000000   0.000000  -0.000000  -0.000000
     5  O   -0.000000   0.000000  -0.000000  -0.000000   0.000000   0.000000
     6  N    0.000039   0.000000   0.000000   0.000000  -0.000000  -0.000001
     7  N   -0.000204  -0.000050   0.000000   0.000000   0.000000   0.000003
     8  C   -0.001046   0.003407   0.000012   0.000000   0.000000   0.000216
     9  O    0.003721   0.000186  -0.000000  -0.000000   0.000002   0.000219
    10  O   -0.031664  -0.026219   0.000008   0.000000  -0.000000   0.000002
    11  C    0.350844   0.374271  -0.008798  -0.000154   0.000012  -0.000208
    12  C   -0.035360  -0.038616  -0.051788   0.003877   0.000812   0.004381
    13  C    0.000486  -0.001639   0.354618  -0.041676   0.004926   0.001012
    14  C   -0.000178   0.000048  -0.043477   0.357635  -0.045376   0.004381
    15  C    0.000026   0.000010   0.005102  -0.042780   0.354535  -0.046681
    16  C   -0.000097  -0.000116   0.000443   0.004722  -0.042774   0.355557
    17  C   -0.001515   0.002383   0.005576   0.000677   0.005094  -0.037311
    18  C   -0.000000   0.000000  -0.000000  -0.000000  -0.000000  -0.000000
    19  C    0.000000  -0.000000   0.000000   0.000000   0.000000   0.000000
    20  C    0.000000  -0.000000   0.000000   0.000000   0.000000   0.000000
    21  C    0.000000   0.000000  -0.000000   0.000000  -0.000000  -0.000000
    22  C    0.000000   0.000000  -0.000000  -0.000000   0.000000  -0.000000
    23  H   -0.000000   0.000000   0.000000  -0.000000  -0.000000  -0.000000
    24  H    0.000000  -0.000000   0.000000  -0.000000   0.000000   0.000000
    25  H    0.570667  -0.039265   0.000266   0.000005  -0.000000   0.000001
    26  H   -0.039265   0.543146   0.005065  -0.000006  -0.000000   0.000003
    27  H    0.000266   0.005065   0.622391  -0.005996  -0.000186   0.000019
    28  H    0.000005  -0.000006  -0.005996   0.603581  -0.005848  -0.000199
    29  H   -0.000000  -0.000000  -0.000186  -0.005848   0.612099  -0.005288
    30  H    0.000001   0.000003   0.000019  -0.000199  -0.005288   0.605854
    31  H    0.000188  -0.000359  -0.000168   0.000010  -0.000184  -0.007271
    32  H   -0.000000  -0.000000   0.000000  -0.000000   0.000000  -0.000000
    33  H    0.000000  -0.000000   0.000000  -0.000000   0.000000   0.000000
    34  H   -0.000000  -0.000000  -0.000000   0.000000  -0.000000   0.000000
    35  H   -0.000000  -0.000000   0.000000   0.000000   0.000000  -0.000000
    36  H   -0.000000  -0.000000   0.000000   0.000000   0.000000   0.000000
              31         32         33         34         35         36
     1  C    0.000000  -0.048316   0.003684   0.000727   0.003957  -0.041908
     2  C    0.000000  -0.007717  -0.000167   0.000008  -0.000169  -0.010372
     3  O    0.000000   0.002745   0.000001  -0.000000   0.000001   0.000048
     4  C    0.000021   0.000326   0.000001  -0.000000   0.000001   0.000104
     5  O   -0.000001  -0.000013  -0.000001   0.000000  -0.000007   0.000332
     6  N    0.001038  -0.000021  -0.000000   0.000000  -0.000000   0.000001
     7  N   -0.008602  -0.000005  -0.000000   0.000000  -0.000000  -0.000000
     8  C   -0.024265  -0.000000  -0.000000   0.000000  -0.000000  -0.000000
     9  O   -0.045704   0.000000   0.000000   0.000000  -0.000000   0.000000
    10  O    0.001844  -0.000000   0.000000   0.000000  -0.000000  -0.000000
    11  C   -0.014213  -0.000000  -0.000000   0.000000   0.000000  -0.000000
    12  C   -0.046311   0.000000   0.000000  -0.000000   0.000000   0.000000
    13  C    0.005523   0.000000   0.000000  -0.000000   0.000000  -0.000000
    14  C    0.000433  -0.000000  -0.000000   0.000000  -0.000000  -0.000000
    15  C    0.005204   0.000000  -0.000000  -0.000000   0.000000  -0.000000
    16  C   -0.030389   0.000000   0.000000  -0.000000   0.000000   0.000000
    17  C    0.345648  -0.000000  -0.000000   0.000000  -0.000000  -0.000000
    18  C    0.000000   0.357434  -0.040601   0.004811   0.000780   0.005867
    19  C    0.000000  -0.041691   0.358187  -0.043173   0.004669   0.000422
    20  C   -0.000000   0.004735  -0.042447   0.358679  -0.043401   0.004806
    21  C   -0.000000   0.000480   0.004611  -0.043061   0.357490  -0.043815
    22  C    0.000000   0.005249   0.000851   0.004774  -0.039310   0.353339
    23  H    0.000000   0.001908  -0.000001  -0.000000   0.000004   0.000120
    24  H   -0.000000   0.000125   0.000003  -0.000000  -0.000007   0.007740
    25  H    0.000188  -0.000000   0.000000  -0.000000  -0.000000  -0.000000
    26  H   -0.000359  -0.000000  -0.000000  -0.000000  -0.000000  -0.000000
    27  H   -0.000168   0.000000   0.000000  -0.000000   0.000000   0.000000
    28  H    0.000010  -0.000000  -0.000000   0.000000   0.000000   0.000000
    29  H   -0.000184   0.000000   0.000000  -0.000000   0.000000   0.000000
    30  H   -0.007271  -0.000000   0.000000   0.000000  -0.000000   0.000000
    31  H    0.605678   0.000000   0.000000  -0.000000   0.000000   0.000000
    32  H    0.000000   0.596785  -0.005530  -0.000185   0.000017  -0.000164
    33  H    0.000000  -0.005530   0.593954  -0.005603  -0.000189   0.000016
    34  H   -0.000000  -0.000185  -0.005603   0.596745  -0.005714  -0.000184
    35  H    0.000000   0.000017  -0.000189  -0.005714   0.594331  -0.005624
    36  H    0.000000  -0.000164   0.000016  -0.000184  -0.005624   0.598055
 Mulliken charges:
               1
     1  C    0.126835
     2  C   -0.122081
     3  O   -0.445199
     4  C    0.767344
     5  O   -0.424765
     6  N   -0.207152
     7  N   -0.203609
     8  C    0.759817
     9  O   -0.431608
    10  O   -0.426107
    11  C   -0.126458
    12  C    0.102455
    13  C   -0.177841
    14  C   -0.131773
    15  C   -0.119748
    16  C   -0.182141
    17  C   -0.130522
    18  C   -0.174196
    19  C   -0.124966
    20  C   -0.125312
    21  C   -0.126988
    22  C   -0.150440
    23  H    0.176649
    24  H    0.170911
    25  H    0.183086
    26  H    0.177751
    27  H    0.116911
    28  H    0.126151
    29  H    0.122176
    30  H    0.125309
    31  H    0.211878
    32  H    0.133839
    33  H    0.133230
    34  H    0.132176
    35  H    0.133171
    36  H    0.131217
 Sum of Mulliken charges =  -0.00000
 Mulliken charges with hydrogens summed into heavy atoms:
               1
     1  C    0.126835
     2  C    0.225479
     3  O   -0.445199
     4  C    0.767344
     5  O   -0.424765
     6  N   -0.207152
     7  N   -0.203609
     8  C    0.759817
     9  O   -0.431608
    10  O   -0.426107
    11  C    0.234379
    12  C    0.102455
    13  C   -0.060930
    14  C   -0.005622
    15  C    0.002427
    16  C   -0.056832
    17  C    0.081356
    18  C   -0.040357
    19  C    0.008264
    20  C    0.006865
    21  C    0.006183
    22  C   -0.019223
 APT charges:
               1
     1  C   -0.051987
     2  C    0.692107
     3  O   -0.939546
     4  C    1.296306
     5  O   -0.650420
     6  N   -0.220509
     7  N   -0.193556
     8  C    1.040415
     9  O   -0.524466
    10  O   -0.766743
    11  C    0.554688
    12  C   -0.049923
    13  C   -0.011906
    14  C   -0.038524
    15  C   -0.011573
    16  C   -0.035771
    17  C   -0.121207
    18  C   -0.047648
    19  C   -0.026023
    20  C   -0.006750
    21  C    0.003324
    22  C   -0.024650
    23  H   -0.043778
    24  H   -0.050302
    25  H   -0.056318
    26  H   -0.018380
    27  H    0.001353
    28  H    0.006159
    29  H   -0.005692
    30  H    0.013163
    31  H    0.190384
    32  H    0.027822
    33  H    0.016187
    34  H    0.015330
    35  H    0.014160
    36  H    0.024273
 Sum of APT charges =  -0.00000
 APT charges with hydrogens summed into heavy atoms:
               1
     1  C   -0.051987
     2  C    0.598027
     3  O   -0.939546
     4  C    1.296306
     5  O   -0.650420
     6  N   -0.220509
     7  N   -0.193556
     8  C    1.040415
     9  O   -0.524466
    10  O   -0.766743
    11  C    0.479990
    12  C   -0.049923
    13  C   -0.010553
    14  C   -0.032365
    15  C   -0.017265
    16  C   -0.022608
    17  C    0.069177
    18  C   -0.019826
    19  C   -0.009836
    20  C    0.008580
    21  C    0.017484
    22  C   -0.000377
 Electronic spatial extent (au):  <R**2>=          10570.7021
 Charge=             -0.0000 electrons
 Dipole moment (field-independent basis, Debye):
    X=             -0.9349    Y=             -0.0913    Z=             -0.0270  Tot=              0.9397
 Quadrupole moment (field-independent basis, Debye-Ang):
   XX=           -105.4848   YY=           -115.9494   ZZ=           -125.9443
   XY=             -2.0925   XZ=              8.6590   YZ=             -2.5482
 Traceless Quadrupole moment (field-independent basis, Debye-Ang):
   XX=             10.3081   YY=             -0.1566   ZZ=            -10.1515
   XY=             -2.0925   XZ=              8.6590   YZ=             -2.5482
 Octapole moment (field-independent basis, Debye-Ang**2):
  XXX=              2.7125  YYY=            -17.7898  ZZZ=              1.4542  XYY=             -5.7210
  XXY=            -26.5338  XXZ=             43.8309  XZZ=            -15.8198  YZZ=              0.6786
  YYZ=             -3.3697  XYZ=            -32.8915
 Hexadecapole moment (field-independent basis, Debye-Ang**3):
 XXXX=         -11558.7948 YYYY=          -1411.2079 ZZZZ=           -768.8904 XXXY=            163.1665
 XXXZ=             91.7134 YYYX=            -39.8367 YYYZ=             -7.2511 ZZZX=             29.4704
 ZZZY=             -8.6648 XXYY=          -2091.8168 XXZZ=          -2039.8617 YYZZ=           -374.0073
 XXYZ=             -4.3736 YYXZ=            -24.4076 ZZXY=            -19.2472
 N-N= 1.631589107115D+03 E-N=-5.659033909791D+03  KE= 1.019452491390D+03
  Exact polarizability: 257.131  24.750 174.685  -5.402 -16.132 152.010
 Approx polarizability: 317.286  41.886 282.833 -14.283 -35.355 285.153
 Calling FoFJK, ICntrl=    100127 FMM=F ISym2X=0 I1Cent= 0 IOpClX= 0 NMat=1 NMatS=1 NMatT=0.
 ***** Axes restored to original set *****
 -------------------------------------------------------------------
 Center     Atomic                   Forces (Hartrees/Bohr)
 Number     Number              X              Y              Z
 -------------------------------------------------------------------
      1        6           0.001040230   -0.014284013   -0.001806790
      2        6          -0.005030038   -0.016419207   -0.011557602
      3        8          -0.005412039    0.016691764    0.010883434
      4        6           0.012598354   -0.076425771   -0.003786795
      5        8           0.013118361    0.026744440   -0.000131088
      6        7          -0.012016705    0.040410184    0.002502766
      7        7           0.007261126   -0.037536888   -0.007764541
      8        6          -0.004189745    0.043442060    0.050111831
      9        8           0.049962388   -0.049399885    0.074221777
     10        8           0.020569861   -0.013120195   -0.007257594
     11        6          -0.011284707    0.018237489   -0.012963653
     12        6           0.001692752    0.009090471   -0.006921857
     13        6           0.000046824   -0.001827158    0.001847234
     14        6          -0.000461193    0.000731191    0.001865667
     15        6           0.000938954    0.003690339   -0.004358003
     16        6          -0.007211727    0.003521179    0.003365459
     17        6          -0.027805800    0.010815364   -0.046174827
     18        6          -0.000148092    0.000933049    0.000318335
     19        6           0.000924001    0.002271190    0.000579242
     20        6          -0.001750635   -0.001764078   -0.001797412
     21        6           0.002255330    0.000103340    0.001960618
     22        6          -0.001240016   -0.001016200   -0.003152784
     23        1          -0.001834342    0.010191503    0.002443036
     24        1          -0.004006359    0.005975493    0.002603427
     25        1           0.007098944   -0.006187682    0.002569736
     26        1           0.004512121   -0.007627452    0.002147444
     27        1          -0.000630661   -0.001555456    0.000715267
     28        1          -0.000286463   -0.000370844    0.000657105
     29        1          -0.000628377    0.000774051   -0.000151895
     30        1           0.000130652   -0.000875917    0.000290317
     31        1          -0.039098442    0.030641038   -0.053460498
     32        1           0.000286302    0.000656682    0.001754837
     33        1           0.000603007    0.000327899    0.000229110
     34        1           0.000107791   -0.000018515   -0.000076183
     35        1           0.000261504    0.000423556    0.000412003
     36        1          -0.000373163    0.002756977   -0.000117127
 -------------------------------------------------------------------
 Cartesian Forces:  Max     0.076425771 RMS     0.018362495
 FormGI is forming the generalized inverse of G from B-inverse, IUseBI=4.

 GradGradGradGradGradGradGradGradGradGradGradGradGradGradGradGradGradGrad
 Berny optimization.
 Internal  Forces:  Max     0.328357117 RMS     0.054089258
 Search for a local minimum.
 Step number   1 out of a maximum of  180
 All quantities printed in internal units (Hartrees-Bohrs-Radians)
 Mixed Optimization -- RFO/linear search
 Second derivative matrix not updated -- analytic derivatives used.
 ITU=  0
     Eigenvalues ---   -0.54526  -0.12251  -0.05206  -0.01333  -0.00357
     Eigenvalues ---   -0.00081   0.00148   0.00595   0.01311   0.01501
     Eigenvalues ---    0.01703   0.01729   0.01735   0.01837   0.02116
     Eigenvalues ---    0.02132   0.02327   0.02368   0.02482   0.02608
     Eigenvalues ---    0.02654   0.02682   0.02752   0.02833   0.02966
     Eigenvalues ---    0.04278   0.05058   0.06305   0.06379   0.07310
     Eigenvalues ---    0.07825   0.08500   0.10121   0.10279   0.10545
     Eigenvalues ---    0.11056   0.11114   0.11155   0.11638   0.11660
     Eigenvalues ---    0.11749   0.12062   0.12540   0.12554   0.12796
     Eigenvalues ---    0.12994   0.13533   0.16080   0.17988   0.18424
     Eigenvalues ---    0.19194   0.19395   0.19512   0.19771   0.20227
     Eigenvalues ---    0.21254   0.21533   0.23488   0.24082   0.25184
     Eigenvalues ---    0.26838   0.27529   0.28729   0.28954   0.30264
     Eigenvalues ---    0.30574   0.31004   0.32026   0.33383   0.33569
     Eigenvalues ---    0.34241   0.34276   0.34992   0.35484   0.35567
     Eigenvalues ---    0.35790   0.35832   0.35875   0.35947   0.35968
     Eigenvalues ---    0.36076   0.36181   0.37516   0.37719   0.39861
     Eigenvalues ---    0.41369   0.41593   0.41973   0.45264   0.46781
     Eigenvalues ---    0.47252   0.47391   0.47536   0.48994   0.50939
     Eigenvalues ---    0.51304   0.51758   0.52958   0.76599   0.78960
     Eigenvalues ---    0.79904   5.34529
 RFO step:  Lambda=-5.50102351D-01 EMin=-5.45260537D-01
 I=     1 Eig=   -5.45D-01 Dot1= -2.82D-02
 I=     1 Stepn= -6.00D-01 RXN=   6.00D-01 EDone=F
 I=     2 Eig=   -1.23D-01 Dot1=  7.71D-04
 I=     2 Stepn=  3.00D-01 RXN=   6.71D-01 EDone=F
 I=     3 Eig=   -5.21D-02 Dot1= -1.03D-03
 I=     3 Stepn= -1.50D-01 RXN=   6.87D-01 EDone=F
[...]
    97    N    7  py     Val( 2p)     1.23703
    98    N    7  py     Ryd( 3p)     0.00431
    99    N    7  pz     Val( 2p)     1.41733
   100    N    7  pz     Ryd( 3p)     0.00452
   101    N    7  dxy    Ryd( 3d)     0.00157
   102    N    7  dxz    Ryd( 3d)     0.00090
   103    N    7  dyz    Ryd( 3d)     0.00216
   104    N    7  dx2y2  Ryd( 3d)     0.00212
   105    N    7  dz2    Ryd( 3d)     0.00091
 
   106    C    8  S      Cor( 1S)     1.99950
   107    C    8  S      Val( 2S)     0.73124
   108    C    8  S      Ryd( 3S)     0.00397
   109    C    8  S      Ryd( 4S)     0.00048
   110    C    8  px     Val( 2p)     0.79667
   111    C    8  px     Ryd( 3p)     0.00625
   112    C    8  py     Val( 2p)     0.78602
   113    C    8  py     Ryd( 3p)     0.00390
   114    C    8  pz     Val( 2p)     0.71314
   115    C    8  pz     Ryd( 3p)     0.02364
   116    C    8  dxy    Ryd( 3d)     0.00154
   117    C    8  dxz    Ryd( 3d)     0.00412
   118    C    8  dyz    Ryd( 3d)     0.00301
   119    C    8  dx2y2  Ryd( 3d)     0.00111
   120    C    8  dz2    Ryd( 3d)     0.00255
 
   121    O    9  S      Cor( 1S)     1.99977
   122    O    9  S      Val( 2S)     1.70770
   123    O    9  S      Ryd( 3S)     0.00087
   124    O    9  S      Ryd( 4S)     0.00013
   125    O    9  px     Val( 2p)     1.74947
   126    O    9  px     Ryd( 3p)     0.00142
   127    O    9  py     Val( 2p)     1.46885
   128    O    9  py     Ryd( 3p)     0.00072
   129    O    9  pz     Val( 2p)     1.60551
   130    O    9  pz     Ryd( 3p)     0.00047
   131    O    9  dxy    Ryd( 3d)     0.00041
   132    O    9  dxz    Ryd( 3d)     0.00516
   133    O    9  dyz    Ryd( 3d)     0.00491
   134    O    9  dx2y2  Ryd( 3d)     0.00032
   135    O    9  dz2    Ryd( 3d)     0.00623
 
   136    O   10  S      Cor( 1S)     1.99973
   137    O   10  S      Val( 2S)     1.63005
   138    O   10  S      Ryd( 3S)     0.00199
   139    O   10  S      Ryd( 4S)     0.00010
   140    O   10  px     Val( 2p)     1.41947
   141    O   10  px     Ryd( 3p)     0.00104
   142    O   10  py     Val( 2p)     1.77068
   143    O   10  py     Ryd( 3p)     0.00175
   144    O   10  pz     Val( 2p)     1.68818
   145    O   10  pz     Ryd( 3p)     0.00155
   146    O   10  dxy    Ryd( 3d)     0.00029
   147    O   10  dxz    Ryd( 3d)     0.00151
   148    O   10  dyz    Ryd( 3d)     0.00209
   149    O   10  dx2y2  Ryd( 3d)     0.00055
   150    O   10  dz2    Ryd( 3d)     0.00147
 
   151    C   11  S      Cor( 1S)     1.99912
   152    C   11  S      Val( 2S)     1.03262
   153    C   11  S      Ryd( 3S)     0.00117
   154    C   11  S      Ryd( 4S)     0.00005
   155    C   11  px     Val( 2p)     0.70216
   156    C   11  px     Ryd( 3p)     0.00302
   157    C   11  py     Val( 2p)     1.11690
   158    C   11  py     Ryd( 3p)     0.00111
   159    C   11  pz     Val( 2p)     1.25536
   160    C   11  pz     Ryd( 3p)     0.00757
   161    C   11  dxy    Ryd( 3d)     0.00122
   162    C   11  dxz    Ryd( 3d)     0.00092
   163    C   11  dyz    Ryd( 3d)     0.00114
   164    C   11  dx2y2  Ryd( 3d)     0.00175
   165    C   11  dz2    Ryd( 3d)     0.00106
 
   166    C   12  S      Cor( 1S)     1.99901
   167    C   12  S      Val( 2S)     0.88933
   168    C   12  S      Ryd( 3S)     0.00070
   169    C   12  S      Ryd( 4S)     0.00006
   170    C   12  px     Val( 2p)     1.03458
   171    C   12  px     Ryd( 3p)     0.00254
   172    C   12  py     Val( 2p)     1.05762
   173    C   12  py     Ryd( 3p)     0.00404
   174    C   12  pz     Val( 2p)     1.09650
   175    C   12  pz     Ryd( 3p)     0.00439
   176    C   12  dxy    Ryd( 3d)     0.00041
   177    C   12  dxz    Ryd( 3d)     0.00059
   178    C   12  dyz    Ryd( 3d)     0.00074
   179    C   12  dx2y2  Ryd( 3d)     0.00046
   180    C   12  dz2    Ryd( 3d)     0.00060
 
   181    C   13  S      Cor( 1S)     1.99903
   182    C   13  S      Val( 2S)     0.95446
   183    C   13  S      Ryd( 3S)     0.00062
   184    C   13  S      Ryd( 4S)     0.00005
   185    C   13  px     Val( 2p)     1.00294
   186    C   13  px     Ryd( 3p)     0.00132
   187    C   13  py     Val( 2p)     1.07490
   188    C   13  py     Ryd( 3p)     0.00351
   189    C   13  pz     Val( 2p)     1.16652
   190    C   13  pz     Ryd( 3p)     0.00491
   191    C   13  dxy    Ryd( 3d)     0.00043
   192    C   13  dxz    Ryd( 3d)     0.00041
   193    C   13  dyz    Ryd( 3d)     0.00075
   194    C   13  dx2y2  Ryd( 3d)     0.00048
   195    C   13  dz2    Ryd( 3d)     0.00071
 
   196    C   14  S      Cor( 1S)     1.99910
   197    C   14  S      Val( 2S)     0.96186
   198    C   14  S      Ryd( 3S)     0.00058
   199    C   14  S      Ryd( 4S)     0.00003
   200    C   14  px     Val( 2p)     1.02252
   201    C   14  px     Ryd( 3p)     0.00147
   202    C   14  py     Val( 2p)     1.07684
   203    C   14  py     Ryd( 3p)     0.00391
   204    C   14  pz     Val( 2p)     1.15613
   205    C   14  pz     Ryd( 3p)     0.00508
   206    C   14  dxy    Ryd( 3d)     0.00045
   207    C   14  dxz    Ryd( 3d)     0.00051
   208    C   14  dyz    Ryd( 3d)     0.00072
   209    C   14  dx2y2  Ryd( 3d)     0.00043
   210    C   14  dz2    Ryd( 3d)     0.00065
 
   211    C   15  S      Cor( 1S)     1.99910
   212    C   15  S      Val( 2S)     0.96535
   213    C   15  S      Ryd( 3S)     0.00053
   214    C   15  S      Ryd( 4S)     0.00003
   215    C   15  px     Val( 2p)     1.02532
   216    C   15  px     Ryd( 3p)     0.00152
   217    C   15  py     Val( 2p)     1.15514
   218    C   15  py     Ryd( 3p)     0.00426
   219    C   15  pz     Val( 2p)     1.06294
   220    C   15  pz     Ryd( 3p)     0.00433
   221    C   15  dxy    Ryd( 3d)     0.00056
   222    C   15  dxz    Ryd( 3d)     0.00054
   223    C   15  dyz    Ryd( 3d)     0.00060
   224    C   15  dx2y2  Ryd( 3d)     0.00046
   225    C   15  dz2    Ryd( 3d)     0.00063
 
   226    C   16  S      Cor( 1S)     1.99910
   227    C   16  S      Val( 2S)     0.96251
   228    C   16  S      Ryd( 3S)     0.00058
   229    C   16  S      Ryd( 4S)     0.00003
   230    C   16  px     Val( 2p)     1.00897
   231    C   16  px     Ryd( 3p)     0.00139
   232    C   16  py     Val( 2p)     1.07195
   233    C   16  py     Ryd( 3p)     0.00391
   234    C   16  pz     Val( 2p)     1.17285
   235    C   16  pz     Ryd( 3p)     0.00518
   236    C   16  dxy    Ryd( 3d)     0.00042
   237    C   16  dxz    Ryd( 3d)     0.00042
   238    C   16  dyz    Ryd( 3d)     0.00072
   239    C   16  dx2y2  Ryd( 3d)     0.00046
   240    C   16  dz2    Ryd( 3d)     0.00074
 
   241    C   17  S      Cor( 1S)     1.99903
   242    C   17  S      Val( 2S)     0.95752
   243    C   17  S      Ryd( 3S)     0.00062
   244    C   17  S      Ryd( 4S)     0.00004
   245    C   17  px     Val( 2p)     1.00666
   246    C   17  px     Ryd( 3p)     0.00154
   247    C   17  py     Val( 2p)     1.07921
   248    C   17  py     Ryd( 3p)     0.00359
   249    C   17  pz     Val( 2p)     1.15556
   250    C   17  pz     Ryd( 3p)     0.00480
   251    C   17  dxy    Ryd( 3d)     0.00046
   252    C   17  dxz    Ryd( 3d)     0.00051
   253    C   17  dyz    Ryd( 3d)     0.00074
   254    C   17  dx2y2  Ryd( 3d)     0.00044
   255    C   17  dz2    Ryd( 3d)     0.00064
 
   256    C   18  S      Cor( 1S)     1.99903
   257    C   18  S      Val( 2S)     0.95420
   258    C   18  S      Ryd( 3S)     0.00062
   259    C   18  S      Ryd( 4S)     0.00005
   260    C   18  px     Val( 2p)     0.99056
   261    C   18  px     Ryd( 3p)     0.00080
   262    C   18  py     Val( 2p)     1.08076
   263    C   18  py     Ryd( 3p)     0.00393
   264    C   18  pz     Val( 2p)     1.17402
   265    C   18  pz     Ryd( 3p)     0.00500
   266    C   18  dxy    Ryd( 3d)     0.00048
   267    C   18  dxz    Ryd( 3d)     0.00035
   268    C   18  dyz    Ryd( 3d)     0.00076
   269    C   18  dx2y2  Ryd( 3d)     0.00043
   270    C   18  dz2    Ryd( 3d)     0.00076
 
   271    C   19  S      Cor( 1S)     1.99910
   272    C   19  S      Val( 2S)     0.96157
   273    C   19  S      Ryd( 3S)     0.00058
   274    C   19  S      Ryd( 4S)     0.00003
   275    C   19  px     Val( 2p)     1.00601
   276    C   19  px     Ryd( 3p)     0.00089
   277    C   19  py     Val( 2p)     1.10185
   278    C   19  py     Ryd( 3p)     0.00452
   279    C   19  pz     Val( 2p)     1.14822
   280    C   19  pz     Ryd( 3p)     0.00505
   281    C   19  dxy    Ryd( 3d)     0.00045
   282    C   19  dxz    Ryd( 3d)     0.00044
   283    C   19  dyz    Ryd( 3d)     0.00082
   284    C   19  dx2y2  Ryd( 3d)     0.00043
   285    C   19  dz2    Ryd( 3d)     0.00062
 
   286    C   20  S      Cor( 1S)     1.99910
   287    C   20  S      Val( 2S)     0.96502
   288    C   20  S      Ryd( 3S)     0.00053
   289    C   20  S      Ryd( 4S)     0.00003
   290    C   20  px     Val( 2p)     0.99728
   291    C   20  px     Ryd( 3p)     0.00090
   292    C   20  py     Val( 2p)     1.18275
   293    C   20  py     Ryd( 3p)     0.00486
   294    C   20  pz     Val( 2p)     1.06520
   295    C   20  pz     Ryd( 3p)     0.00436
   296    C   20  dxy    Ryd( 3d)     0.00041
   297    C   20  dxz    Ryd( 3d)     0.00052
   298    C   20  dyz    Ryd( 3d)     0.00063
   299    C   20  dx2y2  Ryd( 3d)     0.00061
   300    C   20  dz2    Ryd( 3d)     0.00062
 
   301    C   21  S      Cor( 1S)     1.99910
   302    C   21  S      Val( 2S)     0.96235
   303    C   21  S      Ryd( 3S)     0.00058
   304    C   21  S      Ryd( 4S)     0.00003
   305    C   21  px     Val( 2p)     0.99777
   306    C   21  px     Ryd( 3p)     0.00083
   307    C   21  py     Val( 2p)     1.07637
   308    C   21  py     Ryd( 3p)     0.00440
   309    C   21  pz     Val( 2p)     1.17968
   310    C   21  pz     Ryd( 3p)     0.00522
   311    C   21  dxy    Ryd( 3d)     0.00046
   312    C   21  dxz    Ryd( 3d)     0.00037
   313    C   21  dyz    Ryd( 3d)     0.00073
   314    C   21  dx2y2  Ryd( 3d)     0.00043
   315    C   21  dz2    Ryd( 3d)     0.00078
 
   316    C   22  S      Cor( 1S)     1.99903
   317    C   22  S      Val( 2S)     0.95732
   318    C   22  S      Ryd( 3S)     0.00062
   319    C   22  S      Ryd( 4S)     0.00004
   320    C   22  px     Val( 2p)     0.98577
   321    C   22  px     Ryd( 3p)     0.00092
   322    C   22  py     Val( 2p)     1.10927
   323    C   22  py     Ryd( 3p)     0.00424
   324    C   22  pz     Val( 2p)     1.14695
   325    C   22  pz     Ryd( 3p)     0.00474
   326    C   22  dxy    Ryd( 3d)     0.00047
   327    C   22  dxz    Ryd( 3d)     0.00044
   328    C   22  dyz    Ryd( 3d)     0.00084
   329    C   22  dx2y2  Ryd( 3d)     0.00044
   330    C   22  dz2    Ryd( 3d)     0.00061
 
   331    H   23  S      Val( 1S)     0.75750
   332    H   23  S      Ryd( 2S)     0.00114
 
   333    H   24  S      Val( 1S)     0.75581
   334    H   24  S      Ryd( 2S)     0.00222
 
   335    H   25  S      Val( 1S)     0.75509
   336    H   25  S      Ryd( 2S)     0.00215
 
   337    H   26  S      Val( 1S)     0.75701
   338    H   26  S      Ryd( 2S)     0.00119
 
   339    H   27  S      Val( 1S)     0.76124
   340    H   27  S      Ryd( 2S)     0.00106
 
   341    H   28  S      Val( 1S)     0.75922
   342    H   28  S      Ryd( 2S)     0.00084
 
   343    H   29  S      Val( 1S)     0.76011
   344    H   29  S      Ryd( 2S)     0.00082
 
   345    H   30  S      Val( 1S)     0.75837
   346    H   30  S      Ryd( 2S)     0.00083
 
   347    H   31  S      Val( 1S)     0.74713
   348    H   31  S      Ryd( 2S)     0.00141
 
   349    H   32  S      Val( 1S)     0.76196
   350    H   32  S      Ryd( 2S)     0.00106
 
   351    H   33  S      Val( 1S)     0.75979
   352    H   33  S      Ryd( 2S)     0.00085
 
   353    H   34  S      Val( 1S)     0.76070
   354    H   34  S      Ryd( 2S)     0.00082
 
   355    H   35  S      Val( 1S)     0.75898
   356    H   35  S      Ryd( 2S)     0.00084
 
   357    H   36  S      Val( 1S)     0.74690
   358    H   36  S      Ryd( 2S)     0.00135


 Summary of Natural Population Analysis:                  
                                                          
                                       Natural Population 
                Natural  -----------------------------------------------
    Atom  No    Charge         Core      Valence    Rydberg      Total
 -----------------------------------------------------------------------
      C    1   -0.09126      1.99901     4.07776    0.01450     6.09126
      C    2   -0.12342      1.99912     4.10518    0.01912     6.12342
      O    3   -0.52299      1.99973     6.51099    0.01228     8.52299
      C    4    0.91862      1.99950     3.03156    0.05032     5.08138
      O    5   -0.55922      1.99977     6.53879    0.02066     8.55922
      N    6   -0.21745      1.99938     5.19165    0.02641     7.21745
      N    7   -0.21246      1.99938     5.18691    0.02618     7.21246
      C    8    0.92287      1.99950     3.02707    0.05056     5.07713
      O    9   -0.55193      1.99977     6.53153    0.02064     8.55193
      O   10   -0.52046      1.99973     6.50838    0.01235     8.52046
      C   11   -0.12515      1.99912     4.10703    0.01900     6.12515
      C   12   -0.09157      1.99901     4.07803    0.01454     6.09157
      C   13   -0.21102      1.99903     4.19881    0.01318     6.21102
      C   14   -0.23028      1.99910     4.21734    0.01384     6.23028
      C   15   -0.22132      1.99910     4.20875    0.01347     6.22132
      C   16   -0.22924      1.99910     4.21628    0.01386     6.22924
      C   17   -0.21137      1.99903     4.19895    0.01339     6.21137
      C   18   -0.21173      1.99903     4.19953    0.01317     6.21173
      C   19   -0.23057      1.99910     4.21764    0.01383     6.23057
      C   20   -0.22282      1.99910     4.21025    0.01347     6.22282
      C   21   -0.22911      1.99910     4.21618    0.01383     6.22911
      C   22   -0.21170      1.99903     4.19931    0.01335     6.21170
      H   23    0.24135      0.00000     0.75750    0.00114     0.75865
      H   24    0.24197      0.00000     0.75581    0.00222     0.75803
      H   25    0.24277      0.00000     0.75509    0.00215     0.75723
      H   26    0.24180      0.00000     0.75701    0.00119     0.75820
      H   27    0.23770      0.00000     0.76124    0.00106     0.76230
      H   28    0.23994      0.00000     0.75922    0.00084     0.76006
      H   29    0.23907      0.00000     0.76011    0.00082     0.76093
      H   30    0.24080      0.00000     0.75837    0.00083     0.75920
      H   31    0.25146      0.00000     0.74713    0.00141     0.74854
      H   32    0.23698      0.00000     0.76196    0.00106     0.76302
      H   33    0.23936      0.00000     0.75979    0.00085     0.76064
      H   34    0.23847      0.00000     0.76070    0.00082     0.76153
      H   35    0.24019      0.00000     0.75898    0.00084     0.75981
      H   36    0.25175      0.00000     0.74690    0.00135     0.74825
 =======================================================================
   * Total *   -0.00000     43.98374   111.57773    0.43853   156.00000

                                 Natural Population      
 --------------------------------------------------------
   Core                      43.98374 ( 99.9630% of  44)
   Valence                  111.57773 ( 99.6230% of 112)
   Natural Minimal Basis    155.56147 ( 99.7189% of 156)
   Natural Rydberg Basis      0.43853 (  0.2811% of 156)
 --------------------------------------------------------

    Atom  No          Natural Electron Configuration
 ----------------------------------------------------------------------------
      C    1      [core]2S( 0.89)2p( 3.19)3p( 0.01)
      C    2      [core]2S( 1.03)2p( 3.07)3p( 0.01)3d( 0.01)
      O    3      [core]2S( 1.63)2p( 4.88)3d( 0.01)
      C    4      [core]2S( 0.73)2p( 2.30)3p( 0.03)3d( 0.01)
      O    5      [core]2S( 1.71)2p( 4.83)3d( 0.02)
      N    6      [core]2S( 1.39)2p( 3.80)3S( 0.01)3p( 0.01)3d( 0.01)
      N    7      [core]2S( 1.39)2p( 3.80)3S( 0.01)3p( 0.01)3d( 0.01)
      C    8      [core]2S( 0.73)2p( 2.30)3p( 0.03)3d( 0.01)
      O    9      [core]2S( 1.71)2p( 4.82)3d( 0.02)
      O   10      [core]2S( 1.63)2p( 4.88)3d( 0.01)
      C   11      [core]2S( 1.03)2p( 3.07)3p( 0.01)3d( 0.01)
      C   12      [core]2S( 0.89)2p( 3.19)3p( 0.01)
      C   13      [core]2S( 0.95)2p( 3.24)3p( 0.01)
      C   14      [core]2S( 0.96)2p( 3.26)3p( 0.01)
      C   15      [core]2S( 0.97)2p( 3.24)3p( 0.01)
      C   16      [core]2S( 0.96)2p( 3.25)3p( 0.01)
      C   17      [core]2S( 0.96)2p( 3.24)3p( 0.01)
      C   18      [core]2S( 0.95)2p( 3.25)3p( 0.01)
      C   19      [core]2S( 0.96)2p( 3.26)3p( 0.01)
      C   20      [core]2S( 0.97)2p( 3.25)3p( 0.01)
      C   21      [core]2S( 0.96)2p( 3.25)3p( 0.01)
      C   22      [core]2S( 0.96)2p( 3.24)3p( 0.01)
      H   23            1S( 0.76)
      H   24            1S( 0.76)
      H   25            1S( 0.76)
      H   26            1S( 0.76)
      H   27            1S( 0.76)
      H   28            1S( 0.76)
      H   29            1S( 0.76)
      H   30            1S( 0.76)
      H   31            1S( 0.75)
      H   32            1S( 0.76)
      H   33            1S( 0.76)
      H   34            1S( 0.76)
      H   35            1S( 0.76)
      H   36            1S( 0.75)


 NBO analysis skipped by request.
 1\1\GINC-DELLA-R1C4N14\SP\RB3LYP TD-FC\6-31G(d)\C16H14N2O4\BJS4\22-Aug
 -2020\0\\# TD(NStates=10, Root=1) B3LYP/6-31G* scf=qc volume pop=NPA d
 ensity=current Geom=AllCheck Guess=Read\\Title Card Required\\0,1\C,0,
 -4.2582472716,-1.1392941094,-1.7256492938\C,0,-3.6373205293,-0.4400511
 159,-0.5461510932\O,0,-4.0833022384,0.9546881762,-0.444871584\C,0,-5.1
 694046515,1.173951592,0.2902660264\O,0,-5.8406282636,0.3727927371,0.89
 2891513\N,0,-5.4227628539,2.5959072842,0.4122012821\N,0,-5.8817221336,
 3.0984618885,-0.6306368528\C,0,-6.1316760574,4.5202765282,-0.510892415
 5\O,0,-5.3725983619,5.3307998837,-0.9819569398\O,0,-7.3080390879,4.729
 0280133,0.0722861759\C,0,-7.7660341678,6.1226561854,0.1375002592\C,0,-
 8.5747222248,6.4986013932,-1.0750177076\C,0,-9.956600862,6.2711202597,
 -1.0984816406\C,0,-10.7109931889,6.6075456862,-2.2221166593\C,0,-10.08
 80642703,7.1766324204,-3.3347969569\C,0,-8.710790976,7.406570085,-3.31
 99416043\C,0,-7.9566121812,7.0693781606,-2.1960087277\C,0,-3.639780921
 9,-1.085729036,-2.9810717478\C,0,-4.2125294955,-1.7242617384,-4.080672
 3752\C,0,-5.4115786408,-2.4244204518,-3.933167379\C,0,-6.0349424588,-2
 .4825427716,-2.6849187973\C,0,-5.4620864507,-1.8430520077,-1.585659017
 \H,0,-2.5552725978,-0.3507485334,-0.6553019937\H,0,-3.8760365396,-0.93
 8357634,0.3952989253\H,0,-6.8894634231,6.7610783717,0.2585593489\H,0,-
 8.3684118637,6.1450677862,1.0469529202\H,0,-10.4424174037,5.8293695471
 ,-0.2313825775\H,0,-11.7827818016,6.4288440698,-2.2283321529\H,0,-10.6
 748965805,7.4420132969,-4.2101457483\H,0,-8.2230320837,7.8502148949,-4
 .1836331948\H,0,-6.8836146466,7.2371254081,-2.1850506469\H,0,-2.705253
 0548,-0.541312448,-3.0961197626\H,0,-3.7230423683,-1.6776219235,-5.049
 6434367\H,0,-5.8579519415,-2.9247764662,-4.7884093653\H,0,-6.967659762
 3,-3.0272585521,-2.5664771565\H,0,-5.9498086451,-1.8768368804,-0.61584
 9624\\Version=ES64L-G16RevA.03\State=1-A\HF=-1028.4826391\RMSD=4.689e-
 13\Dipole=-0.3867926,0.0211513,-0.6181705\Quadrupole=1.5840361,2.68668
 91,-4.2707252,-10.133126,0.5744361,4.1427053\PG=C01 [X(C16H14N2O4)]\\@


 The arm of the moral universe is long, but it bends toward justice.
 -- Martin Luther King, Jr.
 Job cpu time:       0 days  0 hours 51 minutes  8.7 seconds.
 Elapsed time:       0 days  0 hours 10 minutes 23.3 seconds.
 File lengths (MBytes):  RWF=   1047 Int=      0 D2E=      0 Chk=    268 Scr=      1
 Normal termination of Gaussian 16 at Sat Aug 22 19:01:30 2020.
