 Entering Gaussian System, Link 0=g16
 Input=azadicarboxylate_2_conf12123.com
 Output=azadicarboxylate_2_conf12123.log
 Initial command:
 /opt/export//g16/l1.exe "/scratch/bjs4/job.31941/Gau-31943.inp" -scrdir="/scratch/bjs4/job.31941/"
 Entering Link 1 = /opt/export//g16/l1.exe PID=     31945.
  
 Copyright (c) 1988,1990,1992,1993,1995,1998,2003,2009,2016,
            Gaussian, Inc.  All Rights Reserved.
  
 This is part of the Gaussian(R) 16 program.  It is based on
 the Gaussian(R) 09 system (copyright 2009, Gaussian, Inc.),
 the Gaussian(R) 03 system (copyright 2003, Gaussian, Inc.),
 the Gaussian(R) 98 system (copyright 1998, Gaussian, Inc.),
 the Gaussian(R) 94 system (copyright 1995, Gaussian, Inc.),
 the Gaussian 92(TM) system (copyright 1992, Gaussian, Inc.),
 the Gaussian 90(TM) system (copyright 1990, Gaussian, Inc.),
 the Gaussian 88(TM) system (copyright 1988, Gaussian, Inc.),
 the Gaussian 86(TM) system (copyright 1986, Carnegie Mellon
 University), and the Gaussian 82(TM) system (copyright 1983,
 Carnegie Mellon University). Gaussian is a federally registered
 trademark of Gaussian, Inc.
  
 This software contains proprietary and confidential information,
 including trade secrets, belonging to Gaussian, Inc.
  
 This software is provided under written license and may be
 used, copied, transmitted, or stored only in accord with that
 written license.
  
 The following legend is applicable only to US Government
 contracts under FAR:
  
                    RESTRICTED RIGHTS LEGEND
  
 Use, reproduction and disclosure by the US Government is
 subject to restrictions as set forth in subparagraphs (a)
 and (c) of the Commercial Computer Software - Restricted
 Rights clause in FAR 52.227-19.
  
 Gaussian, Inc.
 340 Quinnipiac St., Bldg. 40, Wallingford CT 06492
  
  
 ---------------------------------------------------------------
 Warning -- This program may not be used in any manner that
 competes with the business of Gaussian, Inc. or will provide
 assistance to any competitor of Gaussian, Inc.  The licensee
 of this program is prohibited from giving any competitor of
 Gaussian, Inc. access to this program.  By using this program,
 the user acknowledges that Gaussian, Inc. is engaged in the
 business of creating and licensing software in the field of
 computational chemistry and represents and warrants to the
 licensee that it is not a competitor of Gaussian, Inc. and that
 it will not use this program in any manner prohibited above.
 ---------------------------------------------------------------
  

 Cite this work as:
 Gaussian 16, Revision A.03,
 M. J. Frisch, G. W. Trucks, H. B. Schlegel, G. E. Scuseria, 
 M. A. Robb, J. R. Cheeseman, G. Scalmani, V. Barone, 
 G. A. Petersson, H. Nakatsuji, X. Li, M. Caricato, A. V. Marenich, 
 J. Bloino, B. G. Janesko, R. Gomperts, B. Mennucci, H. P. Hratchian, 
 J. V. Ortiz, A. F. Izmaylov, J. L. Sonnenberg, D. Williams-Young, 
 F. Ding, F. Lipparini, F. Egidi, J. Goings, B. Peng, A. Petrone, 
 T. Henderson, D. Ranasinghe, V. G. Zakrzewski, J. Gao, N. Rega, 
 G. Zheng, W. Liang, M. Hada, M. Ehara, K. Toyota, R. Fukuda, 
 J. Hasegawa, M. Ishida, T. Nakajima, Y. Honda, O. Kitao, H. Nakai, 
 T. Vreven, K. Throssell, J. A. Montgomery, Jr., J. E. Peralta, 
 F. Ogliaro, M. J. Bearpark, J. J. Heyd, E. N. Brothers, K. N. Kudin, 
 V. N. Staroverov, T. A. Keith, R. Kobayashi, J. Normand, 
 K. Raghavachari, A. P. Rendell, J. C. Burant, S. S. Iyengar, 
 J. Tomasi, M. Cossi, J. M. Millam, M. Klene, C. Adamo, R. Cammi, 
 J. W. Ochterski, R. L. Martin, K. Morokuma, O. Farkas, 
 J. B. Foresman, and D. J. Fox, Gaussian, Inc., Wallingford CT, 2016.
 
 ******************************************
 Gaussian 16:  ES64L-G16RevA.03 25-Dec-2016
                22-Aug-2020 
 ******************************************
 %nprocshared=4
 Will use up to    4 processors via shared memory.
 %Mem=8GB
 %Chk=azadicarboxylate_2_conf121.chk
 ---------------------------------
 # opt=CalcAll B3LYP/6-31G* scf=qc
 ---------------------------------
 1/10=4,18=20,19=15,26=3,38=1/1,3;
 2/9=110,12=2,17=6,18=5,40=1/2;
 3/5=1,6=6,7=1,11=2,25=1,30=1,71=2,74=-5,140=1/1,2,3;
 4//1;
 5/5=2,8=3,38=5/8;
 8/6=4,10=90,11=11/1;
 11/6=1,8=1,9=11,15=111,16=1/1,2,10;
 10/6=1/2;
 6/7=2,8=2,9=2,10=2,18=1,28=1/1;
 7/10=1,25=1/1,2,3,16;
 1/10=4,18=20,19=15,26=3/3(3);
 2/9=110/2;
 7/8=1,9=1,25=1,44=-1/16;
 99//99;
 2/9=110/2;
 3/5=1,6=6,7=1,11=2,25=1,30=1,71=2,74=-5,140=1/1,2,3;
 4/5=5,16=3,69=1/1;
 5/5=2,8=3,38=5/8;
 8/6=4,10=90,11=11/1;
 11/6=1,8=1,9=11,15=111,16=1/1,2,10;
 10/6=1/2;
 7/10=1,25=1/1,2,3,16;
 1/10=4,18=20,19=15,26=3/3(-8);
 2/9=110/2;
 6/7=2,8=2,9=2,10=2,18=1,19=2,28=1/1;
 7/8=1,9=1,25=1,44=-1/16;
 99//99;
 -------------------
 Title Card Required
 -------------------
 Symbolic Z-matrix:
 Charge =  0 Multiplicity = 1
 C                     2.67081  -0.74156  -0.01654 
 C                     3.09947   0.70914  -0.21277 
 C                     1.91771   1.54669  -0.69134 
 O1                    3.55044   1.25981   1.03922 
 C2                    4.6047    0.6255    1.633 
 O3                    5.16011  -0.35896   1.1563 
 N4                    4.9196    1.2612    2.8145 
 N5                    6.1396    1.1728    3.0913 
 C6                    6.4621    1.8155    4.2661 
 O7                    7.53076   2.34845   4.54557 
 O8                    5.39061   1.77741   5.11378 
 C                     5.56673   2.4091    6.39586 
 C                     6.32097   1.4747    7.33639 
 C                     6.36516   3.68933   6.1733 
 H                     2.28977  -1.1699   -0.94893 
 H                     1.89109  -0.818     0.74925 
 H                     3.50854  -1.35668   0.32586 
 H                     3.894     0.77591  -0.96635 
 H                     1.11358   1.55809   0.05292 
 H                     1.51509   1.16262  -1.63452 
 H                     2.22184   2.5879   -0.84335 
 H                     4.5942    2.68113   6.82382 
 H                     7.27696   1.16752   6.89839 
 H                     5.75074   0.55845   7.5199 
 H                     6.51473   1.95599   8.29982 
 H                     7.33234   3.47524   5.70427 
 H                     6.54388   4.21483   7.11714 
 H                     5.82892   4.36331   5.497 
 

 GradGradGradGradGradGradGradGradGradGradGradGradGradGradGradGradGradGrad
 Berny optimization.
 Initialization pass.
                           ----------------------------
                           !    Initial Parameters    !
                           ! (Angstroms and Degrees)  !
 --------------------------                            --------------------------
 ! Name  Definition              Value          Derivative Info.                !
 --------------------------------------------------------------------------------
 ! R1    R(1,2)                  1.5254         calculate D2E/DX2 analytically  !
 ! R2    R(1,15)                 1.0945         calculate D2E/DX2 analytically  !
 ! R3    R(1,16)                 1.0956         calculate D2E/DX2 analytically  !
 ! R4    R(1,17)                 1.0943         calculate D2E/DX2 analytically  !
 ! R5    R(2,3)                  1.5255         calculate D2E/DX2 analytically  !
 ! R6    R(2,4)                  1.4402         calculate D2E/DX2 analytically  !
 ! R7    R(2,18)                 1.0971         calculate D2E/DX2 analytically  !
 ! R8    R(3,19)                 1.0958         calculate D2E/DX2 analytically  !
 ! R9    R(3,20)                 1.0951         calculate D2E/DX2 analytically  !
 ! R10   R(3,21)                 1.0953         calculate D2E/DX2 analytically  !
 ! R11   R(4,5)                  1.3662         calculate D2E/DX2 analytically  !
 ! R12   R(5,6)                  1.2267         calculate D2E/DX2 analytically  !
 ! R13   R(5,7)                  1.3781         calculate D2E/DX2 analytically  !
 ! R14   R(7,8)                  1.2541         calculate D2E/DX2 analytically  !
 ! R15   R(8,9)                  1.3774         calculate D2E/DX2 analytically  !
 ! R16   R(9,10)                 1.2264         calculate D2E/DX2 analytically  !
 ! R17   R(9,11)                 1.3668         calculate D2E/DX2 analytically  !
 ! R18   R(11,12)                1.4401         calculate D2E/DX2 analytically  !
 ! R19   R(12,13)                1.5253         calculate D2E/DX2 analytically  !
 ! R20   R(12,14)                1.5251         calculate D2E/DX2 analytically  !
 ! R21   R(12,22)                1.0968         calculate D2E/DX2 analytically  !
 ! R22   R(13,23)                1.0955         calculate D2E/DX2 analytically  !
 ! R23   R(13,24)                1.0947         calculate D2E/DX2 analytically  !
 ! R24   R(13,25)                1.0942         calculate D2E/DX2 analytically  !
 ! R25   R(14,26)                1.096          calculate D2E/DX2 analytically  !
 ! R26   R(14,27)                1.095          calculate D2E/DX2 analytically  !
 ! R27   R(14,28)                1.0951         calculate D2E/DX2 analytically  !
 ! A1    A(2,1,15)             111.1265         calculate D2E/DX2 analytically  !
 ! A2    A(2,1,16)             110.8721         calculate D2E/DX2 analytically  !
 ! A3    A(2,1,17)             111.0834         calculate D2E/DX2 analytically  !
 ! A4    A(15,1,16)            108.6855         calculate D2E/DX2 analytically  !
 ! A5    A(15,1,17)            108.2449         calculate D2E/DX2 analytically  !
 ! A6    A(16,1,17)            106.6738         calculate D2E/DX2 analytically  !
 ! A7    A(1,2,3)              110.1708         calculate D2E/DX2 analytically  !
 ! A8    A(1,2,4)              109.8651         calculate D2E/DX2 analytically  !
 ! A9    A(1,2,18)             110.4727         calculate D2E/DX2 analytically  !
 ! A10   A(3,2,4)              107.7807         calculate D2E/DX2 analytically  !
 ! A11   A(3,2,18)             108.1877         calculate D2E/DX2 analytically  !
 ! A12   A(4,2,18)             110.3092         calculate D2E/DX2 analytically  !
 ! A13   A(2,3,19)             111.17           calculate D2E/DX2 analytically  !
 ! A14   A(2,3,20)             111.2515         calculate D2E/DX2 analytically  !
 ! A15   A(2,3,21)             110.5091         calculate D2E/DX2 analytically  !
 ! A16   A(19,3,20)            108.5929         calculate D2E/DX2 analytically  !
 ! A17   A(19,3,21)            106.7466         calculate D2E/DX2 analytically  !
 ! A18   A(20,3,21)            108.4184         calculate D2E/DX2 analytically  !
 ! A19   A(2,4,5)              116.2288         calculate D2E/DX2 analytically  !
 ! A20   A(4,5,6)              123.5797         calculate D2E/DX2 analytically  !
 ! A21   A(4,5,7)              109.5593         calculate D2E/DX2 analytically  !
 ! A22   A(6,5,7)              126.8609         calculate D2E/DX2 analytically  !
 ! A23   A(5,7,8)              112.2711         calculate D2E/DX2 analytically  !
 ! A24   A(7,8,9)              112.5273         calculate D2E/DX2 analytically  !
 ! A25   A(8,9,10)             126.9508         calculate D2E/DX2 analytically  !
 ! A26   A(8,9,11)             109.4158         calculate D2E/DX2 analytically  !
 ! A27   A(10,9,11)            123.6333         calculate D2E/DX2 analytically  !
 ! A28   A(9,11,12)            116.3631         calculate D2E/DX2 analytically  !
 ! A29   A(11,12,13)           109.9211         calculate D2E/DX2 analytically  !
 ! A30   A(11,12,14)           107.5973         calculate D2E/DX2 analytically  !
 ! A31   A(11,12,22)           110.349          calculate D2E/DX2 analytically  !
 ! A32   A(13,12,14)           110.2026         calculate D2E/DX2 analytically  !
 ! A33   A(13,12,22)           110.4749         calculate D2E/DX2 analytically  !
 ! A34   A(14,12,22)           108.2369         calculate D2E/DX2 analytically  !
 ! A35   A(12,13,23)           110.9008         calculate D2E/DX2 analytically  !
 ! A36   A(12,13,24)           111.0098         calculate D2E/DX2 analytically  !
 ! A37   A(12,13,25)           111.1625         calculate D2E/DX2 analytically  !
 ! A38   A(23,13,24)           106.6723         calculate D2E/DX2 analytically  !
 ! A39   A(23,13,25)           108.713          calculate D2E/DX2 analytically  !
 ! A40   A(24,13,25)           108.227          calculate D2E/DX2 analytically  !
 ! A41   A(12,14,26)           111.1282         calculate D2E/DX2 analytically  !
 ! A42   A(12,14,27)           111.2553         calculate D2E/DX2 analytically  !
 ! A43   A(12,14,28)           110.512          calculate D2E/DX2 analytically  !
 ! A44   A(26,14,27)           108.5778         calculate D2E/DX2 analytically  !
 ! A45   A(26,14,28)           106.7415         calculate D2E/DX2 analytically  !
 ! A46   A(27,14,28)           108.4755         calculate D2E/DX2 analytically  !
 ! D1    D(15,1,2,3)            59.351          calculate D2E/DX2 analytically  !
 ! D2    D(15,1,2,4)           177.9473         calculate D2E/DX2 analytically  !
 ! D3    D(15,1,2,18)          -60.1271         calculate D2E/DX2 analytically  !
 ! D4    D(16,1,2,3)           -61.6408         calculate D2E/DX2 analytically  !
 ! D5    D(16,1,2,4)            56.9556         calculate D2E/DX2 analytically  !
 ! D6    D(16,1,2,18)          178.8812         calculate D2E/DX2 analytically  !
 ! D7    D(17,1,2,3)           179.9276         calculate D2E/DX2 analytically  !
 ! D8    D(17,1,2,4)           -61.4761         calculate D2E/DX2 analytically  !
 ! D9    D(17,1,2,18)           60.4495         calculate D2E/DX2 analytically  !
 ! D10   D(1,2,3,19)            62.2            calculate D2E/DX2 analytically  !
 ! D11   D(1,2,3,20)           -58.9632         calculate D2E/DX2 analytically  !
 ! D12   D(1,2,3,21)          -179.4557         calculate D2E/DX2 analytically  !
 ! D13   D(4,2,3,19)           -57.6661         calculate D2E/DX2 analytically  !
 ! D14   D(4,2,3,20)          -178.8293         calculate D2E/DX2 analytically  !
 ! D15   D(4,2,3,21)            60.6782         calculate D2E/DX2 analytically  !
 ! D16   D(18,2,3,19)         -176.9428         calculate D2E/DX2 analytically  !
 ! D17   D(18,2,3,20)           61.894          calculate D2E/DX2 analytically  !
 ! D18   D(18,2,3,21)          -58.5985         calculate D2E/DX2 analytically  !
 ! D19   D(1,2,4,5)             59.2938         calculate D2E/DX2 analytically  !
 ! D20   D(3,2,4,5)            179.3531         calculate D2E/DX2 analytically  !
 ! D21   D(18,2,4,5)           -62.7292         calculate D2E/DX2 analytically  !
 ! D22   D(2,4,5,6)              0.0            calculate D2E/DX2 analytically  !
 ! D23   D(2,4,5,7)           -179.95           calculate D2E/DX2 analytically  !
 ! D24   D(4,5,7,8)           -149.6471         calculate D2E/DX2 analytically  !
 ! D25   D(6,5,7,8)             30.405          calculate D2E/DX2 analytically  !
 ! D26   D(5,7,8,9)            179.5215         calculate D2E/DX2 analytically  !
 ! D27   D(7,8,9,10)          -149.6471         calculate D2E/DX2 analytically  !
 ! D28   D(7,8,9,11)            30.4348         calculate D2E/DX2 analytically  !
 ! D29   D(8,9,11,12)          179.9217         calculate D2E/DX2 analytically  !
 ! D30   D(10,9,11,12)           0.0003         calculate D2E/DX2 analytically  !
 ! D31   D(9,11,12,13)         -80.4709         calculate D2E/DX2 analytically  !
 ! D32   D(9,11,12,14)          39.5487         calculate D2E/DX2 analytically  !
 ! D33   D(9,11,12,22)         157.4399         calculate D2E/DX2 analytically  !
 ! D34   D(11,12,13,23)         55.7917         calculate D2E/DX2 analytically  !
 ! D35   D(11,12,13,24)        -62.6094         calculate D2E/DX2 analytically  !
 ! D36   D(11,12,13,25)        176.8623         calculate D2E/DX2 analytically  !
 ! D37   D(14,12,13,23)        -62.6333         calculate D2E/DX2 analytically  !
 ! D38   D(14,12,13,24)        178.9657         calculate D2E/DX2 analytically  !
 ! D39   D(14,12,13,25)         58.4374         calculate D2E/DX2 analytically  !
 ! D40   D(22,12,13,23)        177.8059         calculate D2E/DX2 analytically  !
 ! D41   D(22,12,13,24)         59.4049         calculate D2E/DX2 analytically  !
 ! D42   D(22,12,13,25)        -61.1234         calculate D2E/DX2 analytically  !
 ! D43   D(11,12,14,26)        -58.2609         calculate D2E/DX2 analytically  !
 ! D44   D(11,12,14,27)       -179.3787         calculate D2E/DX2 analytically  !
 ! D45   D(11,12,14,28)         60.0523         calculate D2E/DX2 analytically  !
 ! D46   D(13,12,14,26)         61.5802         calculate D2E/DX2 analytically  !
 ! D47   D(13,12,14,27)        -59.5375         calculate D2E/DX2 analytically  !
 ! D48   D(13,12,14,28)        179.8935         calculate D2E/DX2 analytically  !
 ! D49   D(22,12,14,26)       -177.5099         calculate D2E/DX2 analytically  !
 ! D50   D(22,12,14,27)         61.3723         calculate D2E/DX2 analytically  !
 ! D51   D(22,12,14,28)        -59.1967         calculate D2E/DX2 analytically  !
 --------------------------------------------------------------------------------
 Trust Radius=3.00D-01 FncErr=1.00D-07 GrdErr=1.00D-06 EigMax=2.50D+02 EigMin=1.00D-04
 Number of steps in this run=    134 maximum allowed number of steps=    168.
 GradGradGradGradGradGradGradGradGradGradGradGradGradGradGradGradGradGrad

                          Input orientation:                          
 ---------------------------------------------------------------------
 Center     Atomic      Atomic             Coordinates (Angstroms)
 Number     Number       Type             X           Y           Z
 ---------------------------------------------------------------------
      1          6           0        2.670810   -0.741560   -0.016540
      2          6           0        3.099470    0.709140   -0.212770
      3          6           0        1.917710    1.546690   -0.691340
      4          8           0        3.550440    1.259810    1.039220
      5          6           0        4.604700    0.625500    1.633000
      6          8           0        5.160110   -0.358960    1.156300
      7          7           0        4.919600    1.261200    2.814500
      8          7           0        6.139600    1.172800    3.091300
      9          6           0        6.462100    1.815500    4.266100
     10          8           0        7.530760    2.348450    4.545570
     11          8           0        5.390610    1.777410    5.113780
     12          6           0        5.566730    2.409100    6.395860
     13          6           0        6.320970    1.474700    7.336390
     14          6           0        6.365160    3.689330    6.173300
     15          1           0        2.289770   -1.169900   -0.948930
     16          1           0        1.891090   -0.818000    0.749250
     17          1           0        3.508540   -1.356680    0.325860
     18          1           0        3.894000    0.775910   -0.966350
     19          1           0        1.113580    1.558090    0.052920
     20          1           0        1.515090    1.162620   -1.634520
     21          1           0        2.221840    2.587900   -0.843350
     22          1           0        4.594200    2.681130    6.823820
     23          1           0        7.276960    1.167520    6.898390
     24          1           0        5.750740    0.558450    7.519900
     25          1           0        6.514730    1.955990    8.299820
     26          1           0        7.332340    3.475240    5.704270
     27          1           0        6.543880    4.214830    7.117140
     28          1           0        5.828920    4.363310    5.497000
 ---------------------------------------------------------------------
                    Distance matrix (angstroms):
                    1          2          3          4          5
     1  C    0.000000
     2  C    1.525381   0.000000
     3  C    2.501720   1.525476   0.000000
     4  O    2.427727   1.440170   2.396444   0.000000
     5  C    2.886133   2.383187   3.670295   1.366158   0.000000
     6  O    2.778228   2.694704   4.190278   2.285861   1.226737
     7  N    4.133145   3.575193   4.624258   2.241923   1.378121
     8  N    5.035469   4.513784   5.680890   3.304898   2.186800
     9  C    6.265257   5.708904   6.730524   4.381702   3.435004
    10  O    7.347117   6.705630   7.718444   5.415032   4.473639
    11  O    6.329511   5.895987   6.768581   4.500686   3.749717
    12  C    7.709208   7.256116   8.017949   5.837798   5.176057
    13  C    8.503003   8.243419   9.156327   6.883049   6.016260
    14  C    8.461390   7.767120   8.455412   6.339085   5.753312
    15  H    1.094540   2.174474   2.754023   3.383123   3.904962
    16  H    1.095555   2.172055   2.769073   2.674849   3.198185
    17  H    1.094259   2.173723   3.463379   2.712316   2.615190
    18  H    2.168190   1.097096   2.139031   2.091531   2.698951
    19  H    2.778161   2.176021   1.095755   2.645760   3.943893
    20  H    2.753080   2.176529   1.095080   3.361693   4.528893
    21  H    3.459840   2.167396   1.095317   2.659525   3.957442
    22  H    7.886999   7.458992   8.057803   6.047411   5.583040
    23  H    8.525108   8.260153   9.298889   6.944447   5.929510
    24  H    8.244630   8.175948   9.115547   6.879857   5.997791
    25  H    9.550620   9.256502  10.106487   7.873245   7.061509
    26  H    8.499349   7.783306   8.598916   6.401062   5.668887
    27  H    9.510829   8.825044   9.460062   7.391477   6.835166
    28  H    8.150612   7.307827   7.843881   5.890245   5.513659
                    6          7          8          9         10
     6  O    0.000000
     7  N    2.330749   0.000000
     8  N    2.655167   1.254126   0.000000
     9  C    4.011771   2.189451   1.377398   0.000000
    10  O    4.943400   3.316153   2.330747   1.226447   0.000000
    11  O    4.503205   2.403125   2.239858   1.366786   2.286743
    12  C    5.939738   3.816096   3.574456   2.385357   2.699012
    13  C    6.550070   4.738872   4.259675   3.092369   3.164760
    14  C    6.558284   4.389419   3.985289   2.675453   2.409582
    15  H    3.650818   5.195157   6.052511   7.315565   8.368769
    16  H    3.326094   4.214286   5.243884   6.340165   7.499622
    17  H    2.100657   3.877849   4.579127   5.857622   6.907401
    18  H    2.719670   3.947428   4.654542   5.920677   6.788237
    19  H    4.611609   4.711715   5.885667   6.813502   7.873295
    20  H    4.836326   5.603051   6.612078   7.727644   8.705630
    21  H    4.616927   4.734755   5.729993   6.684526   7.568515
    22  H    6.456252   4.265763   4.312195   3.283336   3.731552
    23  H    6.307360   4.716363   3.973355   2.830693   2.644763
    24  H    6.456461   4.829642   4.487888   3.559975   3.901181
    25  H    7.630457   5.754642   5.280416   4.036509   3.909058
    26  H    6.332749   4.367386   3.681232   2.362284   1.628377
    27  H    7.639764   5.465796   5.062092   3.727184   3.327203
    28  H    6.448939   4.200685   4.007901   2.899546   2.803772
                   11         12         13         14         15
    11  O    0.000000
    12  C    1.440062   0.000000
    13  C    2.428415   1.525312   0.000000
    14  C    2.393276   1.525127   2.501863   0.000000
    15  H    7.420128   8.803048   9.585980   9.536618   0.000000
    16  H    6.167002   7.470523   8.262610   8.351865   1.779493
    17  H    6.024026   7.433851   8.066846   8.234989   1.773521
    18  H    6.341201   7.724472   8.678363   8.097484   2.521911
    19  H    6.629735   7.796644   8.953926   8.341482   3.135132
    20  H    7.806227   9.080556  10.181901   9.532549   2.551629
    21  H    6.795984   7.976617   9.216845   8.222751   3.759897
    22  H    2.091702   1.096797   2.167934   2.139145   8.975326
    23  H    2.667417   2.172313   1.095500   2.777888   9.587285
    24  H    2.721208   2.173069   1.094693   3.463128   9.310563
    25  H    3.383251   2.174644   1.094249   2.747531  10.637709
    26  H    2.646058   2.175392   2.772877   1.096020   9.553529
    27  H    3.359241   2.176173   2.757911   1.094954  10.590291
    28  H    2.650632   2.166940   3.459702   1.095073   9.202826
                   16         17         18         19         20
    16  H    0.000000
    17  H    1.756582   0.000000
    18  H    3.081474   2.523158   0.000000
    19  H    2.595227   3.782356   3.062916   0.000000
    20  H    3.121953   3.763483   2.501041   1.779062   0.000000
    21  H    3.774377   4.310726   2.468715   1.758422   1.776758
    22  H    7.513396   7.726969   8.050273   7.695520   9.128544
    23  H    8.412004   7.985657   8.570409   9.219558  10.296102
    24  H    7.914115   7.774921   8.689719   8.846373  10.104908
    25  H    9.278156   9.143030   9.701687   9.866210  11.149751
    26  H    8.520055   8.179009   7.975320   8.618944   9.646059
    27  H    9.355632   9.293896   9.175557   9.297829  10.544964
    28  H    8.055657   8.052524   7.641220   7.729275   8.928165
                   21         22         23         24         25
    21  H    0.000000
    22  H    8.026349   0.000000
    23  H    9.354478   3.081197   0.000000
    24  H    9.301384   2.515528   1.756869   0.000000
    25  H   10.120562   2.528407   1.779518   1.773436   0.000000
    26  H    8.353198   3.062909   2.598954   3.782279   3.116647
    27  H    9.203061   2.497904   3.141871   3.763031   2.549890
    28  H    7.507539   2.472795   3.778067   4.309895   3.757835
                   26         27         28
    26  H    0.000000
    27  H    1.779007   0.000000
    28  H    1.758380   1.777095   0.000000
 Stoichiometry    C8H14N2O4
 Framework group  C1[X(C8H14N2O4)]
 Deg. of freedom    78
 Full point group                 C1      NOp   1
 Largest Abelian subgroup         C1      NOp   1
 Largest concise Abelian subgroup C1      NOp   1
                         Standard orientation:                         
 ---------------------------------------------------------------------
 Center     Atomic      Atomic             Coordinates (Angstroms)
 Number     Number       Type             X           Y           Z
 ---------------------------------------------------------------------
      1          6           0       -4.204016   -0.530652    1.024375
      2          6           0       -3.790204    0.271684   -0.205179
      3          6           0       -4.532191    1.604146   -0.237980
      4          8           0       -2.379205    0.555207   -0.152415
      5          6           0       -1.547262   -0.527307   -0.103195
      6          8           0       -1.943690   -1.688224   -0.102349
      7          7           0       -0.237633   -0.100911   -0.055452
      8          7           0        0.547157   -0.914276   -0.598936
      9          6           0        1.856537   -0.488255   -0.563500
     10          8           0        2.733958   -0.733046   -1.384709
     11          8           0        2.056683    0.272616    0.554140
     12          6           0        3.384709    0.797126    0.741264
     13          6           0        4.289621   -0.278466    1.333559
     14          6           0        3.906088    1.230353   -0.624931
     15          1           0       -5.280848   -0.726734    1.023430
     16          1           0       -3.945495    0.004405    1.944767
     17          1           0       -3.680944   -1.491058    1.062053
     18          1           0       -4.033975   -0.278680   -1.122400
     19          1           0       -4.280462    2.218813    0.633510
     20          1           0       -5.616764    1.454129   -0.257902
     21          1           0       -4.246266    2.180890   -1.124171
     22          1           0        3.358311    1.678309    1.393786
     23          1           0        4.290623   -1.176975    0.706820
     24          1           0        3.937461   -0.586307    2.323291
     25          1           0        5.318212    0.081407    1.432920
     26          1           0        3.910418    0.391496   -1.330311
     27          1           0        4.922584    1.630978   -0.553093
     28          1           0        3.258817    2.001450   -1.055785
 ---------------------------------------------------------------------
 Rotational constants (GHZ):           1.8066413           0.2571569           0.2502652
 Standard basis: 6-31G(d) (6D, 7F)
 There are   238 symmetry adapted cartesian basis functions of A   symmetry.
 There are   238 symmetry adapted basis functions of A   symmetry.
   238 basis functions,   448 primitive gaussians,   238 cartesian basis functions
    54 alpha electrons       54 beta electrons
       nuclear repulsion energy       923.4037683678 Hartrees.
 NAtoms=   28 NActive=   28 NUniq=   28 SFac= 1.00D+00 NAtFMM=   60 NAOKFM=F Big=F
 Integral buffers will be    131072 words long.
 Raffenetti 2 integral format.
 Two-electron integral symmetry is turned on.
 One-electron integrals computed using PRISM.
 NBasis=   238 RedAO= T EigKep=  2.06D-03  NBF=   238
 NBsUse=   238 1.00D-06 EigRej= -1.00D+00 NBFU=   238
 ExpMin= 1.61D-01 ExpMax= 5.48D+03 ExpMxC= 8.25D+02 IAcc=3 IRadAn=         5 AccDes= 0.00D+00
 Harris functional with IExCor=  402 and IRadAn=       5 diagonalized for initial guess.
 HarFok:  IExCor=  402 AccDes= 0.00D+00 IRadAn=         5 IDoV= 1 UseB2=F ITyADJ=14
 ICtDFT=  3500011 ScaDFX=  1.000000  1.000000  1.000000  1.000000
 FoFCou: FMM=F IPFlag=           0 FMFlag=      100000 FMFlg1=           0
         NFxFlg=           0 DoJE=T BraDBF=F KetDBF=T FulRan=T
         wScrn=  0.000000 ICntrl=       500 IOpCl=  0 I1Cent=   200000004 NGrid=           0
         NMat0=    1 NMatS0=      1 NMatT0=    0 NMatD0=    1 NMtDS0=    0 NMtDT0=    0
 Petite list used in FoFCou.
 Keep R1 ints in memory in canonical form, NReq=411287410.
 Gradient too large for Newton-Raphson -- use scaled steepest descent instead.
     Minimum is close to point  2 DX=  1.51D-02 DF= -9.28D-04 DXR=  4.78D-02 DFR=  2.29D-03 which will be used.
 Gradient too large for Newton-Raphson -- use scaled steepest descent instead.
     Accept linear search using points  2 and  3.
 Gradient too large for Newton-Raphson -- use scaled steepest descent instead.
     Minimum is close to point  2 DX=  3.37D-02 DF= -4.70D-05 DXR=  7.77D-02 DFR=  6.08D-03 which will be used.
 Gradient too large for Newton-Raphson -- use scaled steepest descent instead.
 Gradient too large for Newton-Raphson -- use scaled steepest descent instead.
     Accept linear search using points  1 and  2.
 Gradient too large for Newton-Raphson -- use scaled steepest descent instead.
     Minimum is close to point  3 DX=  6.35D-03 DF= -2.11D-08 DXR=  7.00D-03 DFR=  4.90D-05 which will be used.
 LinEq1:  Iter=  0 NonCon=     1 RMS=1.17D-04 Max=3.59D-03 NDo=     1
 AX will form     1 AO Fock derivatives at one time.
 LinEq1:  Iter=  1 NonCon=     1 RMS=1.04D-04 Max=3.68D-03 NDo=     1
 LinEq1:  Iter=  2 NonCon=     1 RMS=2.31D-05 Max=1.04D-03 NDo=     1
 LinEq1:  Iter=  3 NonCon=     1 RMS=2.56D-05 Max=1.22D-03 NDo=     1
 LinEq1:  Iter=  4 NonCon=     1 RMS=1.37D-05 Max=5.86D-04 NDo=     1
 LinEq1:  Iter=  5 NonCon=     1 RMS=9.05D-06 Max=3.36D-04 NDo=     1
 LinEq1:  Iter=  6 NonCon=     1 RMS=7.26D-06 Max=1.50D-04 NDo=     1
 LinEq1:  Iter=  7 NonCon=     1 RMS=5.01D-06 Max=9.26D-05 NDo=     1
 LinEq1:  Iter=  8 NonCon=     1 RMS=3.10D-06 Max=8.26D-05 NDo=     1
 LinEq1:  Iter=  9 NonCon=     1 RMS=1.48D-06 Max=3.25D-05 NDo=     1
 LinEq1:  Iter= 10 NonCon=     1 RMS=7.73D-07 Max=2.62D-05 NDo=     1
 LinEq1:  Iter= 11 NonCon=     1 RMS=3.74D-07 Max=1.13D-05 NDo=     1
 LinEq1:  Iter= 12 NonCon=     1 RMS=2.26D-07 Max=7.55D-06 NDo=     1
 LinEq1:  Iter= 13 NonCon=     1 RMS=1.32D-07 Max=4.53D-06 NDo=     1
 LinEq1:  Iter= 14 NonCon=     1 RMS=5.51D-08 Max=1.57D-06 NDo=     1
 LinEq1:  Iter= 15 NonCon=     1 RMS=2.72D-08 Max=7.27D-07 NDo=     1
 LinEq1:  Iter= 16 NonCon=     1 RMS=7.86D-09 Max=1.91D-07 NDo=     1
 LinEq1:  Iter= 17 NonCon=     0 RMS=1.91D-09 Max=3.02D-08 NDo=     1
 Linear equations converged to 1.410D-08 1.410D-07 after    17 iterations.
     Minimum is close to point  2 DX=  1.65D-03 DF= -1.19D-10 DXR=  1.65D-03 DFR=  2.73D-06 which will be used.
 LinEq1:  Iter=  0 NonCon=     1 RMS=3.21D-07 Max=9.69D-06 NDo=     1
 LinEq1:  Iter=  1 NonCon=     1 RMS=2.83D-07 Max=8.23D-06 NDo=     1
 LinEq1:  Iter=  2 NonCon=     1 RMS=1.66D-07 Max=5.22D-06 NDo=     1
 LinEq1:  Iter=  3 NonCon=     1 RMS=1.09D-07 Max=4.82D-06 NDo=     1
 LinEq1:  Iter=  4 NonCon=     1 RMS=1.01D-07 Max=3.36D-06 NDo=     1
 LinEq1:  Iter=  5 NonCon=     1 RMS=7.21D-08 Max=1.80D-06 NDo=     1
 LinEq1:  Iter=  6 NonCon=     1 RMS=5.21D-08 Max=1.33D-06 NDo=     1
 LinEq1:  Iter=  7 NonCon=     1 RMS=3.38D-08 Max=9.14D-07 NDo=     1
 LinEq1:  Iter=  8 NonCon=     1 RMS=2.67D-08 Max=9.58D-07 NDo=     1
 LinEq1:  Iter=  9 NonCon=     1 RMS=1.96D-08 Max=6.74D-07 NDo=     1
 LinEq1:  Iter= 10 NonCon=     1 RMS=7.54D-09 Max=1.96D-07 NDo=     1
 LinEq1:  Iter= 11 NonCon=     1 RMS=4.70D-09 Max=1.17D-07 NDo=     1
 LinEq1:  Iter= 12 NonCon=     1 RMS=2.55D-09 Max=7.01D-08 NDo=     1
 LinEq1:  Iter= 13 NonCon=     1 RMS=1.47D-09 Max=3.04D-08 NDo=     1
 LinEq1:  Iter= 14 NonCon=     1 RMS=6.17D-10 Max=1.58D-08 NDo=     1
 LinEq1:  Iter= 15 NonCon=     1 RMS=1.81D-10 Max=4.22D-09 NDo=     1
 LinEq1:  Iter= 16 NonCon=     1 RMS=8.53D-11 Max=2.09D-09 NDo=     1
 LinEq1:  Iter= 17 NonCon=     0 RMS=3.06D-11 Max=8.88D-10 NDo=     1
 Linear equations converged to 1.673D-10 1.673D-09 after    17 iterations.
 SCF Done:  E(RB3LYP) =  -723.592778544     a.u. after    9 cycles
            Convg  =    0.5355D-09                    53 Fock formations.
              S**2 =  0.0000                  -V/T =  2.0086
 DoSCS=F DFT=T ScalE2(SS,OS)=  1.000000  1.000000
 Range of M.O.s used for correlation:     1   238
 NBasis=   238 NAE=    54 NBE=    54 NFC=     0 NFV=     0
 NROrb=    238 NOA=    54 NOB=    54 NVA=   184 NVB=   184
 Symmetrizing basis deriv contribution to polar:
 IMax=3 JMax=2 DiffMx= 0.00D+00
 G2DrvN: will do    29 centers at a time, making    1 passes.
 Calling FoFCou, ICntrl=  3107 FMM=F I1Cent=   0 AccDes= 0.00D+00.
 End of G2Drv F.D. properties file   721 does not exist.
 End of G2Drv F.D. properties file   722 does not exist.
 End of G2Drv F.D. properties file   788 does not exist.
          IDoAtm=1111111111111111111111111111
          Differentiating once with respect to electric field.
                with respect to dipole field.
          Differentiating once with respect to nuclear coordinates.
 Keep R1 ints in memory in canonical form, NReq=411298527.
          There are    87 degrees of freedom in the 1st order CPHF.  IDoFFX=6 NUNeed=     3.
     84 vectors produced by pass  0 Test12= 1.14D-14 1.15D-09 XBig12= 1.21D+02 3.56D+00.
 AX will form    84 AO Fock derivatives at one time.
     84 vectors produced by pass  1 Test12= 1.14D-14 1.15D-09 XBig12= 3.92D+01 1.44D+00.
     84 vectors produced by pass  2 Test12= 1.14D-14 1.15D-09 XBig12= 6.70D-01 1.30D-01.
     84 vectors produced by pass  3 Test12= 1.14D-14 1.15D-09 XBig12= 3.08D-03 5.76D-03.
     84 vectors produced by pass  4 Test12= 1.14D-14 1.15D-09 XBig12= 5.63D-06 2.01D-04.
     52 vectors produced by pass  5 Test12= 1.14D-14 1.15D-09 XBig12= 4.31D-09 4.92D-06.
      8 vectors produced by pass  6 Test12= 1.14D-14 1.15D-09 XBig12= 3.58D-12 1.53D-07.
      3 vectors produced by pass  7 Test12= 1.14D-14 1.15D-09 XBig12= 3.14D-15 5.78D-09.
 InvSVY:  IOpt=1 It=  1 EMax= 7.11D-15
 Solved reduced A of dimension   483 with    87 vectors.
 Isotropic polarizability for W=    0.000000      115.90 Bohr**3.
 End of Minotr F.D. properties file   721 does not exist.
 End of Minotr F.D. properties file   722 does not exist.
 End of Minotr F.D. properties file   788 does not exist.

 **********************************************************************

            Population analysis using the SCF density.

 **********************************************************************

 Orbital symmetries:
       Occupied  (A) (A) (A) (A) (A) (A) (A) (A) (A) (A) (A) (A)
                 (A) (A) (A) (A) (A) (A) (A) (A) (A) (A) (A) (A)
                 (A) (A) (A) (A) (A) (A) (A) (A) (A) (A) (A) (A)
                 (A) (A) (A) (A) (A) (A) (A) (A) (A) (A) (A) (A)
                 (A) (A) (A) (A) (A) (A)
       Virtual   (A) (A) (A) (A) (A) (A) (A) (A) (A) (A) (A) (A)
                 (A) (A) (A) (A) (A) (A) (A) (A) (A) (A) (A) (A)
                 (A) (A) (A) (A) (A) (A) (A) (A) (A) (A) (A) (A)
                 (A) (A) (A) (A) (A) (A) (A) (A) (A) (A) (A) (A)
                 (A) (A) (A) (A) (A) (A) (A) (A) (A) (A) (A) (A)
                 (A) (A) (A) (A) (A) (A) (A) (A) (A) (A) (A) (A)
                 (A) (A) (A) (A) (A) (A) (A) (A) (A) (A) (A) (A)
                 (A) (A) (A) (A) (A) (A) (A) (A) (A) (A) (A) (A)
                 (A) (A) (A) (A) (A) (A) (A) (A) (A) (A) (A) (A)
                 (A) (A) (A) (A) (A) (A) (A) (A) (A) (A) (A) (A)
                 (A) (A) (A) (A) (A) (A) (A) (A) (A) (A) (A) (A)
                 (A) (A) (A) (A) (A) (A) (A) (A) (A) (A) (A) (A)
                 (A) (A) (A) (A) (A) (A) (A) (A) (A) (A) (A) (A)
                 (A) (A) (A) (A) (A) (A) (A) (A) (A) (A) (A) (A)
                 (A) (A) (A) (A) (A) (A) (A) (A) (A) (A) (A) (A)
                 (A) (A) (A) (A)
 The electronic state is 1-A.
 Alpha  occ. eigenvalues --  -19.21275 -19.20530 -19.16551 -19.16108 -14.43408
 Alpha  occ. eigenvalues --  -14.43350 -10.36193 -10.35780 -10.26109 -10.25482
 Alpha  occ. eigenvalues --  -10.18999 -10.18424 -10.17794 -10.15648  -1.14700
 Alpha  occ. eigenvalues --   -1.12356  -1.07030  -1.03840  -1.02895  -0.85070
 Alpha  occ. eigenvalues --   -0.79970  -0.77720  -0.69896  -0.69242  -0.67113
 Alpha  occ. eigenvalues --   -0.63874  -0.59259  -0.55626  -0.53044  -0.52048
 Alpha  occ. eigenvalues --   -0.51024  -0.49336  -0.48652  -0.47403  -0.46153
 Alpha  occ. eigenvalues --   -0.45001  -0.44124  -0.42750  -0.41850  -0.40921
 Alpha  occ. eigenvalues --   -0.39848  -0.39588  -0.38223  -0.37195  -0.37010
 Alpha  occ. eigenvalues --   -0.36166  -0.35959  -0.34891  -0.33897  -0.31515
 Alpha  occ. eigenvalues --   -0.30903  -0.30293  -0.28063  -0.26314
 Alpha virt. eigenvalues --   -0.14176   0.00715   0.03383   0.09098   0.09845
 Alpha virt. eigenvalues --    0.11314   0.11868   0.13204   0.13617   0.14967
 Alpha virt. eigenvalues --    0.15750   0.16166   0.16453   0.17374   0.17838
 Alpha virt. eigenvalues --    0.18455   0.19141   0.19470   0.20466   0.21992
 Alpha virt. eigenvalues --    0.22241   0.22751   0.23997   0.25204   0.26853
 Alpha virt. eigenvalues --    0.28892   0.31658   0.34502   0.40078   0.44631
 Alpha virt. eigenvalues --    0.48791   0.49260   0.49580   0.50146   0.51332
 Alpha virt. eigenvalues --    0.51851   0.52600   0.54376   0.55497   0.55950
 Alpha virt. eigenvalues --    0.56537   0.57547   0.59818   0.60932   0.63345
 Alpha virt. eigenvalues --    0.63875   0.64372   0.65402   0.67048   0.68615
 Alpha virt. eigenvalues --    0.69270   0.70003   0.72878   0.73771   0.75436
 Alpha virt. eigenvalues --    0.75818   0.77528   0.79329   0.80632   0.82519
 Alpha virt. eigenvalues --    0.83199   0.84828   0.86224   0.87397   0.88141
 Alpha virt. eigenvalues --    0.88216   0.88924   0.90058   0.90249   0.90840
 Alpha virt. eigenvalues --    0.91413   0.92087   0.94377   0.95095   0.96603
 Alpha virt. eigenvalues --    0.97222   0.99459   1.00318   1.01235   1.04745
 Alpha virt. eigenvalues --    1.06401   1.08140   1.09731   1.11701   1.12539
 Alpha virt. eigenvalues --    1.16210   1.19821   1.23408   1.25279   1.28285
 Alpha virt. eigenvalues --    1.29615   1.33055   1.37174   1.39191   1.39566
 Alpha virt. eigenvalues --    1.41523   1.42699   1.43969   1.45357   1.48517
 Alpha virt. eigenvalues --    1.51601   1.53768   1.56399   1.58216   1.62990
 Alpha virt. eigenvalues --    1.65855   1.67521   1.69758   1.71710   1.74309
 Alpha virt. eigenvalues --    1.77321   1.77684   1.78258   1.79230   1.80603
 Alpha virt. eigenvalues --    1.81285   1.82616   1.85111   1.86202   1.86701
 Alpha virt. eigenvalues --    1.88831   1.90508   1.91333   1.93902   1.96951
 Alpha virt. eigenvalues --    1.97649   1.99032   1.99654   2.01351   2.05624
 Alpha virt. eigenvalues --    2.07078   2.09207   2.10020   2.13368   2.14133
 Alpha virt. eigenvalues --    2.16498   2.17897   2.22168   2.24033   2.24907
 Alpha virt. eigenvalues --    2.25714   2.25786   2.26337   2.32221   2.36449
 Alpha virt. eigenvalues --    2.39858   2.41780   2.45708   2.47119   2.49034
 Alpha virt. eigenvalues --    2.49649   2.49690   2.52339   2.56499   2.60605
 Alpha virt. eigenvalues --    2.66596   2.67641   2.68748   2.70764   2.72181
 Alpha virt. eigenvalues --    2.74053   2.75066   2.83733   2.86170   2.93493
 Alpha virt. eigenvalues --    2.95730   3.06073   3.08601   3.19995   3.23700
 Alpha virt. eigenvalues --    3.78600   3.90455   4.00973   4.06321   4.18980
 Alpha virt. eigenvalues --    4.20050   4.24607   4.27898   4.28206   4.31914
 Alpha virt. eigenvalues --    4.35032   4.42509   4.53666   4.56726
          Condensed to atoms (all electrons):
               1          2          3          4          5          6
     1  C    5.199347   0.373936  -0.059882  -0.039749  -0.006817  -0.020392
     2  C    0.373936   4.711632   0.389049   0.186228  -0.019882   0.002521
     3  C   -0.059882   0.389049   5.118338  -0.040731   0.003903   0.000495
     4  O   -0.039749   0.186228  -0.040731   8.253322   0.300352  -0.076855
     5  C   -0.006817  -0.019882   0.003903   0.300352   4.237267   0.512709
     6  O   -0.020392   0.002521   0.000495  -0.076855   0.512709   8.068197
     7  N   -0.000964   0.004631  -0.000124  -0.088562   0.242514  -0.074503
     8  N    0.000021  -0.000154   0.000000   0.001668  -0.050000   0.001826
     9  C   -0.000000   0.000004  -0.000000  -0.000196   0.004508   0.000473
    10  O    0.000000  -0.000000   0.000000   0.000000  -0.000149   0.000000
    11  O    0.000000  -0.000000   0.000000  -0.000000   0.000225  -0.000004
    12  C   -0.000000   0.000000  -0.000000   0.000000   0.000010   0.000000
    13  C    0.000000   0.000000   0.000000   0.000000   0.000002  -0.000000
    14  C    0.000000  -0.000000   0.000000  -0.000000  -0.000002  -0.000000
    15  H    0.359816  -0.026286  -0.002113   0.002781   0.000460   0.000456
    16  H    0.364269  -0.032736  -0.006867  -0.000630   0.001093   0.000261
    17  H    0.369581  -0.027284   0.004694  -0.003108  -0.000228   0.014969
    18  H   -0.050803   0.377105  -0.050837  -0.036785  -0.002877   0.005439
    19  H   -0.007144  -0.027533   0.368940  -0.000122   0.000015  -0.000008
    20  H   -0.001889  -0.027366   0.367443   0.002718  -0.000043   0.000013
    21  H    0.005807  -0.028055   0.366212   0.001111  -0.000050   0.000006
    22  H    0.000000  -0.000000  -0.000000  -0.000000  -0.000002   0.000000
    23  H    0.000000  -0.000000  -0.000000  -0.000000   0.000000   0.000000
    24  H    0.000000  -0.000000  -0.000000  -0.000000  -0.000000   0.000000
    25  H    0.000000  -0.000000  -0.000000  -0.000000  -0.000000   0.000000
    26  H   -0.000000   0.000000  -0.000000  -0.000000   0.000000   0.000000
    27  H   -0.000000   0.000000   0.000000   0.000000  -0.000000  -0.000000
    28  H   -0.000000   0.000000  -0.000000  -0.000000   0.000002  -0.000000
               7          8          9         10         11         12
     1  C   -0.000964   0.000021  -0.000000   0.000000   0.000000  -0.000000
     2  C    0.004631  -0.000154   0.000004  -0.000000  -0.000000   0.000000
     3  C   -0.000124   0.000000  -0.000000   0.000000   0.000000  -0.000000
     4  O   -0.088562   0.001668  -0.000196   0.000000  -0.000000   0.000000
     5  C    0.242514  -0.050000   0.004508  -0.000149   0.000225   0.000010
     6  O   -0.074503   0.001826   0.000473   0.000000  -0.000004   0.000000
     7  N    6.967597   0.215584  -0.052259   0.000309  -0.006505   0.000444
     8  N    0.215584   6.966022   0.245147  -0.055756  -0.103856   0.004462
     9  C   -0.052259   0.245147   4.234221   0.496033   0.294389  -0.018494
    10  O    0.000309  -0.055756   0.496033   8.176420  -0.078770  -0.001358
    11  O   -0.006505  -0.103856   0.294389  -0.078770   8.258061   0.199740
    12  C    0.000444   0.004462  -0.018494  -0.001358   0.199740   4.717827
    13  C    0.000033  -0.000368  -0.003627  -0.002981  -0.042574   0.366932
    14  C   -0.000015  -0.001663  -0.010577  -0.076954  -0.041532   0.374433
    15  H    0.000008  -0.000000  -0.000000  -0.000000   0.000000  -0.000000
    16  H   -0.000011   0.000002  -0.000000  -0.000000   0.000000  -0.000000
    17  H    0.000200  -0.000005  -0.000000   0.000000   0.000000  -0.000000
    18  H   -0.000126   0.000043   0.000000  -0.000000   0.000000  -0.000000
    19  H   -0.000010   0.000000  -0.000000  -0.000000  -0.000000  -0.000000
    20  H    0.000002  -0.000000   0.000000  -0.000000   0.000000   0.000000
    21  H    0.000002  -0.000000  -0.000000   0.000000   0.000000  -0.000000
    22  H    0.000093  -0.000223   0.002643  -0.000177  -0.031646   0.393894
    23  H   -0.000004  -0.000104   0.005061   0.004359  -0.005544  -0.027561
    24  H   -0.000009  -0.000006  -0.000036   0.000132   0.000618  -0.029068
    25  H   -0.000000   0.000006   0.000038   0.000034   0.003072  -0.023711
    26  H    0.000005   0.000170  -0.007572  -0.004208  -0.000831  -0.027628
    27  H   -0.000001   0.000017   0.001083   0.002627   0.002784  -0.028719
    28  H    0.000023  -0.000035   0.002740  -0.000187  -0.000400  -0.033163
              13         14         15         16         17         18
     1  C    0.000000   0.000000   0.359816   0.364269   0.369581  -0.050803
     2  C    0.000000  -0.000000  -0.026286  -0.032736  -0.027284   0.377105
     3  C    0.000000   0.000000  -0.002113  -0.006867   0.004694  -0.050837
     4  O    0.000000  -0.000000   0.002781  -0.000630  -0.003108  -0.036785
     5  C    0.000002  -0.000002   0.000460   0.001093  -0.000228  -0.002877
     6  O   -0.000000  -0.000000   0.000456   0.000261   0.014969   0.005439
     7  N    0.000033  -0.000015   0.000008  -0.000011   0.000200  -0.000126
     8  N   -0.000368  -0.001663  -0.000000   0.000002  -0.000005   0.000043
     9  C   -0.003627  -0.010577  -0.000000  -0.000000  -0.000000   0.000000
    10  O   -0.002981  -0.076954  -0.000000  -0.000000   0.000000  -0.000000
    11  O   -0.042574  -0.041532   0.000000   0.000000   0.000000   0.000000
    12  C    0.366932   0.374433  -0.000000  -0.000000  -0.000000  -0.000000
    13  C    5.153245  -0.058916  -0.000000   0.000000   0.000000  -0.000000
    14  C   -0.058916   5.290734   0.000000   0.000000   0.000000   0.000000
    15  H   -0.000000   0.000000   0.562856  -0.025801  -0.022606  -0.000255
    16  H    0.000000   0.000000  -0.025801   0.569719  -0.029589   0.005535
    17  H    0.000000   0.000000  -0.022606  -0.029589   0.494232  -0.004042
    18  H   -0.000000   0.000000  -0.000255   0.005535  -0.004042   0.599753
    19  H   -0.000000  -0.000000   0.000063   0.005044  -0.000062   0.005452
    20  H    0.000000   0.000000   0.002024   0.000179   0.000021  -0.000149
    21  H    0.000000   0.000000  -0.000030  -0.000026  -0.000184  -0.004300
    22  H   -0.052037  -0.050659   0.000000  -0.000000  -0.000000  -0.000000
    23  H    0.375884  -0.007794   0.000000  -0.000000  -0.000000   0.000000
    24  H    0.365712   0.005714   0.000000   0.000000   0.000000   0.000000
    25  H    0.362087  -0.003135   0.000000  -0.000000  -0.000000   0.000000
    26  H   -0.005408   0.381956   0.000000  -0.000000   0.000000   0.000000
    27  H   -0.003104   0.346673  -0.000000  -0.000000  -0.000000  -0.000000
    28  H    0.006110   0.361664   0.000000   0.000000   0.000000   0.000000
              19         20         21         22         23         24
     1  C   -0.007144  -0.001889   0.005807   0.000000   0.000000   0.000000
     2  C   -0.027533  -0.027366  -0.028055  -0.000000  -0.000000  -0.000000
     3  C    0.368940   0.367443   0.366212  -0.000000  -0.000000  -0.000000
     4  O   -0.000122   0.002718   0.001111  -0.000000  -0.000000  -0.000000
     5  C    0.000015  -0.000043  -0.000050  -0.000002   0.000000  -0.000000
     6  O   -0.000008   0.000013   0.000006   0.000000   0.000000   0.000000
     7  N   -0.000010   0.000002   0.000002   0.000093  -0.000004  -0.000009
     8  N    0.000000  -0.000000  -0.000000  -0.000223  -0.000104  -0.000006
     9  C   -0.000000   0.000000  -0.000000   0.002643   0.005061  -0.000036
    10  O   -0.000000  -0.000000   0.000000  -0.000177   0.004359   0.000132
    11  O   -0.000000   0.000000   0.000000  -0.031646  -0.005544   0.000618
    12  C   -0.000000   0.000000  -0.000000   0.393894  -0.027561  -0.029068
    13  C   -0.000000   0.000000   0.000000  -0.052037   0.375884   0.365712
    14  C   -0.000000   0.000000   0.000000  -0.050659  -0.007794   0.005714
    15  H    0.000063   0.002024  -0.000030   0.000000   0.000000   0.000000
    16  H    0.005044   0.000179  -0.000026  -0.000000  -0.000000   0.000000
    17  H   -0.000062   0.000021  -0.000184  -0.000000  -0.000000   0.000000
    18  H    0.005452  -0.000149  -0.004300  -0.000000   0.000000   0.000000
    19  H    0.551429  -0.026617  -0.030536   0.000000   0.000000   0.000000
    20  H   -0.026617   0.553275  -0.026470  -0.000000   0.000000   0.000000
    21  H   -0.030536  -0.026470   0.558349  -0.000000  -0.000000  -0.000000
    22  H    0.000000  -0.000000  -0.000000   0.582311   0.004472  -0.004098
    23  H    0.000000   0.000000  -0.000000   0.004472   0.535700  -0.031645
    24  H    0.000000   0.000000  -0.000000  -0.004098  -0.031645   0.566342
    25  H    0.000000   0.000000  -0.000000   0.000038  -0.025705  -0.027333
    26  H    0.000000   0.000000  -0.000000   0.004260   0.003139  -0.000045
    27  H   -0.000000   0.000000   0.000000  -0.000907   0.000149  -0.000002
    28  H   -0.000000   0.000000   0.000000  -0.004772   0.000058  -0.000214
              25         26         27         28
     1  C    0.000000  -0.000000  -0.000000  -0.000000
     2  C   -0.000000   0.000000   0.000000   0.000000
     3  C   -0.000000  -0.000000   0.000000  -0.000000
     4  O   -0.000000  -0.000000   0.000000  -0.000000
     5  C   -0.000000   0.000000  -0.000000   0.000002
     6  O    0.000000   0.000000  -0.000000  -0.000000
     7  N   -0.000000   0.000005  -0.000001   0.000023
     8  N    0.000006   0.000170   0.000017  -0.000035
     9  C    0.000038  -0.007572   0.001083   0.002740
    10  O    0.000034  -0.004208   0.002627  -0.000187
    11  O    0.003072  -0.000831   0.002784  -0.000400
    12  C   -0.023711  -0.027628  -0.028719  -0.033163
    13  C    0.362087  -0.005408  -0.003104   0.006110
    14  C   -0.003135   0.381956   0.346673   0.361664
    15  H    0.000000   0.000000  -0.000000   0.000000
    16  H   -0.000000  -0.000000  -0.000000   0.000000
    17  H   -0.000000   0.000000  -0.000000   0.000000
    18  H    0.000000   0.000000  -0.000000   0.000000
    19  H    0.000000   0.000000  -0.000000  -0.000000
    20  H    0.000000   0.000000   0.000000   0.000000
    21  H   -0.000000  -0.000000   0.000000   0.000000
    22  H    0.000038   0.004260  -0.000907  -0.004772
    23  H   -0.025705   0.003139   0.000149   0.000058
    24  H   -0.027333  -0.000045  -0.000002  -0.000214
    25  H    0.556438   0.000209   0.002252  -0.000020
    26  H    0.000209   0.455066  -0.019549  -0.028843
    27  H    0.002252  -0.019549   0.591159  -0.024764
    28  H   -0.000020  -0.028843  -0.024764   0.582136
 Mulliken charges:
               1
     1  C   -0.485138
     2  C    0.144191
     3  C   -0.458520
     4  O   -0.461442
     5  C    0.776989
     6  O   -0.435605
     7  N   -0.208348
     8  N   -0.222799
     9  C    0.806421
    10  O   -0.459376
    11  O   -0.447226
    12  C    0.131959
    13  C   -0.460992
    14  C   -0.509926
    15  H    0.148627
    16  H    0.149556
    17  H    0.203410
    18  H    0.156847
    19  H    0.161089
    20  H    0.156858
    21  H    0.158164
    22  H    0.156810
    23  H    0.169535
    24  H    0.153939
    25  H    0.155731
    26  H    0.249279
    27  H    0.130303
    28  H    0.139665
 Sum of Mulliken charges =  -0.00000
 Mulliken charges with hydrogens summed into heavy atoms:
               1
     1  C    0.016454
     2  C    0.301038
     3  C    0.017591
     4  O   -0.461442
     5  C    0.776989
     6  O   -0.435605
     7  N   -0.208348
     8  N   -0.222799
     9  C    0.806421
    10  O   -0.459376
    11  O   -0.447226
    12  C    0.288768
    13  C    0.018213
    14  C    0.009321
 APT charges:
               1
     1  C   -0.066189
     2  C    0.643194
     3  C    0.032651
     4  O   -0.927713
     5  C    1.256297
     6  O   -0.660433
     7  N   -0.205275
     8  N   -0.248831
     9  C    1.209108
    10  O   -0.676672
    11  O   -0.843665
    12  C    0.600170
    13  C   -0.003663
    14  C   -0.097387
    15  H   -0.009568
    16  H   -0.009377
    17  H    0.061941
    18  H   -0.072380
    19  H   -0.004005
    20  H   -0.007567
    21  H   -0.014110
    22  H   -0.057179
    23  H    0.014432
    24  H   -0.021924
    25  H   -0.007870
    26  H    0.166293
    27  H   -0.023023
    28  H   -0.027256
 Sum of APT charges =  -0.00000
 APT charges with hydrogens summed into heavy atoms:
               1
     1  C   -0.023194
     2  C    0.570813
     3  C    0.006970
     4  O   -0.927713
     5  C    1.256297
     6  O   -0.660433
     7  N   -0.205275
     8  N   -0.248831
     9  C    1.209108
    10  O   -0.676672
    11  O   -0.843665
    12  C    0.542991
    13  C   -0.019024
    14  C    0.018627
 Electronic spatial extent (au):  <R**2>=           4538.9765
 Charge=             -0.0000 electrons
 Dipole moment (field-independent basis, Debye):
    X=             -1.0981    Y=              2.1385    Z=              1.4195  Tot=              2.7918
 Quadrupole moment (field-independent basis, Debye-Ang):
   XX=            -67.0840   YY=            -87.7568   ZZ=            -82.8804
   XY=             -1.1573   XZ=              6.2934   YZ=             -2.2893
 Traceless Quadrupole moment (field-independent basis, Debye-Ang):
   XX=             12.1564   YY=             -8.5164   ZZ=             -3.6400
   XY=             -1.1573   XZ=              6.2934   YZ=             -2.2893
 Octapole moment (field-independent basis, Debye-Ang**2):
  XXX=            -38.2537  YYY=              4.5399  ZZZ=              0.3280  XYY=              7.7656
  XXY=             16.3988  XXZ=             16.7579  XZZ=             -6.8991  YZZ=              2.1394
  YYZ=              3.9084  XYZ=             -0.4345
 Hexadecapole moment (field-independent basis, Debye-Ang**3):
 XXXX=          -4665.8819 YYYY=           -530.5688 ZZZZ=           -385.4348 XXXY=             -1.1984
 XXXZ=             89.1172 YYYX=            -17.4265 YYYZ=              2.9961 ZZZX=             11.5777
 ZZZY=              2.3137 XXYY=           -940.9738 XXZZ=           -914.3670 YYZZ=           -149.7892
 XXYZ=              2.2596 YYXZ=              5.8585 ZZXY=              8.7827
 N-N= 9.234037683678D+02 E-N=-3.535801642534D+03  KE= 7.174003567944D+02
  Exact polarizability: 163.836  -0.478  95.055  -3.329   1.565  88.809
 Approx polarizability: 192.677  -5.731 151.568 -16.090  13.554 136.932
 Calling FoFJK, ICntrl=    100127 FMM=F ISym2X=0 I1Cent= 0 IOpClX= 0 NMat=1 NMatS=1 NMatT=0.
 ***** Axes restored to original set *****
 -------------------------------------------------------------------
 Center     Atomic                   Forces (Hartrees/Bohr)
 Number     Number              X              Y              Z
 -------------------------------------------------------------------
      1        6           0.003319623   -0.011548662    0.002757639
      2        6          -0.015659453   -0.012922362   -0.012705031
      3        6           0.001861006    0.011779927    0.006318866
      4        8           0.017724175    0.000411902    0.019905709
      5        6          -0.009435950   -0.035287188   -0.070172661
      6        8          -0.002746320    0.021499171    0.018887207
      7        7           0.008940007    0.021948050    0.028420477
      8        7          -0.000426544   -0.014268897   -0.043818834
      9        6          -0.002774330    0.029925427    0.068957663
     10        8          -0.004501150   -0.054777319   -0.058176953
     11        8           0.005697804   -0.006432003   -0.003900226
     12        6           0.029473221    0.018050530    0.010494971
     13        6          -0.003339124   -0.011907166    0.000045026
     14        6           0.001625477    0.027322427    0.016678448
     15        1          -0.001146018    0.002042349   -0.000826206
     16        1          -0.003052852    0.002884134   -0.001468468
     17        1          -0.004028063    0.000678253   -0.004899996
     18        1           0.004824423   -0.000947554    0.005375400
     19        1           0.000020960   -0.002471972   -0.000088079
     20        1           0.002418027   -0.001383132    0.000919918
     21        1          -0.000058633    0.000622591   -0.001565095
     22        1          -0.003911907   -0.008851361   -0.010039605
     23        1           0.000516105    0.003308453    0.000955422
     24        1          -0.001680380   -0.000494231    0.001377411
     25        1          -0.000673605    0.001240945   -0.000659224
     26        1          -0.013768709    0.016250137    0.023279285
     27        1          -0.006493983    0.001040982    0.002958287
     28        1          -0.002723808    0.002286570    0.000988650
 -------------------------------------------------------------------
 Cartesian Forces:  Max     0.070172661 RMS     0.018337652
 FormGI is forming the generalized inverse of G from B-inverse, IUseBI=4.

 GradGradGradGradGradGradGradGradGradGradGradGradGradGradGradGradGradGrad
 Berny optimization.
 Internal  Forces:  Max     0.222898629 RMS     0.028462031
 Search for a local minimum.
 Step number   1 out of a maximum of  134
 All quantities printed in internal units (Hartrees-Bohrs-Radians)
 Mixed Optimization -- RFO/linear search
 Second derivative matrix not updated -- analytic derivatives used.
 ITU=  0
     Eigenvalues ---   -0.12238  -0.02449  -0.00618  -0.00210  -0.00108
     Eigenvalues ---    0.00026   0.00270   0.00282   0.00410   0.01544
     Eigenvalues ---    0.03451   0.04285   0.04366   0.04527   0.04603
     Eigenvalues ---    0.04684   0.04742   0.04748   0.04842   0.04916
     Eigenvalues ---    0.05836   0.06522   0.06731   0.07168   0.08261
     Eigenvalues ---    0.09595   0.10526   0.12296   0.12401   0.12481
     Eigenvalues ---    0.12780   0.12836   0.13031   0.13974   0.14178
     Eigenvalues ---    0.14519   0.14873   0.15302   0.15358   0.17318
     Eigenvalues ---    0.19059   0.19518   0.20185   0.21567   0.23735
     Eigenvalues ---    0.24600   0.27120   0.27604   0.28402   0.28647
     Eigenvalues ---    0.30231   0.30928   0.31329   0.32104   0.32764
     Eigenvalues ---    0.32987   0.33462   0.33858   0.33879   0.34037
     Eigenvalues ---    0.34064   0.34174   0.34288   0.34460   0.34578
     Eigenvalues ---    0.34796   0.34852   0.35177   0.35300   0.36821
     Eigenvalues ---    0.37553   0.48759   0.61923   0.76083   0.77384
     Eigenvalues ---    0.79290   0.81335   2.72064
 RFO step:  Lambda=-1.22817762D-01 EMin=-1.22378065D-01
 I=     1 Eig=   -1.22D-01 Dot1= -3.19D-03
 I=     1 Stepn= -6.00D-01 RXN=   6.00D-01 EDone=F
 I=     2 Eig=   -2.45D-02 Dot1= -2.51D-04
 I=     2 Stepn= -3.00D-01 RXN=   6.71D-01 EDone=F
 I=     3 Eig=   -6.18D-03 Dot1=  2.90D-04
 I=     3 Stepn=  1.50D-01 RXN=   6.87D-01 EDone=F
 Mixed    3 eigenvectors in step.  Raw Step.Grad=  3.73D-03.
 RFO eigenvector is Hessian eigenvector with negative curvature.
 Taking step of  6.00D-01 in eigenvector direction(s).  Step.Grad=  9.77D-04.
 Linear search not attempted -- first point.
 Iteration  1 RMS(Cart)=  0.20416829 RMS(Int)=  0.02412149
 Iteration  2 RMS(Cart)=  0.12434710 RMS(Int)=  0.00430489
 Iteration  3 RMS(Cart)=  0.00935222 RMS(Int)=  0.00063635
 Iteration  4 RMS(Cart)=  0.00001962 RMS(Int)=  0.00063628
 Iteration  5 RMS(Cart)=  0.00000002 RMS(Int)=  0.00063628
 Variable       Old X    -DE/DX   Delta X   Delta X   Delta X     New X
                                 (Linear)    (Quad)   (Total)
    R1        2.88255   0.00646   0.00000   0.00010   0.00010   2.88265
    R2        2.06838   0.00030   0.00000   0.00000   0.00000   2.06838
    R3        2.07030   0.00095   0.00000   0.00003   0.00003   2.07033
    R4        2.06785  -0.00500   0.00000   0.00007   0.00007   2.06792
    R5        2.88273  -0.00035   0.00000   0.00001   0.00001   2.88274
    R6        2.72153   0.01328   0.00000  -0.00035  -0.00035   2.72118
    R7        2.07321  -0.00026   0.00000   0.00001   0.00001   2.07322
    R8        2.07068  -0.00010   0.00000   0.00001   0.00001   2.07069
    R9        2.06940  -0.00120   0.00000   0.00001   0.00001   2.06941
   R10        2.06985   0.00079   0.00000  -0.00003  -0.00003   2.06982
   R11        2.58166  -0.01581   0.00000  -0.00020  -0.00020   2.58146
   R12        2.31820  -0.02584   0.00000  -0.00014  -0.00014   2.31806
   R13        2.60427   0.04493   0.00000   0.00201   0.00201   2.60629
   R14        2.36996  -0.00107   0.00000  -0.00245  -0.00245   2.36751
   R15        2.60290   0.05249   0.00000   0.00683   0.00683   2.60973
   R16        2.31765  -0.04098   0.00000  -0.01061  -0.01061   2.30704
   R17        2.58285   0.02129   0.00000   0.00379   0.00379   2.58664
   R18        2.72132   0.06207   0.00000   0.00554   0.00554   2.72687
   R19        2.88242   0.00331   0.00000   0.00193   0.00193   2.88435
   R20        2.88207   0.02178   0.00000  -0.02360  -0.02360   2.85847
   R21        2.07265  -0.00264   0.00000   0.00085   0.00085   2.07350
   R22        2.07020  -0.00086   0.00000   0.00565   0.00565   2.07585
   R23        2.06867   0.00152   0.00000   0.00036   0.00036   2.06903
   R24        2.06783  -0.00015   0.00000  -0.00096  -0.00096   2.06687
   R25        2.07118  -0.02529   0.00000  -0.00288  -0.00288   2.06829
   R26        2.06916   0.00199   0.00000   0.00131   0.00131   2.07048
   R27        2.06939   0.00213   0.00000  -0.00224  -0.00224   2.06715
    A1        1.93952  -0.00371   0.00000   0.00006   0.00006   1.93959
    A2        1.93508  -0.00352   0.00000   0.00001   0.00001   1.93509
    A3        1.93877   0.00455   0.00000  -0.00000  -0.00000   1.93877
    A4        1.89692   0.00121   0.00000  -0.00006  -0.00006   1.89686
    A5        1.88923  -0.00054   0.00000  -0.00002  -0.00002   1.88921
    A6        1.86181   0.00228   0.00000   0.00001   0.00001   1.86182
    A7        1.92284  -0.00211   0.00000  -0.00011  -0.00011   1.92274
    A8        1.91751   0.01568   0.00000   0.00033   0.00033   1.91783
    A9        1.92811  -0.00169   0.00000  -0.00013  -0.00013   1.92798
   A10        1.88113  -0.01271   0.00000   0.00004   0.00004   1.88117
   A11        1.88823   0.00437   0.00000   0.00012   0.00012   1.88835
   A12        1.92526  -0.00405   0.00000  -0.00025  -0.00025   1.92501
   A13        1.94028  -0.00133   0.00000  -0.00001  -0.00001   1.94027
   A14        1.94170  -0.00426   0.00000   0.00009   0.00009   1.94179
   A15        1.92875   0.00228   0.00000  -0.00006  -0.00006   1.92869
   A16        1.89530   0.00176   0.00000  -0.00002  -0.00002   1.89528
   A17        1.86308   0.00122   0.00000  -0.00003  -0.00003   1.86305
   A18        1.89226   0.00060   0.00000   0.00004   0.00004   1.89230
   A19        2.02858   0.03358   0.00000   0.00047   0.00047   2.02905
   A20        2.15687   0.02347   0.00000  -0.00074  -0.00074   2.15613
   A21        1.91217  -0.01801   0.00000   0.00036   0.00036   1.91253
   A22        2.21414  -0.00546   0.00000   0.00038   0.00038   2.21452
   A23        1.95950   0.00142   0.00000  -0.00057  -0.00057   1.95893
   A24        1.96397   0.02107   0.00000   0.00451   0.00451   1.96848
   A25        2.21571  -0.07060   0.00000  -0.03572  -0.03761   2.17810
   A26        1.90967  -0.00841   0.00000  -0.03687  -0.03893   1.87074
   A27        2.15781   0.07897   0.00000   0.07275   0.07049   2.22830
   A28        2.03092   0.22290   0.00000   0.08638   0.08638   2.11730
   A29        1.91849  -0.02812   0.00000  -0.01617  -0.01502   1.90346
   A30        1.87793   0.07455   0.00000   0.05522   0.05377   1.93170
   A31        1.92595  -0.02699   0.00000  -0.01607  -0.01794   1.90802
   A32        1.92340  -0.00470   0.00000  -0.07214  -0.07139   1.85200
   A33        1.92815   0.01632   0.00000   0.00351   0.00433   1.93248
   A34        1.88909  -0.02974   0.00000   0.04721   0.04646   1.93555
   A35        1.93558  -0.00072   0.00000  -0.00646  -0.00645   1.92913
   A36        1.93749   0.00075   0.00000   0.00897   0.00897   1.94646
   A37        1.94015  -0.00268   0.00000   0.00129   0.00128   1.94143
   A38        1.86178   0.00189   0.00000  -0.00259  -0.00257   1.85922
   A39        1.89740   0.00045   0.00000  -0.00029  -0.00029   1.89711
   A40        1.88892   0.00052   0.00000  -0.00113  -0.00115   1.88776
   A41        1.93955   0.02206   0.00000  -0.04545  -0.04550   1.89406
   A42        1.94177  -0.01171   0.00000  -0.00926  -0.00953   1.93224
   A43        1.92880  -0.00172   0.00000   0.03117   0.03135   1.96015
   A44        1.89504  -0.00707   0.00000   0.01789   0.01738   1.91242
   A45        1.86299  -0.00217   0.00000   0.00813   0.00853   1.87152
   A46        1.89325   0.00051   0.00000  -0.00103  -0.00106   1.89220
    D1        1.03587   0.00201   0.00000  -0.00030  -0.00030   1.03557
    D2        3.10577  -0.00525   0.00000  -0.00011  -0.00011   3.10566
    D3       -1.04942  -0.00100   0.00000  -0.00029  -0.00029  -1.04971
    D4       -1.07583   0.00539   0.00000  -0.00027  -0.00027  -1.07610
    D5        0.99406  -0.00187   0.00000  -0.00008  -0.00008   0.99398
    D6        3.12207   0.00238   0.00000  -0.00026  -0.00026   3.12180
    D7        3.14033   0.00189   0.00000  -0.00028  -0.00028   3.14005
    D8       -1.07296  -0.00537   0.00000  -0.00009  -0.00009  -1.07305
    D9        1.05504  -0.00112   0.00000  -0.00028  -0.00028   1.05476
   D10        1.08560   0.00212   0.00000   0.00010   0.00010   1.08569
   D11       -1.02910   0.00372   0.00000   0.00008   0.00008  -1.02902
   D12       -3.13209   0.00426   0.00000   0.00001   0.00001  -3.13208
   D13       -1.00646  -0.00796   0.00000  -0.00026  -0.00026  -1.00673
   D14       -3.12116  -0.00636   0.00000  -0.00028  -0.00028  -3.12144
   D15        1.05903  -0.00582   0.00000  -0.00035  -0.00035   1.05869
   D16       -3.08823   0.00151   0.00000  -0.00005  -0.00005  -3.08829
   D17        1.08025   0.00311   0.00000  -0.00007  -0.00007   1.08019
   D18       -1.02274   0.00365   0.00000  -0.00014  -0.00014  -1.02287
   D19        1.03487   0.01226   0.00000  -0.00192  -0.00192   1.03295
   D20        3.13030   0.01113   0.00000  -0.00183  -0.00183   3.12847
   D21       -1.09483   0.00664   0.00000  -0.00181  -0.00181  -1.09664
   D22       -0.00000   0.00579   0.00000   0.00244   0.00245   0.00244
   D23       -3.14072   0.00607   0.00000   0.00283   0.00283  -3.13789
   D24       -2.61183   0.00195   0.00000  -0.01953  -0.01953  -2.63136
   D25        0.53067   0.00222   0.00000  -0.01912  -0.01912   0.51154
   D26        3.13324   0.00898   0.00000  -0.01379  -0.01379   3.11945
   D27       -2.61183  -0.00866   0.00000   0.18165   0.17928  -2.43256
   D28        0.53119   0.01922   0.00000   0.06515   0.06752   0.59871
   D29        3.14023   0.00973   0.00000  -0.28899  -0.28692   2.85331
   D30        0.00001   0.03663   0.00000  -0.40070  -0.40277  -0.40277
   D31       -1.40448   0.02048   0.00000  -0.09753  -0.09702  -1.50150
   D32        0.69026   0.04347   0.00000  -0.16086  -0.16064   0.52962
   D33        2.74785   0.03653   0.00000  -0.08057  -0.08130   2.66655
   D34        0.97375   0.03946   0.00000   0.01501   0.01548   0.98922
   D35       -1.09274   0.03709   0.00000   0.01663   0.01711  -1.07563
   D36        3.08683   0.03773   0.00000   0.01113   0.01159   3.09842
   D37       -1.09316  -0.03196   0.00000   0.00121   0.00101  -1.09215
   D38        3.12354  -0.03434   0.00000   0.00283   0.00265   3.12619
   D39        1.01992  -0.03370   0.00000  -0.00268  -0.00288   1.01705
   D40        3.10330  -0.00239   0.00000  -0.01363  -0.01392   3.08938
   D41        1.03681  -0.00476   0.00000  -0.01201  -0.01228   1.02453
   D42       -1.06681  -0.00413   0.00000  -0.01752  -0.01780  -1.08461
   D43       -1.01684  -0.01264   0.00000   0.00583   0.00713  -1.00971
   D44       -3.13075  -0.01077   0.00000   0.02065   0.02158  -3.10917
   D45        1.04811  -0.00247   0.00000   0.00713   0.00808   1.05619
   D46        1.07478  -0.00423   0.00000  -0.02190  -0.02174   1.05304
   D47       -1.03913  -0.00235   0.00000  -0.00708  -0.00730  -1.04642
   D48        3.13973   0.00594   0.00000  -0.02059  -0.02080   3.11893
   D49       -3.09813  -0.00570   0.00000  -0.03163  -0.03236  -3.13049
   D50        1.07115  -0.00382   0.00000  -0.01681  -0.01791   1.05323
   D51       -1.03318   0.00447   0.00000  -0.03033  -0.03142  -1.06459
         Item               Value     Threshold  Converged?
 Maximum Force            0.222899     0.000450     NO 
 RMS     Force            0.028462     0.000300     NO 
 Maximum Displacement     1.049794     0.001800     NO 
 RMS     Displacement     0.315171     0.001200     NO 
 Predicted change in Energy=-2.089191D-02
 GradGradGradGradGradGradGradGradGradGradGradGradGradGradGradGradGradGrad

                          Input orientation:                          
 ---------------------------------------------------------------------
 Center     Atomic      Atomic             Coordinates (Angstroms)
 Number     Number       Type             X           Y           Z
 ---------------------------------------------------------------------
      1          6           0        2.690496   -0.810971    0.119896
      2          6           0        3.077796    0.626262   -0.213738
      3          6           0        1.866474    1.388124   -0.742277
      4          8           0        3.535966    1.298436    0.974464
      5          6           0        4.615080    0.745420    1.603575
      6          8           0        5.187630   -0.263883    1.205828
      7          7           0        4.931917    1.491425    2.719481
      8          7           0        6.153226    1.439003    2.993783
      9          6           0        6.487798    2.204751    4.093274
     10          8           0        7.493237    2.891224    4.184285
     11          8           0        5.429854    2.151632    4.960180
     12          6           0        5.572663    2.540658    6.342389
     13          6           0        6.068617    1.343220    7.148533
     14          6           0        6.629941    3.612431    6.489130
     15          1           0        2.304490   -1.330618   -0.762708
     16          1           0        1.926490   -0.837213    0.904677
     17          1           0        3.549824   -1.372249    0.499375
     18          1           0        3.857252    0.644174   -0.985593
     19          1           0        1.075286    1.446846    0.013544
     20          1           0        1.457754    0.910978   -1.639213
     21          1           0        2.140668    2.418533   -0.992805
     22          1           0        4.604886    2.890842    6.722826
     23          1           0        7.010998    0.962134    6.732147
     24          1           0        5.355262    0.513292    7.115198
     25          1           0        6.231255    1.611072    8.196422
     26          1           0        7.573086    3.227539    6.088815
     27          1           0        6.762055    3.884761    7.542141
     28          1           0        6.384447    4.517697    5.926263
 ---------------------------------------------------------------------
                    Distance matrix (angstroms):
                    1          2          3          4          5
     1  C    0.000000
     2  C    1.525435   0.000000
     3  C    2.501674   1.525480   0.000000
     4  O    2.427901   1.439986   2.396341   0.000000
     5  C    2.885772   2.383288   3.670276   1.366050   0.000000
     6  O    2.777450   2.694239   4.189787   2.285249   1.226666
     7  N    4.133140   3.576318   4.625083   2.242992   1.379187
     8  N    5.031115   4.517412   5.686562   3.308695   2.186237
     9  C    6.269116   5.715776   6.738403   4.388815   3.440251
    10  O    7.300125   6.630896   7.628289   5.338532   4.421350
    11  O    6.301544   5.884586   6.767469   4.494517   3.729355
    12  C    7.632806   7.271318   8.078160   5.874169   5.157151
    13  C    8.090363   7.978851   8.940073   6.673489   5.763393
    14  C    8.697865   8.152507   8.940437   6.733409   6.012326
    15  H    1.094542   2.174568   2.753876   3.383227   3.904875
    16  H    1.095571   2.172122   2.769149   2.675122   3.197139
    17  H    1.094295   2.173795   3.463384   2.712649   2.615062
    18  H    2.168149   1.097103   2.139127   2.091198   2.699693
    19  H    2.778120   2.176020   1.095761   2.645815   3.943391
    20  H    2.753039   2.176598   1.095087   3.361606   4.528994
    21  H    3.459785   2.167347   1.095303   2.659252   3.957677
    22  H    7.808137   7.454948   8.092270   6.059869   5.550646
    23  H    8.095215   7.989256   9.083756   6.733488   5.664772
    24  H    7.601902   7.675475   8.641579   6.452512   5.565945
    25  H    9.145137   9.035758   9.949942   7.714855   6.843026
    26  H    8.705013   8.166789   9.089152   6.795319   5.918454
    27  H    9.680765   9.183966   9.941403   7.760870   7.052058
    28  H    8.703670   7.986039   8.641513   6.557271   6.003863
                    6          7          8          9         10
     6  O    0.000000
     7  N    2.331875   0.000000
     8  N    2.651223   1.252831   0.000000
     9  C    4.015214   2.194745   1.381010   0.000000
    10  O    4.913424   3.265800   2.306918   1.220834   0.000000
    11  O    4.470855   2.388419   2.213103   1.368792   2.325201
    12  C    5.864978   3.825821   3.572654   2.451290   2.910141
    13  C    6.218896   4.574991   4.156714   3.201961   3.634918
    14  C    6.709647   4.646741   4.143488   2.782426   2.564709
    15  H    3.650418   5.195473   6.049363   7.319799   8.319843
    16  H    3.324820   4.212916   5.235534   6.342415   7.459607
    17  H    2.099990   3.878103   4.571971   5.860267   6.877956
    18  H    2.719705   3.949723   4.662476   5.928749   6.707999
    19  H    4.610803   4.711443   5.887900   6.820111   7.789186
    20  H    4.835962   5.604012   6.617472   7.735413   8.617515
    21  H    4.616635   4.736209   5.740470   6.694135   7.461615
    22  H    6.381940   4.253479   4.290799   3.306150   3.845357
    23  H    5.947100   4.550188   3.865041   2.963357   3.231957
    24  H    5.962614   4.523084   4.298807   3.643582   4.337713
    25  H    7.312525   5.630228   5.206068   4.153804   4.396434
    26  H    6.459411   4.619770   3.846308   2.491210   1.935644
    27  H    7.735562   5.686431   5.199996   3.846080   3.577281
    28  H    6.824836   4.642372   4.258081   2.953007   2.628558
                   11         12         13         14         15
    11  O    0.000000
    12  C    1.442996   0.000000
    13  C    2.418768   1.526334   0.000000
    14  C    2.431425   1.512636   2.428831   0.000000
    15  H    7.392253   8.726404   9.160010   9.784294   0.000000
    16  H    6.136274   7.367041   7.803668   8.550315   1.779468
    17  H    5.987573   7.317345   7.611136   8.379220   1.773539
    18  H    6.332276   7.761353   8.458298   8.507046   2.522013
    19  H    6.627835   7.840734   8.709315   8.802112   3.134934
    20  H    7.801845   9.126571   9.933346  10.005965   2.551465
    21  H    6.806468   8.099295   9.103102   8.806720   3.759776
    22  H    2.081809   1.097248   2.172296   2.162441   8.896390
    23  H    2.656086   2.170820   1.098493   2.688557   9.142252
    24  H    2.708104   2.180529   1.094882   3.409022   8.646885
    25  H    3.377530   2.176077   1.093740   2.660683  10.214647
    26  H    2.650441   2.130211   2.633836   1.094494   9.771298
    27  H    3.383048   2.158859   2.663684   1.095650  10.772213
    28  H    2.728154   2.177346   3.416284   1.093888   9.777073
                   16         17         18         19         20
    16  H    0.000000
    17  H    1.756629   0.000000
    18  H    3.081472   2.523015   0.000000
    19  H    2.595302   3.782416   3.062988   0.000000
    20  H    3.122061   3.763435   2.501199   1.779056   0.000000
    21  H    3.774413   4.310725   2.468818   1.758395   1.776777
    22  H    7.411009   7.616984   8.063882   7.717362   9.151394
    23  H    7.940357   7.501768   8.343304   8.978155  10.045935
    24  H    7.221559   7.112242   8.239173   8.344053   9.591061
    25  H    8.814456   8.679563   9.533109   9.673183  10.955188
    26  H    8.676493   8.281698   8.398121   9.072001  10.123545
    27  H    9.472890   9.357090   9.574002   9.744873  11.012550
    28  H    8.588641   8.495744   8.316529   8.519247   9.721994
                   21         22         23         24         25
    21  H    0.000000
    22  H    8.113348   0.000000
    23  H    9.247492   3.083728   0.000000
    24  H    8.927669   2.523839   1.757739   0.000000
    25  H   10.090926   2.540545   1.781354   1.772436   0.000000
    26  H    8.961863   3.053776   2.421133   3.652307   2.975817
    27  H    9.815923   2.512475   3.042994   3.678063   2.424766
    28  H    8.383893   2.539293   3.699195   4.302097   3.691280
                   26         27         28
    26  H    0.000000
    27  H    1.789376   0.000000
    28  H    1.761758   1.776022   0.000000
 Stoichiometry    C8H14N2O4
 Framework group  C1[X(C8H14N2O4)]
 Deg. of freedom    78
 Full point group                 C1      NOp   1
 Largest Abelian subgroup         C1      NOp   1
 Largest concise Abelian subgroup C1      NOp   1
                         Standard orientation:                         
 ---------------------------------------------------------------------
 Center     Atomic      Atomic             Coordinates (Angstroms)
 Number     Number       Type             X           Y           Z
 ---------------------------------------------------------------------
      1          6           0       -4.127128    1.009868    0.727239
      2          6           0       -3.804318   -0.119990   -0.245471
      3          6           0       -4.597342    0.055183   -1.536795
      4          8           0       -2.404440   -0.091729   -0.581783
      5          6           0       -1.529975   -0.219364    0.459905
      6          8           0       -1.881638   -0.354667    1.627268
      7          7           0       -0.235824   -0.169442   -0.014266
      8          7           0        0.556174   -0.828064    0.698855
      9          6           0        1.850809   -0.808725    0.218507
     10          8           0        2.602197   -1.770795    0.201948
     11          8           0        2.054436    0.421554   -0.345889
     12          6           0        3.383999    0.907199   -0.626336
     13          6           0        3.942347    1.581603    0.623913
     14          6           0        4.317962   -0.241602   -0.936232
     15          1           0       -5.194522    1.029751    0.968684
     16          1           0       -3.844599    1.980718    0.305454
[...]
 Quadrupole moment (field-independent basis, Debye-Ang):
   XX=            -51.9347   YY=            -88.4192   ZZ=            -82.8094
   XY=             -7.0603   XZ=             -2.4803   YZ=             -4.9195
 Traceless Quadrupole moment (field-independent basis, Debye-Ang):
   XX=             22.4531   YY=            -14.0314   ZZ=             -8.4216
   XY=             -7.0603   XZ=             -2.4803   YZ=             -4.9195
 Octapole moment (field-independent basis, Debye-Ang**2):
  XXX=              5.3057  YYY=              1.0603  ZZZ=             -1.6738  XYY=              1.8676
  XXY=             -1.8799  XXZ=             -2.9430  XZZ=              1.2961  YZZ=              1.5334
  YYZ=              1.8742  XYZ=              1.4918
 Hexadecapole moment (field-independent basis, Debye-Ang**3):
 XXXX=          -4700.9861 YYYY=           -532.5116 ZZZZ=           -325.0938 XXXY=            -56.8378
 XXXZ=             -4.2881 YYYX=            -13.9529 YYYZ=             -3.8425 ZZZX=             -0.2788
 ZZZY=              8.1319 XXYY=           -996.4398 XXZZ=           -949.8064 YYZZ=           -144.0133
 XXYZ=            -18.4203 YYXZ=            -13.3318 ZZXY=             -4.7882
 N-N= 9.050394777187D+02 E-N=-3.499286948740D+03  KE= 7.171610195557D+02
 Evaluate density.
 Using the total density.
 Monte-Carlo method of calculating molar volume:
 based on  0.001 e/bohr**3 density envelope.
 Number of points per bohr**3 =   20 CutOff= 1.00D-04
 Using the CI density.
 There are       418 points.  Will hold       418 in memory.
 LenV=  1073583786 MDV=  1073741824.
 Box volume = 9193.022 fraction occupied=0.191
 Integrated density= 9.5373852487066003D+01 error=-1.2626147512933997D+01
 Molar volume = 1759.430 bohr**3/mol (157.010 cm**3/mol)
 Recommended a0 for SCRF calculation =  4.86 angstrom (  9.19 bohr)
 ******************************Gaussian NBO Version 3.1******************************
             N A T U R A L   A T O M I C   O R B I T A L   A N D
          N A T U R A L   B O N D   O R B I T A L   A N A L Y S I S
 ******************************Gaussian NBO Version 3.1******************************
       /RESON  / : Allow strongly delocalized NBO set

 Analyzing the CI density

 Job title: Title Card Required                                             

 Storage needed:    172550 in NPA (1073737624 available)


 NATURAL POPULATIONS:  Natural atomic orbital occupancies 
                                                          
   NAO  Atom  No  lang   Type(AO)    Occupancy
 --------------------------------------------
     1    C    1  S      Cor( 1S)     1.99939
     2    C    1  S      Val( 2S)     1.10898
     3    C    1  S      Ryd( 3S)     0.00047
     4    C    1  S      Ryd( 4S)     0.00002
     5    C    1  px     Val( 2p)     1.21253
     6    C    1  px     Ryd( 3p)     0.00140
     7    C    1  py     Val( 2p)     1.20523
     8    C    1  py     Ryd( 3p)     0.00231
     9    C    1  pz     Val( 2p)     1.16983
    10    C    1  pz     Ryd( 3p)     0.00111
    11    C    1  dxy    Ryd( 3d)     0.00042
    12    C    1  dxz    Ryd( 3d)     0.00031
    13    C    1  dyz    Ryd( 3d)     0.00061
    14    C    1  dx2y2  Ryd( 3d)     0.00094
    15    C    1  dz2    Ryd( 3d)     0.00096
 
    16    C    2  S      Cor( 1S)     1.99912
    17    C    2  S      Val( 2S)     0.97683
    18    C    2  S      Ryd( 3S)     0.00193
    19    C    2  S      Ryd( 4S)     0.00005
    20    C    2  px     Val( 2p)     0.68428
    21    C    2  px     Ryd( 3p)     0.00260
    22    C    2  py     Val( 2p)     1.07704
    23    C    2  py     Ryd( 3p)     0.00422
    24    C    2  pz     Val( 2p)     1.16246
    25    C    2  pz     Ryd( 3p)     0.00245
    26    C    2  dxy    Ryd( 3d)     0.00101
    27    C    2  dxz    Ryd( 3d)     0.00103
    28    C    2  dyz    Ryd( 3d)     0.00099
    29    C    2  dx2y2  Ryd( 3d)     0.00184
    30    C    2  dz2    Ryd( 3d)     0.00131
 
    31    C    3  S      Cor( 1S)     1.99939
    32    C    3  S      Val( 2S)     1.10676
    33    C    3  S      Ryd( 3S)     0.00048
    34    C    3  S      Ryd( 4S)     0.00002
    35    C    3  px     Val( 2p)     1.22647
    36    C    3  px     Ryd( 3p)     0.00210
    37    C    3  py     Val( 2p)     1.09813
    38    C    3  py     Ryd( 3p)     0.00134
    39    C    3  pz     Val( 2p)     1.25645
    40    C    3  pz     Ryd( 3p)     0.00194
    41    C    3  dxy    Ryd( 3d)     0.00036
    42    C    3  dxz    Ryd( 3d)     0.00043
    43    C    3  dyz    Ryd( 3d)     0.00084
    44    C    3  dx2y2  Ryd( 3d)     0.00085
    45    C    3  dz2    Ryd( 3d)     0.00072
 
    46    O    4  S      Cor( 1S)     1.99971
    47    O    4  S      Val( 2S)     1.62340
    48    O    4  S      Ryd( 3S)     0.00205
    49    O    4  S      Ryd( 4S)     0.00014
    50    O    4  px     Val( 2p)     1.43913
    51    O    4  px     Ryd( 3p)     0.00116
    52    O    4  py     Val( 2p)     1.69735
    53    O    4  py     Ryd( 3p)     0.00173
    54    O    4  pz     Val( 2p)     1.76447
    55    O    4  pz     Ryd( 3p)     0.00181
    56    O    4  dxy    Ryd( 3d)     0.00117
    57    O    4  dxz    Ryd( 3d)     0.00068
    58    O    4  dyz    Ryd( 3d)     0.00138
    59    O    4  dx2y2  Ryd( 3d)     0.00130
    60    O    4  dz2    Ryd( 3d)     0.00134
 
    61    C    5  S      Cor( 1S)     1.99950
    62    C    5  S      Val( 2S)     0.72996
    63    C    5  S      Ryd( 3S)     0.00392
    64    C    5  S      Ryd( 4S)     0.00044
    65    C    5  px     Val( 2p)     0.79570
    66    C    5  px     Ryd( 3p)     0.00627
    67    C    5  py     Val( 2p)     0.72605
    68    C    5  py     Ryd( 3p)     0.01925
    69    C    5  pz     Val( 2p)     0.77775
    70    C    5  pz     Ryd( 3p)     0.00883
    71    C    5  dxy    Ryd( 3d)     0.00320
    72    C    5  dxz    Ryd( 3d)     0.00247
    73    C    5  dyz    Ryd( 3d)     0.00165
    74    C    5  dx2y2  Ryd( 3d)     0.00306
    75    C    5  dz2    Ryd( 3d)     0.00195
 
    76    O    6  S      Cor( 1S)     1.99977
    77    O    6  S      Val( 2S)     1.70739
    78    O    6  S      Ryd( 3S)     0.00083
    79    O    6  S      Ryd( 4S)     0.00012
    80    O    6  px     Val( 2p)     1.74725
    81    O    6  px     Ryd( 3p)     0.00138
    82    O    6  py     Val( 2p)     1.58168
    83    O    6  py     Ryd( 3p)     0.00050
    84    O    6  pz     Val( 2p)     1.49391
    85    O    6  pz     Ryd( 3p)     0.00066
    86    O    6  dxy    Ryd( 3d)     0.00391
    87    O    6  dxz    Ryd( 3d)     0.00165
    88    O    6  dyz    Ryd( 3d)     0.00458
    89    O    6  dx2y2  Ryd( 3d)     0.00380
    90    O    6  dz2    Ryd( 3d)     0.00316
 
    91    N    7  S      Cor( 1S)     1.99938
    92    N    7  S      Val( 2S)     1.39264
    93    N    7  S      Ryd( 3S)     0.00595
    94    N    7  S      Ryd( 4S)     0.00003
    95    N    7  px     Val( 2p)     1.14842
    96    N    7  px     Ryd( 3p)     0.00380
    97    N    7  py     Val( 2p)     1.31196
    98    N    7  py     Ryd( 3p)     0.00468
    99    N    7  pz     Val( 2p)     1.34165
   100    N    7  pz     Ryd( 3p)     0.00415
   101    N    7  dxy    Ryd( 3d)     0.00105
   102    N    7  dxz    Ryd( 3d)     0.00141
   103    N    7  dyz    Ryd( 3d)     0.00137
   104    N    7  dx2y2  Ryd( 3d)     0.00172
   105    N    7  dz2    Ryd( 3d)     0.00210
 
   106    N    8  S      Cor( 1S)     1.99939
   107    N    8  S      Val( 2S)     1.39440
   108    N    8  S      Ryd( 3S)     0.00610
   109    N    8  S      Ryd( 4S)     0.00003
   110    N    8  px     Val( 2p)     1.14502
   111    N    8  px     Ryd( 3p)     0.00382
   112    N    8  py     Val( 2p)     1.31143
   113    N    8  py     Ryd( 3p)     0.00473
   114    N    8  pz     Val( 2p)     1.34098
   115    N    8  pz     Ryd( 3p)     0.00416
   116    N    8  dxy    Ryd( 3d)     0.00104
   117    N    8  dxz    Ryd( 3d)     0.00141
   118    N    8  dyz    Ryd( 3d)     0.00136
   119    N    8  dx2y2  Ryd( 3d)     0.00170
   120    N    8  dz2    Ryd( 3d)     0.00211
 
   121    C    9  S      Cor( 1S)     1.99951
   122    C    9  S      Val( 2S)     0.73142
   123    C    9  S      Ryd( 3S)     0.00411
   124    C    9  S      Ryd( 4S)     0.00045
   125    C    9  px     Val( 2p)     0.79707
   126    C    9  px     Ryd( 3p)     0.00683
   127    C    9  py     Val( 2p)     0.72733
   128    C    9  py     Ryd( 3p)     0.01885
   129    C    9  pz     Val( 2p)     0.77375
   130    C    9  pz     Ryd( 3p)     0.00975
   131    C    9  dxy    Ryd( 3d)     0.00316
   132    C    9  dxz    Ryd( 3d)     0.00254
   133    C    9  dyz    Ryd( 3d)     0.00157
   134    C    9  dx2y2  Ryd( 3d)     0.00301
   135    C    9  dz2    Ryd( 3d)     0.00206
 
   136    O   10  S      Cor( 1S)     1.99977
   137    O   10  S      Val( 2S)     1.70744
   138    O   10  S      Ryd( 3S)     0.00083
   139    O   10  S      Ryd( 4S)     0.00013
   140    O   10  px     Val( 2p)     1.74613
   141    O   10  px     Ryd( 3p)     0.00139
   142    O   10  py     Val( 2p)     1.57696
   143    O   10  py     Ryd( 3p)     0.00049
   144    O   10  pz     Val( 2p)     1.49994
   145    O   10  pz     Ryd( 3p)     0.00064
   146    O   10  dxy    Ryd( 3d)     0.00374
   147    O   10  dxz    Ryd( 3d)     0.00167
   148    O   10  dyz    Ryd( 3d)     0.00457
   149    O   10  dx2y2  Ryd( 3d)     0.00369
   150    O   10  dz2    Ryd( 3d)     0.00326
 
   151    O   11  S      Cor( 1S)     1.99972
   152    O   11  S      Val( 2S)     1.61569
   153    O   11  S      Ryd( 3S)     0.00196
   154    O   11  S      Ryd( 4S)     0.00011
   155    O   11  px     Val( 2p)     1.44449
   156    O   11  px     Ryd( 3p)     0.00104
   157    O   11  py     Val( 2p)     1.69770
   158    O   11  py     Ryd( 3p)     0.00154
   159    O   11  pz     Val( 2p)     1.76118
   160    O   11  pz     Ryd( 3p)     0.00166
   161    O   11  dxy    Ryd( 3d)     0.00110
   162    O   11  dxz    Ryd( 3d)     0.00071
   163    O   11  dyz    Ryd( 3d)     0.00135
   164    O   11  dx2y2  Ryd( 3d)     0.00124
   165    O   11  dz2    Ryd( 3d)     0.00134
 
   166    C   12  S      Cor( 1S)     1.99912
   167    C   12  S      Val( 2S)     0.97498
   168    C   12  S      Ryd( 3S)     0.00090
   169    C   12  S      Ryd( 4S)     0.00005
   170    C   12  px     Val( 2p)     0.68448
   171    C   12  px     Ryd( 3p)     0.00359
   172    C   12  py     Val( 2p)     1.15982
   173    C   12  py     Ryd( 3p)     0.00455
   174    C   12  pz     Val( 2p)     1.07796
   175    C   12  pz     Ryd( 3p)     0.00301
   176    C   12  dxy    Ryd( 3d)     0.00101
   177    C   12  dxz    Ryd( 3d)     0.00113
   178    C   12  dyz    Ryd( 3d)     0.00105
   179    C   12  dx2y2  Ryd( 3d)     0.00188
   180    C   12  dz2    Ryd( 3d)     0.00109
 
   181    C   13  S      Cor( 1S)     1.99939
   182    C   13  S      Val( 2S)     1.10916
   183    C   13  S      Ryd( 3S)     0.00042
   184    C   13  S      Ryd( 4S)     0.00002
   185    C   13  px     Val( 2p)     1.21282
   186    C   13  px     Ryd( 3p)     0.00122
   187    C   13  py     Val( 2p)     1.15872
   188    C   13  py     Ryd( 3p)     0.00121
   189    C   13  pz     Val( 2p)     1.22233
   190    C   13  pz     Ryd( 3p)     0.00201
   191    C   13  dxy    Ryd( 3d)     0.00036
   192    C   13  dxz    Ryd( 3d)     0.00027
   193    C   13  dyz    Ryd( 3d)     0.00064
   194    C   13  dx2y2  Ryd( 3d)     0.00096
   195    C   13  dz2    Ryd( 3d)     0.00099
 
   196    C   14  S      Cor( 1S)     1.99939
   197    C   14  S      Val( 2S)     1.10910
   198    C   14  S      Ryd( 3S)     0.00041
   199    C   14  S      Ryd( 4S)     0.00002
   200    C   14  px     Val( 2p)     1.24056
   201    C   14  px     Ryd( 3p)     0.00106
   202    C   14  py     Val( 2p)     1.26222
   203    C   14  py     Ryd( 3p)     0.00195
   204    C   14  pz     Val( 2p)     1.09021
   205    C   14  pz     Ryd( 3p)     0.00130
   206    C   14  dxy    Ryd( 3d)     0.00052
   207    C   14  dxz    Ryd( 3d)     0.00026
   208    C   14  dyz    Ryd( 3d)     0.00082
   209    C   14  dx2y2  Ryd( 3d)     0.00087
   210    C   14  dz2    Ryd( 3d)     0.00076
 
   211    H   15  S      Val( 1S)     0.75744
   212    H   15  S      Ryd( 2S)     0.00073
 
   213    H   16  S      Val( 1S)     0.76163
   214    H   16  S      Ryd( 2S)     0.00136
 
   215    H   17  S      Val( 1S)     0.74889
   216    H   17  S      Ryd( 2S)     0.00113
 
   217    H   18  S      Val( 1S)     0.75353
   218    H   18  S      Ryd( 2S)     0.00268
 
   219    H   19  S      Val( 1S)     0.75931
   220    H   19  S      Ryd( 2S)     0.00128
 
   221    H   20  S      Val( 1S)     0.75875
   222    H   20  S      Ryd( 2S)     0.00067
 
   223    H   21  S      Val( 1S)     0.75234
   224    H   21  S      Ryd( 2S)     0.00097
 
   225    H   22  S      Val( 1S)     0.75164
   226    H   22  S      Ryd( 2S)     0.00167
 
   227    H   23  S      Val( 1S)     0.74667
   228    H   23  S      Ryd( 2S)     0.00147
 
   229    H   24  S      Val( 1S)     0.75556
   230    H   24  S      Ryd( 2S)     0.00105
 
   231    H   25  S      Val( 1S)     0.75668
   232    H   25  S      Ryd( 2S)     0.00072
 
   233    H   26  S      Val( 1S)     0.74664
   234    H   26  S      Ryd( 2S)     0.00136
 
   235    H   27  S      Val( 1S)     0.75836
   236    H   27  S      Ryd( 2S)     0.00074
 
   237    H   28  S      Val( 1S)     0.75479
   238    H   28  S      Ryd( 2S)     0.00106


 Summary of Natural Population Analysis:                  
                                                          
                                       Natural Population 
                Natural  -----------------------------------------------
    Atom  No    Charge         Core      Valence    Rydberg      Total
 -----------------------------------------------------------------------
      C    1   -0.70450      1.99939     4.69658    0.00853     6.70450
      C    2    0.08284      1.99912     3.90061    0.01743     5.91716
      C    3   -0.69629      1.99939     4.68781    0.00908     6.69629
      O    4   -0.53683      1.99971     6.52435    0.01276     8.53683
      C    5    0.92001      1.99950     3.02946    0.05103     5.07999
      O    6   -0.55060      1.99977     6.53024    0.02059     8.55060
      N    7   -0.22032      1.99938     5.19467    0.02627     7.22032
      N    8   -0.21768      1.99939     5.19183    0.02646     7.21768
      C    9    0.91859      1.99951     3.02957    0.05233     5.08141
      O   10   -0.55065      1.99977     6.53047    0.02041     8.55065
      O   11   -0.53082      1.99972     6.51906    0.01205     8.53082
      C   12    0.08539      1.99912     3.89724    0.01826     5.91461
      C   13   -0.71053      1.99939     4.70303    0.00811     6.71053
      C   14   -0.70946      1.99939     4.70210    0.00797     6.70946
      H   15    0.24183      0.00000     0.75744    0.00073     0.75817
      H   16    0.23700      0.00000     0.76163    0.00136     0.76300
      H   17    0.24998      0.00000     0.74889    0.00113     0.75002
      H   18    0.24379      0.00000     0.75353    0.00268     0.75621
      H   19    0.23941      0.00000     0.75931    0.00128     0.76059
      H   20    0.24059      0.00000     0.75875    0.00067     0.75941
      H   21    0.24670      0.00000     0.75234    0.00097     0.75330
      H   22    0.24669      0.00000     0.75164    0.00167     0.75331
      H   23    0.25185      0.00000     0.74667    0.00147     0.74815
      H   24    0.24339      0.00000     0.75556    0.00105     0.75661
      H   25    0.24259      0.00000     0.75668    0.00072     0.75741
      H   26    0.25199      0.00000     0.74664    0.00136     0.74801
      H   27    0.24090      0.00000     0.75836    0.00074     0.75910
      H   28    0.24415      0.00000     0.75479    0.00106     0.75585
 =======================================================================
   * Total *   -0.00000     27.99257    79.69926    0.30818   108.00000

                                 Natural Population      
 --------------------------------------------------------
   Core                      27.99257 ( 99.9735% of  28)
   Valence                   79.69926 ( 99.6241% of  80)
   Natural Minimal Basis    107.69182 ( 99.7147% of 108)
   Natural Rydberg Basis      0.30818 (  0.2853% of 108)
 --------------------------------------------------------

    Atom  No          Natural Electron Configuration
 ----------------------------------------------------------------------------
      C    1      [core]2S( 1.11)2p( 3.59)
      C    2      [core]2S( 0.98)2p( 2.92)3p( 0.01)3d( 0.01)
      C    3      [core]2S( 1.11)2p( 3.58)3p( 0.01)
      O    4      [core]2S( 1.62)2p( 4.90)3d( 0.01)
      C    5      [core]2S( 0.73)2p( 2.30)3p( 0.03)3d( 0.01)
      O    6      [core]2S( 1.71)2p( 4.82)3d( 0.02)
      N    7      [core]2S( 1.39)2p( 3.80)3S( 0.01)3p( 0.01)3d( 0.01)
      N    8      [core]2S( 1.39)2p( 3.80)3S( 0.01)3p( 0.01)3d( 0.01)
      C    9      [core]2S( 0.73)2p( 2.30)3p( 0.04)3d( 0.01)
      O   10      [core]2S( 1.71)2p( 4.82)3d( 0.02)
      O   11      [core]2S( 1.62)2p( 4.90)3d( 0.01)
      C   12      [core]2S( 0.97)2p( 2.92)3p( 0.01)3d( 0.01)
      C   13      [core]2S( 1.11)2p( 3.59)
      C   14      [core]2S( 1.11)2p( 3.59)
      H   15            1S( 0.76)
      H   16            1S( 0.76)
      H   17            1S( 0.75)
      H   18            1S( 0.75)
      H   19            1S( 0.76)
      H   20            1S( 0.76)
      H   21            1S( 0.75)
      H   22            1S( 0.75)
      H   23            1S( 0.75)
      H   24            1S( 0.76)
      H   25            1S( 0.76)
      H   26            1S( 0.75)
      H   27            1S( 0.76)
      H   28            1S( 0.75)


 NBO analysis skipped by request.
 1\1\GINC-DELLA-R1C3N11\SP\RB3LYP TD-FC\6-31G(d)\C8H14N2O4\BJS4\22-Aug-
 2020\0\\# TD(NStates=10, Root=1) B3LYP/6-31G* scf=qc volume pop=NPA de
 nsity=current Geom=AllCheck Guess=Read\\Title Card Required\\0,1\C,0,1
 .6010359086,0.2061361953,-0.2074181233\C,0,3.1201852687,0.3082606353,-
 0.262373056\C,0,3.6426892603,1.1652332849,-1.4047299887\O,0,3.60248280
 17,0.9545301292,0.9672382344\C,0,3.7597644866,0.1771142852,2.033834711
 4\O,0,3.562853594,-1.0087469445,2.1333372357\N,0,4.1151309823,0.976318
 956,3.1906903775\N,0,5.3165009763,1.3042018055,3.2032598669\C,0,5.6701
 161964,2.1093479455,4.359400744\O,0,5.8351405887,3.2994852369,4.249156
 1807\O,0,5.8594824334,1.3234583905,5.4112551188\C,0,6.3472572773,1.895
 438328,6.6799302964\C,0,7.749698585,2.4727513097,6.5198335026\C,0,5.32
 60444183,2.8605274565,7.2724898346\H,0,1.2265041958,-0.2579095687,-1.1
 26585716\H,0,1.1505006302,1.2002111291,-0.1140699359\H,0,1.2836844956,
 -0.4099361969,0.6385371974\H,0,3.5627930387,-0.6911317316,-0.291033525
 3\H,0,3.2329086981,2.1793331811,-1.3489283795\H,0,3.3473549254,0.72502
 74821,-2.3631760537\H,0,4.7344372665,1.2305715004,-1.3748504595\H,0,6.
 3960908517,0.9963989713,7.3004216217\H,0,7.7410343884,3.3778473219,5.9
 0875536\H,0,8.4183045376,1.737943774,6.0596908886\H,0,8.1494250687,2.7
 223227279,7.5091237504\H,0,5.2567302583,3.7774257461,6.6831876281\H,0,
 5.6284660639,3.1214142438,8.2929504382\H,0,4.3378328036,2.3919444056,7
 .3199622505\\Version=ES64L-G16RevA.03\State=1-A\HF=-723.649372\RMSD=6.
 312e-09\Dipole=0.0361029,0.1262519,0.0463256\Quadrupole=-1.0757532,-12
 .7037749,13.7795281,-0.6606623,8.1672029,3.7856117\PG=C01 [X(C8H14N2O4
 )]\\@


 MUD THROWN IS GROUND LOST -- FROM A TEA BAG
 Job cpu time:       0 days  0 hours 21 minutes 14.2 seconds.
 Elapsed time:       0 days  0 hours  5 minutes 33.2 seconds.
 File lengths (MBytes):  RWF=    524 Int=      0 D2E=      0 Chk=    268 Scr=      1
 Normal termination of Gaussian 16 at Sat Aug 22 14:24:19 2020.
