 Entering Gaussian System, Link 0=g16
 Input=azadicarboxylate_5_conf14123.com
 Output=azadicarboxylate_5_conf14123.log
 Initial command:
 /opt/export//g16/l1.exe "/scratch/bjs4/job.63481/Gau-63483.inp" -scrdir="/scratch/bjs4/job.63481/"
 Entering Link 1 = /opt/export//g16/l1.exe PID=     63484.
  
 Copyright (c) 1988,1990,1992,1993,1995,1998,2003,2009,2016,
            Gaussian, Inc.  All Rights Reserved.
  
 This is part of the Gaussian(R) 16 program.  It is based on
 the Gaussian(R) 09 system (copyright 2009, Gaussian, Inc.),
 the Gaussian(R) 03 system (copyright 2003, Gaussian, Inc.),
 the Gaussian(R) 98 system (copyright 1998, Gaussian, Inc.),
 the Gaussian(R) 94 system (copyright 1995, Gaussian, Inc.),
 the Gaussian 92(TM) system (copyright 1992, Gaussian, Inc.),
 the Gaussian 90(TM) system (copyright 1990, Gaussian, Inc.),
 the Gaussian 88(TM) system (copyright 1988, Gaussian, Inc.),
 the Gaussian 86(TM) system (copyright 1986, Carnegie Mellon
 University), and the Gaussian 82(TM) system (copyright 1983,
 Carnegie Mellon University). Gaussian is a federally registered
 trademark of Gaussian, Inc.
  
 This software contains proprietary and confidential information,
 including trade secrets, belonging to Gaussian, Inc.
  
 This software is provided under written license and may be
 used, copied, transmitted, or stored only in accord with that
 written license.
  
 The following legend is applicable only to US Government
 contracts under FAR:
  
                    RESTRICTED RIGHTS LEGEND
  
 Use, reproduction and disclosure by the US Government is
 subject to restrictions as set forth in subparagraphs (a)
 and (c) of the Commercial Computer Software - Restricted
 Rights clause in FAR 52.227-19.
  
 Gaussian, Inc.
 340 Quinnipiac St., Bldg. 40, Wallingford CT 06492
  
  
 ---------------------------------------------------------------
 Warning -- This program may not be used in any manner that
 competes with the business of Gaussian, Inc. or will provide
 assistance to any competitor of Gaussian, Inc.  The licensee
 of this program is prohibited from giving any competitor of
 Gaussian, Inc. access to this program.  By using this program,
 the user acknowledges that Gaussian, Inc. is engaged in the
 business of creating and licensing software in the field of
 computational chemistry and represents and warrants to the
 licensee that it is not a competitor of Gaussian, Inc. and that
 it will not use this program in any manner prohibited above.
 ---------------------------------------------------------------
  

 Cite this work as:
 Gaussian 16, Revision A.03,
 M. J. Frisch, G. W. Trucks, H. B. Schlegel, G. E. Scuseria, 
 M. A. Robb, J. R. Cheeseman, G. Scalmani, V. Barone, 
 G. A. Petersson, H. Nakatsuji, X. Li, M. Caricato, A. V. Marenich, 
 J. Bloino, B. G. Janesko, R. Gomperts, B. Mennucci, H. P. Hratchian, 
 J. V. Ortiz, A. F. Izmaylov, J. L. Sonnenberg, D. Williams-Young, 
 F. Ding, F. Lipparini, F. Egidi, J. Goings, B. Peng, A. Petrone, 
 T. Henderson, D. Ranasinghe, V. G. Zakrzewski, J. Gao, N. Rega, 
 G. Zheng, W. Liang, M. Hada, M. Ehara, K. Toyota, R. Fukuda, 
 J. Hasegawa, M. Ishida, T. Nakajima, Y. Honda, O. Kitao, H. Nakai, 
 T. Vreven, K. Throssell, J. A. Montgomery, Jr., J. E. Peralta, 
 F. Ogliaro, M. J. Bearpark, J. J. Heyd, E. N. Brothers, K. N. Kudin, 
 V. N. Staroverov, T. A. Keith, R. Kobayashi, J. Normand, 
 K. Raghavachari, A. P. Rendell, J. C. Burant, S. S. Iyengar, 
 J. Tomasi, M. Cossi, J. M. Millam, M. Klene, C. Adamo, R. Cammi, 
 J. W. Ochterski, R. L. Martin, K. Morokuma, O. Farkas, 
 J. B. Foresman, and D. J. Fox, Gaussian, Inc., Wallingford CT, 2016.
 
 ******************************************
 Gaussian 16:  ES64L-G16RevA.03 25-Dec-2016
                22-Aug-2020 
 ******************************************
 %nprocshared=5
 Will use up to    5 processors via shared memory.
 %Mem=10GB
 %Chk=azadicarboxylate_5_conf141.chk
 ---------------------------------
 # opt=CalcAll B3LYP/6-31G* scf=qc
 ---------------------------------
 1/10=4,18=20,19=15,26=3,38=1/1,3;
 2/9=110,12=2,17=6,18=5,40=1/2;
 3/5=1,6=6,7=1,11=2,25=1,30=1,71=2,74=-5,140=1/1,2,3;
 4//1;
 5/5=2,8=3,38=5/8;
 8/6=4,10=90,11=11/1;
 11/6=1,8=1,9=11,15=111,16=1/1,2,10;
 10/6=1/2;
 6/7=2,8=2,9=2,10=2,18=1,28=1/1;
 7/10=1,25=1/1,2,3,16;
 1/10=4,18=20,19=15,26=3/3(3);
 2/9=110/2;
 7/8=1,9=1,25=1,44=-1/16;
 99//99;
 2/9=110/2;
 3/5=1,6=6,7=1,11=2,25=1,30=1,71=2,74=-5,140=1/1,2,3;
 4/5=5,16=3,69=1/1;
 5/5=2,8=3,38=5/8;
 8/6=4,10=90,11=11/1;
 11/6=1,8=1,9=11,15=111,16=1/1,2,10;
 10/6=1/2;
 7/10=1,25=1/1,2,3,16;
 1/10=4,18=20,19=15,26=3/3(-8);
 2/9=110/2;
 6/7=2,8=2,9=2,10=2,18=1,19=2,28=1/1;
 7/8=1,9=1,25=1,44=-1/16;
 99//99;
 -------------------
 Title Card Required
 -------------------
 Symbolic Z-matrix:
 Charge =  0 Multiplicity = 1
 C2                    0.8141    0.1461    0.0473 
 O3                    0.20367  -0.92469   0.03356 
 N4                    0.2028    1.3863    0.0651 
 N5                   -1.0496    1.3066    0.0658 
 C6                   -1.6625    2.5457    0.0392 
 O7                   -2.75879   2.78511   0.54932 
 N8                   -0.9467    3.55611  -0.60731 
 C                     0.34202   3.25799  -1.22054 
 C                     0.42841   3.85     -2.62545 
 C                     0.10626   5.34304  -2.6201 
 C                    -1.23602   5.61201  -1.93975 
 C                    -1.30797   4.97346  -0.55245 
 N1                    2.2133    0.16629   0.03257 
 C                     2.95725  -1.08804   0.00071 
 C                     4.06441  -1.03838  -1.04939 
 C                     4.96307   0.1809   -0.8522 
 C                     4.13796   1.46646  -0.7926 
 C                     3.01312   1.37192   0.23853 
 H                     0.52138   2.18031  -1.26749 
 H                     1.11905   3.69044  -0.57805 
 H                    -0.28268   3.33226  -3.28131 
 H                     1.42944   3.68576  -3.04 
 H                     0.08305   5.72065  -3.64882 
 H                     0.9007    5.88778  -2.09585 
 H                    -2.03974   5.20473  -2.56561 
 H                    -1.40193   6.69238  -1.8627 
 H                    -2.30598   5.12114  -0.13153 
 H                    -0.59443   5.46209   0.12281 
 H                     2.29921  -1.938    -0.20335 
 H                     3.38629  -1.23969   0.9988 
 H                     3.61419  -0.9934   -2.04908 
 H                     4.66351  -1.95457  -1.00509 
 H                     5.68822   0.24291  -1.67186 
 H                     5.53636   0.06776   0.07592 
 H                     3.7043    1.65689  -1.7821 
 H                     4.7907    2.31444  -0.55702 
 H                     2.401     2.27655   0.1986 
 H                     3.43556   1.3096    1.24915 
 

 GradGradGradGradGradGradGradGradGradGradGradGradGradGradGradGradGradGrad
 Berny optimization.
 Initialization pass.
                           ----------------------------
                           !    Initial Parameters    !
                           ! (Angstroms and Degrees)  !
 --------------------------                            --------------------------
 ! Name  Definition              Value          Derivative Info.                !
 --------------------------------------------------------------------------------
 ! R1    R(1,2)                  1.2326         calculate D2E/DX2 analytically  !
 ! R2    R(1,3)                  1.3828         calculate D2E/DX2 analytically  !
 ! R3    R(1,13)                 1.3994         calculate D2E/DX2 analytically  !
 ! R4    R(3,4)                  1.2549         calculate D2E/DX2 analytically  !
 ! R5    R(4,5)                  1.3827         calculate D2E/DX2 analytically  !
 ! R6    R(5,6)                  1.2326         calculate D2E/DX2 analytically  !
 ! R7    R(5,7)                  1.3969         calculate D2E/DX2 analytically  !
 ! R8    R(7,8)                  1.458          calculate D2E/DX2 analytically  !
 ! R9    R(7,12)                 1.4637         calculate D2E/DX2 analytically  !
 ! R10   R(8,9)                  1.527          calculate D2E/DX2 analytically  !
 ! R11   R(8,19)                 1.0935         calculate D2E/DX2 analytically  !
 ! R12   R(8,20)                 1.0971         calculate D2E/DX2 analytically  !
 ! R13   R(9,10)                 1.5274         calculate D2E/DX2 analytically  !
 ! R14   R(9,21)                 1.0972         calculate D2E/DX2 analytically  !
 ! R15   R(9,22)                 1.0959         calculate D2E/DX2 analytically  !
 ! R16   R(10,11)                1.5287         calculate D2E/DX2 analytically  !
 ! R17   R(10,23)                1.0961         calculate D2E/DX2 analytically  !
 ! R18   R(10,24)                1.0967         calculate D2E/DX2 analytically  !
 ! R19   R(11,12)                1.5289         calculate D2E/DX2 analytically  !
 ! R20   R(11,25)                1.0971         calculate D2E/DX2 analytically  !
 ! R21   R(11,26)                1.0957         calculate D2E/DX2 analytically  !
 ! R22   R(12,27)                1.0932         calculate D2E/DX2 analytically  !
 ! R23   R(12,28)                1.0972         calculate D2E/DX2 analytically  !
 ! R24   R(13,14)                1.4587         calculate D2E/DX2 analytically  !
 ! R25   R(13,18)                1.4614         calculate D2E/DX2 analytically  !
 ! R26   R(14,15)                1.5268         calculate D2E/DX2 analytically  !
 ! R27   R(14,29)                1.0941         calculate D2E/DX2 analytically  !
 ! R28   R(14,30)                1.0969         calculate D2E/DX2 analytically  !
 ! R29   R(15,16)                1.5275         calculate D2E/DX2 analytically  !
 ! R30   R(15,31)                1.0973         calculate D2E/DX2 analytically  !
 ! R31   R(15,32)                1.0956         calculate D2E/DX2 analytically  !
 ! R32   R(16,17)                1.5287         calculate D2E/DX2 analytically  !
 ! R33   R(16,33)                1.0961         calculate D2E/DX2 analytically  !
 ! R34   R(16,34)                1.0968         calculate D2E/DX2 analytically  !
 ! R35   R(17,18)                1.5289         calculate D2E/DX2 analytically  !
 ! R36   R(17,35)                1.097          calculate D2E/DX2 analytically  !
 ! R37   R(17,36)                1.0957         calculate D2E/DX2 analytically  !
 ! R38   R(18,37)                1.093          calculate D2E/DX2 analytically  !
 ! R39   R(18,38)                1.0971         calculate D2E/DX2 analytically  !
 ! A1    A(2,1,3)              124.0791         calculate D2E/DX2 analytically  !
 ! A2    A(2,1,13)             120.5013         calculate D2E/DX2 analytically  !
 ! A3    A(3,1,13)             115.417          calculate D2E/DX2 analytically  !
 ! A4    A(1,3,4)              112.5961         calculate D2E/DX2 analytically  !
 ! A5    A(3,4,5)              112.6722         calculate D2E/DX2 analytically  !
 ! A6    A(4,5,6)              124.0797         calculate D2E/DX2 analytically  !
 ! A7    A(4,5,7)              115.467          calculate D2E/DX2 analytically  !
 ! A8    A(6,5,7)              120.4505         calculate D2E/DX2 analytically  !
 ! A9    A(5,7,8)              119.98           calculate D2E/DX2 analytically  !
 ! A10   A(5,7,12)             123.8214         calculate D2E/DX2 analytically  !
 ! A11   A(8,7,12)             115.59           calculate D2E/DX2 analytically  !
 ! A12   A(7,8,9)              110.9594         calculate D2E/DX2 analytically  !
 ! A13   A(7,8,19)             111.38           calculate D2E/DX2 analytically  !
 ! A14   A(7,8,20)             107.405          calculate D2E/DX2 analytically  !
 ! A15   A(9,8,19)             109.4693         calculate D2E/DX2 analytically  !
 ! A16   A(9,8,20)             110.238          calculate D2E/DX2 analytically  !
 ! A17   A(19,8,20)            107.3044         calculate D2E/DX2 analytically  !
 ! A18   A(8,9,10)             111.3348         calculate D2E/DX2 analytically  !
 ! A19   A(8,9,21)             109.2904         calculate D2E/DX2 analytically  !
 ! A20   A(8,9,22)             109.9756         calculate D2E/DX2 analytically  !
 ! A21   A(10,9,21)            109.066          calculate D2E/DX2 analytically  !
 ! A22   A(10,9,22)            109.9068         calculate D2E/DX2 analytically  !
 ! A23   A(21,9,22)            107.1676         calculate D2E/DX2 analytically  !
 ! A24   A(9,10,11)            111.0227         calculate D2E/DX2 analytically  !
 ! A25   A(9,10,23)            109.7512         calculate D2E/DX2 analytically  !
 ! A26   A(9,10,24)            109.5377         calculate D2E/DX2 analytically  !
 ! A27   A(11,10,23)           109.785          calculate D2E/DX2 analytically  !
 ! A28   A(11,10,24)           109.6284         calculate D2E/DX2 analytically  !
 ! A29   A(23,10,24)           107.0299         calculate D2E/DX2 analytically  !
 ! A30   A(10,11,12)           111.8186         calculate D2E/DX2 analytically  !
 ! A31   A(10,11,25)           108.9083         calculate D2E/DX2 analytically  !
 ! A32   A(10,11,26)           109.738          calculate D2E/DX2 analytically  !
 ! A33   A(12,11,25)           109.1549         calculate D2E/DX2 analytically  !
 ! A34   A(12,11,26)           109.9294         calculate D2E/DX2 analytically  !
 ! A35   A(25,11,26)           107.171          calculate D2E/DX2 analytically  !
 ! A36   A(7,12,11)            111.0268         calculate D2E/DX2 analytically  !
 ! A37   A(7,12,27)            111.7517         calculate D2E/DX2 analytically  !
 ! A38   A(7,12,28)            107.085          calculate D2E/DX2 analytically  !
 ! A39   A(11,12,27)           109.629          calculate D2E/DX2 analytically  !
 ! A40   A(11,12,28)           109.9886         calculate D2E/DX2 analytically  !
 ! A41   A(27,12,28)           107.2524         calculate D2E/DX2 analytically  !
 ! A42   A(1,13,14)            119.8512         calculate D2E/DX2 analytically  !
 ! A43   A(1,13,18)            123.8921         calculate D2E/DX2 analytically  !
 ! A44   A(14,13,18)           115.6804         calculate D2E/DX2 analytically  !
 ! A45   A(13,14,15)           110.9097         calculate D2E/DX2 analytically  !
 ! A46   A(13,14,29)           111.4286         calculate D2E/DX2 analytically  !
 ! A47   A(13,14,30)           107.3666         calculate D2E/DX2 analytically  !
 ! A48   A(15,14,29)           109.4591         calculate D2E/DX2 analytically  !
 ! A49   A(15,14,30)           110.2847         calculate D2E/DX2 analytically  !
 ! A50   A(29,14,30)           107.31           calculate D2E/DX2 analytically  !
 ! A51   A(14,15,16)           111.3348         calculate D2E/DX2 analytically  !
 ! A52   A(14,15,31)           109.2935         calculate D2E/DX2 analytically  !
 ! A53   A(14,15,32)           109.9706         calculate D2E/DX2 analytically  !
 ! A54   A(16,15,31)           109.0432         calculate D2E/DX2 analytically  !
 ! A55   A(16,15,32)           109.9132         calculate D2E/DX2 analytically  !
 ! A56   A(31,15,32)           107.1863         calculate D2E/DX2 analytically  !
 ! A57   A(15,16,17)           111.0237         calculate D2E/DX2 analytically  !
 ! A58   A(15,16,33)           109.7451         calculate D2E/DX2 analytically  !
 ! A59   A(15,16,34)           109.5382         calculate D2E/DX2 analytically  !
 ! A60   A(17,16,33)           109.794          calculate D2E/DX2 analytically  !
 ! A61   A(17,16,34)           109.6264         calculate D2E/DX2 analytically  !
 ! A62   A(33,16,34)           107.0273         calculate D2E/DX2 analytically  !
 ! A63   A(16,17,18)           111.8017         calculate D2E/DX2 analytically  !
 ! A64   A(16,17,35)           108.9155         calculate D2E/DX2 analytically  !
 ! A65   A(16,17,36)           109.7336         calculate D2E/DX2 analytically  !
 ! A66   A(18,17,35)           109.1616         calculate D2E/DX2 analytically  !
 ! A67   A(18,17,36)           109.9461         calculate D2E/DX2 analytically  !
 ! A68   A(35,17,36)           107.1621         calculate D2E/DX2 analytically  !
 ! A69   A(13,18,17)           111.0161         calculate D2E/DX2 analytically  !
 ! A70   A(13,18,37)           111.7866         calculate D2E/DX2 analytically  !
 ! A71   A(13,18,38)           107.0791         calculate D2E/DX2 analytically  !
 ! A72   A(17,18,37)           109.6468         calculate D2E/DX2 analytically  !
 ! A73   A(17,18,38)           109.9674         calculate D2E/DX2 analytically  !
 ! A74   A(37,18,38)           107.2357         calculate D2E/DX2 analytically  !
 ! D1    D(2,1,3,4)             -0.0002         calculate D2E/DX2 analytically  !
 ! D2    D(13,1,3,4)           179.4104         calculate D2E/DX2 analytically  !
 ! D3    D(2,1,13,14)            0.0002         calculate D2E/DX2 analytically  !
 ! D4    D(2,1,13,18)         -170.9096         calculate D2E/DX2 analytically  !
 ! D5    D(3,1,13,14)         -179.4332         calculate D2E/DX2 analytically  !
 ! D6    D(3,1,13,18)            9.657          calculate D2E/DX2 analytically  !
 ! D7    D(1,3,4,5)           -178.0064         calculate D2E/DX2 analytically  !
 ! D8    D(3,4,5,6)           -149.6469         calculate D2E/DX2 analytically  !
 ! D9    D(3,4,5,7)             29.741          calculate D2E/DX2 analytically  !
 ! D10   D(4,5,7,8)              1.2938         calculate D2E/DX2 analytically  !
 ! D11   D(4,5,7,12)          -169.359          calculate D2E/DX2 analytically  !
 ! D12   D(6,5,7,8)           -179.2942         calculate D2E/DX2 analytically  !
 ! D13   D(6,5,7,12)            10.0529         calculate D2E/DX2 analytically  !
 ! D14   D(5,7,8,9)            133.4707         calculate D2E/DX2 analytically  !
 ! D15   D(5,7,8,19)            11.245          calculate D2E/DX2 analytically  !
 ! D16   D(5,7,8,20)          -105.9798         calculate D2E/DX2 analytically  !
 ! D17   D(12,7,8,9)           -55.1334         calculate D2E/DX2 analytically  !
 ! D18   D(12,7,8,19)         -177.3591         calculate D2E/DX2 analytically  !
 ! D19   D(12,7,8,20)           65.4161         calculate D2E/DX2 analytically  !
 ! D20   D(5,7,12,11)         -134.8054         calculate D2E/DX2 analytically  !
 ! D21   D(5,7,12,27)          -12.0635         calculate D2E/DX2 analytically  !
 ! D22   D(5,7,12,28)          105.1102         calculate D2E/DX2 analytically  !
 ! D23   D(8,7,12,11)           54.1685         calculate D2E/DX2 analytically  !
 ! D24   D(8,7,12,27)          176.9104         calculate D2E/DX2 analytically  !
 ! D25   D(8,7,12,28)          -65.9158         calculate D2E/DX2 analytically  !
 ! D26   D(7,8,9,10)            53.458          calculate D2E/DX2 analytically  !
 ! D27   D(7,8,9,21)           -67.0898         calculate D2E/DX2 analytically  !
 ! D28   D(7,8,9,22)           175.5251         calculate D2E/DX2 analytically  !
 ! D29   D(19,8,9,10)          176.7887         calculate D2E/DX2 analytically  !
 ! D30   D(19,8,9,21)           56.241          calculate D2E/DX2 analytically  !
 ! D31   D(19,8,9,22)          -61.1441         calculate D2E/DX2 analytically  !
 ! D32   D(20,8,9,10)          -65.3987         calculate D2E/DX2 analytically  !
 ! D33   D(20,8,9,21)          174.0536         calculate D2E/DX2 analytically  !
 ! D34   D(20,8,9,22)           56.6685         calculate D2E/DX2 analytically  !
 ! D35   D(8,9,10,11)          -53.1496         calculate D2E/DX2 analytically  !
 ! D36   D(8,9,10,23)         -174.7027         calculate D2E/DX2 analytically  !
 ! D37   D(8,9,10,24)           68.0646         calculate D2E/DX2 analytically  !
 ! D38   D(21,9,10,11)          67.5301         calculate D2E/DX2 analytically  !
 ! D39   D(21,9,10,23)         -54.023          calculate D2E/DX2 analytically  !
 ! D40   D(21,9,10,24)        -171.2557         calculate D2E/DX2 analytically  !
 ! D41   D(22,9,10,11)        -175.2566         calculate D2E/DX2 analytically  !
 ! D42   D(22,9,10,23)          63.1903         calculate D2E/DX2 analytically  !
 ! D43   D(22,9,10,24)         -54.0424         calculate D2E/DX2 analytically  !
 ! D44   D(9,10,11,12)          52.4209         calculate D2E/DX2 analytically  !
 ! D45   D(9,10,11,25)         -68.2921         calculate D2E/DX2 analytically  !
 ! D46   D(9,10,11,26)         174.6785         calculate D2E/DX2 analytically  !
 ! D47   D(23,10,11,12)        173.9542         calculate D2E/DX2 analytically  !
 ! D48   D(23,10,11,25)         53.2413         calculate D2E/DX2 analytically  !
 ! D49   D(23,10,11,26)        -63.7881         calculate D2E/DX2 analytically  !
 ! D50   D(24,10,11,12)        -68.74           calculate D2E/DX2 analytically  !
 ! D51   D(24,10,11,25)        170.547          calculate D2E/DX2 analytically  !
 ! D52   D(24,10,11,26)         53.5176         calculate D2E/DX2 analytically  !
 ! D53   D(10,11,12,7)         -51.6945         calculate D2E/DX2 analytically  !
 ! D54   D(10,11,12,27)       -175.6545         calculate D2E/DX2 analytically  !
 ! D55   D(10,11,12,28)         66.6485         calculate D2E/DX2 analytically  !
 ! D56   D(25,11,12,7)          68.8749         calculate D2E/DX2 analytically  !
 ! D57   D(25,11,12,27)        -55.0852         calculate D2E/DX2 analytically  !
 ! D58   D(25,11,12,28)       -172.7821         calculate D2E/DX2 analytically  !
 ! D59   D(26,11,12,7)        -173.8426         calculate D2E/DX2 analytically  !
 ! D60   D(26,11,12,27)         62.1974         calculate D2E/DX2 analytically  !
 ! D61   D(26,11,12,28)        -55.4995         calculate D2E/DX2 analytically  !
 ! D62   D(1,13,14,15)         133.2484         calculate D2E/DX2 analytically  !
 ! D63   D(1,13,14,29)          11.0368         calculate D2E/DX2 analytically  !
 ! D64   D(1,13,14,30)        -106.1985         calculate D2E/DX2 analytically  !
 ! D65   D(18,13,14,15)        -55.1189         calculate D2E/DX2 analytically  !
 ! D66   D(18,13,14,29)       -177.3305         calculate D2E/DX2 analytically  !
 ! D67   D(18,13,14,30)         65.4342         calculate D2E/DX2 analytically  !
 ! D68   D(1,13,18,17)        -134.553          calculate D2E/DX2 analytically  !
 ! D69   D(1,13,18,37)         -11.7709         calculate D2E/DX2 analytically  !
 ! D70   D(1,13,18,38)         105.3984         calculate D2E/DX2 analytically  !
 ! D71   D(14,13,18,17)         54.1925         calculate D2E/DX2 analytically  !
 ! D72   D(14,13,18,37)        176.9745         calculate D2E/DX2 analytically  !
 ! D73   D(14,13,18,38)        -65.8561         calculate D2E/DX2 analytically  !
 ! D74   D(13,14,15,16)         53.382          calculate D2E/DX2 analytically  !
 ! D75   D(13,14,15,31)        -67.1395         calculate D2E/DX2 analytically  !
 ! D76   D(13,14,15,32)        175.4539         calculate D2E/DX2 analytically  !
 ! D77   D(29,14,15,16)        176.7337         calculate D2E/DX2 analytically  !
 ! D78   D(29,14,15,31)         56.2122         calculate D2E/DX2 analytically  !
 ! D79   D(29,14,15,32)        -61.1944         calculate D2E/DX2 analytically  !
 ! D80   D(30,14,15,16)        -65.4253         calculate D2E/DX2 analytically  !
 ! D81   D(30,14,15,31)        174.0532         calculate D2E/DX2 analytically  !
 ! D82   D(30,14,15,32)         56.6466         calculate D2E/DX2 analytically  !
 ! D83   D(14,15,16,17)        -53.1543         calculate D2E/DX2 analytically  !
 ! D84   D(14,15,16,33)       -174.7155         calculate D2E/DX2 analytically  !
 ! D85   D(14,15,16,34)         68.0583         calculate D2E/DX2 analytically  !
 ! D86   D(31,15,16,17)         67.5143         calculate D2E/DX2 analytically  !
 ! D87   D(31,15,16,33)        -54.0468         calculate D2E/DX2 analytically  !
 ! D88   D(31,15,16,34)       -171.2731         calculate D2E/DX2 analytically  !
 ! D89   D(32,15,16,17)       -175.2595         calculate D2E/DX2 analytically  !
 ! D90   D(32,15,16,33)         63.1794         calculate D2E/DX2 analytically  !
 ! D91   D(32,15,16,34)        -54.0469         calculate D2E/DX2 analytically  !
 ! D92   D(15,16,17,18)         52.4334         calculate D2E/DX2 analytically  !
 ! D93   D(15,16,17,35)        -68.282          calculate D2E/DX2 analytically  !
 ! D94   D(15,16,17,36)        174.6977         calculate D2E/DX2 analytically  !
 ! D95   D(33,16,17,18)        173.9659         calculate D2E/DX2 analytically  !
 ! D96   D(33,16,17,35)         53.2505         calculate D2E/DX2 analytically  !
 ! D97   D(33,16,17,36)        -63.7698         calculate D2E/DX2 analytically  !
 ! D98   D(34,16,17,18)        -68.7274         calculate D2E/DX2 analytically  !
 ! D99   D(34,16,17,35)        170.5573         calculate D2E/DX2 analytically  !
 ! D100  D(34,16,17,36)         53.537          calculate D2E/DX2 analytically  !
 ! D101  D(16,17,18,13)        -51.7103         calculate D2E/DX2 analytically  !
 ! D102  D(16,17,18,37)       -175.72           calculate D2E/DX2 analytically  !
 ! D103  D(16,17,18,38)         66.6053         calculate D2E/DX2 analytically  !
 ! D104  D(35,17,18,13)         68.8618         calculate D2E/DX2 analytically  !
 ! D105  D(35,17,18,37)        -55.1479         calculate D2E/DX2 analytically  !
 ! D106  D(35,17,18,38)       -172.8226         calculate D2E/DX2 analytically  !
 ! D107  D(36,17,18,13)       -173.8528         calculate D2E/DX2 analytically  !
 ! D108  D(36,17,18,37)         62.1375         calculate D2E/DX2 analytically  !
 ! D109  D(36,17,18,38)        -55.5372         calculate D2E/DX2 analytically  !
 --------------------------------------------------------------------------------
 Trust Radius=3.00D-01 FncErr=1.00D-07 GrdErr=1.00D-06 EigMax=2.50D+02 EigMin=1.00D-04
 Number of steps in this run=    228 maximum allowed number of steps=    228.
 GradGradGradGradGradGradGradGradGradGradGradGradGradGradGradGradGradGrad

                          Input orientation:                          
 ---------------------------------------------------------------------
 Center     Atomic      Atomic             Coordinates (Angstroms)
 Number     Number       Type             X           Y           Z
 ---------------------------------------------------------------------
      1          6           0        0.814100    0.146100    0.047300
      2          8           0        0.203670   -0.924690    0.033560
      3          7           0        0.202800    1.386300    0.065100
      4          7           0       -1.049600    1.306600    0.065800
      5          6           0       -1.662500    2.545700    0.039200
      6          8           0       -2.758790    2.785110    0.549320
      7          7           0       -0.946700    3.556110   -0.607310
      8          6           0        0.342020    3.257990   -1.220540
      9          6           0        0.428410    3.850000   -2.625450
     10          6           0        0.106260    5.343040   -2.620100
     11          6           0       -1.236020    5.612010   -1.939750
     12          6           0       -1.307970    4.973460   -0.552450
     13          7           0        2.213300    0.166290    0.032570
     14          6           0        2.957250   -1.088040    0.000710
     15          6           0        4.064410   -1.038380   -1.049390
     16          6           0        4.963070    0.180900   -0.852200
     17          6           0        4.137960    1.466460   -0.792600
     18          6           0        3.013120    1.371920    0.238530
     19          1           0        0.521380    2.180310   -1.267490
     20          1           0        1.119050    3.690440   -0.578050
     21          1           0       -0.282680    3.332260   -3.281310
     22          1           0        1.429440    3.685760   -3.040000
     23          1           0        0.083050    5.720650   -3.648820
     24          1           0        0.900700    5.887780   -2.095850
     25          1           0       -2.039740    5.204730   -2.565610
     26          1           0       -1.401930    6.692380   -1.862700
     27          1           0       -2.305980    5.121140   -0.131530
     28          1           0       -0.594430    5.462090    0.122810
     29          1           0        2.299210   -1.938000   -0.203350
     30          1           0        3.386290   -1.239690    0.998800
     31          1           0        3.614190   -0.993400   -2.049080
     32          1           0        4.663510   -1.954570   -1.005090
     33          1           0        5.688220    0.242910   -1.671860
     34          1           0        5.536360    0.067760    0.075920
     35          1           0        3.704300    1.656890   -1.782100
     36          1           0        4.790700    2.314440   -0.557020
     37          1           0        2.401000    2.276550    0.198600
     38          1           0        3.435560    1.309600    1.249150
 ---------------------------------------------------------------------
                    Distance matrix (angstroms):
                    1          2          3          4          5
     1  C    0.000000
     2  O    1.232641   0.000000
     3  N    1.382787   2.311205   0.000000
     4  N    2.195559   2.559371   1.254934   0.000000
     5  C    3.448433   3.940334   2.196411   1.382651   0.000000
     6  O    4.470116   4.775436   3.310914   2.311085   1.232636
     7  N    3.893212   4.670293   2.545891   2.350311   1.396880
     8  C    3.393249   4.368835   2.274967   2.720147   2.472327
     9  C    4.583800   5.469781   3.655103   3.987007   3.629527
    10  C    5.884237   6.807043   4.782825   4.984267   4.245645
    11  C    6.166647   6.978188   4.893491   4.753266   3.674287
    12  C    5.307192   6.116914   3.941004   3.727580   2.523838
    13  N    1.399423   2.286668   2.351934   3.456577   4.547907
    14  C    2.473533   2.758617   3.703174   4.668339   5.877724
    15  C    3.629082   4.011361   4.693953   5.735475   6.843110
    16  C    4.245499   4.965762   4.995458   6.185639   7.091195
    17  C    3.673803   4.677475   4.028344   5.260531   5.958354
    18  C    2.524855   3.634479   2.815703   4.066915   4.824823
    19  H    2.439748   3.381523   1.583585   2.238082   2.571047
    20  H    3.611981   4.744619   2.561682   3.286378   3.070578
    21  H    4.736474   5.417243   3.901399   3.986804   3.680811
    22  H    4.737009   5.674992   4.053863   4.631634   4.510133
    23  H    6.728398   7.598356   5.709127   5.879212   5.169985
    24  H    6.129232   7.171470   5.041834   5.428039   4.722069
    25  H    6.368786   7.025551   5.150731   4.806258   3.741361
    26  H    7.170263   8.012085   5.869076   5.731481   4.569472
    27  H    5.875194   6.548103   4.503518   4.020963   2.660095
    28  H    5.499946   6.437071   4.153429   4.180733   3.106943
    29  H    2.571352   2.339703   3.939286   4.670589   5.988117
    30  H    3.072772   3.340656   4.231102   5.199154   6.382812
    31  H    3.678828   3.996718   4.665867   5.613702   6.688019
    32  H    4.509800   4.693572   5.674914   6.664958   7.833350
    33  H    5.169326   5.861061   5.866362   7.039113   7.890732
    34  H    4.722996   5.424420   5.494136   6.701470   7.613483
    35  H    3.739311   4.713341   3.968106   5.112436   5.736694
    36  H    4.569491   5.646379   4.722002   5.959258   6.484809
    37  H    2.660820   3.886314   2.375384   3.586792   4.075522
    38  H    3.109699   4.112764   3.443631   4.638641   5.383506
                    6          7          8          9         10
     6  O    0.000000
     7  N    2.283835   0.000000
     8  C    3.601533   1.457987   0.000000
     9  C    4.622921   2.459713   1.526994   0.000000
    10  C    4.979633   2.890185   2.522258   1.527409   0.000000
    11  C    4.062716   2.466947   2.923847   2.518966   1.528704
    12  C    2.847394   1.463696   2.472175   2.928226   2.532156
    13  N    5.643308   4.678240   3.824994   4.880637   6.186681
    14  C    6.926426   6.097429   5.217169   6.138077   7.507035
    15  C    7.983170   6.812929   5.687203   6.292910   7.671806
    16  C    8.268814   6.810095   5.564015   6.096708   7.304914
    17  C    7.148758   5.500431   4.219227   4.775077   5.884066
    18  C    5.950516   4.600685   3.580631   4.585192   5.691344
    19  H    3.798170   2.117527   1.093512   2.154197   3.464786
    20  H    4.138626   2.070320   1.097079   2.166631   2.815457
    21  H    4.593933   2.764291   2.154655   1.097204   2.152141
    22  H    5.588887   3.403062   2.162384   1.095850   2.161874
    23  H    5.858142   3.872519   3.468184   2.160067   1.096081
    24  H    5.478627   3.326458   2.827382   2.157795   1.096683
    25  H    4.009287   2.783455   3.357349   2.816139   2.151143
    26  H    4.788076   3.408728   3.904967   3.465697   2.160789
    27  H    2.475001   2.126812   3.416017   3.913096   3.472913
    28  H    3.468802   2.071214   2.745830   3.346337   2.833495
    29  H    6.961153   6.394088   5.644783   6.547320   7.978926
    30  H    7.359555   6.659887   5.867041   6.912972   8.196790
    31  H    7.851350   6.601398   5.428434   5.825798   7.265130
    32  H    8.942667   7.874026   6.774399   7.365777   8.753965
    33  H    9.096615   7.492178   6.154368   6.448723   7.620286
    34  H    8.741717   7.393609   6.232138   6.906076   8.036360
    35  H    6.962753   5.159357   3.766138   4.031430   5.218797
    36  H    7.644627   5.870437   4.595791   5.066154   5.947495
    37  H    5.196640   3.673399   2.686370   3.787098   4.755446
    38  H    6.406002   5.262837   4.411982   5.523505   6.505688
                   11         12         13         14         15
    11  C    0.000000
    12  C    1.528896   0.000000
    13  N    6.741196   5.987527   0.000000
    14  C    8.138769   7.432353   1.458705   0.000000
    15  C    8.550730   8.077849   2.459365   1.526755   0.000000
    16  C    8.313148   7.898381   2.888644   2.522098   1.527455
    17  C    6.883400   6.481888   2.464886   2.923848   2.519042
    18  C    6.385801   5.680542   1.461395   2.472060   2.928053
    19  H    3.913688   3.414600   2.934114   4.268947   4.791721
    20  H    3.330617   2.745400   3.740304   5.152457   5.590979
    21  H    2.811743   3.345360   5.218724   6.388103   6.556001
    22  H    3.467804   3.916566   4.737277   5.862532   5.763948
    23  H    2.161636   3.475735   6.995821   8.242473   8.263943
    24  H    2.160090   2.845398   6.244080   7.568819   7.686080
    25  H    1.097061   2.154481   7.086943   8.435334   8.862054
    26  H    1.095747   2.163393   7.697518   9.110965   9.502999
    27  H    2.157644   1.093164   6.708305   8.140823   8.908649
    28  H    2.165241   1.097212   5.994747   7.452083   8.083004
    29  H    8.515608   7.803967   2.119216   1.094116   2.154305
    30  H    8.771922   7.940131   2.070335   1.096931   2.166900
    31  H    8.195604   7.878514   2.764171   2.154569   1.097316
    32  H    9.640082   9.157568   3.402692   2.161905   1.095576
    33  H    8.766077   8.519264   3.871178   3.468013   2.160077
    34  H    8.981468   8.444264   3.324803   2.827249   2.157894
    35  H    6.330449   6.134699   2.781725   3.357251   2.816207
    36  H    7.007658   6.653133   3.406634   3.905057   3.465736
    37  H    5.378266   4.646919   2.125087   3.415998   3.913205
    38  H    7.106580   6.258651   2.069093   2.745189   3.345407
                   16         17         18         19         20
    16  C    0.000000
    17  C    1.528733   0.000000
    18  C    2.531902   1.528866   0.000000
    19  H    4.888631   3.716820   3.021648   0.000000
    20  H    5.212343   3.755787   3.103198   1.764378   0.000000
    21  H    6.584037   5.405270   5.205238   2.455397   3.066065
    22  H    5.436640   4.160791   4.314007   2.496546   2.481443
    23  H    7.894587   6.534403   6.527500   4.289158   3.824222
    24  H    7.114632   5.632618   5.504965   3.817774   2.679496
    25  H    8.787149   7.435200   6.934337   4.170320   4.027583
    26  H    9.161534   7.690626   7.226004   4.940868   4.125204
    27  H    8.818414   7.437611   6.518161   4.234720   3.738598
    28  H    7.728352   6.260875   5.455025   3.734708   2.562413
    29  H    3.465096   3.913894   3.414747   4.610157   5.763030
    30  H    2.816116   3.331271   2.745501   5.004016   5.650930
    31  H    2.151971   2.811403   3.345024   4.499866   5.507087
    32  H    2.161792   3.467679   3.916109   5.858611   6.679199
    33  H    1.096143   2.161823   3.475689   5.532926   5.827452
    34  H    1.096754   2.160141   2.844998   5.605144   5.750140
    35  H    2.151223   1.097012   2.154503   3.266462   3.502653
    36  H    2.160749   1.095736   2.163570   4.330110   3.921075
    37  H    3.472770   2.157719   1.092996   2.385719   2.060501
    38  H    2.832476   2.164882   1.097129   3.947665   3.791211
                   21         22         23         24         25
    21  H    0.000000
    22  H    1.764808   0.000000
    23  H    2.444019   2.514797   0.000000
    24  H    3.055550   2.453544   1.763009   0.000000
    25  H    2.665639   3.816743   2.438392   3.055065   0.000000
    26  H    3.815178   4.294468   2.517866   2.450274   1.764649
    27  H    4.149090   4.947007   4.293973   3.837849   2.450024
    28  H    4.027580   4.153886   3.840706   2.709073   3.063129
    29  H    6.626887   6.358440   8.685479   8.171916   8.684777
    30  H    7.258334   6.663424   8.997672   8.158177   9.147534
    31  H    5.951077   5.258288   7.752844   7.397017   8.405388
    32  H    7.589239   6.812737   9.320886   8.766467   9.930980
    33  H    6.912746   5.644664   8.082817   7.413816   9.227124
    34  H    7.469215   6.298069   8.692954   7.751036   9.526984
    35  H    4.577172   3.297516   5.754324   5.085179   6.796694
    36  H    5.847811   4.398156   6.582056   5.501714   7.683952
    37  H    4.519561   3.663104   5.660155   4.533915   5.994603
    38  H    6.200123   5.297873   7.395052   6.210819   7.726794
                   26         27         28         29         30
    26  H    0.000000
    27  H    2.506602   0.000000
    28  H    2.471421   1.763615   0.000000
    29  H    9.536002   8.428783   7.952413   0.000000
    30  H    9.697060   8.610444   7.843937   1.764807   0.000000
    31  H    9.179728   8.724277   8.006431   2.455231   3.066296
    32  H   10.596924   9.970084   9.161055   2.496593   2.481516
    33  H    9.586569   9.490889   8.362558   4.289321   3.824841
    34  H    9.786915   9.331773   8.166246   3.818403   2.680286
    35  H    7.171906   7.130840   6.048744   4.170128   4.027991
    36  H    7.695442   7.643394   6.274511   4.941240   4.126110
    37  H    6.181488   5.509659   4.373329   4.234897   3.738323
    38  H    7.877769   7.028470   5.895137   3.734696   2.562027
                   31         32         33         34         35
    31  H    0.000000
    32  H    1.764890   0.000000
    33  H    2.443841   2.514663   0.000000
    34  H    3.055556   2.453624   1.763086   0.000000
    35  H    2.665227   3.816605   2.438736   3.055162   0.000000
    36  H    3.814738   4.294344   2.517866   2.450345   1.764499
    37  H    4.149273   4.946736   4.294197   3.837224   2.450662
    38  H    4.026666   4.152621   3.839870   2.707766   3.062892
                   36         37         38
    36  H    0.000000
    37  H    2.506604   0.000000
    38  H    2.471509   1.763225   0.000000
 Stoichiometry    C12H20N4O2
 Framework group  C1[X(C12H20N4O2)]
 Deg. of freedom   108
 Full point group                 C1      NOp   1
 Largest Abelian subgroup         C1      NOp   1
 Largest concise Abelian subgroup C1      NOp   1
                         Standard orientation:                         
 ---------------------------------------------------------------------
 Center     Atomic      Atomic             Coordinates (Angstroms)
 Number     Number       Type             X           Y           Z
 ---------------------------------------------------------------------
      1          6           0       -1.312913    1.442341   -0.180169
      2          8           0       -1.630338    2.449301   -0.816313
      3          7           0       -0.015497    1.133732    0.185304
      4          7           0        0.812124    1.993904   -0.202004
      5          6           0        2.114830    1.664965    0.124305
      6          8           0        2.999127    2.492239    0.354586
      7          7           0        2.388988    0.297132    0.196022
      8          6           0        1.339298   -0.672459   -0.093407
      9          6           0        1.848812   -1.765976   -1.029531
     10          6           0        3.120626   -2.414370   -0.486346
     11          6           0        4.180239   -1.359912   -0.166542
     12          6           0        3.629916   -0.257686    0.738867
     13          7           0       -2.284192    0.514110    0.211482
     14          6           0       -3.683514    0.737690   -0.134537
     15          6           0       -4.313151   -0.530823   -0.704987
     16          6           0       -4.115485   -1.719755    0.233355
     17          6           0       -2.640128   -1.894842    0.593482
     18          6           0       -2.027329   -0.598377    1.123660
     19          1           0        0.463592   -0.191247   -0.537639
     20          1           0        1.022515   -1.108246    0.862271
     21          1           0        2.060859   -1.330517   -2.014045
     22          1           0        1.073721   -2.527301   -1.172729
     23          1           0        3.515590   -3.126684   -1.219834
     24          1           0        2.883299   -2.984776    0.419760
     25          1           0        4.531623   -0.913044   -1.104829
     26          1           0        5.044997   -1.836499    0.308558
     27          1           0        4.390577    0.514376    0.881422
     28          1           0        3.393608   -0.668348    1.728509
     29          1           0       -3.791630    1.554016   -0.854961
     30          1           0       -4.203187    1.040873    0.782674
     31          1           0       -3.853030   -0.759564   -1.674557
     32          1           0       -5.382047   -0.370229   -0.883759
     33          1           0       -4.492587   -2.632932   -0.241442
     34          1           0       -4.702188   -1.567182    1.147340
     35          1           0       -2.091003   -2.213114   -0.301280
     36          1           0       -2.533161   -2.690963    1.338725
     37          1           0       -0.957826   -0.741682    1.297638
     38          1           0       -2.481206   -0.336174    2.087474
 ---------------------------------------------------------------------
 Rotational constants (GHZ):           0.7114890           0.2494134           0.1979641
 Standard basis: 6-31G(d) (6D, 7F)
 There are   310 symmetry adapted cartesian basis functions of A   symmetry.
 There are   310 symmetry adapted basis functions of A   symmetry.
   310 basis functions,   584 primitive gaussians,   310 cartesian basis functions
    68 alpha electrons       68 beta electrons
       nuclear repulsion energy      1406.8712455921 Hartrees.
 NAtoms=   38 NActive=   38 NUniq=   38 SFac= 1.00D+00 NAtFMM=   60 NAOKFM=F Big=F
 Integral buffers will be    131072 words long.
 Raffenetti 2 integral format.
 Two-electron integral symmetry is turned on.
 One-electron integrals computed using PRISM.
 NBasis=   310 RedAO= T EigKep=  1.84D-03  NBF=   310
 NBsUse=   310 1.00D-06 EigRej= -1.00D+00 NBFU=   310
 ExpMin= 1.61D-01 ExpMax= 5.48D+03 ExpMxC= 8.25D+02 IAcc=3 IRadAn=         5 AccDes= 0.00D+00
 Harris functional with IExCor=  402 and IRadAn=       5 diagonalized for initial guess.
 HarFok:  IExCor=  402 AccDes= 0.00D+00 IRadAn=         5 IDoV= 1 UseB2=F ITyADJ=14
 ICtDFT=  3500011 ScaDFX=  1.000000  1.000000  1.000000  1.000000
 FoFCou: FMM=F IPFlag=           0 FMFlag=      100000 FMFlg1=           0
         NFxFlg=           0 DoJE=T BraDBF=F KetDBF=T FulRan=T
         wScrn=  0.000000 ICntrl=       500 IOpCl=  0 I1Cent=   200000004 NGrid=           0
         NMat0=    1 NMatS0=      1 NMatT0=    0 NMatD0=    1 NMtDS0=    0 NMtDT0=    0
 Petite list used in FoFCou.
 Gradient too large for Newton-Raphson -- use scaled steepest descent instead.
 Gradient too large for Newton-Raphson -- use scaled steepest descent instead.
     Accept linear search using points  2 and  3.
 Gradient too large for Newton-Raphson -- use scaled steepest descent instead.
     Minimum is close to point  2 DX=  3.94D-02 DF= -7.90D-05 DXR=  8.96D-02 DFR=  8.10D-03 which will be used.
 Gradient too large for Newton-Raphson -- use scaled steepest descent instead.
 Gradient too large for Newton-Raphson -- use scaled steepest descent instead.
     Accept linear search using points  1 and  2.
 Gradient too large for Newton-Raphson -- use scaled steepest descent instead.
     Minimum is close to point  3 DX=  2.56D-02 DF= -4.40D-07 DXR=  2.77D-02 DFR=  7.68D-04 which will be used.
 Gradient too large for Newton-Raphson -- use scaled steepest descent instead.
     Accept linear search using points  1 and  2.
 LinEq1:  Iter=  0 NonCon=     1 RMS=3.65D-05 Max=2.37D-03 NDo=     1
 AX will form     1 AO Fock derivatives at one time.
 LinEq1:  Iter=  1 NonCon=     1 RMS=1.16D-05 Max=5.19D-04 NDo=     1
 LinEq1:  Iter=  2 NonCon=     1 RMS=1.16D-05 Max=7.67D-04 NDo=     1
 LinEq1:  Iter=  3 NonCon=     1 RMS=6.75D-06 Max=3.96D-04 NDo=     1
 LinEq1:  Iter=  4 NonCon=     1 RMS=6.87D-06 Max=3.57D-04 NDo=     1
 LinEq1:  Iter=  5 NonCon=     1 RMS=3.46D-06 Max=1.45D-04 NDo=     1
 LinEq1:  Iter=  6 NonCon=     1 RMS=2.78D-06 Max=9.16D-05 NDo=     1
 LinEq1:  Iter=  7 NonCon=     1 RMS=2.86D-06 Max=1.57D-04 NDo=     1
 LinEq1:  Iter=  8 NonCon=     1 RMS=1.61D-06 Max=6.34D-05 NDo=     1
 LinEq1:  Iter=  9 NonCon=     1 RMS=8.29D-07 Max=2.89D-05 NDo=     1
 LinEq1:  Iter= 10 NonCon=     1 RMS=4.82D-07 Max=1.45D-05 NDo=     1
 LinEq1:  Iter= 11 NonCon=     1 RMS=2.64D-07 Max=7.11D-06 NDo=     1
 LinEq1:  Iter= 12 NonCon=     1 RMS=1.13D-07 Max=3.87D-06 NDo=     1
 LinEq1:  Iter= 13 NonCon=     1 RMS=8.66D-08 Max=4.12D-06 NDo=     1
 LinEq1:  Iter= 14 NonCon=     1 RMS=3.96D-08 Max=1.18D-06 NDo=     1
 LinEq1:  Iter= 15 NonCon=     1 RMS=2.28D-08 Max=8.39D-07 NDo=     1
 LinEq1:  Iter= 16 NonCon=     1 RMS=9.18D-09 Max=2.80D-07 NDo=     1
 LinEq1:  Iter= 17 NonCon=     0 RMS=3.23D-09 Max=6.76D-08 NDo=     1
 Linear equations converged to 1.814D-08 1.814D-07 after    17 iterations.
     Accept linear search using points  1 and  2.
     Minimum is close to point  2 DX= -2.58D-04 DF= -1.02D-12 DXR=  2.58D-04 DFR=  6.66D-08 which will be used.
 LinEq1:  Iter=  0 NonCon=     1 RMS=2.00D-07 Max=9.74D-06 NDo=     1
 LinEq1:  Iter=  1 NonCon=     1 RMS=1.13D-07 Max=9.41D-06 NDo=     1
 LinEq1:  Iter=  2 NonCon=     1 RMS=1.01D-07 Max=5.03D-06 NDo=     1
 LinEq1:  Iter=  3 NonCon=     1 RMS=7.49D-08 Max=3.94D-06 NDo=     1
 LinEq1:  Iter=  4 NonCon=     1 RMS=5.77D-08 Max=2.94D-06 NDo=     1
 LinEq1:  Iter=  5 NonCon=     1 RMS=5.44D-08 Max=3.30D-06 NDo=     1
 LinEq1:  Iter=  6 NonCon=     1 RMS=2.98D-08 Max=9.37D-07 NDo=     1
 LinEq1:  Iter=  7 NonCon=     1 RMS=3.24D-08 Max=1.67D-06 NDo=     1
 LinEq1:  Iter=  8 NonCon=     1 RMS=2.29D-08 Max=9.71D-07 NDo=     1
 LinEq1:  Iter=  9 NonCon=     1 RMS=1.24D-08 Max=4.40D-07 NDo=     1
 LinEq1:  Iter= 10 NonCon=     1 RMS=6.31D-09 Max=2.17D-07 NDo=     1
 LinEq1:  Iter= 11 NonCon=     1 RMS=4.01D-09 Max=1.05D-07 NDo=     1
 LinEq1:  Iter= 12 NonCon=     1 RMS=1.79D-09 Max=4.32D-08 NDo=     1
 LinEq1:  Iter= 13 NonCon=     1 RMS=9.24D-10 Max=1.70D-08 NDo=     1
 LinEq1:  Iter= 14 NonCon=     1 RMS=3.15D-10 Max=8.96D-09 NDo=     1
 LinEq1:  Iter= 15 NonCon=     1 RMS=1.49D-10 Max=4.09D-09 NDo=     1
 LinEq1:  Iter= 16 NonCon=     1 RMS=6.42D-11 Max=2.43D-09 NDo=     1
 LinEq1:  Iter= 17 NonCon=     0 RMS=1.82D-11 Max=5.78D-10 NDo=     1
 Linear equations converged to 1.924D-10 1.924D-09 after    17 iterations.
 Restarting incremental Fock formation.
 SCF Done:  E(RB3LYP) =  -838.693443163     a.u. after   10 cycles
            Convg  =    0.1968D-09                    55 Fock formations.
              S**2 =  0.0000                  -V/T =  2.0088
 DoSCS=F DFT=T ScalE2(SS,OS)=  1.000000  1.000000
 Range of M.O.s used for correlation:     1   310
 NBasis=   310 NAE=    68 NBE=    68 NFC=     0 NFV=     0
 NROrb=    310 NOA=    68 NOB=    68 NVA=   242 NVB=   242
 Symmetrizing basis deriv contribution to polar:
 IMax=3 JMax=2 DiffMx= 0.00D+00
 G2DrvN: will do    39 centers at a time, making    1 passes.
 Calling FoFCou, ICntrl=  3107 FMM=F I1Cent=   0 AccDes= 0.00D+00.
 End of G2Drv F.D. properties file   721 does not exist.
 End of G2Drv F.D. properties file   722 does not exist.
 End of G2Drv F.D. properties file   788 does not exist.
          IDoAtm=11111111111111111111111111111111111111
          Differentiating once with respect to electric field.
                with respect to dipole field.
          Differentiating once with respect to nuclear coordinates.
 Keep R1 ints in memory in canonical form, NReq=1176942791.
          There are   117 degrees of freedom in the 1st order CPHF.  IDoFFX=6 NUNeed=     3.
    114 vectors produced by pass  0 Test12= 1.65D-14 1.00D-09 XBig12= 1.81D+02 5.43D+00.
 AX will form   114 AO Fock derivatives at one time.
    114 vectors produced by pass  1 Test12= 1.65D-14 1.00D-09 XBig12= 3.19D+01 1.11D+00.
    114 vectors produced by pass  2 Test12= 1.65D-14 1.00D-09 XBig12= 4.50D-01 8.99D-02.
    114 vectors produced by pass  3 Test12= 1.65D-14 1.00D-09 XBig12= 2.59D-03 4.02D-03.
    114 vectors produced by pass  4 Test12= 1.65D-14 1.00D-09 XBig12= 3.84D-06 1.54D-04.
     69 vectors produced by pass  5 Test12= 1.65D-14 1.00D-09 XBig12= 3.27D-09 4.06D-06.
     10 vectors produced by pass  6 Test12= 1.65D-14 1.00D-09 XBig12= 2.14D-12 1.08D-07.
      3 vectors produced by pass  7 Test12= 1.65D-14 1.00D-09 XBig12= 1.41D-15 2.45D-09.
 InvSVY:  IOpt=1 It=  1 EMax= 8.88D-15
 Solved reduced A of dimension   652 with   117 vectors.
 Isotropic polarizability for W=    0.000000      164.26 Bohr**3.
 End of Minotr F.D. properties file   721 does not exist.
 End of Minotr F.D. properties file   722 does not exist.
 End of Minotr F.D. properties file   788 does not exist.

 **********************************************************************

            Population analysis using the SCF density.

 **********************************************************************

 Orbital symmetries:
       Occupied  (A) (A) (A) (A) (A) (A) (A) (A) (A) (A) (A) (A)
                 (A) (A) (A) (A) (A) (A) (A) (A) (A) (A) (A) (A)
                 (A) (A) (A) (A) (A) (A) (A) (A) (A) (A) (A) (A)
                 (A) (A) (A) (A) (A) (A) (A) (A) (A) (A) (A) (A)
                 (A) (A) (A) (A) (A) (A) (A) (A) (A) (A) (A) (A)
                 (A) (A) (A) (A) (A) (A) (A) (A)
       Virtual   (A) (A) (A) (A) (A) (A) (A) (A) (A) (A) (A) (A)
                 (A) (A) (A) (A) (A) (A) (A) (A) (A) (A) (A) (A)
                 (A) (A) (A) (A) (A) (A) (A) (A) (A) (A) (A) (A)
                 (A) (A) (A) (A) (A) (A) (A) (A) (A) (A) (A) (A)
                 (A) (A) (A) (A) (A) (A) (A) (A) (A) (A) (A) (A)
                 (A) (A) (A) (A) (A) (A) (A) (A) (A) (A) (A) (A)
                 (A) (A) (A) (A) (A) (A) (A) (A) (A) (A) (A) (A)
                 (A) (A) (A) (A) (A) (A) (A) (A) (A) (A) (A) (A)
                 (A) (A) (A) (A) (A) (A) (A) (A) (A) (A) (A) (A)
                 (A) (A) (A) (A) (A) (A) (A) (A) (A) (A) (A) (A)
                 (A) (A) (A) (A) (A) (A) (A) (A) (A) (A) (A) (A)
                 (A) (A) (A) (A) (A) (A) (A) (A) (A) (A) (A) (A)
                 (A) (A) (A) (A) (A) (A) (A) (A) (A) (A) (A) (A)
                 (A) (A) (A) (A) (A) (A) (A) (A) (A) (A) (A) (A)
                 (A) (A) (A) (A) (A) (A) (A) (A) (A) (A) (A) (A)
                 (A) (A) (A) (A) (A) (A) (A) (A) (A) (A) (A) (A)
                 (A) (A) (A) (A) (A) (A) (A) (A) (A) (A) (A) (A)
                 (A) (A) (A) (A) (A) (A) (A) (A) (A) (A) (A) (A)
                 (A) (A) (A) (A) (A) (A) (A) (A) (A) (A) (A) (A)
                 (A) (A) (A) (A) (A) (A) (A) (A) (A) (A) (A) (A)
                 (A) (A)
 The electronic state is 1-A.
 Alpha  occ. eigenvalues --  -19.12013 -19.11714 -14.40722 -14.40105 -14.38342
 Alpha  occ. eigenvalues --  -14.36916 -10.31447 -10.30867 -10.23546 -10.22789
 Alpha  occ. eigenvalues --  -10.22617 -10.22188 -10.20135 -10.19736 -10.19668
 Alpha  occ. eigenvalues --  -10.19162 -10.19031 -10.18950  -1.10062  -1.04179
 Alpha  occ. eigenvalues --   -1.00895  -0.95021  -0.93971  -0.82874  -0.80989
 Alpha  occ. eigenvalues --   -0.79226  -0.77589  -0.77194  -0.69438  -0.66887
 Alpha  occ. eigenvalues --   -0.65188  -0.64581  -0.61408  -0.58953  -0.57192
 Alpha  occ. eigenvalues --   -0.56368  -0.54259  -0.50244  -0.48836  -0.48060
 Alpha  occ. eigenvalues --   -0.47260  -0.46948  -0.46520  -0.45877  -0.44771
 Alpha  occ. eigenvalues --   -0.44233  -0.43631  -0.43432  -0.42860  -0.41415
 Alpha  occ. eigenvalues --   -0.40879  -0.40347  -0.39469  -0.37232  -0.37082
 Alpha  occ. eigenvalues --   -0.36471  -0.35732  -0.34736  -0.34007  -0.33898
 Alpha  occ. eigenvalues --   -0.33608  -0.33111  -0.32437  -0.27519  -0.26712
 Alpha  occ. eigenvalues --   -0.24856  -0.23950  -0.22991
 Alpha virt. eigenvalues --   -0.11817   0.03714   0.06007   0.06970   0.08419
 Alpha virt. eigenvalues --    0.10027   0.10315   0.10777   0.12370   0.12912
 Alpha virt. eigenvalues --    0.13201   0.13820   0.14021   0.15034   0.15201
 Alpha virt. eigenvalues --    0.15536   0.16011   0.16184   0.16402   0.16817
 Alpha virt. eigenvalues --    0.17614   0.17948   0.18579   0.19422   0.20415
 Alpha virt. eigenvalues --    0.21180   0.22087   0.22409   0.23541   0.24354
 Alpha virt. eigenvalues --    0.24957   0.25463   0.25860   0.26466   0.26857
 Alpha virt. eigenvalues --    0.27399   0.29042   0.32068   0.34609   0.38067
 Alpha virt. eigenvalues --    0.41058   0.43637   0.48387   0.49294   0.49499
 Alpha virt. eigenvalues --    0.50566   0.50803   0.52305   0.52766   0.53360
 Alpha virt. eigenvalues --    0.54424   0.55028   0.55283   0.56355   0.57237
 Alpha virt. eigenvalues --    0.59747   0.59804   0.61131   0.62264   0.62410
 Alpha virt. eigenvalues --    0.63459   0.64135   0.64278   0.64693   0.65609
 Alpha virt. eigenvalues --    0.66524   0.67801   0.69489   0.70939   0.71353
 Alpha virt. eigenvalues --    0.72869   0.74163   0.75918   0.76955   0.77396
 Alpha virt. eigenvalues --    0.79188   0.79799   0.80659   0.81104   0.81585
 Alpha virt. eigenvalues --    0.82933   0.83116   0.84083   0.84597   0.85381
 Alpha virt. eigenvalues --    0.86435   0.86800   0.87209   0.87431   0.88502
 Alpha virt. eigenvalues --    0.88809   0.89328   0.90886   0.91876   0.92387
 Alpha virt. eigenvalues --    0.92539   0.93733   0.94047   0.95020   0.95128
 Alpha virt. eigenvalues --    0.95266   0.98102   0.98761   0.99954   1.01353
 Alpha virt. eigenvalues --    1.03604   1.06938   1.08432   1.09019   1.09536
 Alpha virt. eigenvalues --    1.10536   1.13553   1.14629   1.16996   1.17892
 Alpha virt. eigenvalues --    1.21432   1.23391   1.25646   1.27830   1.29362
 Alpha virt. eigenvalues --    1.31108   1.33683   1.35090   1.37066   1.38939
 Alpha virt. eigenvalues --    1.39535   1.40273   1.41290   1.42254   1.44585
 Alpha virt. eigenvalues --    1.46027   1.52580   1.54142   1.54695   1.56026
 Alpha virt. eigenvalues --    1.57379   1.59675   1.60645   1.62535   1.66307
 Alpha virt. eigenvalues --    1.67085   1.69628   1.69891   1.73274   1.75252
 Alpha virt. eigenvalues --    1.76894   1.77392   1.79302   1.79913   1.81908
 Alpha virt. eigenvalues --    1.82978   1.84893   1.85763   1.87217   1.87601
 Alpha virt. eigenvalues --    1.88537   1.90075   1.91027   1.91675   1.92795
 Alpha virt. eigenvalues --    1.93045   1.95471   1.96499   1.97120   1.98176
 Alpha virt. eigenvalues --    1.98978   2.00057   2.00296   2.00532   2.00891
 Alpha virt. eigenvalues --    2.02715   2.05071   2.07242   2.09072   2.10913
 Alpha virt. eigenvalues --    2.13773   2.14705   2.16104   2.16327   2.18578
 Alpha virt. eigenvalues --    2.19466   2.26259   2.28354   2.28745   2.29293
 Alpha virt. eigenvalues --    2.31582   2.33014   2.33108   2.33578   2.35277
 Alpha virt. eigenvalues --    2.36026   2.36873   2.38946   2.39422   2.40333
 Alpha virt. eigenvalues --    2.41457   2.41868   2.45846   2.47273   2.51718
 Alpha virt. eigenvalues --    2.54510   2.57420   2.59034   2.59920   2.62179
 Alpha virt. eigenvalues --    2.62577   2.64345   2.66648   2.69013   2.69466
 Alpha virt. eigenvalues --    2.71089   2.71907   2.73568   2.74119   2.76939
 Alpha virt. eigenvalues --    2.79553   2.83127   2.83685   2.94236   2.95700
 Alpha virt. eigenvalues --    3.08693   3.14527   3.23016   3.27864   3.87012
 Alpha virt. eigenvalues --    4.00684   4.02455   4.08980   4.13925   4.15211
 Alpha virt. eigenvalues --    4.16719   4.18049   4.24423   4.26353   4.39878
 Alpha virt. eigenvalues --    4.43298   4.52851   4.53968   4.54347   4.55325
 Alpha virt. eigenvalues --    4.57705   4.62192
          Condensed to atoms (all electrons):
               1          2          3          4          5          6
     1  C    4.305957   0.579061   0.169161  -0.054678   0.005566  -0.000150
     2  O    0.579061   8.070500  -0.084590  -0.002738   0.000874   0.000003
     3  N    0.169161  -0.084590   7.366021   0.182683  -0.031725   0.002174
     4  N   -0.054678  -0.002738   0.182683   6.996482   0.231112  -0.070853
     5  C    0.005566   0.000874  -0.031725   0.231112   4.278555   0.591583
     6  O   -0.000150   0.000003   0.002174  -0.070853   0.591583   8.065763
     7  N    0.000203  -0.000029  -0.011606  -0.108028   0.274180  -0.110493
     8  C    0.002542   0.000063  -0.095645  -0.009184  -0.033167   0.002663
     9  C    0.000051   0.000003   0.006441  -0.000967   0.000765  -0.000068
    10  C    0.000002  -0.000000  -0.000127  -0.000030  -0.000041  -0.000008
    11  C   -0.000000  -0.000000   0.000024  -0.000160   0.000773   0.000009
    12  C    0.000033   0.000000  -0.000966   0.004758  -0.017252  -0.000969
    13  N    0.308801  -0.100165  -0.105866   0.004177  -0.000171   0.000000
    14  C   -0.025610  -0.004344   0.003918  -0.000083   0.000001  -0.000000
    15  C    0.001995   0.000384  -0.000081   0.000002  -0.000000   0.000000
    16  C   -0.000062  -0.000016  -0.000025   0.000000   0.000000   0.000000
    17  C    0.001295  -0.000058   0.000229  -0.000008   0.000000   0.000000
    18  C   -0.025727   0.002583  -0.000314   0.000522  -0.000030  -0.000000
    19  H    0.004523  -0.001345  -0.051771  -0.008294  -0.012421  -0.000095
    20  H   -0.000692  -0.000004  -0.006150   0.002064   0.000902  -0.000021
    21  H   -0.000020  -0.000000  -0.000120   0.000192   0.000454  -0.000024
    22  H   -0.000001   0.000000  -0.000062   0.000012  -0.000039   0.000001
    23  H    0.000000   0.000000   0.000002   0.000000   0.000010   0.000000
    24  H   -0.000000  -0.000000  -0.000006   0.000001  -0.000019   0.000000
    25  H   -0.000000   0.000000  -0.000006   0.000001   0.000582   0.000043
    26  H   -0.000000   0.000000  -0.000000   0.000002  -0.000048  -0.000005
    27  H    0.000001  -0.000000  -0.000029   0.000478  -0.001121   0.014225
    28  H   -0.000006   0.000000  -0.000076  -0.000018   0.000696   0.000826
    29  H   -0.001984   0.017556   0.000680  -0.000009  -0.000000  -0.000000
    30  H    0.000149   0.000914  -0.000157   0.000005  -0.000000  -0.000000
    31  H    0.000657   0.000028  -0.000015  -0.000001  -0.000000  -0.000000
    32  H   -0.000065  -0.000009   0.000002  -0.000000   0.000000  -0.000000
    33  H    0.000011   0.000000   0.000000  -0.000000  -0.000000   0.000000
    34  H   -0.000025   0.000000  -0.000000  -0.000000  -0.000000  -0.000000
    35  H    0.000365  -0.000013  -0.000083  -0.000005  -0.000001  -0.000000
    36  H   -0.000055   0.000001   0.000007   0.000000  -0.000000  -0.000000
    37  H   -0.008800   0.000090   0.009226   0.000178  -0.000058   0.000001
    38  H    0.000452   0.000008  -0.000149  -0.000003  -0.000000  -0.000000
               7          8          9         10         11         12
     1  C    0.000203   0.002542   0.000051   0.000002  -0.000000   0.000033
     2  O   -0.000029   0.000063   0.000003  -0.000000  -0.000000   0.000000
     3  N   -0.011606  -0.095645   0.006441  -0.000127   0.000024  -0.000966
     4  N   -0.108028  -0.009184  -0.000967  -0.000030  -0.000160   0.004758
     5  C    0.274180  -0.033167   0.000765  -0.000041   0.000773  -0.017252
     6  O   -0.110493   0.002663  -0.000068  -0.000008   0.000009  -0.000969
     7  N    7.092334   0.292320  -0.056856  -0.012887  -0.044558   0.278795
     8  C    0.292320   5.015345   0.336840  -0.033347  -0.012708  -0.043252
     9  C   -0.056856   0.336840   5.104253   0.367809  -0.045040  -0.017489
    10  C   -0.012887  -0.033347   0.367809   5.020913   0.382153  -0.039624
    11  C   -0.044558  -0.012708  -0.045040   0.382153   5.027882   0.372619
    12  C    0.278795  -0.043252  -0.017489  -0.039624   0.372619   4.915980
    13  N    0.000009  -0.000849  -0.000013  -0.000000   0.000000  -0.000000
    14  C    0.000000  -0.000005   0.000000   0.000000   0.000000   0.000000
    15  C   -0.000000   0.000002  -0.000000   0.000000  -0.000000   0.000000
    16  C   -0.000000   0.000004   0.000001   0.000000   0.000000   0.000000
    17  C   -0.000001   0.000194  -0.000080   0.000001  -0.000000   0.000000
    18  C    0.000234  -0.002547   0.000140   0.000005  -0.000000   0.000002
    19  H   -0.025202   0.385532  -0.033331   0.004042   0.000159   0.003684
    20  H   -0.056033   0.373787  -0.054270  -0.006288  -0.001353  -0.001044
    21  H    0.000523  -0.036751   0.369211  -0.041757  -0.003895  -0.000579
    22  H    0.004292  -0.030407   0.361326  -0.033484   0.005209   0.000102
    23  H   -0.000133   0.004614  -0.032641   0.373021  -0.033275   0.004786
    24  H   -0.000915  -0.004769  -0.041993   0.369904  -0.042033  -0.003183
    25  H   -0.000500  -0.000710  -0.003904  -0.042469   0.372410  -0.037783
    26  H    0.004136   0.000078   0.005109  -0.034587   0.365048  -0.032033
    27  H   -0.032337   0.003933  -0.000021   0.004013  -0.028134   0.373594
    28  H   -0.056577  -0.003547  -0.001033  -0.006610  -0.048824   0.375384
    29  H    0.000000   0.000002  -0.000000   0.000000   0.000000   0.000000
    30  H    0.000000  -0.000001   0.000000  -0.000000   0.000000  -0.000000
    31  H    0.000000  -0.000003  -0.000000  -0.000000   0.000000  -0.000000
    32  H    0.000000  -0.000000   0.000000  -0.000000   0.000000  -0.000000
    33  H   -0.000000   0.000000   0.000000  -0.000000  -0.000000   0.000000
    34  H    0.000000  -0.000000  -0.000000   0.000000  -0.000000  -0.000000
    35  H    0.000003   0.000016  -0.000007  -0.000002   0.000000   0.000000
    36  H   -0.000000  -0.000005  -0.000001  -0.000000   0.000000  -0.000000
    37  H   -0.000190   0.001943  -0.000225  -0.000015   0.000003  -0.000030
    38  H   -0.000004  -0.000014  -0.000001  -0.000000   0.000000  -0.000000
              13         14         15         16         17         18
     1  C    0.308801  -0.025610   0.001995  -0.000062   0.001295  -0.025727
     2  O   -0.100165  -0.004344   0.000384  -0.000016  -0.000058   0.002583
     3  N   -0.105866   0.003918  -0.000081  -0.000025   0.000229  -0.000314
     4  N    0.004177  -0.000083   0.000002   0.000000  -0.000008   0.000522
     5  C   -0.000171   0.000001  -0.000000   0.000000   0.000000  -0.000030
     6  O    0.000000  -0.000000   0.000000   0.000000   0.000000  -0.000000
     7  N    0.000009   0.000000  -0.000000  -0.000000  -0.000001   0.000234
     8  C   -0.000849  -0.000005   0.000002   0.000004   0.000194  -0.002547
     9  C   -0.000013   0.000000  -0.000000   0.000001  -0.000080   0.000140
    10  C   -0.000000   0.000000   0.000000   0.000000   0.000001   0.000005
    11  C    0.000000   0.000000  -0.000000   0.000000  -0.000000  -0.000000
    12  C   -0.000000   0.000000   0.000000   0.000000   0.000000   0.000002
    13  N    7.044170   0.283737  -0.046412  -0.013559  -0.052818   0.282429
    14  C    0.283737   4.929534   0.371242  -0.040198  -0.013422  -0.041717
    15  C   -0.046412   0.371242   5.028413   0.379048  -0.046177  -0.013522
    16  C   -0.013559  -0.040198   0.379048   5.011298   0.384641  -0.040926
    17  C   -0.052818  -0.013422  -0.046177   0.384641   5.054303   0.365223
    18  C    0.282429  -0.041717  -0.013522  -0.040926   0.365223   4.957919
    19  H    0.003584  -0.000013  -0.000011  -0.000016  -0.000571  -0.000579
    20  H    0.000154  -0.000004  -0.000000   0.000002   0.000128  -0.003605
    21  H    0.000001  -0.000000   0.000000  -0.000000   0.000002  -0.000014
    22  H    0.000008   0.000000  -0.000000  -0.000000   0.000023   0.000006
    23  H   -0.000000  -0.000000   0.000000  -0.000000  -0.000000   0.000000
    24  H    0.000000  -0.000000  -0.000000  -0.000000   0.000000  -0.000001
    25  H    0.000000  -0.000000  -0.000000  -0.000000   0.000000   0.000000
    26  H   -0.000000  -0.000000   0.000000   0.000000   0.000000  -0.000000
    27  H   -0.000000   0.000000  -0.000000  -0.000000  -0.000000   0.000000
    28  H    0.000000  -0.000000  -0.000000   0.000000  -0.000000  -0.000003
    29  H   -0.031521   0.371599  -0.027766   0.003992   0.000023   0.003728
    30  H   -0.054434   0.376203  -0.046884  -0.006657  -0.001653  -0.001999
    31  H   -0.000773  -0.038471   0.372313  -0.043183  -0.004466  -0.000290
    32  H    0.004167  -0.031942   0.368018  -0.033488   0.005107   0.000085
    33  H   -0.000101   0.004974  -0.033097   0.374467  -0.033278   0.004808
    34  H   -0.000940  -0.003445  -0.041650   0.371762  -0.042343  -0.003232
    35  H    0.000853  -0.000727  -0.003786  -0.042159   0.367861  -0.038895
    36  H    0.004140   0.000005   0.005185  -0.033629   0.363457  -0.030059
    37  H   -0.029194   0.003667   0.000035   0.004228  -0.031105   0.370915
    38  H   -0.054922  -0.002974  -0.000985  -0.006634  -0.051505   0.370695
              19         20         21         22         23         24
     1  C    0.004523  -0.000692  -0.000020  -0.000001   0.000000  -0.000000
     2  O   -0.001345  -0.000004  -0.000000   0.000000   0.000000  -0.000000
     3  N   -0.051771  -0.006150  -0.000120  -0.000062   0.000002  -0.000006
     4  N   -0.008294   0.002064   0.000192   0.000012   0.000000   0.000001
     5  C   -0.012421   0.000902   0.000454  -0.000039   0.000010  -0.000019
     6  O   -0.000095  -0.000021  -0.000024   0.000001   0.000000   0.000000
     7  N   -0.025202  -0.056033   0.000523   0.004292  -0.000133  -0.000915
     8  C    0.385532   0.373787  -0.036751  -0.030407   0.004614  -0.004769
     9  C   -0.033331  -0.054270   0.369211   0.361326  -0.032641  -0.041993
    10  C    0.004042  -0.006288  -0.041757  -0.033484   0.373021   0.369904
    11  C    0.000159  -0.001353  -0.003895   0.005209  -0.033275  -0.042033
    12  C    0.003684  -0.001044  -0.000579   0.000102   0.004786  -0.003183
    13  N    0.003584   0.000154   0.000001   0.000008  -0.000000   0.000000
    14  C   -0.000013  -0.000004  -0.000000   0.000000  -0.000000  -0.000000
    15  C   -0.000011  -0.000000   0.000000  -0.000000   0.000000  -0.000000
    16  C   -0.000016   0.000002  -0.000000  -0.000000  -0.000000  -0.000000
    17  C   -0.000571   0.000128   0.000002   0.000023  -0.000000   0.000000
    18  C   -0.000579  -0.003605  -0.000014   0.000006   0.000000  -0.000001
    19  H    0.567630  -0.038987  -0.004552  -0.002151  -0.000146   0.000005
    20  H   -0.038987   0.620468   0.006260  -0.001235  -0.000131   0.005774
    21  H   -0.004552   0.006260   0.595377  -0.032847  -0.005328   0.006216
    22  H   -0.002151  -0.001235  -0.032847   0.602176  -0.002595  -0.004365
    23  H   -0.000146  -0.000131  -0.005328  -0.002595   0.596046  -0.036104
    24  H    0.000005   0.005774   0.006216  -0.004365  -0.036104   0.615570
    25  H   -0.000013   0.000236   0.004935  -0.000009  -0.005217   0.006101
    26  H    0.000007   0.000069   0.000013  -0.000149  -0.002542  -0.004379
    27  H   -0.000141  -0.000162  -0.000032   0.000010  -0.000138  -0.000056
    28  H   -0.000061   0.008260   0.000234   0.000040  -0.000125   0.005099
    29  H    0.000004   0.000000   0.000000  -0.000000  -0.000000   0.000000
    30  H    0.000011   0.000000   0.000000   0.000000   0.000000   0.000000
    31  H    0.000028  -0.000000   0.000000   0.000001  -0.000000   0.000000
    32  H    0.000000  -0.000000  -0.000000   0.000000   0.000000   0.000000
    33  H   -0.000001   0.000000   0.000000  -0.000000   0.000000   0.000000
    34  H    0.000001  -0.000000   0.000000   0.000000   0.000000   0.000000
    35  H    0.000700   0.000020  -0.000004   0.000837  -0.000000  -0.000000
    36  H    0.000014   0.000030   0.000000  -0.000001  -0.000000   0.000000
    37  H   -0.002966   0.009935   0.000016   0.000054   0.000000  -0.000010
    38  H    0.000255   0.000044   0.000000   0.000001  -0.000000   0.000000
              25         26         27         28         29         30
     1  C   -0.000000  -0.000000   0.000001  -0.000006  -0.001984   0.000149
     2  O    0.000000   0.000000  -0.000000   0.000000   0.017556   0.000914
     3  N   -0.000006  -0.000000  -0.000029  -0.000076   0.000680  -0.000157
     4  N    0.000001   0.000002   0.000478  -0.000018  -0.000009   0.000005
     5  C    0.000582  -0.000048  -0.001121   0.000696  -0.000000  -0.000000
     6  O    0.000043  -0.000005   0.014225   0.000826  -0.000000  -0.000000
     7  N   -0.000500   0.004136  -0.032337  -0.056577   0.000000   0.000000
     8  C   -0.000710   0.000078   0.003933  -0.003547   0.000002  -0.000001
     9  C   -0.003904   0.005109  -0.000021  -0.001033  -0.000000   0.000000
    10  C   -0.042469  -0.034587   0.004013  -0.006610   0.000000  -0.000000
    11  C    0.372410   0.365048  -0.028134  -0.048824   0.000000   0.000000
    12  C   -0.037783  -0.032033   0.373594   0.375384   0.000000  -0.000000
    13  N    0.000000  -0.000000  -0.000000   0.000000  -0.031521  -0.054434
    14  C   -0.000000  -0.000000   0.000000  -0.000000   0.371599   0.376203
    15  C   -0.000000   0.000000  -0.000000  -0.000000  -0.027766  -0.046884
    16  C   -0.000000   0.000000  -0.000000   0.000000   0.003992  -0.006657
    17  C    0.000000   0.000000  -0.000000  -0.000000   0.000023  -0.001653
    18  C    0.000000  -0.000000   0.000000  -0.000003   0.003728  -0.001999
    19  H   -0.000013   0.000007  -0.000141  -0.000061   0.000004   0.000011
    20  H    0.000236   0.000069  -0.000162   0.008260   0.000000   0.000000
    21  H    0.004935   0.000013  -0.000032   0.000234   0.000000   0.000000
    22  H   -0.000009  -0.000149   0.000010   0.000040  -0.000000   0.000000
    23  H   -0.005217  -0.002542  -0.000138  -0.000125  -0.000000   0.000000
    24  H    0.006101  -0.004379  -0.000056   0.005099   0.000000   0.000000
    25  H    0.586806  -0.031677  -0.004563   0.006009  -0.000000   0.000000
    26  H   -0.031677   0.592083  -0.001135  -0.001291  -0.000000  -0.000000
    27  H   -0.004563  -0.001135   0.510769  -0.032710   0.000000  -0.000000
    28  H    0.006009  -0.001291  -0.032710   0.609408  -0.000000   0.000000
    29  H   -0.000000  -0.000000   0.000000  -0.000000   0.500862  -0.031117
    30  H    0.000000  -0.000000  -0.000000   0.000000  -0.031117   0.599076
    31  H    0.000000  -0.000000  -0.000000   0.000000  -0.004310   0.005973
    32  H    0.000000  -0.000000   0.000000   0.000000  -0.001468  -0.001638
    33  H    0.000000   0.000000  -0.000000   0.000000  -0.000137  -0.000088
    34  H    0.000000  -0.000000  -0.000000   0.000000  -0.000048   0.005221
    35  H    0.000000  -0.000000  -0.000000   0.000000  -0.000029   0.000232
    36  H    0.000000  -0.000000   0.000000   0.000000   0.000009   0.000042
    37  H   -0.000000   0.000000  -0.000000   0.000001  -0.000139  -0.000090
    38  H    0.000000   0.000000  -0.000000   0.000000  -0.000175   0.007962
              31         32         33         34         35         36
     1  C    0.000657  -0.000065   0.000011  -0.000025   0.000365  -0.000055
     2  O    0.000028  -0.000009   0.000000   0.000000  -0.000013   0.000001
     3  N   -0.000015   0.000002   0.000000  -0.000000  -0.000083   0.000007
     4  N   -0.000001  -0.000000  -0.000000  -0.000000  -0.000005   0.000000
     5  C   -0.000000   0.000000  -0.000000  -0.000000  -0.000001  -0.000000
     6  O   -0.000000  -0.000000   0.000000  -0.000000  -0.000000  -0.000000
     7  N    0.000000   0.000000  -0.000000   0.000000   0.000003  -0.000000
     8  C   -0.000003  -0.000000   0.000000  -0.000000   0.000016  -0.000005
     9  C   -0.000000   0.000000   0.000000  -0.000000  -0.000007  -0.000001
    10  C   -0.000000  -0.000000  -0.000000   0.000000  -0.000002  -0.000000
    11  C    0.000000   0.000000  -0.000000  -0.000000   0.000000   0.000000
    12  C   -0.000000  -0.000000   0.000000  -0.000000   0.000000  -0.000000
    13  N   -0.000773   0.004167  -0.000101  -0.000940   0.000853   0.004140
    14  C   -0.038471  -0.031942   0.004974  -0.003445  -0.000727   0.000005
    15  C    0.372313   0.368018  -0.033097  -0.041650  -0.003786   0.005185
    16  C   -0.043183  -0.033488   0.374467   0.371762  -0.042159  -0.033629
    17  C   -0.004466   0.005107  -0.033278  -0.042343   0.367861   0.363457
    18  C   -0.000290   0.000085   0.004808  -0.003232  -0.038895  -0.030059
    19  H    0.000028   0.000000  -0.000001   0.000001   0.000700   0.000014
    20  H   -0.000000  -0.000000   0.000000  -0.000000   0.000020   0.000030
    21  H    0.000000  -0.000000   0.000000   0.000000  -0.000004   0.000000
    22  H    0.000001   0.000000  -0.000000   0.000000   0.000837  -0.000001
    23  H   -0.000000   0.000000   0.000000   0.000000  -0.000000  -0.000000
    24  H    0.000000   0.000000   0.000000   0.000000  -0.000000   0.000000
    25  H    0.000000   0.000000   0.000000   0.000000   0.000000   0.000000
    26  H   -0.000000  -0.000000   0.000000  -0.000000  -0.000000  -0.000000
    27  H   -0.000000   0.000000  -0.000000  -0.000000  -0.000000   0.000000
    28  H    0.000000   0.000000   0.000000   0.000000   0.000000   0.000000
    29  H   -0.004310  -0.001468  -0.000137  -0.000048  -0.000029   0.000009
    30  H    0.005973  -0.001638  -0.000088   0.005221   0.000232   0.000042
    31  H    0.591715  -0.031801  -0.004972   0.006087   0.005068  -0.000006
    32  H   -0.031801   0.583979  -0.002545  -0.004331  -0.000008  -0.000147
    33  H   -0.004972  -0.002545   0.590257  -0.035089  -0.005330  -0.002392
    34  H    0.006087  -0.004331  -0.035089   0.606001   0.006114  -0.004374
    35  H    0.005068  -0.000008  -0.005330   0.006114   0.598900  -0.032075
    36  H   -0.000006  -0.000147  -0.002392  -0.004374  -0.032075   0.589615
    37  H   -0.000029   0.000010  -0.000142  -0.000057  -0.005058  -0.001449
    38  H    0.000227   0.000050  -0.000113   0.005039   0.006252  -0.001314
              37         38
     1  C   -0.008800   0.000452
     2  O    0.000090   0.000008
     3  N    0.009226  -0.000149
     4  N    0.000178  -0.000003
     5  C   -0.000058  -0.000000
     6  O    0.000001  -0.000000
     7  N   -0.000190  -0.000004
     8  C    0.001943  -0.000014
     9  C   -0.000225  -0.000001
    10  C   -0.000015  -0.000000
    11  C    0.000003   0.000000
    12  C   -0.000030  -0.000000
    13  N   -0.029194  -0.054922
    14  C    0.003667  -0.002974
    15  C    0.000035  -0.000985
    16  C    0.004228  -0.006634
    17  C   -0.031105  -0.051505
    18  C    0.370915   0.370695
    19  H   -0.002966   0.000255
    20  H    0.009935   0.000044
    21  H    0.000016   0.000000
    22  H    0.000054   0.000001
    23  H    0.000000  -0.000000
    24  H   -0.000010   0.000000
    25  H   -0.000000   0.000000
    26  H    0.000000   0.000000
    27  H   -0.000000  -0.000000
    28  H    0.000001   0.000000
    29  H   -0.000139  -0.000175
    30  H   -0.000090   0.007962
    31  H   -0.000029   0.000227
    32  H    0.000010   0.000050
    33  H   -0.000142  -0.000113
    34  H   -0.000057   0.005039
    35  H   -0.005058   0.006252
    36  H   -0.001449  -0.001314
    37  H    0.524726  -0.032028
    38  H   -0.032028   0.611125
 Mulliken charges:
               1
     1  C    0.737049
     2  O   -0.478758
     3  N   -0.350997
     4  N   -0.167612
     5  C    0.710040
     6  O   -0.494607
     7  N   -0.430681
     8  C   -0.112963
     9  C   -0.264007
    10  C   -0.270586
    11  C   -0.266308
    12  C   -0.135534
    13  N   -0.444493
    14  C   -0.141925
    15  C   -0.266267
    16  C   -0.268891
    17  C   -0.265002
    18  C   -0.155833
    19  H    0.212488
    20  H    0.141845
    21  H    0.142488
    22  H    0.133248
    23  H    0.139897
    24  H    0.129162
    25  H    0.149729
    26  H    0.141301
    27  H    0.193557
    28  H    0.144924
    29  H    0.200248
    30  H    0.148932
    31  H    0.146221
    32  H    0.146025
    33  H    0.142769
    34  H    0.135310
    35  H    0.140959
    36  H    0.143003
    37  H    0.186559
    38  H    0.148710
 Sum of Mulliken charges =  -0.00000
 Mulliken charges with hydrogens summed into heavy atoms:
               1
     1  C    0.737049
     2  O   -0.478758
     3  N   -0.350997
     4  N   -0.167612
     5  C    0.710040
     6  O   -0.494607
     7  N   -0.430681
     8  C    0.241370
     9  C    0.011729
    10  C   -0.001526
    11  C    0.024721
    12  C    0.202947
    13  N   -0.444493
    14  C    0.207254
    15  C    0.025979
    16  C    0.009188
    17  C    0.018960
    18  C    0.179436
 APT charges:
               1
     1  C    1.036736
     2  O   -0.722870
     3  N   -0.016013
     4  N   -0.216018
     5  C    0.981823
     6  O   -0.707962
     7  N   -0.753532
     8  C    0.329822
     9  C    0.058439
    10  C    0.118791
    11  C    0.094847
    12  C    0.396467
    13  N   -0.694158
    14  C    0.307283
    15  C    0.105691
    16  C    0.120273
    17  C    0.102194
    18  C    0.311123
    19  H   -0.041291
    20  H   -0.086625
    21  H   -0.039757
    22  H   -0.048262
    23  H   -0.059716
    24  H   -0.048320
    25  H   -0.033229
    26  H   -0.050072
    27  H    0.022722
    28  H   -0.083820
    29  H    0.033470
    30  H   -0.075530
    31  H   -0.034082
    32  H   -0.052026
    33  H   -0.051824
    34  H   -0.047107
    35  H   -0.041434
    36  H   -0.049487
    37  H    0.008667
    38  H   -0.075214
 Sum of APT charges =  -0.00000
 APT charges with hydrogens summed into heavy atoms:
               1
     1  C    1.036736
     2  O   -0.722870
     3  N   -0.016013
     4  N   -0.216018
     5  C    0.981823
     6  O   -0.707962
     7  N   -0.753532
     8  C    0.201906
     9  C   -0.029580
    10  C    0.010755
    11  C    0.011547
    12  C    0.335370
    13  N   -0.694158
    14  C    0.265223
    15  C    0.019583
    16  C    0.021342
    17  C    0.011273
    18  C    0.244576
 Electronic spatial extent (au):  <R**2>=           5550.4928
 Charge=             -0.0000 electrons
 Dipole moment (field-independent basis, Debye):
    X=             -2.5234    Y=             -7.1899    Z=              1.3166  Tot=              7.7327
 Quadrupole moment (field-independent basis, Debye-Ang):
   XX=            -98.4534   YY=           -125.1265   ZZ=           -105.8336
   XY=             -7.1319   XZ=             -2.6594   YZ=              2.5304
 Traceless Quadrupole moment (field-independent basis, Debye-Ang):
[...]
    53    N    4  py     Ryd( 3p)     0.00395
    54    N    4  pz     Val( 2p)     1.28904
    55    N    4  pz     Ryd( 3p)     0.00441
    56    N    4  dxy    Ryd( 3d)     0.00144
    57    N    4  dxz    Ryd( 3d)     0.00129
    58    N    4  dyz    Ryd( 3d)     0.00162
    59    N    4  dx2y2  Ryd( 3d)     0.00087
    60    N    4  dz2    Ryd( 3d)     0.00227
 
    61    C    5  S      Cor( 1S)     1.99934
    62    C    5  S      Val( 2S)     0.73329
    63    C    5  S      Ryd( 3S)     0.00442
    64    C    5  S      Ryd( 4S)     0.00039
    65    C    5  px     Val( 2p)     0.83335
    66    C    5  px     Ryd( 3p)     0.00872
    67    C    5  py     Val( 2p)     0.76672
    68    C    5  py     Ryd( 3p)     0.01952
    69    C    5  pz     Val( 2p)     0.82486
    70    C    5  pz     Ryd( 3p)     0.00378
    71    C    5  dxy    Ryd( 3d)     0.00313
    72    C    5  dxz    Ryd( 3d)     0.00169
    73    C    5  dyz    Ryd( 3d)     0.00229
    74    C    5  dx2y2  Ryd( 3d)     0.00208
    75    C    5  dz2    Ryd( 3d)     0.00077
 
    76    O    6  S      Cor( 1S)     1.99979
    77    O    6  S      Val( 2S)     1.70344
    78    O    6  S      Ryd( 3S)     0.00078
    79    O    6  S      Ryd( 4S)     0.00008
    80    O    6  px     Val( 2p)     1.71429
    81    O    6  px     Ryd( 3p)     0.00152
    82    O    6  py     Val( 2p)     1.58051
    83    O    6  py     Ryd( 3p)     0.00040
    84    O    6  pz     Val( 2p)     1.55530
    85    O    6  pz     Ryd( 3p)     0.00085
    86    O    6  dxy    Ryd( 3d)     0.00431
    87    O    6  dxz    Ryd( 3d)     0.00034
    88    O    6  dyz    Ryd( 3d)     0.00455
    89    O    6  dx2y2  Ryd( 3d)     0.00429
    90    O    6  dz2    Ryd( 3d)     0.00144
 
    91    N    7  S      Cor( 1S)     1.99928
    92    N    7  S      Val( 2S)     1.20583
    93    N    7  S      Ryd( 3S)     0.00167
    94    N    7  S      Ryd( 4S)     0.00006
    95    N    7  px     Val( 2p)     1.31713
    96    N    7  px     Ryd( 3p)     0.00191
    97    N    7  py     Val( 2p)     1.30268
    98    N    7  py     Ryd( 3p)     0.00163
    99    N    7  pz     Val( 2p)     1.63337
   100    N    7  pz     Ryd( 3p)     0.00452
   101    N    7  dxy    Ryd( 3d)     0.00071
   102    N    7  dxz    Ryd( 3d)     0.00063
   103    N    7  dyz    Ryd( 3d)     0.00043
   104    N    7  dx2y2  Ryd( 3d)     0.00068
   105    N    7  dz2    Ryd( 3d)     0.00062
 
   106    C    8  S      Cor( 1S)     1.99930
   107    C    8  S      Val( 2S)     1.01819
   108    C    8  S      Ryd( 3S)     0.00132
   109    C    8  S      Ryd( 4S)     0.00003
   110    C    8  px     Val( 2p)     1.18073
   111    C    8  px     Ryd( 3p)     0.00496
   112    C    8  py     Val( 2p)     0.86125
   113    C    8  py     Ryd( 3p)     0.00260
   114    C    8  pz     Val( 2p)     1.18587
   115    C    8  pz     Ryd( 3p)     0.00232
   116    C    8  dxy    Ryd( 3d)     0.00081
   117    C    8  dxz    Ryd( 3d)     0.00053
   118    C    8  dyz    Ryd( 3d)     0.00083
   119    C    8  dx2y2  Ryd( 3d)     0.00122
   120    C    8  dz2    Ryd( 3d)     0.00143
 
   121    C    9  S      Cor( 1S)     1.99932
   122    C    9  S      Val( 2S)     1.04080
   123    C    9  S      Ryd( 3S)     0.00066
   124    C    9  S      Ryd( 4S)     0.00002
   125    C    9  px     Val( 2p)     1.04135
   126    C    9  px     Ryd( 3p)     0.00180
   127    C    9  py     Val( 2p)     1.18650
   128    C    9  py     Ryd( 3p)     0.00325
   129    C    9  pz     Val( 2p)     1.19117
   130    C    9  pz     Ryd( 3p)     0.00228
   131    C    9  dxy    Ryd( 3d)     0.00051
   132    C    9  dxz    Ryd( 3d)     0.00065
   133    C    9  dyz    Ryd( 3d)     0.00029
   134    C    9  dx2y2  Ryd( 3d)     0.00092
   135    C    9  dz2    Ryd( 3d)     0.00112
 
   136    C   10  S      Cor( 1S)     1.99933
   137    C   10  S      Val( 2S)     1.03649
   138    C   10  S      Ryd( 3S)     0.00060
   139    C   10  S      Ryd( 4S)     0.00002
   140    C   10  px     Val( 2p)     1.13702
   141    C   10  px     Ryd( 3p)     0.00242
   142    C   10  py     Val( 2p)     1.04751
   143    C   10  py     Ryd( 3p)     0.00172
   144    C   10  pz     Val( 2p)     1.23331
   145    C   10  pz     Ryd( 3p)     0.00323
   146    C   10  dxy    Ryd( 3d)     0.00068
   147    C   10  dxz    Ryd( 3d)     0.00085
   148    C   10  dyz    Ryd( 3d)     0.00039
   149    C   10  dx2y2  Ryd( 3d)     0.00069
   150    C   10  dz2    Ryd( 3d)     0.00094
 
   151    C   11  S      Cor( 1S)     1.99932
   152    C   11  S      Val( 2S)     1.04092
   153    C   11  S      Ryd( 3S)     0.00063
   154    C   11  S      Ryd( 4S)     0.00002
   155    C   11  px     Val( 2p)     1.13933
   156    C   11  px     Ryd( 3p)     0.00307
   157    C   11  py     Val( 2p)     1.08863
   158    C   11  py     Ryd( 3p)     0.00189
   159    C   11  pz     Val( 2p)     1.19179
   160    C   11  pz     Ryd( 3p)     0.00231
   161    C   11  dxy    Ryd( 3d)     0.00089
   162    C   11  dxz    Ryd( 3d)     0.00056
   163    C   11  dyz    Ryd( 3d)     0.00039
   164    C   11  dx2y2  Ryd( 3d)     0.00053
   165    C   11  dz2    Ryd( 3d)     0.00111
 
   166    C   12  S      Cor( 1S)     1.99932
   167    C   12  S      Val( 2S)     1.01783
   168    C   12  S      Ryd( 3S)     0.00123
   169    C   12  S      Ryd( 4S)     0.00003
   170    C   12  px     Val( 2p)     0.91419
   171    C   12  px     Ryd( 3p)     0.00343
   172    C   12  py     Val( 2p)     1.12776
   173    C   12  py     Ryd( 3p)     0.00423
   174    C   12  pz     Val( 2p)     1.18395
   175    C   12  pz     Ryd( 3p)     0.00240
   176    C   12  dxy    Ryd( 3d)     0.00120
   177    C   12  dxz    Ryd( 3d)     0.00091
   178    C   12  dyz    Ryd( 3d)     0.00046
   179    C   12  dx2y2  Ryd( 3d)     0.00087
   180    C   12  dz2    Ryd( 3d)     0.00144
 
   181    N   13  S      Cor( 1S)     1.99928
   182    N   13  S      Val( 2S)     1.20583
   183    N   13  S      Ryd( 3S)     0.00167
   184    N   13  S      Ryd( 4S)     0.00006
   185    N   13  px     Val( 2p)     1.31713
   186    N   13  px     Ryd( 3p)     0.00191
   187    N   13  py     Val( 2p)     1.30268
   188    N   13  py     Ryd( 3p)     0.00163
   189    N   13  pz     Val( 2p)     1.63337
   190    N   13  pz     Ryd( 3p)     0.00452
   191    N   13  dxy    Ryd( 3d)     0.00071
   192    N   13  dxz    Ryd( 3d)     0.00063
   193    N   13  dyz    Ryd( 3d)     0.00043
   194    N   13  dx2y2  Ryd( 3d)     0.00068
   195    N   13  dz2    Ryd( 3d)     0.00062
 
   196    C   14  S      Cor( 1S)     1.99932
   197    C   14  S      Val( 2S)     1.01783
   198    C   14  S      Ryd( 3S)     0.00123
   199    C   14  S      Ryd( 4S)     0.00003
   200    C   14  px     Val( 2p)     0.91419
   201    C   14  px     Ryd( 3p)     0.00343
   202    C   14  py     Val( 2p)     1.12776
   203    C   14  py     Ryd( 3p)     0.00423
   204    C   14  pz     Val( 2p)     1.18395
   205    C   14  pz     Ryd( 3p)     0.00240
   206    C   14  dxy    Ryd( 3d)     0.00120
   207    C   14  dxz    Ryd( 3d)     0.00091
   208    C   14  dyz    Ryd( 3d)     0.00046
   209    C   14  dx2y2  Ryd( 3d)     0.00087
   210    C   14  dz2    Ryd( 3d)     0.00143
 
   211    C   15  S      Cor( 1S)     1.99932
   212    C   15  S      Val( 2S)     1.04092
   213    C   15  S      Ryd( 3S)     0.00063
   214    C   15  S      Ryd( 4S)     0.00002
   215    C   15  px     Val( 2p)     1.13934
   216    C   15  px     Ryd( 3p)     0.00307
   217    C   15  py     Val( 2p)     1.08863
   218    C   15  py     Ryd( 3p)     0.00189
   219    C   15  pz     Val( 2p)     1.19178
   220    C   15  pz     Ryd( 3p)     0.00231
   221    C   15  dxy    Ryd( 3d)     0.00089
   222    C   15  dxz    Ryd( 3d)     0.00056
   223    C   15  dyz    Ryd( 3d)     0.00039
   224    C   15  dx2y2  Ryd( 3d)     0.00053
   225    C   15  dz2    Ryd( 3d)     0.00111
 
   226    C   16  S      Cor( 1S)     1.99933
   227    C   16  S      Val( 2S)     1.03649
   228    C   16  S      Ryd( 3S)     0.00060
   229    C   16  S      Ryd( 4S)     0.00002
   230    C   16  px     Val( 2p)     1.13702
   231    C   16  px     Ryd( 3p)     0.00242
   232    C   16  py     Val( 2p)     1.04751
   233    C   16  py     Ryd( 3p)     0.00172
   234    C   16  pz     Val( 2p)     1.23331
   235    C   16  pz     Ryd( 3p)     0.00323
   236    C   16  dxy    Ryd( 3d)     0.00068
   237    C   16  dxz    Ryd( 3d)     0.00085
   238    C   16  dyz    Ryd( 3d)     0.00039
   239    C   16  dx2y2  Ryd( 3d)     0.00069
   240    C   16  dz2    Ryd( 3d)     0.00094
 
   241    C   17  S      Cor( 1S)     1.99932
   242    C   17  S      Val( 2S)     1.04080
   243    C   17  S      Ryd( 3S)     0.00066
   244    C   17  S      Ryd( 4S)     0.00002
   245    C   17  px     Val( 2p)     1.04135
   246    C   17  px     Ryd( 3p)     0.00180
   247    C   17  py     Val( 2p)     1.18650
   248    C   17  py     Ryd( 3p)     0.00325
   249    C   17  pz     Val( 2p)     1.19116
   250    C   17  pz     Ryd( 3p)     0.00228
   251    C   17  dxy    Ryd( 3d)     0.00051
   252    C   17  dxz    Ryd( 3d)     0.00065
   253    C   17  dyz    Ryd( 3d)     0.00029
   254    C   17  dx2y2  Ryd( 3d)     0.00092
   255    C   17  dz2    Ryd( 3d)     0.00112
 
   256    C   18  S      Cor( 1S)     1.99930
   257    C   18  S      Val( 2S)     1.01819
   258    C   18  S      Ryd( 3S)     0.00132
   259    C   18  S      Ryd( 4S)     0.00003
   260    C   18  px     Val( 2p)     1.18074
   261    C   18  px     Ryd( 3p)     0.00496
   262    C   18  py     Val( 2p)     0.86125
   263    C   18  py     Ryd( 3p)     0.00260
   264    C   18  pz     Val( 2p)     1.18587
   265    C   18  pz     Ryd( 3p)     0.00232
   266    C   18  dxy    Ryd( 3d)     0.00081
   267    C   18  dxz    Ryd( 3d)     0.00053
   268    C   18  dyz    Ryd( 3d)     0.00083
   269    C   18  dx2y2  Ryd( 3d)     0.00122
   270    C   18  dz2    Ryd( 3d)     0.00143
 
   271    H   19  S      Val( 1S)     0.72383
   272    H   19  S      Ryd( 2S)     0.00236
 
   273    H   20  S      Val( 1S)     0.77408
   274    H   20  S      Ryd( 2S)     0.00229
 
   275    H   21  S      Val( 1S)     0.76196
   276    H   21  S      Ryd( 2S)     0.00206
 
   277    H   22  S      Val( 1S)     0.75256
   278    H   22  S      Ryd( 2S)     0.00110
 
   279    H   23  S      Val( 1S)     0.75455
   280    H   23  S      Ryd( 2S)     0.00111
 
   281    H   24  S      Val( 1S)     0.77147
   282    H   24  S      Ryd( 2S)     0.00195
 
   283    H   25  S      Val( 1S)     0.76172
   284    H   25  S      Ryd( 2S)     0.00188
 
   285    H   26  S      Val( 1S)     0.75340
   286    H   26  S      Ryd( 2S)     0.00113
 
   287    H   27  S      Val( 1S)     0.73035
   288    H   27  S      Ryd( 2S)     0.00202
 
   289    H   28  S      Val( 1S)     0.77336
   290    H   28  S      Ryd( 2S)     0.00202
 
   291    H   29  S      Val( 1S)     0.73035
   292    H   29  S      Ryd( 2S)     0.00202
 
   293    H   30  S      Val( 1S)     0.77336
   294    H   30  S      Ryd( 2S)     0.00202
 
   295    H   31  S      Val( 1S)     0.76172
   296    H   31  S      Ryd( 2S)     0.00188
 
   297    H   32  S      Val( 1S)     0.75340
   298    H   32  S      Ryd( 2S)     0.00113
 
   299    H   33  S      Val( 1S)     0.75455
   300    H   33  S      Ryd( 2S)     0.00111
 
   301    H   34  S      Val( 1S)     0.77147
   302    H   34  S      Ryd( 2S)     0.00195
 
   303    H   35  S      Val( 1S)     0.76196
   304    H   35  S      Ryd( 2S)     0.00206
 
   305    H   36  S      Val( 1S)     0.75256
   306    H   36  S      Ryd( 2S)     0.00110
 
   307    H   37  S      Val( 1S)     0.72383
   308    H   37  S      Ryd( 2S)     0.00236
 
   309    H   38  S      Val( 1S)     0.77408
   310    H   38  S      Ryd( 2S)     0.00229


 Summary of Natural Population Analysis:                  
                                                          
                                       Natural Population 
                Natural  -----------------------------------------------
    Atom  No    Charge         Core      Valence    Rydberg      Total
 -----------------------------------------------------------------------
      C    1    0.79566      1.99934     3.15823    0.04676     5.20434
      O    2   -0.57188      1.99979     6.55353    0.01856     8.57188
      N    3   -0.24952      1.99941     5.22389    0.02622     7.24952
      N    4   -0.24952      1.99941     5.22389    0.02622     7.24952
      C    5    0.79566      1.99934     3.15823    0.04676     5.20434
      O    6   -0.57188      1.99979     6.55353    0.01856     8.57188
      N    7   -0.47116      1.99928     5.45900    0.01288     7.47116
      C    8   -0.26142      1.99930     4.24605    0.01606     6.26142
      C    9   -0.47064      1.99932     4.45982    0.01150     6.47064
      C   10   -0.46519      1.99933     4.45433    0.01154     6.46519
      C   11   -0.47141      1.99932     4.46068    0.01141     6.47141
      C   12   -0.25924      1.99932     4.24372    0.01620     6.25924
      N   13   -0.47116      1.99928     5.45900    0.01288     7.47116
      C   14   -0.25924      1.99932     4.24372    0.01620     6.25924
      C   15   -0.47141      1.99932     4.46068    0.01141     6.47141
      C   16   -0.46519      1.99933     4.45433    0.01154     6.46519
      C   17   -0.47064      1.99932     4.45982    0.01150     6.47064
      C   18   -0.26141      1.99930     4.24605    0.01606     6.26141
      H   19    0.27381      0.00000     0.72383    0.00236     0.72619
      H   20    0.22363      0.00000     0.77408    0.00229     0.77637
      H   21    0.23597      0.00000     0.76196    0.00206     0.76403
      H   22    0.24634      0.00000     0.75256    0.00110     0.75366
      H   23    0.24433      0.00000     0.75455    0.00111     0.75567
      H   24    0.22658      0.00000     0.77147    0.00195     0.77342
      H   25    0.23641      0.00000     0.76172    0.00188     0.76359
      H   26    0.24547      0.00000     0.75340    0.00113     0.75453
      H   27    0.26763      0.00000     0.73035    0.00202     0.73237
      H   28    0.22462      0.00000     0.77336    0.00202     0.77538
      H   29    0.26763      0.00000     0.73035    0.00202     0.73237
      H   30    0.22462      0.00000     0.77336    0.00202     0.77538
      H   31    0.23641      0.00000     0.76172    0.00188     0.76359
      H   32    0.24547      0.00000     0.75340    0.00113     0.75453
      H   33    0.24433      0.00000     0.75455    0.00111     0.75567
      H   34    0.22658      0.00000     0.77147    0.00195     0.77342
      H   35    0.23597      0.00000     0.76196    0.00206     0.76403
      H   36    0.24634      0.00000     0.75256    0.00110     0.75366
      H   37    0.27381      0.00000     0.72383    0.00236     0.72619
      H   38    0.22363      0.00000     0.77408    0.00229     0.77637
 =======================================================================
   * Total *    0.00000     35.98882    99.63306    0.37812   136.00000

                                 Natural Population      
 --------------------------------------------------------
   Core                      35.98882 ( 99.9690% of  36)
   Valence                   99.63306 ( 99.6331% of 100)
   Natural Minimal Basis    135.62188 ( 99.7220% of 136)
   Natural Rydberg Basis      0.37812 (  0.2780% of 136)
 --------------------------------------------------------

    Atom  No          Natural Electron Configuration
 ----------------------------------------------------------------------------
      C    1      [core]2S( 0.73)2p( 2.42)3p( 0.03)3d( 0.01)
      O    2      [core]2S( 1.70)2p( 4.85)3d( 0.01)
      N    3      [core]2S( 1.40)2p( 3.82)3S( 0.01)3p( 0.01)3d( 0.01)
      N    4      [core]2S( 1.40)2p( 3.82)3S( 0.01)3p( 0.01)3d( 0.01)
      C    5      [core]2S( 0.73)2p( 2.42)3p( 0.03)3d( 0.01)
      O    6      [core]2S( 1.70)2p( 4.85)3d( 0.01)
      N    7      [core]2S( 1.21)2p( 4.25)3p( 0.01)
      C    8      [core]2S( 1.02)2p( 3.23)3p( 0.01)
      C    9      [core]2S( 1.04)2p( 3.42)3p( 0.01)
      C   10      [core]2S( 1.04)2p( 3.42)3p( 0.01)
      C   11      [core]2S( 1.04)2p( 3.42)3p( 0.01)
      C   12      [core]2S( 1.02)2p( 3.23)3p( 0.01)
      N   13      [core]2S( 1.21)2p( 4.25)3p( 0.01)
      C   14      [core]2S( 1.02)2p( 3.23)3p( 0.01)
      C   15      [core]2S( 1.04)2p( 3.42)3p( 0.01)
      C   16      [core]2S( 1.04)2p( 3.42)3p( 0.01)
      C   17      [core]2S( 1.04)2p( 3.42)3p( 0.01)
      C   18      [core]2S( 1.02)2p( 3.23)3p( 0.01)
      H   19            1S( 0.72)
      H   20            1S( 0.77)
      H   21            1S( 0.76)
      H   22            1S( 0.75)
      H   23            1S( 0.75)
      H   24            1S( 0.77)
      H   25            1S( 0.76)
      H   26            1S( 0.75)
      H   27            1S( 0.73)
      H   28            1S( 0.77)
      H   29            1S( 0.73)
      H   30            1S( 0.77)
      H   31            1S( 0.76)
      H   32            1S( 0.75)
      H   33            1S( 0.75)
      H   34            1S( 0.77)
      H   35            1S( 0.76)
      H   36            1S( 0.75)
      H   37            1S( 0.72)
      H   38            1S( 0.77)


 NBO analysis skipped by request.
 1\1\GINC-DELLA-R2C2N15\SP\RB3LYP TD-FC\6-31G(d)\C12H20N4O2\BJS4\22-Aug
 -2020\0\\# TD(NStates=10, Root=1) B3LYP/6-31G* scf=qc volume pop=NPA d
 ensity=current Geom=AllCheck Guess=Read\\Title Card Required\\0,1\C,0,
 2.2242132221,0.7013854399,-1.3649344184\O,0,1.990215658,0.3722762846,-
 2.5169677106\N,0,1.9617109073,2.0806317429,-0.9514072852\N,0,0.7452143
 318,2.3202188367,-0.8528805764\C,0,0.4827129667,3.6994644288,-0.439352
 3776\O,0,0.7166741841,4.0285576513,0.7126929217\N,0,-0.1220960105,4.44
 83330786,-1.3928764239\C,0,-0.34160631,4.0044158338,-2.7744300129\C,0,
 -1.814179972,4.1787685732,-3.1683587318\C,0,-2.2960306198,5.6124673539
 ,-2.8993745759\C,0,-2.0257909197,6.0149187192,-1.4413046152\C,0,-0.549
 5090643,5.8139373983,-1.0772851906\N,0,2.8290669322,-0.0474651019,-0.4
 114237858\C,0,3.2564898015,-1.4130662403,-0.7270151991\C,0,4.732788884
 6,-1.6140193725,-0.3630499149\C,0,5.0030783953,-1.2115459671,1.0950047
 966\C,0,4.5212150855,0.2221484712,1.3639899613\C,0,3.0486234199,0.3964
 724919,0.9701159072\H,0,-0.0284807626,2.9637755307,-2.8707883988\H,0,0
 .2979580723,4.604741458,-3.4396300334\H,0,-2.4202145952,3.4684095153,-
 2.5908082765\H,0,-1.9333826088,3.9205578773,-4.2276197374\H,0,-3.36401
 83189,5.7050250801,-3.1299021715\H,0,-1.7678879829,6.3052758508,-3.571
 3819528\H,0,-2.6437842508,5.406392577,-0.7679365218\H,0,-2.2982772194,
 7.0638492249,-1.2711919741\H,0,-0.3630024519,5.9779304488,-0.015260157
 7\H,0,0.0763075994,6.5181947913,-1.646518728\H,0,3.0699453265,-1.57707
 51426,-1.7890311124\H,0,2.6307060816,-2.1173268681,-0.1577494632\H,0,5
 .3507465763,-1.0054914118,-1.036449095\H,0,5.0052854561,-2.6629475401,
 -0.5331604981\H,0,6.0710764563,-1.3040838187,1.3254923673\H,0,4.474972
 7035,-1.9043547183,1.7670409359\H,0,5.1272161043,0.9325101478,0.786407
 4416\H,0,4.6404544094,0.4803741576,2.4232431927\H,0,2.7354839462,1.437
 1086832,1.0664734789\H,0,2.4090945657,-0.2038554659,1.6353479359\\Vers
 ion=ES64L-G16RevA.03\State=1-A\HF=-838.7633037\RMSD=1.437e-09\Dipole=0
 .0000561,0.0000269,-0.0000251\Quadrupole=2.7824921,5.0604728,-7.842964
 8,-9.5727098,5.6171003,-9.6695201\PG=C01 [X(C12H20N4O2)]\\@


 Fatherhood is pretending the present you love most is soap-on-a-rope.
 -- Bill Cosby
 Job cpu time:       0 days  0 hours 41 minutes  1.8 seconds.
 Elapsed time:       0 days  0 hours  8 minutes 13.8 seconds.
 File lengths (MBytes):  RWF=    821 Int=      0 D2E=      0 Chk=    268 Scr=      1
 Normal termination of Gaussian 16 at Sat Aug 22 17:26:33 2020.
