 Entering Gaussian System, Link 0=g16
 Input=azadicarboxylate_2_conf1123.com
 Output=azadicarboxylate_2_conf1123.log
 Initial command:
 /opt/export//g16/l1.exe "/scratch/bjs4/job.16765/Gau-16767.inp" -scrdir="/scratch/bjs4/job.16765/"
 Entering Link 1 = /opt/export//g16/l1.exe PID=     16768.
  
 Copyright (c) 1988,1990,1992,1993,1995,1998,2003,2009,2016,
            Gaussian, Inc.  All Rights Reserved.
  
 This is part of the Gaussian(R) 16 program.  It is based on
 the Gaussian(R) 09 system (copyright 2009, Gaussian, Inc.),
 the Gaussian(R) 03 system (copyright 2003, Gaussian, Inc.),
 the Gaussian(R) 98 system (copyright 1998, Gaussian, Inc.),
 the Gaussian(R) 94 system (copyright 1995, Gaussian, Inc.),
 the Gaussian 92(TM) system (copyright 1992, Gaussian, Inc.),
 the Gaussian 90(TM) system (copyright 1990, Gaussian, Inc.),
 the Gaussian 88(TM) system (copyright 1988, Gaussian, Inc.),
 the Gaussian 86(TM) system (copyright 1986, Carnegie Mellon
 University), and the Gaussian 82(TM) system (copyright 1983,
 Carnegie Mellon University). Gaussian is a federally registered
 trademark of Gaussian, Inc.
  
 This software contains proprietary and confidential information,
 including trade secrets, belonging to Gaussian, Inc.
  
 This software is provided under written license and may be
 used, copied, transmitted, or stored only in accord with that
 written license.
  
 The following legend is applicable only to US Government
 contracts under FAR:
  
                    RESTRICTED RIGHTS LEGEND
  
 Use, reproduction and disclosure by the US Government is
 subject to restrictions as set forth in subparagraphs (a)
 and (c) of the Commercial Computer Software - Restricted
 Rights clause in FAR 52.227-19.
  
 Gaussian, Inc.
 340 Quinnipiac St., Bldg. 40, Wallingford CT 06492
  
  
 ---------------------------------------------------------------
 Warning -- This program may not be used in any manner that
 competes with the business of Gaussian, Inc. or will provide
 assistance to any competitor of Gaussian, Inc.  The licensee
 of this program is prohibited from giving any competitor of
 Gaussian, Inc. access to this program.  By using this program,
 the user acknowledges that Gaussian, Inc. is engaged in the
 business of creating and licensing software in the field of
 computational chemistry and represents and warrants to the
 licensee that it is not a competitor of Gaussian, Inc. and that
 it will not use this program in any manner prohibited above.
 ---------------------------------------------------------------
  

 Cite this work as:
 Gaussian 16, Revision A.03,
 M. J. Frisch, G. W. Trucks, H. B. Schlegel, G. E. Scuseria, 
 M. A. Robb, J. R. Cheeseman, G. Scalmani, V. Barone, 
 G. A. Petersson, H. Nakatsuji, X. Li, M. Caricato, A. V. Marenich, 
 J. Bloino, B. G. Janesko, R. Gomperts, B. Mennucci, H. P. Hratchian, 
 J. V. Ortiz, A. F. Izmaylov, J. L. Sonnenberg, D. Williams-Young, 
 F. Ding, F. Lipparini, F. Egidi, J. Goings, B. Peng, A. Petrone, 
 T. Henderson, D. Ranasinghe, V. G. Zakrzewski, J. Gao, N. Rega, 
 G. Zheng, W. Liang, M. Hada, M. Ehara, K. Toyota, R. Fukuda, 
 J. Hasegawa, M. Ishida, T. Nakajima, Y. Honda, O. Kitao, H. Nakai, 
 T. Vreven, K. Throssell, J. A. Montgomery, Jr., J. E. Peralta, 
 F. Ogliaro, M. J. Bearpark, J. J. Heyd, E. N. Brothers, K. N. Kudin, 
 V. N. Staroverov, T. A. Keith, R. Kobayashi, J. Normand, 
 K. Raghavachari, A. P. Rendell, J. C. Burant, S. S. Iyengar, 
 J. Tomasi, M. Cossi, J. M. Millam, M. Klene, C. Adamo, R. Cammi, 
 J. W. Ochterski, R. L. Martin, K. Morokuma, O. Farkas, 
 J. B. Foresman, and D. J. Fox, Gaussian, Inc., Wallingford CT, 2016.
 
 ******************************************
 Gaussian 16:  ES64L-G16RevA.03 25-Dec-2016
                22-Aug-2020 
 ******************************************
 %nprocshared=4
 Will use up to    4 processors via shared memory.
 %Mem=8GB
 %Chk=azadicarboxylate_2_conf11.chk
 ---------------------------------
 # opt=CalcAll B3LYP/6-31G* scf=qc
 ---------------------------------
 1/10=4,18=20,19=15,26=3,38=1/1,3;
 2/9=110,12=2,17=6,18=5,40=1/2;
 3/5=1,6=6,7=1,11=2,25=1,30=1,71=2,74=-5,140=1/1,2,3;
 4//1;
 5/5=2,8=3,38=5/8;
 8/6=4,10=90,11=11/1;
 11/6=1,8=1,9=11,15=111,16=1/1,2,10;
 10/6=1/2;
 6/7=2,8=2,9=2,10=2,18=1,28=1/1;
 7/10=1,25=1/1,2,3,16;
 1/10=4,18=20,19=15,26=3/3(3);
 2/9=110/2;
 7/8=1,9=1,25=1,44=-1/16;
 99//99;
 2/9=110/2;
 3/5=1,6=6,7=1,11=2,25=1,30=1,71=2,74=-5,140=1/1,2,3;
 4/5=5,16=3,69=1/1;
 5/5=2,8=3,38=5/8;
 8/6=4,10=90,11=11/1;
 11/6=1,8=1,9=11,15=111,16=1/1,2,10;
 10/6=1/2;
 7/10=1,25=1/1,2,3,16;
 1/10=4,18=20,19=15,26=3/3(-8);
 2/9=110/2;
 6/7=2,8=2,9=2,10=2,18=1,19=2,28=1/1;
 7/8=1,9=1,25=1,44=-1/16;
 99//99;
 -------------------
 Title Card Required
 -------------------
 Symbolic Z-matrix:
 Charge =  0 Multiplicity = 1
 C                     5.72248   1.0542   -1.59967 
 C                     5.50972   0.02981  -0.48965 
 C                     6.5386   -1.09069  -0.60368 
 O1                    5.68323   0.65714   0.79504 
 C2                    4.6047    0.6255    1.633 
 O3                    3.53428   0.10185   1.34169 
 N4                    4.9196    1.2612    2.8145 
 N5                    6.1396    1.1728    3.0913 
 C6                    6.4621    1.8155    4.2661 
 O7                    7.5738    1.90522   4.77623 
 O8                    5.33308   2.36039   4.81064 
 C                     5.50055   3.07089   6.05199 
 C                     6.4807    4.22416   5.86258 
 C                     4.13309   3.60446   6.46596 
 H                     5.631     0.59075  -2.58702 
 H                     6.71232   1.5168   -1.51943 
 H                     4.99064   1.86496  -1.53265 
 H                     4.50954  -0.41479  -0.56434 
 H                     7.5574   -0.70642  -0.48098 
 H                     6.47013  -1.59528  -1.57316 
 H                     6.38476  -1.83469   0.18532 
 H                     5.85529   2.39072   6.83587 
 H                     6.15278   4.88702   5.05437 
 H                     7.47236   3.8545    5.58274 
 H                     6.58093   4.81212   6.77998 
 H                     3.71324   4.25775   5.69254 
 H                     4.1938    4.1676    7.40303 
 H                     3.42467   2.78047   6.60154 
 

 GradGradGradGradGradGradGradGradGradGradGradGradGradGradGradGradGradGrad
 Berny optimization.
 Initialization pass.
                           ----------------------------
                           !    Initial Parameters    !
                           ! (Angstroms and Degrees)  !
 --------------------------                            --------------------------
 ! Name  Definition              Value          Derivative Info.                !
 --------------------------------------------------------------------------------
 ! R1    R(1,2)                  1.5254         calculate D2E/DX2 analytically  !
 ! R2    R(1,15)                 1.0945         calculate D2E/DX2 analytically  !
 ! R3    R(1,16)                 1.0955         calculate D2E/DX2 analytically  !
 ! R4    R(1,17)                 1.0943         calculate D2E/DX2 analytically  !
 ! R5    R(2,3)                  1.5255         calculate D2E/DX2 analytically  !
 ! R6    R(2,4)                  1.4402         calculate D2E/DX2 analytically  !
 ! R7    R(2,18)                 1.0971         calculate D2E/DX2 analytically  !
 ! R8    R(3,19)                 1.0958         calculate D2E/DX2 analytically  !
 ! R9    R(3,20)                 1.0951         calculate D2E/DX2 analytically  !
 ! R10   R(3,21)                 1.0953         calculate D2E/DX2 analytically  !
 ! R11   R(4,5)                  1.3662         calculate D2E/DX2 analytically  !
 ! R12   R(5,6)                  1.2267         calculate D2E/DX2 analytically  !
 ! R13   R(5,7)                  1.3781         calculate D2E/DX2 analytically  !
 ! R14   R(7,8)                  1.2541         calculate D2E/DX2 analytically  !
 ! R15   R(8,9)                  1.3774         calculate D2E/DX2 analytically  !
 ! R16   R(9,10)                 1.2264         calculate D2E/DX2 analytically  !
 ! R17   R(9,11)                 1.3668         calculate D2E/DX2 analytically  !
 ! R18   R(11,12)                1.4401         calculate D2E/DX2 analytically  !
 ! R19   R(12,13)                1.5253         calculate D2E/DX2 analytically  !
 ! R20   R(12,14)                1.5251         calculate D2E/DX2 analytically  !
 ! R21   R(12,22)                1.0968         calculate D2E/DX2 analytically  !
 ! R22   R(13,23)                1.0955         calculate D2E/DX2 analytically  !
 ! R23   R(13,24)                1.0947         calculate D2E/DX2 analytically  !
 ! R24   R(13,25)                1.0942         calculate D2E/DX2 analytically  !
 ! R25   R(14,26)                1.096          calculate D2E/DX2 analytically  !
 ! R26   R(14,27)                1.0949         calculate D2E/DX2 analytically  !
 ! R27   R(14,28)                1.0951         calculate D2E/DX2 analytically  !
 ! A1    A(2,1,15)             111.1263         calculate D2E/DX2 analytically  !
 ! A2    A(2,1,16)             110.8728         calculate D2E/DX2 analytically  !
 ! A3    A(2,1,17)             111.083          calculate D2E/DX2 analytically  !
 ! A4    A(15,1,16)            108.6856         calculate D2E/DX2 analytically  !
 ! A5    A(15,1,17)            108.2444         calculate D2E/DX2 analytically  !
 ! A6    A(16,1,17)            106.6739         calculate D2E/DX2 analytically  !
 ! A7    A(1,2,3)              110.17           calculate D2E/DX2 analytically  !
 ! A8    A(1,2,4)              109.865          calculate D2E/DX2 analytically  !
 ! A9    A(1,2,18)             110.4733         calculate D2E/DX2 analytically  !
 ! A10   A(3,2,4)              107.7807         calculate D2E/DX2 analytically  !
 ! A11   A(3,2,18)             108.1874         calculate D2E/DX2 analytically  !
 ! A12   A(4,2,18)             110.3097         calculate D2E/DX2 analytically  !
 ! A13   A(2,3,19)             111.1699         calculate D2E/DX2 analytically  !
 ! A14   A(2,3,20)             111.2512         calculate D2E/DX2 analytically  !
 ! A15   A(2,3,21)             110.5087         calculate D2E/DX2 analytically  !
 ! A16   A(19,3,20)            108.5941         calculate D2E/DX2 analytically  !
 ! A17   A(19,3,21)            106.7463         calculate D2E/DX2 analytically  !
 ! A18   A(20,3,21)            108.4183         calculate D2E/DX2 analytically  !
 ! A19   A(2,4,5)              116.2282         calculate D2E/DX2 analytically  !
 ! A20   A(4,5,6)              123.5796         calculate D2E/DX2 analytically  !
 ! A21   A(4,5,7)              109.5593         calculate D2E/DX2 analytically  !
 ! A22   A(6,5,7)              126.8611         calculate D2E/DX2 analytically  !
 ! A23   A(5,7,8)              112.2711         calculate D2E/DX2 analytically  !
 ! A24   A(7,8,9)              112.5273         calculate D2E/DX2 analytically  !
 ! A25   A(8,9,10)             126.9508         calculate D2E/DX2 analytically  !
 ! A26   A(8,9,11)             109.4157         calculate D2E/DX2 analytically  !
 ! A27   A(10,9,11)            123.6334         calculate D2E/DX2 analytically  !
 ! A28   A(9,11,12)            116.3632         calculate D2E/DX2 analytically  !
 ! A29   A(11,12,13)           109.9209         calculate D2E/DX2 analytically  !
 ! A30   A(11,12,14)           107.5968         calculate D2E/DX2 analytically  !
 ! A31   A(11,12,22)           110.3483         calculate D2E/DX2 analytically  !
 ! A32   A(13,12,14)           110.2028         calculate D2E/DX2 analytically  !
 ! A33   A(13,12,22)           110.475          calculate D2E/DX2 analytically  !
 ! A34   A(14,12,22)           108.238          calculate D2E/DX2 analytically  !
 ! A35   A(12,13,23)           110.9009         calculate D2E/DX2 analytically  !
 ! A36   A(12,13,24)           111.0101         calculate D2E/DX2 analytically  !
 ! A37   A(12,13,25)           111.1623         calculate D2E/DX2 analytically  !
 ! A38   A(23,13,24)           106.6719         calculate D2E/DX2 analytically  !
 ! A39   A(23,13,25)           108.7127         calculate D2E/DX2 analytically  !
 ! A40   A(24,13,25)           108.2274         calculate D2E/DX2 analytically  !
 ! A41   A(12,14,26)           111.1285         calculate D2E/DX2 analytically  !
 ! A42   A(12,14,27)           111.2547         calculate D2E/DX2 analytically  !
 ! A43   A(12,14,28)           110.5114         calculate D2E/DX2 analytically  !
 ! A44   A(26,14,27)           108.5783         calculate D2E/DX2 analytically  !
 ! A45   A(26,14,28)           106.7418         calculate D2E/DX2 analytically  !
 ! A46   A(27,14,28)           108.4756         calculate D2E/DX2 analytically  !
 ! D1    D(15,1,2,3)            59.3515         calculate D2E/DX2 analytically  !
 ! D2    D(15,1,2,4)           177.9473         calculate D2E/DX2 analytically  !
 ! D3    D(15,1,2,18)          -60.1261         calculate D2E/DX2 analytically  !
 ! D4    D(16,1,2,3)           -61.6408         calculate D2E/DX2 analytically  !
 ! D5    D(16,1,2,4)            56.955          calculate D2E/DX2 analytically  !
 ! D6    D(16,1,2,18)          178.8816         calculate D2E/DX2 analytically  !
 ! D7    D(17,1,2,3)           179.9271         calculate D2E/DX2 analytically  !
 ! D8    D(17,1,2,4)           -61.477          calculate D2E/DX2 analytically  !
 ! D9    D(17,1,2,18)           60.4495         calculate D2E/DX2 analytically  !
 ! D10   D(1,2,3,19)            62.2007         calculate D2E/DX2 analytically  !
 ! D11   D(1,2,3,20)           -58.9637         calculate D2E/DX2 analytically  !
 ! D12   D(1,2,3,21)          -179.4557         calculate D2E/DX2 analytically  !
 ! D13   D(4,2,3,19)           -57.6649         calculate D2E/DX2 analytically  !
 ! D14   D(4,2,3,20)          -178.8293         calculate D2E/DX2 analytically  !
 ! D15   D(4,2,3,21)            60.6787         calculate D2E/DX2 analytically  !
 ! D16   D(18,2,3,19)         -176.942          calculate D2E/DX2 analytically  !
 ! D17   D(18,2,3,20)           61.8935         calculate D2E/DX2 analytically  !
 ! D18   D(18,2,3,21)          -58.5984         calculate D2E/DX2 analytically  !
 ! D19   D(1,2,4,5)            120.0005         calculate D2E/DX2 analytically  !
 ! D20   D(3,2,4,5)           -119.9411         calculate D2E/DX2 analytically  !
 ! D21   D(18,2,4,5)            -2.0235         calculate D2E/DX2 analytically  !
 ! D22   D(2,4,5,6)             -0.0004         calculate D2E/DX2 analytically  !
 ! D23   D(2,4,5,7)           -179.9502         calculate D2E/DX2 analytically  !
 ! D24   D(4,5,7,8)            -29.6473         calculate D2E/DX2 analytically  !
 ! D25   D(6,5,7,8)            150.405          calculate D2E/DX2 analytically  !
 ! D26   D(5,7,8,9)            179.5215         calculate D2E/DX2 analytically  !
 ! D27   D(7,8,9,10)          -179.2939         calculate D2E/DX2 analytically  !
 ! D28   D(7,8,9,11)             0.7876         calculate D2E/DX2 analytically  !
 ! D29   D(8,9,11,12)          179.9216         calculate D2E/DX2 analytically  !
 ! D30   D(10,9,11,12)          -0.0002         calculate D2E/DX2 analytically  !
 ! D31   D(9,11,12,13)          59.2938         calculate D2E/DX2 analytically  !
 ! D32   D(9,11,12,14)         179.3133         calculate D2E/DX2 analytically  !
 ! D33   D(9,11,12,22)         -62.7948         calculate D2E/DX2 analytically  !
 ! D34   D(11,12,13,23)         55.7918         calculate D2E/DX2 analytically  !
 ! D35   D(11,12,13,24)        -62.609          calculate D2E/DX2 analytically  !
 ! D36   D(11,12,13,25)        176.862          calculate D2E/DX2 analytically  !
 ! D37   D(14,12,13,23)        -62.6324         calculate D2E/DX2 analytically  !
 ! D38   D(14,12,13,24)        178.9668         calculate D2E/DX2 analytically  !
 ! D39   D(14,12,13,25)         58.4378         calculate D2E/DX2 analytically  !
 ! D40   D(22,12,13,23)        177.8052         calculate D2E/DX2 analytically  !
 ! D41   D(22,12,13,24)         59.4044         calculate D2E/DX2 analytically  !
 ! D42   D(22,12,13,25)        -61.1246         calculate D2E/DX2 analytically  !
 ! D43   D(11,12,14,26)        -58.2609         calculate D2E/DX2 analytically  !
 ! D44   D(11,12,14,27)       -179.3791         calculate D2E/DX2 analytically  !
 ! D45   D(11,12,14,28)         60.0526         calculate D2E/DX2 analytically  !
 ! D46   D(13,12,14,26)         61.5798         calculate D2E/DX2 analytically  !
 ! D47   D(13,12,14,27)        -59.5384         calculate D2E/DX2 analytically  !
 ! D48   D(13,12,14,28)        179.8932         calculate D2E/DX2 analytically  !
 ! D49   D(22,12,14,26)       -177.5095         calculate D2E/DX2 analytically  !
 ! D50   D(22,12,14,27)         61.3723         calculate D2E/DX2 analytically  !
 ! D51   D(22,12,14,28)        -59.196          calculate D2E/DX2 analytically  !
 --------------------------------------------------------------------------------
 Trust Radius=3.00D-01 FncErr=1.00D-07 GrdErr=1.00D-06 EigMax=2.50D+02 EigMin=1.00D-04
 Number of steps in this run=    134 maximum allowed number of steps=    168.
 GradGradGradGradGradGradGradGradGradGradGradGradGradGradGradGradGradGrad

                          Input orientation:                          
 ---------------------------------------------------------------------
 Center     Atomic      Atomic             Coordinates (Angstroms)
 Number     Number       Type             X           Y           Z
 ---------------------------------------------------------------------
      1          6           0        5.722480    1.054200   -1.599670
      2          6           0        5.509720    0.029810   -0.489650
      3          6           0        6.538600   -1.090690   -0.603680
      4          8           0        5.683230    0.657140    0.795040
      5          6           0        4.604700    0.625500    1.633000
      6          8           0        3.534280    0.101850    1.341690
      7          7           0        4.919600    1.261200    2.814500
      8          7           0        6.139600    1.172800    3.091300
      9          6           0        6.462100    1.815500    4.266100
     10          8           0        7.573800    1.905220    4.776230
     11          8           0        5.333080    2.360390    4.810640
     12          6           0        5.500550    3.070890    6.051990
     13          6           0        6.480700    4.224160    5.862580
     14          6           0        4.133090    3.604460    6.465960
     15          1           0        5.631000    0.590750   -2.587020
     16          1           0        6.712320    1.516800   -1.519430
     17          1           0        4.990640    1.864960   -1.532650
     18          1           0        4.509540   -0.414790   -0.564340
     19          1           0        7.557400   -0.706420   -0.480980
     20          1           0        6.470130   -1.595280   -1.573160
     21          1           0        6.384760   -1.834690    0.185320
     22          1           0        5.855290    2.390720    6.835870
     23          1           0        6.152780    4.887020    5.054370
     24          1           0        7.472360    3.854500    5.582740
     25          1           0        6.580930    4.812120    6.779980
     26          1           0        3.713240    4.257750    5.692540
     27          1           0        4.193800    4.167600    7.403030
     28          1           0        3.424670    2.780470    6.601540
 ---------------------------------------------------------------------
                    Distance matrix (angstroms):
                    1          2          3          4          5
     1  C    0.000000
     2  C    1.525381   0.000000
     3  C    2.501720   1.525489   0.000000
     4  O    2.427722   1.440166   2.396453   0.000000
     5  C    3.447227   2.383181   3.418774   1.366164   0.000000
     6  O    3.787715   2.694691   3.772606   2.285861   1.226731
     7  N    4.491365   3.575188   4.453819   2.241927   1.378121
     8  N    4.710972   3.811349   4.351490   2.397288   2.186800
     9  C    5.961030   5.168450   5.671556   3.741216   3.435004
    10  O    6.693558   5.958782   6.244241   4.580593   4.509228
    11  O    6.553613   5.792744   6.532847   4.375924   3.692936
    12  C    7.916072   7.213966   7.917969   5.787494   5.129323
    13  C    8.143017   7.673734   8.370394   6.248164   5.861662
    14  C    8.607228   7.940639   8.821039   6.576394   5.696852
    15  H    1.094538   2.174471   2.754018   3.383115   4.343163
    16  H    1.095546   2.172057   2.769076   2.674848   3.895419
    17  H    1.094264   2.173722   3.463385   2.712315   3.421484
    18  H    2.168194   1.097091   2.139036   2.091530   2.433015
    19  H    2.778162   2.176029   1.095752   2.645758   3.867992
    20  H    2.753076   2.176534   1.095076   3.361693   4.323327
    21  H    3.459840   2.167404   1.095319   2.659534   3.364064
    22  H    8.541795   7.704321   8.242210   6.287013   5.634699
    23  H    7.691028   7.398795   8.239867   6.021151   5.680042
    24  H    7.905111   7.440036   7.974873   6.028778   5.852381
    25  H    9.223743   8.767297   9.453221   7.340928   6.922765
    26  H    8.214384   7.702096   8.731028   6.389895   5.519765
    27  H    9.647732   9.008182   9.861800   7.629368   6.782961
    28  H    8.690212   7.886605   8.752007   6.582178   5.542811
                    6          7          8          9         10
     6  O    0.000000
     7  N    2.330745   0.000000
     8  N    3.315986   1.254126   0.000000
     9  C    4.478940   2.189451   1.377398   0.000000
    10  O    5.600529   3.362726   2.330742   1.226442   0.000000
    11  O    4.513347   2.315979   2.239860   1.366790   2.286742
    12  C    5.904942   3.754174   3.574467   2.385369   2.699021
    13  C    6.790676   4.528461   4.136078   2.889764   2.784332
    14  C    6.235783   4.409379   4.618158   3.669339   4.192981
    15  H    4.479958   5.489263   5.730687   7.011134   7.727856
    16  H    4.504224   4.697034   4.658881   5.798637   6.366188
    17  H    3.673060   4.389452   4.814572   5.982737   6.817353
    18  H    2.202498   3.793897   4.305954   5.667436   6.579804
    19  H    4.490091   4.657221   4.278178   5.485848   5.870195
    20  H    4.471668   5.460328   5.434032   6.762429   7.333917
    21  H    3.634916   4.317849   4.189250   5.475640   6.039636
    22  H    6.388429   4.280508   3.947907   2.702372   2.726005
    23  H    6.598362   4.436702   4.201101   3.186108   3.314784
    24  H    6.897634   4.572192   3.895515   2.629009   2.111976
    25  H    7.813048   5.576207   5.200556   3.913240   3.667543
    26  H    6.019421   4.326399   4.708565   3.944052   4.612802
    27  H    7.328379   5.479832   5.598748   4.529668   4.841781
    28  H    5.903646   4.345649   4.719876   3.951130   4.616611
                   11         12         13         14         15
    11  O    0.000000
    12  C    1.440072   0.000000
    13  C    2.428425   1.525320   0.000000
    14  C    2.393276   1.525128   2.501873   0.000000
    15  H    7.612211   8.988916   9.236850   9.658293   0.000000
    16  H    6.533279   7.823681   7.866226   8.647381   1.779486
    17  H    6.371816   7.696820   7.904146   8.230371   1.773519
    18  H    6.104937   7.543732   8.167658   8.106861   2.521908
    19  H    6.508008   7.821662   8.106211   8.863947   3.135135
    20  H    7.595598   8.992004   9.442257   9.855278   2.551623
    21  H    6.332323   7.698335   8.303623   8.608183   3.759891
    22  H    2.091693   1.096786   2.167933   2.139152   9.595887
    23  H    2.667428   2.172321   1.095499   2.777894   8.781858
    24  H    2.721217   2.173080   1.094691   3.463138   8.988195
    25  H    3.383254   2.174643   1.094242   2.747539  10.318092
    26  H    2.646054   2.175389   2.772882   1.096011   9.256123
    27  H    3.359234   2.176161   2.757915   1.094949  10.707964
    28  H    2.650626   2.166939   3.459714   1.095080   9.700124
                   16         17         18         19         20
    16  H    0.000000
    17  H    1.756580   0.000000
    18  H    3.081473   2.523161   0.000000
    19  H    2.595235   3.782362   3.062915   0.000000
    20  H    3.121952   3.763481   2.501037   1.779069   0.000000
    21  H    3.774381   4.310731   2.468715   1.758418   1.776755
    22  H    8.444482   8.429482   8.027767   8.125623   9.326200
    23  H    7.408530   7.339772   7.898059   7.993724   9.276049
    24  H    7.515539   7.793971   8.049331   7.588012   9.050496
    25  H    8.930655   8.961841   9.249339   9.172204  10.528153
    26  H    8.277669   7.717549   7.849540   8.805277   9.728761
    27  H    9.642613   9.261937   9.196574   9.860400  10.907083
    28  H    8.851873   8.333995   7.920635   8.910665   9.759495
                   21         22         23         24         25
    21  H    0.000000
    22  H    7.897103   0.000000
    23  H    8.303183   3.081194   0.000000
    24  H    7.917190   2.515532   1.756862   0.000000
    25  H    9.365261   2.528410   1.779509   1.773434   0.000000
    26  H    8.636221   3.062904   2.598961   3.782281   3.116648
    27  H    9.639664   2.497904   3.141874   3.763036   2.549899
    28  H    8.439770   2.472798   3.778078   4.309906   3.757848
                   26         27         28
    26  H    0.000000
    27  H    1.779000   0.000000
    28  H    1.758383   1.777098   0.000000
 Stoichiometry    C8H14N2O4
 Framework group  C1[X(C8H14N2O4)]
 Deg. of freedom    78
 Full point group                 C1      NOp   1
 Largest Abelian subgroup         C1      NOp   1
 Largest concise Abelian subgroup C1      NOp   1
                         Standard orientation:                         
 ---------------------------------------------------------------------
 Center     Atomic      Atomic             Coordinates (Angstroms)
 Number     Number       Type             X           Y           Z
 ---------------------------------------------------------------------
      1          6           0        4.109280   -0.201390    1.584119
      2          6           0        3.590915    0.042481    0.170397
      3          6           0        4.193451   -0.974798   -0.793560
      4          8           0        2.159881   -0.116495    0.139658
      5          6           0        1.439218    0.976500   -0.250742
      6          8           0        1.947784    2.047937   -0.564194
      7          7           0        0.094805    0.674302   -0.229582
      8          7           0       -0.123116   -0.539651   -0.456874
      9          6           0       -1.464835   -0.849646   -0.426571
     10          8           0       -1.970575   -1.953453   -0.599766
     11          8           0       -2.186902    0.281956   -0.169252
     12          6           0       -3.617250    0.127288   -0.106113
     13          6           0       -3.984382   -0.869604    0.988429
     14          6           0       -4.215633    1.495181    0.205050
     15          1           0        5.200170   -0.121293    1.623600
     16          1           0        3.817170   -1.195146    1.940967
     17          1           0        3.686962    0.521793    2.288439
     18          1           0        3.869977    1.046456   -0.172775
     19          1           0        3.899007   -1.995850   -0.526303
     20          1           0        5.286981   -0.916911   -0.799256
     21          1           0        3.832261   -0.798656   -1.812500
     22          1           0       -4.007978   -0.205886   -1.075270
     23          1           0       -3.564370   -0.563453    1.952784
     24          1           0       -3.576446   -1.861435    0.768866
     25          1           0       -5.069910   -0.961125    1.091472
     26          1           0       -3.821314    1.893950    1.146717
     27          1           0       -5.306956    1.443803    0.277765
     28          1           0       -3.953468    2.215566   -0.576945
 ---------------------------------------------------------------------
 Rotational constants (GHZ):           1.5574387           0.2802948           0.2602850
 Standard basis: 6-31G(d) (6D, 7F)
 There are   238 symmetry adapted cartesian basis functions of A   symmetry.
 There are   238 symmetry adapted basis functions of A   symmetry.
   238 basis functions,   448 primitive gaussians,   238 cartesian basis functions
    54 alpha electrons       54 beta electrons
       nuclear repulsion energy       922.5866190380 Hartrees.
 NAtoms=   28 NActive=   28 NUniq=   28 SFac= 1.00D+00 NAtFMM=   60 NAOKFM=F Big=F
 Integral buffers will be    131072 words long.
 Raffenetti 2 integral format.
 Two-electron integral symmetry is turned on.
 One-electron integrals computed using PRISM.
 NBasis=   238 RedAO= T EigKep=  2.07D-03  NBF=   238
 NBsUse=   238 1.00D-06 EigRej= -1.00D+00 NBFU=   238
 ExpMin= 1.61D-01 ExpMax= 5.48D+03 ExpMxC= 8.25D+02 IAcc=3 IRadAn=         5 AccDes= 0.00D+00
 Harris functional with IExCor=  402 and IRadAn=       5 diagonalized for initial guess.
 HarFok:  IExCor=  402 AccDes= 0.00D+00 IRadAn=         5 IDoV= 1 UseB2=F ITyADJ=14
 ICtDFT=  3500011 ScaDFX=  1.000000  1.000000  1.000000  1.000000
 FoFCou: FMM=F IPFlag=           0 FMFlag=      100000 FMFlg1=           0
         NFxFlg=           0 DoJE=T BraDBF=F KetDBF=T FulRan=T
         wScrn=  0.000000 ICntrl=       500 IOpCl=  0 I1Cent=   200000004 NGrid=           0
         NMat0=    1 NMatS0=      1 NMatT0=    0 NMatD0=    1 NMtDS0=    0 NMtDT0=    0
 Petite list used in FoFCou.
 Keep R1 ints in memory in canonical form, NReq=411287410.
 Gradient too large for Newton-Raphson -- use scaled steepest descent instead.
     Minimum is close to point  2 DX=  4.31D-03 DF= -7.88D-05 DXR=  1.42D-02 DFR=  2.01D-04 which will be used.
 Gradient too large for Newton-Raphson -- use scaled steepest descent instead.
 Gradient too large for Newton-Raphson -- use scaled steepest descent instead.
 Gradient too large for Newton-Raphson -- use scaled steepest descent instead.
     Minimum is close to point  2 DX=  3.79D-02 DF= -1.84D-05 DXR=  8.65D-02 DFR=  7.54D-03 which will be used.
 Gradient too large for Newton-Raphson -- use scaled steepest descent instead.
 Gradient too large for Newton-Raphson -- use scaled steepest descent instead.
     Accept linear search using points  1 and  2.
 Gradient too large for Newton-Raphson -- use scaled steepest descent instead.
     Minimum is close to point  3 DX=  3.44D-03 DF= -1.62D-09 DXR=  3.43D-03 DFR=  1.18D-05 which will be used.
 LinEq1:  Iter=  0 NonCon=     1 RMS=3.79D-05 Max=1.53D-03 NDo=     1
 AX will form     1 AO Fock derivatives at one time.
 LinEq1:  Iter=  1 NonCon=     1 RMS=4.63D-05 Max=2.17D-03 NDo=     1
 LinEq1:  Iter=  2 NonCon=     1 RMS=7.97D-06 Max=4.78D-04 NDo=     1
 LinEq1:  Iter=  3 NonCon=     1 RMS=4.36D-06 Max=1.49D-04 NDo=     1
 LinEq1:  Iter=  4 NonCon=     1 RMS=5.19D-06 Max=2.20D-04 NDo=     1
 LinEq1:  Iter=  5 NonCon=     1 RMS=3.08D-06 Max=5.67D-05 NDo=     1
 LinEq1:  Iter=  6 NonCon=     1 RMS=1.44D-06 Max=3.25D-05 NDo=     1
 LinEq1:  Iter=  7 NonCon=     1 RMS=1.01D-06 Max=2.91D-05 NDo=     1
 LinEq1:  Iter=  8 NonCon=     1 RMS=6.05D-07 Max=1.71D-05 NDo=     1
 LinEq1:  Iter=  9 NonCon=     1 RMS=4.60D-07 Max=1.41D-05 NDo=     1
 LinEq1:  Iter= 10 NonCon=     1 RMS=2.87D-07 Max=9.27D-06 NDo=     1
 LinEq1:  Iter= 11 NonCon=     1 RMS=1.25D-07 Max=3.27D-06 NDo=     1
 LinEq1:  Iter= 12 NonCon=     1 RMS=5.76D-08 Max=1.31D-06 NDo=     1
 LinEq1:  Iter= 13 NonCon=     1 RMS=2.95D-08 Max=8.21D-07 NDo=     1
 LinEq1:  Iter= 14 NonCon=     1 RMS=1.53D-08 Max=3.82D-07 NDo=     1
 LinEq1:  Iter= 15 NonCon=     1 RMS=9.32D-09 Max=2.05D-07 NDo=     1
 LinEq1:  Iter= 16 NonCon=     0 RMS=2.99D-09 Max=6.14D-08 NDo=     1
 Linear equations converged to 1.410D-08 1.410D-07 after    16 iterations.
     Minimum is close to point  2 DX=  3.19D-04 DF= -6.82D-13 DXR=  3.19D-04 DFR=  1.21D-07 which will be used.
 LinEq1:  Iter=  0 NonCon=     1 RMS=3.42D-08 Max=1.19D-06 NDo=     1
 LinEq1:  Iter=  1 NonCon=     1 RMS=2.64D-08 Max=9.15D-07 NDo=     1
 LinEq1:  Iter=  2 NonCon=     1 RMS=2.29D-08 Max=8.18D-07 NDo=     1
 LinEq1:  Iter=  3 NonCon=     1 RMS=1.39D-08 Max=7.24D-07 NDo=     1
 LinEq1:  Iter=  4 NonCon=     1 RMS=1.03D-08 Max=3.82D-07 NDo=     1
 LinEq1:  Iter=  5 NonCon=     1 RMS=6.37D-09 Max=1.89D-07 NDo=     1
 LinEq1:  Iter=  6 NonCon=     1 RMS=4.36D-09 Max=1.26D-07 NDo=     1
 LinEq1:  Iter=  7 NonCon=     1 RMS=4.14D-09 Max=1.12D-07 NDo=     1
 LinEq1:  Iter=  8 NonCon=     1 RMS=2.06D-09 Max=7.94D-08 NDo=     1
 LinEq1:  Iter=  9 NonCon=     1 RMS=2.17D-09 Max=6.00D-08 NDo=     1
 LinEq1:  Iter= 10 NonCon=     1 RMS=1.18D-09 Max=2.75D-08 NDo=     1
 LinEq1:  Iter= 11 NonCon=     1 RMS=5.88D-10 Max=1.09D-08 NDo=     1
 LinEq1:  Iter= 12 NonCon=     1 RMS=2.09D-10 Max=3.96D-09 NDo=     1
 LinEq1:  Iter= 13 NonCon=     1 RMS=1.29D-10 Max=3.39D-09 NDo=     1
 LinEq1:  Iter= 14 NonCon=     1 RMS=5.51D-11 Max=1.47D-09 NDo=     1
 LinEq1:  Iter= 15 NonCon=     1 RMS=1.87D-11 Max=3.84D-10 NDo=     1
 LinEq1:  Iter= 16 NonCon=     0 RMS=8.96D-12 Max=1.61D-10 NDo=     1
 Linear equations converged to 2.072D-11 2.072D-10 after    16 iterations.
 SCF Done:  E(RB3LYP) =  -723.619026628     a.u. after   10 cycles
            Convg  =    0.7907D-10                    54 Fock formations.
              S**2 =  0.0000                  -V/T =  2.0088
 DoSCS=F DFT=T ScalE2(SS,OS)=  1.000000  1.000000
 Range of M.O.s used for correlation:     1   238
 NBasis=   238 NAE=    54 NBE=    54 NFC=     0 NFV=     0
 NROrb=    238 NOA=    54 NOB=    54 NVA=   184 NVB=   184
 Symmetrizing basis deriv contribution to polar:
 IMax=3 JMax=2 DiffMx= 0.00D+00
 G2DrvN: will do    29 centers at a time, making    1 passes.
 Calling FoFCou, ICntrl=  3107 FMM=F I1Cent=   0 AccDes= 0.00D+00.
 End of G2Drv F.D. properties file   721 does not exist.
 End of G2Drv F.D. properties file   722 does not exist.
 End of G2Drv F.D. properties file   788 does not exist.
          IDoAtm=1111111111111111111111111111
          Differentiating once with respect to electric field.
                with respect to dipole field.
          Differentiating once with respect to nuclear coordinates.
 Keep R1 ints in memory in canonical form, NReq=411298527.
          There are    87 degrees of freedom in the 1st order CPHF.  IDoFFX=6 NUNeed=     3.
     84 vectors produced by pass  0 Test12= 1.14D-14 1.15D-09 XBig12= 1.22D+02 3.79D+00.
 AX will form    84 AO Fock derivatives at one time.
     84 vectors produced by pass  1 Test12= 1.14D-14 1.15D-09 XBig12= 3.58D+01 1.03D+00.
     84 vectors produced by pass  2 Test12= 1.14D-14 1.15D-09 XBig12= 3.07D-01 9.58D-02.
     84 vectors produced by pass  3 Test12= 1.14D-14 1.15D-09 XBig12= 1.37D-03 6.45D-03.
     84 vectors produced by pass  4 Test12= 1.14D-14 1.15D-09 XBig12= 1.62D-06 1.48D-04.
     49 vectors produced by pass  5 Test12= 1.14D-14 1.15D-09 XBig12= 1.38D-09 3.18D-06.
     10 vectors produced by pass  6 Test12= 1.14D-14 1.15D-09 XBig12= 1.15D-12 1.03D-07.
      3 vectors produced by pass  7 Test12= 1.14D-14 1.15D-09 XBig12= 1.09D-15 3.90D-09.
 InvSVY:  IOpt=1 It=  1 EMax= 7.11D-15
 Solved reduced A of dimension   482 with    87 vectors.
 Isotropic polarizability for W=    0.000000      115.31 Bohr**3.
 End of Minotr F.D. properties file   721 does not exist.
 End of Minotr F.D. properties file   722 does not exist.
 End of Minotr F.D. properties file   788 does not exist.

 **********************************************************************

            Population analysis using the SCF density.

 **********************************************************************

 Orbital symmetries:
       Occupied  (A) (A) (A) (A) (A) (A) (A) (A) (A) (A) (A) (A)
                 (A) (A) (A) (A) (A) (A) (A) (A) (A) (A) (A) (A)
                 (A) (A) (A) (A) (A) (A) (A) (A) (A) (A) (A) (A)
                 (A) (A) (A) (A) (A) (A) (A) (A) (A) (A) (A) (A)
                 (A) (A) (A) (A) (A) (A)
       Virtual   (A) (A) (A) (A) (A) (A) (A) (A) (A) (A) (A) (A)
                 (A) (A) (A) (A) (A) (A) (A) (A) (A) (A) (A) (A)
                 (A) (A) (A) (A) (A) (A) (A) (A) (A) (A) (A) (A)
                 (A) (A) (A) (A) (A) (A) (A) (A) (A) (A) (A) (A)
                 (A) (A) (A) (A) (A) (A) (A) (A) (A) (A) (A) (A)
                 (A) (A) (A) (A) (A) (A) (A) (A) (A) (A) (A) (A)
                 (A) (A) (A) (A) (A) (A) (A) (A) (A) (A) (A) (A)
                 (A) (A) (A) (A) (A) (A) (A) (A) (A) (A) (A) (A)
                 (A) (A) (A) (A) (A) (A) (A) (A) (A) (A) (A) (A)
                 (A) (A) (A) (A) (A) (A) (A) (A) (A) (A) (A) (A)
                 (A) (A) (A) (A) (A) (A) (A) (A) (A) (A) (A) (A)
                 (A) (A) (A) (A) (A) (A) (A) (A) (A) (A) (A) (A)
                 (A) (A) (A) (A) (A) (A) (A) (A) (A) (A) (A) (A)
                 (A) (A) (A) (A) (A) (A) (A) (A) (A) (A) (A) (A)
                 (A) (A) (A) (A) (A) (A) (A) (A) (A) (A) (A) (A)
                 (A) (A) (A) (A)
 The electronic state is 1-A.
 Alpha  occ. eigenvalues --  -19.20373 -19.20128 -19.17022 -19.16476 -14.43133
 Alpha  occ. eigenvalues --  -14.42895 -10.35798 -10.35699 -10.25533 -10.25206
 Alpha  occ. eigenvalues --  -10.18663 -10.18518 -10.18453 -10.17594  -1.14692
 Alpha  occ. eigenvalues --   -1.11952  -1.06149  -1.03460  -1.03195  -0.84673
 Alpha  occ. eigenvalues --   -0.79612  -0.78129  -0.69811  -0.69572  -0.65457
 Alpha  occ. eigenvalues --   -0.62990  -0.60107  -0.56415  -0.55564  -0.51298
 Alpha  occ. eigenvalues --   -0.50827  -0.48497  -0.47362  -0.46743  -0.45689
 Alpha  occ. eigenvalues --   -0.44705  -0.43438  -0.42088  -0.41764  -0.40518
 Alpha  occ. eigenvalues --   -0.39641  -0.39402  -0.38571  -0.38202  -0.36563
 Alpha  occ. eigenvalues --   -0.36321  -0.35724  -0.34731  -0.34038  -0.31180
 Alpha  occ. eigenvalues --   -0.30972  -0.30683  -0.30341  -0.26674
 Alpha virt. eigenvalues --   -0.14463   0.01059   0.04948   0.08988   0.09449
 Alpha virt. eigenvalues --    0.11432   0.12094   0.13485   0.13859   0.14575
 Alpha virt. eigenvalues --    0.15211   0.16776   0.16864   0.17680   0.18251
 Alpha virt. eigenvalues --    0.18437   0.18757   0.18974   0.19469   0.20649
 Alpha virt. eigenvalues --    0.22048   0.22410   0.23382   0.24602   0.25164
 Alpha virt. eigenvalues --    0.26065   0.34724   0.34923   0.36940   0.45474
 Alpha virt. eigenvalues --    0.47672   0.48878   0.48909   0.50587   0.51930
 Alpha virt. eigenvalues --    0.53175   0.54254   0.55456   0.56042   0.56810
 Alpha virt. eigenvalues --    0.58124   0.58469   0.58756   0.59775   0.60815
 Alpha virt. eigenvalues --    0.61848   0.63311   0.64671   0.66454   0.68210
 Alpha virt. eigenvalues --    0.69151   0.69954   0.72606   0.72766   0.74590
 Alpha virt. eigenvalues --    0.75774   0.76551   0.78087   0.79410   0.81189
 Alpha virt. eigenvalues --    0.82458   0.84270   0.87028   0.87429   0.88069
 Alpha virt. eigenvalues --    0.88310   0.88566   0.89572   0.90344   0.90635
 Alpha virt. eigenvalues --    0.92097   0.93252   0.93667   0.94771   0.95669
 Alpha virt. eigenvalues --    0.97011   0.97118   0.98233   1.00366   1.02065
 Alpha virt. eigenvalues --    1.04118   1.06941   1.10591   1.11794   1.13903
 Alpha virt. eigenvalues --    1.15666   1.17590   1.17726   1.25742   1.27693
 Alpha virt. eigenvalues --    1.29009   1.34702   1.36717   1.38536   1.41230
 Alpha virt. eigenvalues --    1.42164   1.44056   1.44962   1.46306   1.50211
 Alpha virt. eigenvalues --    1.51969   1.53934   1.55027   1.60301   1.63921
 Alpha virt. eigenvalues --    1.65093   1.68322   1.70843   1.72792   1.73905
 Alpha virt. eigenvalues --    1.75891   1.77010   1.77636   1.79179   1.79904
 Alpha virt. eigenvalues --    1.81538   1.82350   1.82829   1.84463   1.86915
 Alpha virt. eigenvalues --    1.87965   1.91219   1.93874   1.95387   1.97230
 Alpha virt. eigenvalues --    1.98429   2.00475   2.00842   2.02399   2.04949
 Alpha virt. eigenvalues --    2.06042   2.09728   2.11261   2.12582   2.13516
 Alpha virt. eigenvalues --    2.15455   2.17176   2.20079   2.21912   2.22514
 Alpha virt. eigenvalues --    2.23305   2.24244   2.25841   2.29629   2.37928
 Alpha virt. eigenvalues --    2.40097   2.42459   2.44672   2.47255   2.48958
 Alpha virt. eigenvalues --    2.49007   2.50247   2.55021   2.55586   2.59125
 Alpha virt. eigenvalues --    2.65488   2.66524   2.68252   2.71155   2.72266
 Alpha virt. eigenvalues --    2.72898   2.74601   2.85011   2.87411   2.91919
 Alpha virt. eigenvalues --    2.96192   3.07129   3.11409   3.18104   3.24339
 Alpha virt. eigenvalues --    3.79036   3.92216   3.99404   4.02830   4.13422
 Alpha virt. eigenvalues --    4.18626   4.24126   4.24443   4.27738   4.28309
 Alpha virt. eigenvalues --    4.39170   4.45267   4.54999   4.57403
          Condensed to atoms (all electrons):
               1          2          3          4          5          6
     1  C    5.121741   0.380394  -0.064237  -0.042093   0.000227   0.000295
     2  C    0.380394   4.762861   0.381233   0.187377  -0.012451  -0.014592
     3  C   -0.064237   0.381233   5.122499  -0.046844   0.000922   0.000430
     4  O   -0.042093   0.187377  -0.046844   8.284150   0.273391  -0.079570
     5  C    0.000227  -0.012451   0.000922   0.273391   4.217559   0.554366
     6  O    0.000295  -0.014592   0.000430  -0.079570   0.554366   8.024074
     7  N   -0.000275   0.003841  -0.000240  -0.098755   0.237752  -0.060108
     8  N    0.000032   0.000376   0.000029  -0.008761  -0.047065   0.000716
     9  C    0.000001  -0.000004  -0.000003   0.000444   0.003239  -0.000121
    10  O   -0.000000  -0.000000   0.000000   0.000006  -0.000095   0.000000
    11  O   -0.000000   0.000001  -0.000000  -0.000023   0.000304   0.000007
    12  C    0.000000  -0.000000  -0.000000   0.000000  -0.000014  -0.000000
    13  C   -0.000000   0.000000   0.000000  -0.000000   0.000002   0.000000
    14  C    0.000000   0.000000   0.000000  -0.000000  -0.000000  -0.000000
    15  H    0.363893  -0.026419  -0.001310   0.002824  -0.000017   0.000003
    16  H    0.370485  -0.029240  -0.007287  -0.000206  -0.000253  -0.000007
    17  H    0.367943  -0.028068   0.005505  -0.000132   0.001265   0.000122
    18  H   -0.045196   0.370548  -0.047500  -0.033361  -0.009401   0.022911
    19  H   -0.007074  -0.028669   0.371002  -0.000473  -0.000302  -0.000010
    20  H   -0.001266  -0.027809   0.362778   0.003120  -0.000018  -0.000001
    21  H    0.005533  -0.028037   0.368653  -0.000106   0.001260   0.000140
    22  H   -0.000000   0.000000   0.000000  -0.000000   0.000002  -0.000000
    23  H   -0.000000   0.000000   0.000000  -0.000000  -0.000000  -0.000000
    24  H   -0.000000   0.000000  -0.000000   0.000000   0.000000  -0.000000
    25  H   -0.000000  -0.000000   0.000000   0.000000  -0.000000  -0.000000
    26  H   -0.000000   0.000000   0.000000   0.000000  -0.000000  -0.000000
    27  H    0.000000  -0.000000  -0.000000   0.000000   0.000000  -0.000000
    28  H    0.000000   0.000000  -0.000000  -0.000000   0.000000   0.000000
               7          8          9         10         11         12
     1  C   -0.000275   0.000032   0.000001  -0.000000  -0.000000   0.000000
     2  C    0.003841   0.000376  -0.000004  -0.000000   0.000001  -0.000000
     3  C   -0.000240   0.000029  -0.000003   0.000000  -0.000000  -0.000000
     4  O   -0.098755  -0.008761   0.000444   0.000006  -0.000023   0.000000
     5  C    0.237752  -0.047065   0.003239  -0.000095   0.000304  -0.000014
     6  O   -0.060108   0.000716  -0.000121   0.000000   0.000007  -0.000000
     7  N    6.998698   0.187749  -0.053713   0.001632  -0.017848   0.000641
     8  N    0.187749   7.025501   0.240734  -0.058295  -0.102769   0.005171
     9  C   -0.053713   0.240734   4.219748   0.522769   0.291474  -0.014315
    10  O    0.001632  -0.058295   0.522769   8.053256  -0.078026   0.002370
    11  O   -0.017848  -0.102769   0.291474  -0.078026   8.282570   0.187273
    12  C    0.000641   0.005171  -0.014315   0.002370   0.187273   4.703301
    13  C    0.000016  -0.000925  -0.006965  -0.019176  -0.039687   0.371423
    14  C    0.000032  -0.000184   0.003596   0.000459  -0.041622   0.389016
    15  H    0.000004  -0.000000  -0.000000   0.000000   0.000000  -0.000000
    16  H   -0.000010   0.000000   0.000000   0.000000  -0.000000   0.000000
    17  H   -0.000028  -0.000009  -0.000000   0.000000   0.000000  -0.000000
    18  H    0.000706  -0.000131   0.000004  -0.000000  -0.000000   0.000000
    19  H   -0.000011   0.000018   0.000000   0.000000  -0.000000   0.000000
    20  H    0.000003   0.000001   0.000000  -0.000000   0.000000   0.000000
    21  H   -0.000076   0.000065   0.000001  -0.000000  -0.000000   0.000000
    22  H   -0.000050  -0.000128  -0.004023   0.005327  -0.036460   0.376861
    23  H   -0.000034  -0.000016   0.001105   0.000174  -0.000665  -0.032208
    24  H   -0.000017   0.000154  -0.000326   0.013377  -0.002933  -0.027561
    25  H   -0.000000   0.000007   0.000434   0.000412   0.002789  -0.025927
    26  H    0.000019  -0.000021  -0.000029  -0.000008  -0.000240  -0.027715
    27  H   -0.000001   0.000003  -0.000037   0.000013   0.002795  -0.027176
    28  H    0.000013  -0.000003  -0.000058   0.000005   0.001111  -0.027760
              13         14         15         16         17         18
     1  C   -0.000000   0.000000   0.363893   0.370485   0.367943  -0.045196
     2  C    0.000000   0.000000  -0.026419  -0.029240  -0.028068   0.370548
     3  C    0.000000   0.000000  -0.001310  -0.007287   0.005505  -0.047500
     4  O   -0.000000  -0.000000   0.002824  -0.000206  -0.000132  -0.033361
     5  C    0.000002  -0.000000  -0.000017  -0.000253   0.001265  -0.009401
     6  O    0.000000  -0.000000   0.000003  -0.000007   0.000122   0.022911
     7  N    0.000016   0.000032   0.000004  -0.000010  -0.000028   0.000706
     8  N   -0.000925  -0.000184  -0.000000   0.000000  -0.000009  -0.000131
     9  C   -0.006965   0.003596  -0.000000   0.000000  -0.000000   0.000004
    10  O   -0.019176   0.000459   0.000000   0.000000   0.000000  -0.000000
    11  O   -0.039687  -0.041622   0.000000  -0.000000   0.000000  -0.000000
    12  C    0.371423   0.389016  -0.000000   0.000000  -0.000000   0.000000
    13  C    5.201758  -0.060539   0.000000   0.000000   0.000000   0.000000
    14  C   -0.060539   5.119463  -0.000000  -0.000000  -0.000000  -0.000000
    15  H    0.000000  -0.000000   0.559573  -0.027399  -0.026215  -0.000177
    16  H    0.000000  -0.000000  -0.027399   0.557327  -0.031699   0.004837
    17  H    0.000000  -0.000000  -0.026215  -0.031699   0.559630  -0.003382
    18  H    0.000000  -0.000000  -0.000177   0.004837  -0.003382   0.560688
    19  H    0.000000   0.000000   0.000084   0.005189  -0.000050   0.004950
    20  H   -0.000000   0.000000   0.001290   0.000083  -0.000026  -0.000246
    21  H   -0.000000   0.000000  -0.000024  -0.000047  -0.000200  -0.003825
    22  H   -0.051307  -0.051279   0.000000  -0.000000   0.000000   0.000000
    23  H    0.364615  -0.006835   0.000000  -0.000000   0.000000   0.000000
    24  H    0.370325   0.004817   0.000000  -0.000000  -0.000000   0.000000
    25  H    0.359436  -0.002112  -0.000000   0.000000   0.000000   0.000000
    26  H   -0.007375   0.369710   0.000000  -0.000000   0.000000  -0.000000
    27  H   -0.001801   0.365352   0.000000   0.000000  -0.000000   0.000000
    28  H    0.005818   0.366864  -0.000000  -0.000000  -0.000000  -0.000000
              19         20         21         22         23         24
     1  C   -0.007074  -0.001266   0.005533  -0.000000  -0.000000  -0.000000
     2  C   -0.028669  -0.027809  -0.028037   0.000000   0.000000   0.000000
     3  C    0.371002   0.362778   0.368653   0.000000   0.000000  -0.000000
     4  O   -0.000473   0.003120  -0.000106  -0.000000  -0.000000   0.000000
     5  C   -0.000302  -0.000018   0.001260   0.000002  -0.000000   0.000000
     6  O   -0.000010  -0.000001   0.000140  -0.000000  -0.000000  -0.000000
     7  N   -0.000011   0.000003  -0.000076  -0.000050  -0.000034  -0.000017
     8  N    0.000018   0.000001   0.000065  -0.000128  -0.000016   0.000154
     9  C    0.000000   0.000000   0.000001  -0.004023   0.001105  -0.000326
    10  O    0.000000  -0.000000  -0.000000   0.005327   0.000174   0.013377
    11  O   -0.000000   0.000000  -0.000000  -0.036460  -0.000665  -0.002933
    12  C    0.000000   0.000000   0.000000   0.376861  -0.032208  -0.027561
    13  C    0.000000  -0.000000  -0.000000  -0.051307   0.364615   0.370325
    14  C    0.000000   0.000000   0.000000  -0.051279  -0.006835   0.004817
    15  H    0.000084   0.001290  -0.000024   0.000000   0.000000   0.000000
    16  H    0.005189   0.000083  -0.000047  -0.000000  -0.000000  -0.000000
    17  H   -0.000050  -0.000026  -0.000200   0.000000   0.000000  -0.000000
    18  H    0.004950  -0.000246  -0.003825   0.000000   0.000000   0.000000
    19  H    0.553692  -0.027839  -0.030838  -0.000000  -0.000000  -0.000000
    20  H   -0.027839   0.565446  -0.026225  -0.000000  -0.000000   0.000000
    21  H   -0.030838  -0.026225   0.556932  -0.000000  -0.000000   0.000000
    22  H   -0.000000  -0.000000  -0.000000   0.607331   0.005600  -0.004280
    23  H   -0.000000  -0.000000  -0.000000   0.005600   0.570819  -0.030250
    24  H   -0.000000   0.000000   0.000000  -0.004280  -0.030250   0.501918
    25  H    0.000000  -0.000000  -0.000000  -0.000121  -0.025910  -0.023216
    26  H   -0.000000  -0.000000  -0.000000   0.005501   0.005031  -0.000057
    27  H    0.000000   0.000000  -0.000000  -0.000148   0.000185   0.000009
    28  H   -0.000000   0.000000   0.000000  -0.004243  -0.000034  -0.000186
              25         26         27         28
     1  C   -0.000000  -0.000000   0.000000   0.000000
     2  C   -0.000000   0.000000  -0.000000   0.000000
     3  C    0.000000   0.000000  -0.000000  -0.000000
     4  O    0.000000   0.000000   0.000000  -0.000000
     5  C   -0.000000  -0.000000   0.000000   0.000000
     6  O   -0.000000  -0.000000  -0.000000   0.000000
     7  N   -0.000000   0.000019  -0.000001   0.000013
     8  N    0.000007  -0.000021   0.000003  -0.000003
     9  C    0.000434  -0.000029  -0.000037  -0.000058
    10  O    0.000412  -0.000008   0.000013   0.000005
    11  O    0.002789  -0.000240   0.002795   0.001111
    12  C   -0.025927  -0.027715  -0.027176  -0.027760
    13  C    0.359436  -0.007375  -0.001801   0.005818
    14  C   -0.002112   0.369710   0.365352   0.366864
    15  H   -0.000000   0.000000   0.000000  -0.000000
    16  H    0.000000  -0.000000   0.000000  -0.000000
    17  H    0.000000   0.000000  -0.000000  -0.000000
    18  H    0.000000  -0.000000   0.000000  -0.000000
    19  H    0.000000  -0.000000   0.000000  -0.000000
    20  H   -0.000000  -0.000000   0.000000   0.000000
    21  H   -0.000000  -0.000000  -0.000000   0.000000
    22  H   -0.000121   0.005501  -0.000148  -0.004243
    23  H   -0.025910   0.005031   0.000185  -0.000034
    24  H   -0.023216  -0.000057   0.000009  -0.000186
    25  H    0.564617   0.000081   0.002039  -0.000029
    26  H    0.000081   0.552626  -0.027179  -0.030302
    27  H    0.002039  -0.027179   0.559691  -0.026680
    28  H   -0.000029  -0.030302  -0.026680   0.556005
 Mulliken charges:
               1
     1  C   -0.450403
     2  C    0.108660
     3  C   -0.445628
     4  O   -0.440987
     5  C    0.779326
     6  O   -0.448655
     7  N   -0.199939
     8  N   -0.242248
     9  C    0.796044
    10  O   -0.444199
    11  O   -0.448049
    12  C    0.146620
    13  C   -0.485618
    14  C   -0.456737
    15  H    0.153892
    16  H    0.158228
    17  H    0.155346
    18  H    0.178575
    19  H    0.160330
    20  H    0.150709
    21  H    0.156795
    22  H    0.151417
    23  H    0.148422
    24  H    0.198225
    25  H    0.147501
    26  H    0.159959
    27  H    0.152936
    28  H    0.159480
 Sum of Mulliken charges =   0.00000
 Mulliken charges with hydrogens summed into heavy atoms:
               1
     1  C    0.017062
     2  C    0.287235
     3  C    0.022205
     4  O   -0.440987
     5  C    0.779326
     6  O   -0.448655
     7  N   -0.199939
     8  N   -0.242248
     9  C    0.796044
    10  O   -0.444199
    11  O   -0.448049
    12  C    0.298037
    13  C    0.008531
    14  C    0.015638
 APT charges:
               1
     1  C    0.021717
     2  C    0.557257
     3  C    0.022106
     4  O   -0.899541
     5  C    1.208026
     6  O   -0.638051
     7  N   -0.203935
     8  N   -0.180908
     9  C    1.164909
    10  O   -0.594937
    11  O   -0.891767
    12  C    0.617445
    13  C   -0.056014
    14  C    0.028518
    15  H   -0.012713
    16  H   -0.004751
    17  H   -0.019138
    18  H   -0.009745
    19  H   -0.004179
    20  H   -0.014929
    21  H   -0.016656
    22  H   -0.080540
    23  H   -0.010235
    24  H    0.052736
    25  H   -0.009444
    26  H   -0.003796
    27  H   -0.009223
    28  H   -0.012211
 Sum of APT charges =   0.00000
 APT charges with hydrogens summed into heavy atoms:
               1
     1  C   -0.014886
     2  C    0.547511
     3  C   -0.013658
     4  O   -0.899541
     5  C    1.208026
     6  O   -0.638051
     7  N   -0.203935
     8  N   -0.180908
     9  C    1.164909
    10  O   -0.594937
    11  O   -0.891767
    12  C    0.536905
    13  C   -0.022956
    14  C    0.003288
 Electronic spatial extent (au):  <R**2>=           4344.2125
 Charge=              0.0000 electrons
 Dipole moment (field-independent basis, Debye):
    X=              0.0432    Y=             -0.1012    Z=              1.0214  Tot=              1.0274
 Quadrupole moment (field-independent basis, Debye-Ang):
   XX=            -63.8400   YY=            -93.3171   ZZ=            -80.1997
   XY=             -6.6160   XZ=              1.1542   YZ=             -0.0909
 Traceless Quadrupole moment (field-independent basis, Debye-Ang):
   XX=             15.2789   YY=            -14.1981   ZZ=             -1.0808
   XY=             -6.6160   XZ=              1.1542   YZ=             -0.0909
 Octapole moment (field-independent basis, Debye-Ang**2):
  XXX=              4.2867  YYY=             -1.9865  ZZZ=             -6.7104  XYY=             -1.5039
  XXY=              1.6784  XXZ=              4.1332  XZZ=              0.2030  YZZ=              1.3953
  YYZ=              7.6781  XYZ=              6.2945
 Hexadecapole moment (field-independent basis, Debye-Ang**3):
 XXXX=          -4237.0892 YYYY=           -690.1923 ZZZZ=           -345.9030 XXXY=            -22.6463
 XXXZ=             22.2874 YYYX=            -25.4654 YYYZ=             -1.8147 ZZZX=              6.5867
 ZZZY=              2.0491 XXYY=           -928.4898 XXZZ=           -840.5381 YYZZ=           -167.4137
 XXYZ=              0.3015 YYXZ=              3.9820 ZZXY=              5.3461
 N-N= 9.225866190380D+02 E-N=-3.534175404912D+03  KE= 7.172764703943D+02
  Exact polarizability: 152.772   7.232 109.730   0.673  -0.132  83.414
 Approx polarizability: 173.216  26.446 198.494   1.979  -0.024 117.331
 Calling FoFJK, ICntrl=    100127 FMM=F ISym2X=0 I1Cent= 0 IOpClX= 0 NMat=1 NMatS=1 NMatT=0.
 ***** Axes restored to original set *****
 -------------------------------------------------------------------
 Center     Atomic                   Forces (Hartrees/Bohr)
 Number     Number              X              Y              Z
 -------------------------------------------------------------------
      1        6          -0.002479453    0.009927291    0.004930906
      2        6           0.005076076   -0.011449101   -0.020099899
      3        6           0.004343706   -0.004284731    0.008818560
      4        8          -0.017632586    0.000995720   -0.001778085
      5        6          -0.002380134   -0.037734562   -0.066130753
      6        8           0.018515274    0.018558807    0.024098243
      7        7          -0.000155235    0.012619337    0.025827269
      8        7           0.002180368   -0.026815079   -0.032802831
      9        6          -0.004302395    0.041053745    0.069064640
     10        8          -0.020335475   -0.019653417   -0.027752800
     11        8           0.016732770   -0.003294636    0.009391951
     12        6           0.000547674    0.020441180    0.009366882
     13        6           0.011654492    0.002853413   -0.001611820
     14        6          -0.008224555   -0.007349878   -0.005748942
     15        1          -0.000242873   -0.001360086    0.001073527
     16        1           0.001333119   -0.001885550   -0.000344097
     17        1          -0.002167067    0.000135244   -0.000766149
     18        1           0.001447879    0.005647493    0.003690689
     19        1          -0.000168224    0.001401534   -0.001562980
     20        1          -0.001341842    0.001062139    0.000047021
     21        1          -0.000830117   -0.001324822   -0.000700693
     22        1           0.003629595   -0.003795970   -0.004613890
     23        1          -0.004130061    0.000992050    0.001222769
     24        1          -0.002760967    0.003420383    0.004472803
     25        1          -0.002040347    0.000142326    0.000768187
     26        1           0.002049835    0.001116758    0.000217567
     27        1           0.002248661   -0.001059836   -0.000534966
     28        1          -0.000568117   -0.000359750    0.001456891
 -------------------------------------------------------------------
 Cartesian Forces:  Max     0.069064640 RMS     0.015524832
 FormGI is forming the generalized inverse of G from B-inverse, IUseBI=4.

 GradGradGradGradGradGradGradGradGradGradGradGradGradGradGradGradGradGrad
 Berny optimization.
 Internal  Forces:  Max     0.062320055 RMS     0.012432115
 Search for a local minimum.
 Step number   1 out of a maximum of  134
 All quantities printed in internal units (Hartrees-Bohrs-Radians)
 Mixed Optimization -- RFO/linear search
 Second derivative matrix not updated -- analytic derivatives used.
 ITU=  0
     Eigenvalues ---   -0.02147  -0.00607  -0.00338   0.00041   0.00223
     Eigenvalues ---    0.00271   0.00308   0.00446   0.01530   0.01743
     Eigenvalues ---    0.04174   0.04269   0.04524   0.04531   0.04631
     Eigenvalues ---    0.04680   0.04715   0.04742   0.04784   0.04917
     Eigenvalues ---    0.05777   0.05854   0.06491   0.06738   0.06773
     Eigenvalues ---    0.10335   0.11934   0.12176   0.12393   0.12493
     Eigenvalues ---    0.12536   0.12861   0.12861   0.13692   0.14114
     Eigenvalues ---    0.14849   0.14863   0.15241   0.15305   0.18556
     Eigenvalues ---    0.19088   0.19237   0.19741   0.20748   0.22140
     Eigenvalues ---    0.24816   0.26436   0.28642   0.28774   0.29363
     Eigenvalues ---    0.30736   0.30820   0.31899   0.32123   0.32451
     Eigenvalues ---    0.33701   0.33778   0.33827   0.33923   0.34040
     Eigenvalues ---    0.34070   0.34079   0.34276   0.34391   0.34638
     Eigenvalues ---    0.34715   0.34810   0.34859   0.35259   0.35516
     Eigenvalues ---    0.38422   0.53225   0.61646   0.72544   0.77036
     Eigenvalues ---    0.78956   0.79389   0.90480
 RFO step:  Lambda=-4.03389077D-02 EMin=-2.14724164D-02
 Linear search not attempted -- first point.
 Maximum step size (   0.300) exceeded in Quadratic search.
    -- Step size scaled by   0.977
 Iteration  1 RMS(Cart)=  0.11732043 RMS(Int)=  0.04741201
 Iteration  2 RMS(Cart)=  0.05596503 RMS(Int)=  0.01662657
 Iteration  3 RMS(Cart)=  0.10168492 RMS(Int)=  0.00217765
 Iteration  4 RMS(Cart)=  0.00404069 RMS(Int)=  0.00076747
 Iteration  5 RMS(Cart)=  0.00000822 RMS(Int)=  0.00076746
 Iteration  6 RMS(Cart)=  0.00000000 RMS(Int)=  0.00076746
 Variable       Old X    -DE/DX   Delta X   Delta X   Delta X     New X
                                 (Linear)    (Quad)   (Total)
    R1        2.88255   0.00052   0.00000  -0.00260  -0.00260   2.87996
    R2        2.06838  -0.00037   0.00000   0.00049   0.00049   2.06886
    R3        2.07028   0.00038   0.00000   0.00022   0.00022   2.07050
    R4        2.06786   0.00150   0.00000   0.00161   0.00161   2.06947
    R5        2.88276   0.00317   0.00000  -0.00055  -0.00055   2.88221
    R6        2.72152   0.00471   0.00000   0.02968   0.02968   2.75120
    R7        2.07320  -0.00386   0.00000  -0.00742  -0.00742   2.06578
    R8        2.07067   0.00016   0.00000  -0.00052  -0.00052   2.07015
    R9        2.06939  -0.00045   0.00000  -0.00022  -0.00022   2.06917
   R10        2.06985   0.00051   0.00000  -0.00107  -0.00107   2.06878
   R11        2.58168  -0.00592   0.00000  -0.05243  -0.05243   2.52924
   R12        2.31819  -0.02980   0.00000  -0.03955  -0.03955   2.27863
   R13        2.60427   0.05035   0.00000   0.09547   0.09547   2.69974
   R14        2.36996   0.00128   0.00000  -0.01051  -0.01051   2.35945
   R15        2.60290   0.06232   0.00000   0.11743   0.11743   2.72033
   R16        2.31764  -0.03141   0.00000  -0.03519  -0.03519   2.28245
   R17        2.58286  -0.00485   0.00000  -0.06531  -0.06531   2.51754
   R18        2.72134   0.01268   0.00000   0.03073   0.03073   2.75207
   R19        2.88244   0.00675   0.00000   0.00140   0.00140   2.88384
   R20        2.88207   0.00010   0.00000  -0.00311  -0.00311   2.87896
   R21        2.07263   0.00023   0.00000  -0.00054  -0.00054   2.07208
   R22        2.07019   0.00093   0.00000   0.00145   0.00145   2.07164
   R23        2.06867  -0.00480   0.00000  -0.00550  -0.00550   2.06317
   R24        2.06782   0.00053   0.00000   0.00109   0.00109   2.06891
   R25        2.07116  -0.00027   0.00000  -0.00161  -0.00161   2.06955
   R26        2.06915  -0.00088   0.00000  -0.00087  -0.00087   2.06828
   R27        2.06940   0.00082   0.00000  -0.00038  -0.00038   2.06902
    A1        1.93952  -0.00276   0.00000  -0.01530  -0.01537   1.92415
    A2        1.93510  -0.00081   0.00000  -0.00245  -0.00250   1.93260
    A3        1.93876   0.00070   0.00000  -0.00106  -0.00109   1.93767
    A4        1.89692   0.00092   0.00000   0.00003  -0.00006   1.89686
    A5        1.88922   0.00054   0.00000   0.00148   0.00143   1.89065
    A6        1.86181   0.00163   0.00000   0.01875   0.01874   1.88055
    A7        1.92283   0.00852   0.00000   0.04541   0.04508   1.96791
    A8        1.91751  -0.00493   0.00000  -0.02336  -0.02338   1.89413
    A9        1.92812  -0.00176   0.00000  -0.00434  -0.00568   1.92244
   A10        1.88113  -0.00173   0.00000  -0.01182  -0.01134   1.86979
   A11        1.88823  -0.00000   0.00000   0.02070   0.02023   1.90845
   A12        1.92527   0.00005   0.00000  -0.02578  -0.02598   1.89929
   A13        1.94028  -0.00113   0.00000  -0.00527  -0.00534   1.93494
   A14        1.94170  -0.00269   0.00000  -0.01782  -0.01790   1.92380
   A15        1.92874   0.00140   0.00000   0.00416   0.00415   1.93289
   A16        1.89532   0.00113   0.00000   0.00264   0.00251   1.89783
   A17        1.86307   0.00131   0.00000   0.01542   0.01541   1.87849
   A18        1.89226   0.00017   0.00000   0.00240   0.00239   1.89464
   A19        2.02857   0.01263   0.00000   0.01808   0.01808   2.04664
   A20        2.15687   0.00908   0.00000   0.07360   0.07287   2.22974
   A21        1.91217   0.02695   0.00000   0.00947   0.00883   1.92100
   A22        2.21414  -0.03604   0.00000  -0.08313  -0.08369   2.13045
   A23        1.95950   0.02202   0.00000  -0.00143  -0.00143   1.95807
   A24        1.96397   0.03414   0.00000   0.00772   0.00772   1.97170
   A25        2.21571  -0.04767   0.00000  -0.11876  -0.12037   2.09534
   A26        1.90966   0.04107   0.00000   0.06197   0.06016   1.96982
   A27        2.15781   0.00660   0.00000   0.05665   0.05456   2.21237
   A28        2.03092   0.03255   0.00000   0.01753   0.01753   2.04845
   A29        1.91848   0.01535   0.00000   0.02229   0.02278   1.94126
   A30        1.87792  -0.01179   0.00000  -0.03873  -0.03913   1.83879
   A31        1.92594  -0.00419   0.00000  -0.03385  -0.03374   1.89220
   A32        1.92340  -0.00233   0.00000   0.03731   0.03716   1.96056
   A33        1.92815  -0.00168   0.00000  -0.00850  -0.00906   1.91909
   A34        1.88911   0.00415   0.00000   0.02086   0.02020   1.90931
   A35        1.93559  -0.00367   0.00000  -0.00974  -0.00988   1.92570
   A36        1.93749   0.00495   0.00000  -0.00010  -0.00011   1.93738
   A37        1.94015  -0.00324   0.00000  -0.02027  -0.02044   1.91971
   A38        1.86178   0.00206   0.00000   0.02737   0.02738   1.88916
   A39        1.89739   0.00104   0.00000  -0.00193  -0.00223   1.89517
   A40        1.88892  -0.00092   0.00000   0.00690   0.00686   1.89578
   A41        1.93956  -0.00136   0.00000  -0.00834  -0.00843   1.93113
   A42        1.94176  -0.00376   0.00000  -0.01848  -0.01857   1.92319
   A43        1.92879   0.00200   0.00000   0.00642   0.00642   1.93521
   A44        1.89505   0.00163   0.00000   0.00417   0.00399   1.89904
   A45        1.86300   0.00122   0.00000   0.01595   0.01595   1.87895
   A46        1.89326   0.00052   0.00000   0.00190   0.00191   1.89516
    D1        1.03588   0.00130   0.00000   0.01663   0.01672   1.05260
    D2        3.10577   0.00135   0.00000   0.01551   0.01533   3.12109
    D3       -1.04940  -0.00301   0.00000  -0.03522  -0.03511  -1.08451
    D4       -1.07584   0.00255   0.00000   0.02861   0.02867  -1.04716
    D5        0.99405   0.00261   0.00000   0.02749   0.02728   1.02134
    D6        3.12207  -0.00176   0.00000  -0.02324  -0.02315   3.09892
    D7        3.14032   0.00059   0.00000   0.00745   0.00754  -3.13532
    D8       -1.07298   0.00065   0.00000   0.00633   0.00615  -1.06682
    D9        1.05504  -0.00372   0.00000  -0.04440  -0.04428   1.01076
   D10        1.08561  -0.00276   0.00000  -0.02899  -0.02924   1.05637
   D11       -1.02911  -0.00158   0.00000  -0.01646  -0.01678  -1.04589
   D12       -3.13209  -0.00095   0.00000  -0.01046  -0.01074   3.14035
   D13       -1.00644  -0.00068   0.00000  -0.01983  -0.01986  -1.02630
   D14       -3.12116   0.00050   0.00000  -0.00730  -0.00740  -3.12856
   D15        1.05904   0.00113   0.00000  -0.00130  -0.00136   1.05768
   D16       -3.08822   0.00022   0.00000   0.00597   0.00634  -3.08188
   D17        1.08025   0.00140   0.00000   0.01849   0.01880   1.09905
   D18       -1.02274   0.00203   0.00000   0.02450   0.02484  -0.99790
   D19        2.09440  -0.00385   0.00000  -0.11238  -0.11223   1.98217
   D20       -2.09337   0.00258   0.00000  -0.07806  -0.07811  -2.17148
   D21       -0.03532   0.00158   0.00000  -0.07451  -0.07460  -0.10992
   D22       -0.00001  -0.00330   0.00000  -0.00763  -0.00931  -0.00932
   D23       -3.14072   0.00550   0.00000   0.05540   0.05708  -3.08365
   D24       -0.51744  -0.01049   0.00000  -0.39273  -0.39089  -0.90833
   D25        2.62506  -0.00136   0.00000  -0.32721  -0.32905   2.29601
   D26        3.13324  -0.00155   0.00000   0.05867   0.05867  -3.09128
   D27       -3.12927  -0.00227   0.00000   0.46729   0.47075  -2.65852
   D28        0.01375   0.00289   0.00000   0.57925   0.57578   0.58953
   D29        3.14022   0.00398   0.00000  -0.03777  -0.04079   3.09943
   D30       -0.00000   0.00898   0.00000   0.06987   0.07289   0.07289
   D31        1.03487   0.01168   0.00000   0.04479   0.04483   1.07970
   D32        3.12961   0.01061   0.00000   0.07943   0.07874  -3.07484
   D33       -1.09598   0.00635   0.00000   0.06297   0.06363  -1.03235
   D34        0.97375  -0.00148   0.00000   0.02521   0.02532   0.99907
   D35       -1.09273  -0.00486   0.00000  -0.00264  -0.00243  -1.09516
   D36        3.08682  -0.00485   0.00000   0.00236   0.00262   3.08944
   D37       -1.09314   0.00499   0.00000   0.03629   0.03592  -1.05722
   D38        3.12356   0.00160   0.00000   0.00844   0.00817   3.13173
   D39        1.01993   0.00161   0.00000   0.01343   0.01322   1.03315
   D40        3.10329   0.00239   0.00000  -0.00803  -0.00802   3.09527
   D41        1.03680  -0.00100   0.00000  -0.03587  -0.03577   1.00104
   D42       -1.06683  -0.00099   0.00000  -0.03088  -0.03072  -1.09755
   D43       -1.01684  -0.00776   0.00000  -0.03817  -0.03801  -1.05486
   D44       -3.13076  -0.00631   0.00000  -0.02506  -0.02500   3.12743
   D45        1.04812  -0.00582   0.00000  -0.01949  -0.01938   1.02874
   D46        1.07477   0.00236   0.00000  -0.01313  -0.01351   1.06126
   D47       -1.03914   0.00380   0.00000  -0.00001  -0.00049  -1.03964
   D48        3.13973   0.00430   0.00000   0.00555   0.00512  -3.13833
   D49       -3.09813   0.00149   0.00000   0.01207   0.01244  -3.08569
   D50        1.07115   0.00293   0.00000   0.02519   0.02545   1.09660
   D51       -1.03317   0.00343   0.00000   0.03075   0.03107  -1.00209
         Item               Value     Threshold  Converged?
 Maximum Force            0.062320     0.000450     NO 
 RMS     Force            0.012432     0.000300     NO 
 Maximum Displacement     0.780134     0.001800     NO 
 RMS     Displacement     0.224377     0.001200     NO 
 Predicted change in Energy=-3.050143D-02
 GradGradGradGradGradGradGradGradGradGradGradGradGradGradGradGradGradGrad

                          Input orientation:                          
 ---------------------------------------------------------------------
 Center     Atomic      Atomic             Coordinates (Angstroms)
 Number     Number       Type             X           Y           Z
 ---------------------------------------------------------------------
      1          6           0        5.784631    0.906038   -1.787471
      2          6           0        5.539727   -0.053250   -0.628857
      3          6           0        6.499017   -1.238994   -0.631918
      4          8           0        5.750562    0.665702    0.619431
      5          6           0        4.683178    0.859014    1.403447
      6          8           0        3.545633    0.514679    1.200024
      7          7           0        5.046651    1.641544    2.542107
      8          7           0        6.036087    1.171266    3.141083
      9          6           0        6.376604    1.909396    4.329139
     10          8           0        7.517402    1.924713    4.725595
     11          8           0        5.310353    2.413289    4.948841
     12          6           0        5.537974    3.133904    6.193752
     13          6           0        6.414776    4.362480    5.968616
     14          6           0        4.151124    3.498852    6.707999
     15          1           0        5.653687    0.387546   -2.742771
     16          1           0        6.800936    1.313277   -1.745596
     17          1           0        5.085791    1.748536   -1.754335
     18          1           0        4.510317   -0.420182   -0.654978
     19          1           0        7.537414   -0.900976   -0.545037
     20          1           0        6.391586   -1.810435   -1.559736
     21          1           0        6.295291   -1.904810    0.212870
     22          1           0        6.022385    2.453538    6.904214
     23          1           0        5.958600    5.024701    5.223521
     24          1           0        7.405422    4.075880    5.610187
     25          1           0        6.529026    4.917524    6.905367
     26          1           0        3.626177    4.133292    5.985996
     27          1           0        4.229907    4.036298    7.658183
     28          1           0        3.544130    2.601116    6.864166
 ---------------------------------------------------------------------
                    Distance matrix (angstroms):
                    1          2          3          4          5
     1  C    0.000000
     2  C    1.524007   0.000000
     3  C    2.539057   1.525200   0.000000
     4  O    2.419111   1.455873   2.398733   0.000000
     5  C    3.375999   2.386663   3.441165   1.338417   0.000000
     6  O    3.753852   2.764735   3.892795   2.285084   1.205801
     7  N    4.453182   3.629114   4.525627   2.268137   1.428641
     8  N    4.942086   3.994779   4.501021   2.587634   2.224240
     9  C    6.226562   5.397598   5.877025   3.962403   3.539869
    10  O    6.816173   6.041001   6.304688   4.644073   4.495020
    11  O    6.919150   6.103043   6.774729   4.689524   3.921599
    12  C    8.290003   7.530335   8.163063   6.100023   5.371483
    13  C    8.514750   7.986929   8.657405   6.536141   6.009449
    14  C    9.031282   8.268925   9.046224   6.903305   5.948958
    15  H    1.094796   2.162387   2.795696   3.375079   4.284308
    16  H    1.095661   2.169136   2.800986   2.667581   3.822005
    17  H    1.095116   2.172370   3.490324   2.692437   3.305289
    18  H    2.159926   1.093164   2.150793   2.083620   2.429678
    19  H    2.807346   2.171732   1.095478   2.646375   3.878249
    20  H    2.792756   2.163308   1.094958   3.360198   4.338786
    21  H    3.487550   2.169714   1.094752   2.658863   3.413957
    22  H    8.831573   7.953874   8.405668   6.539783   5.881703
    23  H    8.133121   7.759599   8.591396   6.343643   5.794188
    24  H    8.209763   7.710785   8.248232   6.267019   5.954452
    25  H    9.602686   9.080300   9.732126   7.628696   7.081652
    26  H    8.689125   8.058852   8.995079   6.733292   5.730437
    27  H   10.071548   9.333545  10.084807   7.950934   7.030100
    28  H    9.096371   8.195942   8.925753   6.900065   5.843954
                    6          7          8          9         10
     6  O    0.000000
     7  N    2.307394   0.000000
     8  N    3.225086   1.248565   0.000000
     9  C    4.444209   2.243658   1.439537   0.000000
    10  O    5.494797   3.309443   2.296226   1.207821   0.000000
    11  O    4.557695   2.541160   2.310259   1.332227   2.271477
    12  C    5.980559   3.975305   3.663175   2.383170   2.745134
    13  C    6.765873   4.584345   4.280444   2.950757   2.950185
    14  C    6.293624   4.648249   4.657643   3.624653   4.211848
    15  H    4.472771   5.465431   5.948124   7.269838   7.849382
    16  H    4.462223   4.644316   4.948211   6.118646   6.539380
    17  H    3.552848   4.297953   5.020101   6.220991   6.923385
    18  H    2.290330   3.841839   4.389847   5.809594   6.594821
    19  H    4.580789   4.711557   4.487277   5.744847   5.980342
    20  H    4.595854   5.527217   5.578048   6.965358   7.397579
    21  H    3.793286   4.422790   4.254863   5.612348   6.043466
    22  H    6.513929   4.543057   3.975622   2.655668   2.694645
    23  H    6.507783   4.412186   4.380812   3.267992   3.505384
    24  H    6.857818   4.571969   4.050720   2.719045   2.328639
    25  H    7.799784   5.653982   5.333599   3.963461   3.832129
    26  H    6.000532   4.481844   4.761806   3.905860   4.648447
    27  H    7.387682   5.707552   5.645785   4.496060   4.885333
    28  H    6.036201   4.675312   4.702730   3.863644   4.562663
                   11         12         13         14         15
    11  O    0.000000
    12  C    1.456332   0.000000
    13  C    2.461512   1.526063   0.000000
    14  C    2.370000   1.523480   2.533113   0.000000
    15  H    7.961306   9.349723   9.605604  10.062554   0.000000
    16  H    6.946031   8.242755   8.303965   9.124775   1.779752
    17  H    6.739799   8.080582   8.260925   8.691853   1.775332
    18  H    6.330197   7.784132   8.388851   8.348730   2.513683
    19  H    6.791675   8.104893   8.449377   9.134111   3.168399
    20  H    7.833931   9.235351   9.735579  10.077879   2.602920
    21  H    6.484250   7.857042   8.510101   8.716864   3.795045
    22  H    2.081369   1.096498   2.161799   2.152394   9.872618
    23  H    2.704653   2.166423   1.096266   2.792644   9.222689
    24  H    2.755159   2.171457   1.091783   3.482615   9.297542
    25  H    3.403580   2.160991   1.094819   2.775969  10.694554
    26  H    2.621174   2.167235   2.798055   1.095158   9.712507
    27  H    3.337972   2.160998   2.781130   1.094488  11.113972
    28  H    2.612144   2.169962   3.484971   1.094879  10.081833
                   16         17         18         19         20
    16  H    0.000000
    17  H    1.769534   0.000000
    18  H    3.072665   2.498619   0.000000
    19  H    2.624244   3.806937   3.067013   0.000000
    20  H    3.155898   3.795951   2.508100   1.780351   0.000000
    21  H    3.800967   4.322005   2.478591   1.767760   1.777726
    22  H    8.759313   8.737546   8.227151   8.308997   9.484526
    23  H    7.940579   7.757933   8.142545   8.419179   9.639457
    24  H    7.880668   8.064329   8.237020   7.916648   9.331900
    25  H    9.375697   9.333587   9.472334   9.506856  10.813986
    26  H    8.820947   8.229840   8.100517   9.126666   9.995672
    27  H   10.122059   9.724294   9.436498  10.129615  11.127765
    28  H    9.294800   8.796714   8.160838   9.116318   9.926324
                   21         22         23         24         25
    21  H    0.000000
    22  H    7.990229   0.000000
    23  H    8.557926   3.072405   0.000000
    24  H    8.132163   2.493850   1.772869   0.000000
    25  H    9.559727   2.515534   1.779179   1.775929   0.000000
    26  H    8.769939   3.067004   2.610780   3.798318   3.144327
    27  H    9.746551   2.507304   3.145298   3.778855   2.574731
    28  H    8.491878   2.482969   3.794094   4.319371   3.778499
                   26         27         28
    26  H    0.000000
    27  H    1.780479   0.000000
    28  H    1.767903   1.777780   0.000000
 Stoichiometry    C8H14N2O4
 Framework group  C1[X(C8H14N2O4)]
 Deg. of freedom    78
 Full point group                 C1      NOp   1
 Largest Abelian subgroup         C1      NOp   1
 Largest concise Abelian subgroup C1      NOp   1
                         Standard orientation:                         
 ---------------------------------------------------------------------
 Center     Atomic      Atomic             Coordinates (Angstroms)
 Number     Number       Type             X           Y           Z
 ---------------------------------------------------------------------
      1          6           0        4.361944   -0.076238    1.439357
      2          6           0        3.752457    0.059866    0.049178
      3          6           0        4.284453   -0.979175   -0.932459
      4          8           0        2.314682   -0.144351    0.152432
      5          6           0        1.526097    0.905473   -0.107118
      6          8           0        1.861046    2.022687   -0.413055
      7          7           0        0.158188    0.557412    0.113551
      8          7           0       -0.167687   -0.483052   -0.494852
      9          6           0       -1.560025   -0.813079   -0.337558
     10          8           0       -1.921054   -1.963352   -0.410766
     11          8           0       -2.340013    0.263126   -0.246834
     12          6           0       -3.775499    0.042412   -0.139280
     13          6           0       -4.121264   -0.737923    1.125786
     14          6           0       -4.399331    1.432265   -0.150781
     15          1           0        5.448134    0.051949    1.391018
     16          1           0        4.143476   -1.062467    1.863736
     17          1           0        3.956225    0.678117    2.121720
     18          1           0        3.938844    1.061416   -0.347262
     19          1           0        4.056579   -1.993857   -0.588124
     20          1           0        5.369668   -0.879101   -1.038422
     21          1           0        3.825042   -0.852508   -1.918045
     22          1           0       -4.107787   -0.513201   -1.024259
[...]
 Quadrupole moment (field-independent basis, Debye-Ang):
   XX=            -51.6087   YY=            -91.9349   ZZ=            -80.4960
   XY=             -5.3432   XZ=              0.1998   YZ=              2.1070
 Traceless Quadrupole moment (field-independent basis, Debye-Ang):
   XX=             23.0712   YY=            -17.2551   ZZ=             -5.8161
   XY=             -5.3432   XZ=              0.1998   YZ=              2.1070
 Octapole moment (field-independent basis, Debye-Ang**2):
  XXX=              0.9227  YYY=              2.2867  ZZZ=             -3.4243  XYY=              1.9322
  XXY=              0.9551  XXZ=             -1.3281  XZZ=             -1.0203  YZZ=             -1.7707
  YYZ=              2.4066  XYZ=              2.5240
 Hexadecapole moment (field-independent basis, Debye-Ang**3):
 XXXX=          -4704.8080 YYYY=           -581.8950 ZZZZ=           -337.7706 XXXY=              3.0397
 XXXZ=            -10.5037 YYYX=            -26.2416 YYYZ=              5.4189 ZZZX=              2.8413
 ZZZY=             -4.5831 XXYY=          -1016.3073 XXZZ=           -941.4583 YYZZ=           -143.6054
 XXYZ=              7.4233 YYXZ=              7.8841 ZZXY=              6.0281
 N-N= 9.013994048639D+02 E-N=-3.491939786783D+03  KE= 7.171692154126D+02
 Evaluate density.
 Using the total density.
 Monte-Carlo method of calculating molar volume:
 based on  0.001 e/bohr**3 density envelope.
 Number of points per bohr**3 =   20 CutOff= 1.00D-04
 Using the CI density.
 There are       419 points.  Will hold       419 in memory.
 LenV=  1073583544 MDV=  1073741824.
 Box volume = 9195.838 fraction occupied=0.239
 Integrated density= 1.4804575570726041D+02 error= 4.0045755707260412D+01
 Molar volume = 2194.711 bohr**3/mol (195.854 cm**3/mol)
 Recommended a0 for SCRF calculation =  5.20 angstrom (  9.82 bohr)
 ******************************Gaussian NBO Version 3.1******************************
             N A T U R A L   A T O M I C   O R B I T A L   A N D
          N A T U R A L   B O N D   O R B I T A L   A N A L Y S I S
 ******************************Gaussian NBO Version 3.1******************************
       /RESON  / : Allow strongly delocalized NBO set

 Analyzing the CI density

 Job title: Title Card Required                                             

 Storage needed:    172550 in NPA (1073737624 available)


 NATURAL POPULATIONS:  Natural atomic orbital occupancies 
                                                          
   NAO  Atom  No  lang   Type(AO)    Occupancy
 --------------------------------------------
     1    C    1  S      Cor( 1S)     1.99939
     2    C    1  S      Val( 2S)     1.10901
     3    C    1  S      Ryd( 3S)     0.00047
     4    C    1  S      Ryd( 4S)     0.00002
     5    C    1  px     Val( 2p)     1.22220
     6    C    1  px     Ryd( 3p)     0.00145
     7    C    1  py     Val( 2p)     1.22894
     8    C    1  py     Ryd( 3p)     0.00230
     9    C    1  pz     Val( 2p)     1.13661
    10    C    1  pz     Ryd( 3p)     0.00107
    11    C    1  dxy    Ryd( 3d)     0.00053
    12    C    1  dxz    Ryd( 3d)     0.00029
    13    C    1  dyz    Ryd( 3d)     0.00091
    14    C    1  dx2y2  Ryd( 3d)     0.00079
    15    C    1  dz2    Ryd( 3d)     0.00072
 
    16    C    2  S      Cor( 1S)     1.99912
    17    C    2  S      Val( 2S)     0.97711
    18    C    2  S      Ryd( 3S)     0.00193
    19    C    2  S      Ryd( 4S)     0.00005
    20    C    2  px     Val( 2p)     0.69050
    21    C    2  px     Ryd( 3p)     0.00262
    22    C    2  py     Val( 2p)     1.10112
    23    C    2  py     Ryd( 3p)     0.00457
    24    C    2  pz     Val( 2p)     1.13195
    25    C    2  pz     Ryd( 3p)     0.00205
    26    C    2  dxy    Ryd( 3d)     0.00104
    27    C    2  dxz    Ryd( 3d)     0.00105
    28    C    2  dyz    Ryd( 3d)     0.00130
    29    C    2  dx2y2  Ryd( 3d)     0.00176
    30    C    2  dz2    Ryd( 3d)     0.00103
 
    31    C    3  S      Cor( 1S)     1.99939
    32    C    3  S      Val( 2S)     1.10681
    33    C    3  S      Ryd( 3S)     0.00048
    34    C    3  S      Ryd( 4S)     0.00002
    35    C    3  px     Val( 2p)     1.21401
    36    C    3  px     Ryd( 3p)     0.00205
    37    C    3  py     Val( 2p)     1.12041
    38    C    3  py     Ryd( 3p)     0.00121
    39    C    3  pz     Val( 2p)     1.24677
    40    C    3  pz     Ryd( 3p)     0.00213
    41    C    3  dxy    Ryd( 3d)     0.00039
    42    C    3  dxz    Ryd( 3d)     0.00043
    43    C    3  dyz    Ryd( 3d)     0.00103
    44    C    3  dx2y2  Ryd( 3d)     0.00079
    45    C    3  dz2    Ryd( 3d)     0.00058
 
    46    O    4  S      Cor( 1S)     1.99971
    47    O    4  S      Val( 2S)     1.62339
    48    O    4  S      Ryd( 3S)     0.00205
    49    O    4  S      Ryd( 4S)     0.00014
    50    O    4  px     Val( 2p)     1.41675
    51    O    4  px     Ryd( 3p)     0.00113
    52    O    4  py     Val( 2p)     1.71223
    53    O    4  py     Ryd( 3p)     0.00170
    54    O    4  pz     Val( 2p)     1.77073
    55    O    4  pz     Ryd( 3p)     0.00187
    56    O    4  dxy    Ryd( 3d)     0.00140
    57    O    4  dxz    Ryd( 3d)     0.00042
    58    O    4  dyz    Ryd( 3d)     0.00180
    59    O    4  dx2y2  Ryd( 3d)     0.00135
    60    O    4  dz2    Ryd( 3d)     0.00092
 
    61    C    5  S      Cor( 1S)     1.99950
    62    C    5  S      Val( 2S)     0.73001
    63    C    5  S      Ryd( 3S)     0.00391
    64    C    5  S      Ryd( 4S)     0.00043
    65    C    5  px     Val( 2p)     0.79050
    66    C    5  px     Ryd( 3p)     0.00591
    67    C    5  py     Val( 2p)     0.72080
    68    C    5  py     Ryd( 3p)     0.02313
    69    C    5  pz     Val( 2p)     0.78787
    70    C    5  pz     Ryd( 3p)     0.00528
    71    C    5  dxy    Ryd( 3d)     0.00397
    72    C    5  dxz    Ryd( 3d)     0.00196
    73    C    5  dyz    Ryd( 3d)     0.00245
    74    C    5  dx2y2  Ryd( 3d)     0.00299
    75    C    5  dz2    Ryd( 3d)     0.00096
 
    76    O    6  S      Cor( 1S)     1.99977
    77    O    6  S      Val( 2S)     1.70758
    78    O    6  S      Ryd( 3S)     0.00083
    79    O    6  S      Ryd( 4S)     0.00012
    80    O    6  px     Val( 2p)     1.75894
    81    O    6  px     Ryd( 3p)     0.00142
    82    O    6  py     Val( 2p)     1.58819
    83    O    6  py     Ryd( 3p)     0.00041
    84    O    6  pz     Val( 2p)     1.47279
    85    O    6  pz     Ryd( 3p)     0.00071
    86    O    6  dxy    Ryd( 3d)     0.00483
    87    O    6  dxz    Ryd( 3d)     0.00057
    88    O    6  dyz    Ryd( 3d)     0.00499
    89    O    6  dx2y2  Ryd( 3d)     0.00467
    90    O    6  dz2    Ryd( 3d)     0.00205
 
    91    N    7  S      Cor( 1S)     1.99938
    92    N    7  S      Val( 2S)     1.39204
    93    N    7  S      Ryd( 3S)     0.00585
    94    N    7  S      Ryd( 4S)     0.00003
    95    N    7  px     Val( 2p)     1.16605
    96    N    7  px     Ryd( 3p)     0.00385
    97    N    7  py     Val( 2p)     1.34965
    98    N    7  py     Ryd( 3p)     0.00451
    99    N    7  pz     Val( 2p)     1.28215
   100    N    7  pz     Ryd( 3p)     0.00420
   101    N    7  dxy    Ryd( 3d)     0.00094
   102    N    7  dxz    Ryd( 3d)     0.00156
   103    N    7  dyz    Ryd( 3d)     0.00158
   104    N    7  dx2y2  Ryd( 3d)     0.00126
   105    N    7  dz2    Ryd( 3d)     0.00229
 
   106    N    8  S      Cor( 1S)     1.99939
   107    N    8  S      Val( 2S)     1.39393
   108    N    8  S      Ryd( 3S)     0.00596
   109    N    8  S      Ryd( 4S)     0.00003
   110    N    8  px     Val( 2p)     1.16970
   111    N    8  px     Ryd( 3p)     0.00390
   112    N    8  py     Val( 2p)     1.34441
   113    N    8  py     Ryd( 3p)     0.00457
   114    N    8  pz     Val( 2p)     1.28027
   115    N    8  pz     Ryd( 3p)     0.00420
   116    N    8  dxy    Ryd( 3d)     0.00093
   117    N    8  dxz    Ryd( 3d)     0.00156
   118    N    8  dyz    Ryd( 3d)     0.00160
   119    N    8  dx2y2  Ryd( 3d)     0.00128
   120    N    8  dz2    Ryd( 3d)     0.00229
 
   121    C    9  S      Cor( 1S)     1.99950
   122    C    9  S      Val( 2S)     0.72937
   123    C    9  S      Ryd( 3S)     0.00399
   124    C    9  S      Ryd( 4S)     0.00044
   125    C    9  px     Val( 2p)     0.79107
   126    C    9  px     Ryd( 3p)     0.00569
   127    C    9  py     Val( 2p)     0.71620
   128    C    9  py     Ryd( 3p)     0.02378
   129    C    9  pz     Val( 2p)     0.79612
   130    C    9  pz     Ryd( 3p)     0.00459
   131    C    9  dxy    Ryd( 3d)     0.00404
   132    C    9  dxz    Ryd( 3d)     0.00179
   133    C    9  dyz    Ryd( 3d)     0.00275
   134    C    9  dx2y2  Ryd( 3d)     0.00300
   135    C    9  dz2    Ryd( 3d)     0.00074
 
   136    O   10  S      Cor( 1S)     1.99977
   137    O   10  S      Val( 2S)     1.70715
   138    O   10  S      Ryd( 3S)     0.00085
   139    O   10  S      Ryd( 4S)     0.00013
   140    O   10  px     Val( 2p)     1.75504
   141    O   10  px     Ryd( 3p)     0.00140
   142    O   10  py     Val( 2p)     1.59481
   143    O   10  py     Ryd( 3p)     0.00042
   144    O   10  pz     Val( 2p)     1.47544
   145    O   10  pz     Ryd( 3p)     0.00075
   146    O   10  dxy    Ryd( 3d)     0.00501
   147    O   10  dxz    Ryd( 3d)     0.00040
   148    O   10  dyz    Ryd( 3d)     0.00505
   149    O   10  dx2y2  Ryd( 3d)     0.00484
   150    O   10  dz2    Ryd( 3d)     0.00178
 
   151    O   11  S      Cor( 1S)     1.99971
   152    O   11  S      Val( 2S)     1.62269
   153    O   11  S      Ryd( 3S)     0.00205
   154    O   11  S      Ryd( 4S)     0.00014
   155    O   11  px     Val( 2p)     1.42151
   156    O   11  px     Ryd( 3p)     0.00108
   157    O   11  py     Val( 2p)     1.70872
   158    O   11  py     Ryd( 3p)     0.00168
   159    O   11  pz     Val( 2p)     1.77156
   160    O   11  pz     Ryd( 3p)     0.00190
   161    O   11  dxy    Ryd( 3d)     0.00143
   162    O   11  dxz    Ryd( 3d)     0.00039
   163    O   11  dyz    Ryd( 3d)     0.00194
   164    O   11  dx2y2  Ryd( 3d)     0.00133
   165    O   11  dz2    Ryd( 3d)     0.00078
 
   166    C   12  S      Cor( 1S)     1.99912
   167    C   12  S      Val( 2S)     0.97708
   168    C   12  S      Ryd( 3S)     0.00194
   169    C   12  S      Ryd( 4S)     0.00005
   170    C   12  px     Val( 2p)     0.69211
   171    C   12  px     Ryd( 3p)     0.00260
   172    C   12  py     Val( 2p)     1.16969
   173    C   12  py     Ryd( 3p)     0.00455
   174    C   12  pz     Val( 2p)     1.06078
   175    C   12  pz     Ryd( 3p)     0.00218
   176    C   12  dxy    Ryd( 3d)     0.00098
   177    C   12  dxz    Ryd( 3d)     0.00118
   178    C   12  dyz    Ryd( 3d)     0.00090
   179    C   12  dx2y2  Ryd( 3d)     0.00193
   180    C   12  dz2    Ryd( 3d)     0.00121
 
   181    C   13  S      Cor( 1S)     1.99939
   182    C   13  S      Val( 2S)     1.10893
   183    C   13  S      Ryd( 3S)     0.00047
   184    C   13  S      Ryd( 4S)     0.00002
   185    C   13  px     Val( 2p)     1.24446
   186    C   13  px     Ryd( 3p)     0.00139
   187    C   13  py     Val( 2p)     1.25639
   188    C   13  py     Ryd( 3p)     0.00203
   189    C   13  pz     Val( 2p)     1.08612
   190    C   13  pz     Ryd( 3p)     0.00139
   191    C   13  dxy    Ryd( 3d)     0.00053
   192    C   13  dxz    Ryd( 3d)     0.00033
   193    C   13  dyz    Ryd( 3d)     0.00071
   194    C   13  dx2y2  Ryd( 3d)     0.00088
   195    C   13  dz2    Ryd( 3d)     0.00078
 
   196    C   14  S      Cor( 1S)     1.99939
   197    C   14  S      Val( 2S)     1.10686
   198    C   14  S      Ryd( 3S)     0.00046
   199    C   14  S      Ryd( 4S)     0.00002
   200    C   14  px     Val( 2p)     1.19797
   201    C   14  px     Ryd( 3p)     0.00187
   202    C   14  py     Val( 2p)     1.17154
   203    C   14  py     Ryd( 3p)     0.00117
   204    C   14  pz     Val( 2p)     1.21172
   205    C   14  pz     Ryd( 3p)     0.00233
   206    C   14  dxy    Ryd( 3d)     0.00038
   207    C   14  dxz    Ryd( 3d)     0.00031
   208    C   14  dyz    Ryd( 3d)     0.00050
   209    C   14  dx2y2  Ryd( 3d)     0.00097
   210    C   14  dz2    Ryd( 3d)     0.00106
 
   211    H   15  S      Val( 1S)     0.75700
   212    H   15  S      Ryd( 2S)     0.00073
 
   213    H   16  S      Val( 1S)     0.76145
   214    H   16  S      Ryd( 2S)     0.00136
 
   215    H   17  S      Val( 1S)     0.74890
   216    H   17  S      Ryd( 2S)     0.00112
 
   217    H   18  S      Val( 1S)     0.75342
   218    H   18  S      Ryd( 2S)     0.00267
 
   219    H   19  S      Val( 1S)     0.75912
   220    H   19  S      Ryd( 2S)     0.00127
 
   221    H   20  S      Val( 1S)     0.75840
   222    H   20  S      Ryd( 2S)     0.00066
 
   223    H   21  S      Val( 1S)     0.75195
   224    H   21  S      Ryd( 2S)     0.00096
 
   225    H   22  S      Val( 1S)     0.75393
   226    H   22  S      Ryd( 2S)     0.00274
 
   227    H   23  S      Val( 1S)     0.76122
   228    H   23  S      Ryd( 2S)     0.00135
 
   229    H   24  S      Val( 1S)     0.74839
   230    H   24  S      Ryd( 2S)     0.00103
 
   231    H   25  S      Val( 1S)     0.75879
   232    H   25  S      Ryd( 2S)     0.00076
 
   233    H   26  S      Val( 1S)     0.75850
   234    H   26  S      Ryd( 2S)     0.00127
 
   235    H   27  S      Val( 1S)     0.75793
   236    H   27  S      Ryd( 2S)     0.00066
 
   237    H   28  S      Val( 1S)     0.75310
   238    H   28  S      Ryd( 2S)     0.00097


 Summary of Natural Population Analysis:                  
                                                          
                                       Natural Population 
                Natural  -----------------------------------------------
    Atom  No    Charge         Core      Valence    Rydberg      Total
 -----------------------------------------------------------------------
      C    1   -0.70469      1.99939     4.69676    0.00853     6.70469
      C    2    0.08280      1.99912     3.90067    0.01740     5.91720
      C    3   -0.69649      1.99939     4.68800    0.00910     6.69649
      O    4   -0.53560      1.99971     6.52311    0.01277     8.53560
      C    5    0.92033      1.99950     3.02919    0.05098     5.07967
      O    6   -0.54786      1.99977     6.52749    0.02059     8.54786
      N    7   -0.21534      1.99938     5.18989    0.02607     7.21534
      N    8   -0.21401      1.99939     5.18831    0.02631     7.21401
      C    9    0.91692      1.99950     3.03276    0.05082     5.08308
      O   10   -0.55283      1.99977     6.53243    0.02063     8.55283
      O   11   -0.53692      1.99971     6.52448    0.01273     8.53692
      C   12    0.08370      1.99912     3.89967    0.01751     5.91630
      C   13   -0.70383      1.99939     4.69590    0.00853     6.70383
      C   14   -0.69654      1.99939     4.68810    0.00905     6.69654
      H   15    0.24228      0.00000     0.75700    0.00073     0.75772
      H   16    0.23719      0.00000     0.76145    0.00136     0.76281
      H   17    0.24997      0.00000     0.74890    0.00112     0.75003
      H   18    0.24391      0.00000     0.75342    0.00267     0.75609
      H   19    0.23961      0.00000     0.75912    0.00127     0.76039
      H   20    0.24094      0.00000     0.75840    0.00066     0.75906
      H   21    0.24709      0.00000     0.75195    0.00096     0.75291
      H   22    0.24333      0.00000     0.75393    0.00274     0.75667
      H   23    0.23743      0.00000     0.76122    0.00135     0.76257
      H   24    0.25058      0.00000     0.74839    0.00103     0.74942
      H   25    0.24045      0.00000     0.75879    0.00076     0.75955
      H   26    0.24023      0.00000     0.75850    0.00127     0.75977
      H   27    0.24141      0.00000     0.75793    0.00066     0.75859
      H   28    0.24593      0.00000     0.75310    0.00097     0.75407
 =======================================================================
   * Total *   -0.00000     27.99256    79.69887    0.30857   108.00000

                                 Natural Population      
 --------------------------------------------------------
   Core                      27.99256 ( 99.9734% of  28)
   Valence                   79.69887 ( 99.6236% of  80)
   Natural Minimal Basis    107.69143 ( 99.7143% of 108)
   Natural Rydberg Basis      0.30857 (  0.2857% of 108)
 --------------------------------------------------------

    Atom  No          Natural Electron Configuration
 ----------------------------------------------------------------------------
      C    1      [core]2S( 1.11)2p( 3.59)
      C    2      [core]2S( 0.98)2p( 2.92)3p( 0.01)3d( 0.01)
      C    3      [core]2S( 1.11)2p( 3.58)3p( 0.01)
      O    4      [core]2S( 1.62)2p( 4.90)3d( 0.01)
      C    5      [core]2S( 0.73)2p( 2.30)3p( 0.03)3d( 0.01)
      O    6      [core]2S( 1.71)2p( 4.82)3d( 0.02)
      N    7      [core]2S( 1.39)2p( 3.80)3S( 0.01)3p( 0.01)3d( 0.01)
      N    8      [core]2S( 1.39)2p( 3.79)3S( 0.01)3p( 0.01)3d( 0.01)
      C    9      [core]2S( 0.73)2p( 2.30)3p( 0.03)3d( 0.01)
      O   10      [core]2S( 1.71)2p( 4.83)3d( 0.02)
      O   11      [core]2S( 1.62)2p( 4.90)3d( 0.01)
      C   12      [core]2S( 0.98)2p( 2.92)3p( 0.01)3d( 0.01)
      C   13      [core]2S( 1.11)2p( 3.59)
      C   14      [core]2S( 1.11)2p( 3.58)3p( 0.01)
      H   15            1S( 0.76)
      H   16            1S( 0.76)
      H   17            1S( 0.75)
      H   18            1S( 0.75)
      H   19            1S( 0.76)
      H   20            1S( 0.76)
      H   21            1S( 0.75)
      H   22            1S( 0.75)
      H   23            1S( 0.76)
      H   24            1S( 0.75)
      H   25            1S( 0.76)
      H   26            1S( 0.76)
      H   27            1S( 0.76)
      H   28            1S( 0.75)


 NBO analysis skipped by request.
 1\1\GINC-DELLA-R1C3N10\SP\RB3LYP TD-FC\6-31G(d)\C8H14N2O4\BJS4\22-Aug-
 2020\0\\# TD(NStates=10, Root=1) B3LYP/6-31G* scf=qc volume pop=NPA de
 nsity=current Geom=AllCheck Guess=Read\\Title Card Required\\0,1\C,0,5
 .7324589774,0.7921294359,-1.8302042524\C,0,5.6085816552,-0.2158592547,
 -0.6945232236\C,0,6.563741436,-1.3939074109,-0.8044734483\O,0,5.945442
 5654,0.446849415,0.5745425075\C,0,4.9779437303,1.1378135117,1.16802284
 87\O,0,3.8384548836,1.2974574979,0.806178223\N,0,5.4972222029,1.829674
 0143,2.331864715\N,0,5.601414042,1.0903299064,3.329009184\C,0,6.118762
 1312,1.7848029505,4.4924304951\O,0,7.2251578975,1.548673918,4.91119579
 74\O,0,5.1860473486,2.5703938661,5.0205761928\C,0,5.5257284067,3.24985
 03768,6.2791144579\C,0,6.2859324102,4.5309602776,5.9598471413\C,0,4.20
 23615044,3.4763057109,6.9931741532\H,0,5.5017075184,0.3061299864,-2.78
 46793172\H,0,6.7514042475,1.1906643137,-1.8831600532\H,0,5.0322454789,
 1.6207110697,-1.6922290491\H,0,4.574172016,-0.5595818911,-0.608680347\
 H,0,7.602583056,-1.0496142103,-0.8456932656\H,0,6.3503615704,-1.959698
 3251,-1.7176804395\H,0,6.4548593479,-2.0650608566,0.0527007176\H,0,6.1
 64490553,2.5662762685,6.8459052543\H,0,5.6787758456,5.1934880795,5.333
 705652\H,0,7.2205886724,4.3069143572,5.438397659\H,0,6.5300312104,5.05
 92354521,6.8882005129\H,0,3.5463937367,4.1220962561,6.3998597638\H,0,4
 .3807564463,3.9592978623,7.9598636281\H,0,3.6867711094,2.5276074222,7.
 170574492\\Version=ES64L-G16RevA.03\State=1-A\HF=-723.6527845\RMSD=2.2
 85e-13\Dipole=0.0262742,0.1186915,-0.1183892\Quadrupole=-11.6580966,0.
 6150803,11.0430163,0.83383,-5.2084463,10.0031319\PG=C01 [X(C8H14N2O4)]
 \\@


 GARBAGE IN, GARBAGE OUT
 Job cpu time:       0 days  0 hours 21 minutes 23.5 seconds.
 Elapsed time:       0 days  0 hours  5 minutes 34.4 seconds.
 File lengths (MBytes):  RWF=    524 Int=      0 D2E=      0 Chk=    268 Scr=      1
 Normal termination of Gaussian 16 at Sat Aug 22 13:45:08 2020.
