 Entering Gaussian System, Link 0=g16
 Input=azadicarboxylate_3_conf27123.com
 Output=azadicarboxylate_3_conf27123.log
 Initial command:
 /opt/export//g16/l1.exe "/scratch/bjs4/job.234164/Gau-234166.inp" -scrdir="/scratch/bjs4/job.234164/"
 Entering Link 1 = /opt/export//g16/l1.exe PID=    234167.
  
 Copyright (c) 1988,1990,1992,1993,1995,1998,2003,2009,2016,
            Gaussian, Inc.  All Rights Reserved.
  
 This is part of the Gaussian(R) 16 program.  It is based on
 the Gaussian(R) 09 system (copyright 2009, Gaussian, Inc.),
 the Gaussian(R) 03 system (copyright 2003, Gaussian, Inc.),
 the Gaussian(R) 98 system (copyright 1998, Gaussian, Inc.),
 the Gaussian(R) 94 system (copyright 1995, Gaussian, Inc.),
 the Gaussian 92(TM) system (copyright 1992, Gaussian, Inc.),
 the Gaussian 90(TM) system (copyright 1990, Gaussian, Inc.),
 the Gaussian 88(TM) system (copyright 1988, Gaussian, Inc.),
 the Gaussian 86(TM) system (copyright 1986, Carnegie Mellon
 University), and the Gaussian 82(TM) system (copyright 1983,
 Carnegie Mellon University). Gaussian is a federally registered
 trademark of Gaussian, Inc.
  
 This software contains proprietary and confidential information,
 including trade secrets, belonging to Gaussian, Inc.
  
 This software is provided under written license and may be
 used, copied, transmitted, or stored only in accord with that
 written license.
  
 The following legend is applicable only to US Government
 contracts under FAR:
  
                    RESTRICTED RIGHTS LEGEND
  
 Use, reproduction and disclosure by the US Government is
 subject to restrictions as set forth in subparagraphs (a)
 and (c) of the Commercial Computer Software - Restricted
 Rights clause in FAR 52.227-19.
  
 Gaussian, Inc.
 340 Quinnipiac St., Bldg. 40, Wallingford CT 06492
  
  
 ---------------------------------------------------------------
 Warning -- This program may not be used in any manner that
 competes with the business of Gaussian, Inc. or will provide
 assistance to any competitor of Gaussian, Inc.  The licensee
 of this program is prohibited from giving any competitor of
 Gaussian, Inc. access to this program.  By using this program,
 the user acknowledges that Gaussian, Inc. is engaged in the
 business of creating and licensing software in the field of
 computational chemistry and represents and warrants to the
 licensee that it is not a competitor of Gaussian, Inc. and that
 it will not use this program in any manner prohibited above.
 ---------------------------------------------------------------
  

 Cite this work as:
 Gaussian 16, Revision A.03,
 M. J. Frisch, G. W. Trucks, H. B. Schlegel, G. E. Scuseria, 
 M. A. Robb, J. R. Cheeseman, G. Scalmani, V. Barone, 
 G. A. Petersson, H. Nakatsuji, X. Li, M. Caricato, A. V. Marenich, 
 J. Bloino, B. G. Janesko, R. Gomperts, B. Mennucci, H. P. Hratchian, 
 J. V. Ortiz, A. F. Izmaylov, J. L. Sonnenberg, D. Williams-Young, 
 F. Ding, F. Lipparini, F. Egidi, J. Goings, B. Peng, A. Petrone, 
 T. Henderson, D. Ranasinghe, V. G. Zakrzewski, J. Gao, N. Rega, 
 G. Zheng, W. Liang, M. Hada, M. Ehara, K. Toyota, R. Fukuda, 
 J. Hasegawa, M. Ishida, T. Nakajima, Y. Honda, O. Kitao, H. Nakai, 
 T. Vreven, K. Throssell, J. A. Montgomery, Jr., J. E. Peralta, 
 F. Ogliaro, M. J. Bearpark, J. J. Heyd, E. N. Brothers, K. N. Kudin, 
 V. N. Staroverov, T. A. Keith, R. Kobayashi, J. Normand, 
 K. Raghavachari, A. P. Rendell, J. C. Burant, S. S. Iyengar, 
 J. Tomasi, M. Cossi, J. M. Millam, M. Klene, C. Adamo, R. Cammi, 
 J. W. Ochterski, R. L. Martin, K. Morokuma, O. Farkas, 
 J. B. Foresman, and D. J. Fox, Gaussian, Inc., Wallingford CT, 2016.
 
 ******************************************
 Gaussian 16:  ES64L-G16RevA.03 25-Dec-2016
                22-Aug-2020 
 ******************************************
 %nprocshared=5
 Will use up to    5 processors via shared memory.
 %Mem=10GB
 %Chk=azadicarboxylate_3_conf271.chk
 ---------------------------------
 # opt=CalcAll B3LYP/6-31G* scf=qc
 ---------------------------------
 1/10=4,18=20,19=15,26=3,38=1/1,3;
 2/9=110,12=2,17=6,18=5,40=1/2;
 3/5=1,6=6,7=1,11=2,25=1,30=1,71=2,74=-5,140=1/1,2,3;
 4//1;
 5/5=2,8=3,38=5/8;
 8/6=4,10=90,11=11/1;
 11/6=1,8=1,9=11,15=111,16=1/1,2,10;
 10/6=1/2;
 6/7=2,8=2,9=2,10=2,18=1,28=1/1;
 7/10=1,25=1/1,2,3,16;
 1/10=4,18=20,19=15,26=3/3(3);
 2/9=110/2;
 7/8=1,9=1,25=1,44=-1/16;
 99//99;
 2/9=110/2;
 3/5=1,6=6,7=1,11=2,25=1,30=1,71=2,74=-5,140=1/1,2,3;
 4/5=5,16=3,69=1/1;
 5/5=2,8=3,38=5/8;
 8/6=4,10=90,11=11/1;
 11/6=1,8=1,9=11,15=111,16=1/1,2,10;
 10/6=1/2;
 7/10=1,25=1/1,2,3,16;
 1/10=4,18=20,19=15,26=3/3(-8);
 2/9=110/2;
 6/7=2,8=2,9=2,10=2,18=1,19=2,28=1/1;
 7/8=1,9=1,25=1,44=-1/16;
 99//99;
 -------------------
 Title Card Required
 -------------------
 Symbolic Z-matrix:
 Charge =  0 Multiplicity = 1
 C                    -4.0118   -0.9099   -1.78088 
 C                    -3.15957   0.01272  -0.93731 
 O1                   -3.75188   1.31639  -0.8597 
 C2                   -5.0041    1.3932   -0.331 
 O3                   -5.64151   0.42652   0.07345 
 N4                   -5.404     2.7122   -0.3088 
 N5                   -6.6449    2.8402   -0.4308 
 C6                   -7.0458    4.1568   -0.3655 
 O7                   -6.39557   5.13885  -0.70591 
 O8                   -8.29625   4.21763   0.16915 
 C                    -8.86721   5.52287   0.33463 
 C                    -8.33313   6.18162   1.58728 
 C                    -7.4068    5.5335    2.41913 
 C                    -6.92574   6.15907   3.57275 
 C                    -7.35284   7.44502   3.89331 
 C                    -8.24329   8.11786   3.06072 
 C                    -8.72698   7.49054   1.90903 
 Cl                   -6.77902   8.20606   5.32558 
 C                    -5.20648  -0.46929  -2.3715 
 C                    -5.97956  -1.33741  -3.14791 
 C                    -5.55453  -2.64728  -3.35488 
 C                    -4.35403  -3.0913   -2.80679 
 C                    -3.58292  -2.22408  -2.02785 
 Cl                   -6.51743  -3.72279  -4.29088 
 H                    -2.18128   0.1216   -1.41896 
 H                    -2.99124  -0.43276   0.04942 
 H                    -9.962     5.50265   0.36217 
 H                    -8.5713    6.12545  -0.53124 
 H                    -7.05831   4.53035   2.17986 
 H                    -6.22248   5.6365    4.21573 
 H                    -8.5679    9.12636   3.30311 
 H                    -9.42152   8.03134   1.26859 
 H                    -5.55002   0.55308  -2.22433 
 H                    -6.91112  -0.98597  -3.58386 
 H                    -4.01472  -4.10965  -2.97769 
 H                    -2.64634  -2.58705  -1.60837 
 

 GradGradGradGradGradGradGradGradGradGradGradGradGradGradGradGradGradGrad
 Berny optimization.
 Initialization pass.
                           ----------------------------
                           !    Initial Parameters    !
                           ! (Angstroms and Degrees)  !
 --------------------------                            --------------------------
 ! Name  Definition              Value          Derivative Info.                !
 --------------------------------------------------------------------------------
 ! R1    R(1,2)                  1.513          calculate D2E/DX2 analytically  !
 ! R2    R(1,19)                 1.4036         calculate D2E/DX2 analytically  !
 ! R3    R(1,23)                 1.4043         calculate D2E/DX2 analytically  !
 ! R4    R(2,3)                  1.434          calculate D2E/DX2 analytically  !
 ! R5    R(2,25)                 1.0959         calculate D2E/DX2 analytically  !
 ! R6    R(2,26)                 1.0956         calculate D2E/DX2 analytically  !
 ! R7    R(3,4)                  1.3614         calculate D2E/DX2 analytically  !
 ! R8    R(4,5)                  1.2265         calculate D2E/DX2 analytically  !
 ! R9    R(4,6)                  1.3785         calculate D2E/DX2 analytically  !
 ! R10   R(6,7)                  1.2534         calculate D2E/DX2 analytically  !
 ! R11   R(7,8)                  1.3778         calculate D2E/DX2 analytically  !
 ! R12   R(8,9)                  1.226          calculate D2E/DX2 analytically  !
 ! R13   R(8,10)                 1.3613         calculate D2E/DX2 analytically  !
 ! R14   R(10,11)                1.4342         calculate D2E/DX2 analytically  !
 ! R15   R(11,12)                1.5127         calculate D2E/DX2 analytically  !
 ! R16   R(11,27)                1.0953         calculate D2E/DX2 analytically  !
 ! R17   R(11,28)                1.0956         calculate D2E/DX2 analytically  !
 ! R18   R(12,13)                1.4036         calculate D2E/DX2 analytically  !
 ! R19   R(12,17)                1.4042         calculate D2E/DX2 analytically  !
 ! R20   R(13,14)                1.3977         calculate D2E/DX2 analytically  !
 ! R21   R(13,29)                1.0886         calculate D2E/DX2 analytically  !
 ! R22   R(14,15)                1.3924         calculate D2E/DX2 analytically  !
 ! R23   R(14,30)                1.0868         calculate D2E/DX2 analytically  !
 ! R24   R(15,16)                1.3924         calculate D2E/DX2 analytically  !
 ! R25   R(15,18)                1.7204         calculate D2E/DX2 analytically  !
 ! R26   R(16,17)                1.3978         calculate D2E/DX2 analytically  !
 ! R27   R(16,31)                1.0868         calculate D2E/DX2 analytically  !
 ! R28   R(17,32)                1.0886         calculate D2E/DX2 analytically  !
 ! R29   R(19,20)                1.3979         calculate D2E/DX2 analytically  !
 ! R30   R(19,33)                1.0885         calculate D2E/DX2 analytically  !
 ! R31   R(20,21)                1.3926         calculate D2E/DX2 analytically  !
 ! R32   R(20,34)                1.0869         calculate D2E/DX2 analytically  !
 ! R33   R(21,22)                1.3924         calculate D2E/DX2 analytically  !
 ! R34   R(21,24)                1.7205         calculate D2E/DX2 analytically  !
 ! R35   R(22,23)                1.3977         calculate D2E/DX2 analytically  !
 ! R36   R(22,35)                1.0869         calculate D2E/DX2 analytically  !
 ! R37   R(23,36)                1.0885         calculate D2E/DX2 analytically  !
 ! A1    A(2,1,19)             121.5071         calculate D2E/DX2 analytically  !
 ! A2    A(2,1,23)             119.782          calculate D2E/DX2 analytically  !
 ! A3    A(19,1,23)            118.666          calculate D2E/DX2 analytically  !
 ! A4    A(1,2,3)              110.6029         calculate D2E/DX2 analytically  !
 ! A5    A(1,2,25)             108.565          calculate D2E/DX2 analytically  !
 ! A6    A(1,2,26)             109.9213         calculate D2E/DX2 analytically  !
 ! A7    A(3,2,25)             107.5894         calculate D2E/DX2 analytically  !
 ! A8    A(3,2,26)             112.6036         calculate D2E/DX2 analytically  !
 ! A9    A(25,2,26)            107.4021         calculate D2E/DX2 analytically  !
 ! A10   A(2,3,4)              116.8861         calculate D2E/DX2 analytically  !
 ! A11   A(3,4,5)              124.1663         calculate D2E/DX2 analytically  !
 ! A12   A(3,4,6)              109.0912         calculate D2E/DX2 analytically  !
 ! A13   A(5,4,6)              126.7321         calculate D2E/DX2 analytically  !
 ! A14   A(4,6,7)              112.5413         calculate D2E/DX2 analytically  !
 ! A15   A(6,7,8)              112.397          calculate D2E/DX2 analytically  !
 ! A16   A(7,8,9)              126.7225         calculate D2E/DX2 analytically  !
 ! A17   A(7,8,10)             109.1827         calculate D2E/DX2 analytically  !
 ! A18   A(9,8,10)             124.0853         calculate D2E/DX2 analytically  !
 ! A19   A(8,10,11)            116.8498         calculate D2E/DX2 analytically  !
 ! A20   A(10,11,12)           110.5668         calculate D2E/DX2 analytically  !
 ! A21   A(10,11,27)           112.5817         calculate D2E/DX2 analytically  !
 ! A22   A(10,11,28)           107.5669         calculate D2E/DX2 analytically  !
 ! A23   A(12,11,27)           109.8833         calculate D2E/DX2 analytically  !
 ! A24   A(12,11,28)           108.6367         calculate D2E/DX2 analytically  !
 ! A25   A(27,11,28)           107.4561         calculate D2E/DX2 analytically  !
 ! A26   A(11,12,13)           121.5125         calculate D2E/DX2 analytically  !
 ! A27   A(11,12,17)           119.7768         calculate D2E/DX2 analytically  !
 ! A28   A(13,12,17)           118.6667         calculate D2E/DX2 analytically  !
 ! A29   A(12,13,14)           120.6392         calculate D2E/DX2 analytically  !
 ! A30   A(12,13,29)           120.4327         calculate D2E/DX2 analytically  !
 ! A31   A(14,13,29)           118.9258         calculate D2E/DX2 analytically  !
 ! A32   A(13,14,15)           119.8537         calculate D2E/DX2 analytically  !
 ! A33   A(13,14,30)           119.7244         calculate D2E/DX2 analytically  !
 ! A34   A(15,14,30)           120.4216         calculate D2E/DX2 analytically  !
 ! A35   A(14,15,16)           120.3158         calculate D2E/DX2 analytically  !
 ! A36   A(14,15,18)           119.8602         calculate D2E/DX2 analytically  !
 ! A37   A(16,15,18)           119.824          calculate D2E/DX2 analytically  !
 ! A38   A(15,16,17)           119.8076         calculate D2E/DX2 analytically  !
 ! A39   A(15,16,31)           120.4003         calculate D2E/DX2 analytically  !
 ! A40   A(17,16,31)           119.7916         calculate D2E/DX2 analytically  !
 ! A41   A(12,17,16)           120.6673         calculate D2E/DX2 analytically  !
 ! A42   A(12,17,32)           120.4784         calculate D2E/DX2 analytically  !
 ! A43   A(16,17,32)           118.8526         calculate D2E/DX2 analytically  !
 ! A44   A(1,19,20)            120.6282         calculate D2E/DX2 analytically  !
 ! A45   A(1,19,33)            120.434          calculate D2E/DX2 analytically  !
 ! A46   A(20,19,33)           118.9357         calculate D2E/DX2 analytically  !
 ! A47   A(19,20,21)           119.861          calculate D2E/DX2 analytically  !
 ! A48   A(19,20,34)           119.7333         calculate D2E/DX2 analytically  !
 ! A49   A(21,20,34)           120.4055         calculate D2E/DX2 analytically  !
 ! A50   A(20,21,22)           120.3048         calculate D2E/DX2 analytically  !
 ! A51   A(20,21,24)           119.8706         calculate D2E/DX2 analytically  !
 ! A52   A(22,21,24)           119.8247         calculate D2E/DX2 analytically  !
 ! A53   A(21,22,23)           119.8147         calculate D2E/DX2 analytically  !
 ! A54   A(21,22,35)           120.4003         calculate D2E/DX2 analytically  !
 ! A55   A(23,22,35)           119.7846         calculate D2E/DX2 analytically  !
 ! A56   A(1,23,22)            120.6764         calculate D2E/DX2 analytically  !
 ! A57   A(1,23,36)            120.4681         calculate D2E/DX2 analytically  !
 ! A58   A(22,23,36)           118.8537         calculate D2E/DX2 analytically  !
 ! D1    D(19,1,2,3)            -0.0009         calculate D2E/DX2 analytically  !
 ! D2    D(19,1,2,25)         -117.8292         calculate D2E/DX2 analytically  !
 ! D3    D(19,1,2,26)          124.9583         calculate D2E/DX2 analytically  !
 ! D4    D(23,1,2,3)           177.5285         calculate D2E/DX2 analytically  !
 ! D5    D(23,1,2,25)           59.7002         calculate D2E/DX2 analytically  !
 ! D6    D(23,1,2,26)          -57.5123         calculate D2E/DX2 analytically  !
 ! D7    D(2,1,19,20)          179.979          calculate D2E/DX2 analytically  !
 ! D8    D(2,1,19,33)           -0.5608         calculate D2E/DX2 analytically  !
 ! D9    D(23,1,19,20)           2.4229         calculate D2E/DX2 analytically  !
 ! D10   D(23,1,19,33)        -178.1169         calculate D2E/DX2 analytically  !
 ! D11   D(2,1,23,22)         -179.8658         calculate D2E/DX2 analytically  !
 ! D12   D(2,1,23,36)            0.6168         calculate D2E/DX2 analytically  !
 ! D13   D(19,1,23,22)          -2.2664         calculate D2E/DX2 analytically  !
 ! D14   D(19,1,23,36)         178.2162         calculate D2E/DX2 analytically  !
 ! D15   D(1,2,3,4)             59.2948         calculate D2E/DX2 analytically  !
 ! D16   D(25,2,3,4)           177.7188         calculate D2E/DX2 analytically  !
 ! D17   D(26,2,3,4)           -64.1279         calculate D2E/DX2 analytically  !
 ! D18   D(2,3,4,5)             -0.0795         calculate D2E/DX2 analytically  !
 ! D19   D(2,3,4,6)            178.8166         calculate D2E/DX2 analytically  !
 ! D20   D(3,4,6,7)            149.6469         calculate D2E/DX2 analytically  !
 ! D21   D(5,4,6,7)            -31.4928         calculate D2E/DX2 analytically  !
 ! D22   D(4,6,7,8)            178.0638         calculate D2E/DX2 analytically  !
 ! D23   D(6,7,8,9)             29.6469         calculate D2E/DX2 analytically  !
 ! D24   D(6,7,8,10)          -149.257          calculate D2E/DX2 analytically  !
 ! D25   D(7,8,10,11)          178.9397         calculate D2E/DX2 analytically  !
 ! D26   D(9,8,10,11)            0.0005         calculate D2E/DX2 analytically  !
 ! D27   D(8,10,11,12)         -80.4708         calculate D2E/DX2 analytically  !
 ! D28   D(8,10,11,27)         156.1988         calculate D2E/DX2 analytically  !
 ! D29   D(8,10,11,28)          38.0061         calculate D2E/DX2 analytically  !
 ! D30   D(10,11,12,13)         -0.0001         calculate D2E/DX2 analytically  !
 ! D31   D(10,11,12,17)        177.5575         calculate D2E/DX2 analytically  !
 ! D32   D(27,11,12,13)        124.8787         calculate D2E/DX2 analytically  !
 ! D33   D(27,11,12,17)        -57.5637         calculate D2E/DX2 analytically  !
 ! D34   D(28,11,12,13)       -117.8234         calculate D2E/DX2 analytically  !
 ! D35   D(28,11,12,17)         59.7342         calculate D2E/DX2 analytically  !
 ! D36   D(11,12,13,14)       -179.9697         calculate D2E/DX2 analytically  !
 ! D37   D(11,12,13,29)         -0.5269         calculate D2E/DX2 analytically  !
 ! D38   D(17,12,13,14)          2.4463         calculate D2E/DX2 analytically  !
 ! D39   D(17,12,13,29)       -178.1109         calculate D2E/DX2 analytically  !
 ! D40   D(11,12,17,16)       -179.8986         calculate D2E/DX2 analytically  !
 ! D41   D(11,12,17,32)          0.5949         calculate D2E/DX2 analytically  !
 ! D42   D(13,12,17,16)         -2.2716         calculate D2E/DX2 analytically  !
 ! D43   D(13,12,17,32)        178.2219         calculate D2E/DX2 analytically  !
 ! D44   D(12,13,14,15)         -0.9083         calculate D2E/DX2 analytically  !
 ! D45   D(12,13,14,30)        178.8991         calculate D2E/DX2 analytically  !
 ! D46   D(29,13,14,15)        179.6406         calculate D2E/DX2 analytically  !
 ! D47   D(29,13,14,30)         -0.552          calculate D2E/DX2 analytically  !
 ! D48   D(13,14,15,16)         -0.8575         calculate D2E/DX2 analytically  !
 ! D49   D(13,14,15,18)        179.0858         calculate D2E/DX2 analytically  !
 ! D50   D(30,14,15,16)        179.3364         calculate D2E/DX2 analytically  !
 ! D51   D(30,14,15,18)         -0.7203         calculate D2E/DX2 analytically  !
 ! D52   D(14,15,16,17)          1.031          calculate D2E/DX2 analytically  !
 ! D53   D(14,15,16,31)       -179.2321         calculate D2E/DX2 analytically  !
 ! D54   D(18,15,16,17)       -178.9124         calculate D2E/DX2 analytically  !
 ! D55   D(18,15,16,31)          0.8246         calculate D2E/DX2 analytically  !
 ! D56   D(15,16,17,12)          0.5578         calculate D2E/DX2 analytically  !
 ! D57   D(15,16,17,32)       -179.9277         calculate D2E/DX2 analytically  !
 ! D58   D(31,16,17,12)       -179.1807         calculate D2E/DX2 analytically  !
 ! D59   D(31,16,17,32)          0.3337         calculate D2E/DX2 analytically  !
 ! D60   D(1,19,20,21)          -0.8873         calculate D2E/DX2 analytically  !
 ! D61   D(1,19,20,34)         178.9151         calculate D2E/DX2 analytically  !
 ! D62   D(33,19,20,21)        179.6445         calculate D2E/DX2 analytically  !
 ! D63   D(33,19,20,34)         -0.5531         calculate D2E/DX2 analytically  !
 ! D64   D(19,20,21,22)         -0.8579         calculate D2E/DX2 analytically  !
 ! D65   D(19,20,21,24)        179.0884         calculate D2E/DX2 analytically  !
 ! D66   D(34,20,21,22)        179.3411         calculate D2E/DX2 analytically  !
 ! D67   D(34,20,21,24)         -0.7126         calculate D2E/DX2 analytically  !
 ! D68   D(20,21,22,23)          1.0137         calculate D2E/DX2 analytically  !
 ! D69   D(20,21,22,35)       -179.2328         calculate D2E/DX2 analytically  !
 ! D70   D(24,21,22,23)       -178.9326         calculate D2E/DX2 analytically  !
 ! D71   D(24,21,22,35)          0.8208         calculate D2E/DX2 analytically  !
 ! D72   D(21,22,23,1)           0.5725         calculate D2E/DX2 analytically  !
 ! D73   D(21,22,23,36)       -179.9024         calculate D2E/DX2 analytically  !
 ! D74   D(35,22,23,1)        -179.1825         calculate D2E/DX2 analytically  !
 ! D75   D(35,22,23,36)          0.3426         calculate D2E/DX2 analytically  !
 --------------------------------------------------------------------------------
 Trust Radius=3.00D-01 FncErr=1.00D-07 GrdErr=1.00D-06 EigMax=2.50D+02 EigMin=1.00D-04
 Number of steps in this run=    180 maximum allowed number of steps=    216.
 GradGradGradGradGradGradGradGradGradGradGradGradGradGradGradGradGradGrad

                          Input orientation:                          
 ---------------------------------------------------------------------
 Center     Atomic      Atomic             Coordinates (Angstroms)
 Number     Number       Type             X           Y           Z
 ---------------------------------------------------------------------
      1          6           0       -4.011800   -0.909900   -1.780880
      2          6           0       -3.159570    0.012720   -0.937310
      3          8           0       -3.751880    1.316390   -0.859700
      4          6           0       -5.004100    1.393200   -0.331000
      5          8           0       -5.641510    0.426520    0.073450
      6          7           0       -5.404000    2.712200   -0.308800
      7          7           0       -6.644900    2.840200   -0.430800
      8          6           0       -7.045800    4.156800   -0.365500
      9          8           0       -6.395570    5.138850   -0.705910
     10          8           0       -8.296250    4.217630    0.169150
     11          6           0       -8.867210    5.522870    0.334630
     12          6           0       -8.333130    6.181620    1.587280
     13          6           0       -7.406800    5.533500    2.419130
     14          6           0       -6.925740    6.159070    3.572750
     15          6           0       -7.352840    7.445020    3.893310
     16          6           0       -8.243290    8.117860    3.060720
     17          6           0       -8.726980    7.490540    1.909030
     18         17           0       -6.779020    8.206060    5.325580
     19          6           0       -5.206480   -0.469290   -2.371500
     20          6           0       -5.979560   -1.337410   -3.147910
     21          6           0       -5.554530   -2.647280   -3.354880
     22          6           0       -4.354030   -3.091300   -2.806790
     23          6           0       -3.582920   -2.224080   -2.027850
     24         17           0       -6.517430   -3.722790   -4.290880
     25          1           0       -2.181280    0.121600   -1.418960
     26          1           0       -2.991240   -0.432760    0.049420
     27          1           0       -9.962000    5.502650    0.362170
     28          1           0       -8.571300    6.125450   -0.531240
     29          1           0       -7.058310    4.530350    2.179860
     30          1           0       -6.222480    5.636500    4.215730
     31          1           0       -8.567900    9.126360    3.303110
     32          1           0       -9.421520    8.031340    1.268590
     33          1           0       -5.550020    0.553080   -2.224330
     34          1           0       -6.911120   -0.985970   -3.583860
     35          1           0       -4.014720   -4.109650   -2.977690
     36          1           0       -2.646340   -2.587050   -1.608370
 ---------------------------------------------------------------------
                    Distance matrix (angstroms):
                    1          2          3          4          5
     1  C    0.000000
     2  C    1.512988   0.000000
     3  O    2.423324   1.434019   0.000000
     4  C    2.896736   2.382358   1.361425   0.000000
     5  O    2.807225   2.711622   2.287649   1.226516   0.000000
     6  N    4.150283   3.566466   2.231877   1.378468   2.329562
     7  N    4.776943   4.516494   3.297805   2.189976   2.662125
     8  C    6.072883   5.709917   4.377450   3.436163   4.009950
     9  O    6.589787   6.066502   4.650156   4.013308   4.835500
    10  O    6.960653   6.729859   5.488809   4.366441   4.629181
    11  C    8.332522   8.034721   6.729599   5.693932   6.037064
    12  C    8.961476   8.437690   7.116602   6.139316   6.531284
    13  C    8.407349   7.731990   6.472494   5.520712   5.890646
    14  C    9.333956   8.503076   7.291882   6.453331   6.837871
    15  C   10.637841   9.805992   8.550914   7.745056   8.171862
    16  C   11.083639  10.369269   9.044471   8.198608   8.651575
    17  C   10.315801   9.747589   8.398667   7.486997   7.924005
    18  Cl  11.885285  10.929548   9.741089   9.031185   9.455159
    19  C    1.403649   2.545403   2.755005   2.770102   2.639982
    20  C    2.433848   3.829092   4.152242   4.042615   3.688209
    21  C    2.806418   4.319268   5.018580   5.076643   4.605351
    22  C    2.434773   3.815315   4.856076   5.163610   4.725298
    23  C    1.404280   2.524238   3.732030   4.240727   3.959663
    24  Cl   4.526658   6.039511   6.694371   6.644108   6.085342
    25  H    2.132084   1.095853   2.051117   3.281606   3.780669
    26  H    2.149233   1.095638   2.112960   2.744167   2.786193
    27  H    9.006572   8.837479   7.588368   6.476792   6.672113
    28  H    8.476249   8.174178   6.816286   5.929520   6.436390
    29  H    7.386813   6.732452   5.522766   4.512860   4.825526
    30  H    9.148868   8.219619   7.108249   6.337413   6.681310
    31  H   12.138019  11.414448  10.075647   9.257926   9.730451
    32  H   10.886235  10.410393   9.042400   8.132477   8.576137
    33  H    2.168658   2.768151   2.382890   2.142085   2.303081
    34  H    3.415052   4.698482   4.764736   4.458506   4.121038
    35  H    3.416250   4.678500   5.830684   6.185887   5.703748
    36  H    2.169579   2.733593   4.125478   4.799281   4.569591
                    6          7          8          9         10
     6  N    0.000000
     7  N    1.253436   0.000000
     8  C    2.187599   1.377832   0.000000
     9  O    2.651328   2.328442   1.226010   0.000000
    10  O    3.295431   2.232534   1.361314   2.286255   0.000000
    11  C    4.506406   3.566688   2.381987   2.709096   1.434235
    12  C    4.920548   4.252982   3.093617   3.178086   2.422748
    13  C    4.405967   3.994553   3.127265   3.308203   2.754096
    14  C    5.409532   5.207896   4.419651   4.430447   4.151142
    15  C    6.622333   6.356373   5.389260   5.233317   5.017513
    16  C    6.973980   6.526811   5.372426   5.145490   4.855489
    17  C    6.228443   5.606739   4.371919   4.219458   3.731575
    18  Cl   7.988706   7.870601   6.989712   6.777439   6.693156
    19  C    3.796791   4.097328   5.367294   5.969871   6.161883
    20  C    4.979072   5.027702   6.250201   6.933857   6.872293
    21  C    6.166465   6.312811   7.579959   8.267298   8.189188
    22  C    6.404920   6.787938   8.108050   8.735957   8.821438
    23  C    5.535190   6.129700   7.447857   7.991950   8.278763
    24  Cl   7.648907   7.615071   8.819054   9.560101   9.279350
    25  H    4.281307   5.318943   6.407509   6.591015   7.529436
    26  H    3.980013   4.928703   6.138052   6.572886   7.055749
    27  H    5.386295   4.326730   3.293181   3.740664   2.112642
    28  H    4.661710   3.809721   2.496037   2.395348   2.050848
    29  H    3.497976   3.137365   2.572655   3.022774   2.381857
    30  H    5.449111   5.439483   4.884162   4.949763   4.763247
    31  H    8.012341   7.560147   6.361762   6.057350   5.830191
    32  H    6.849954   6.127437   4.829737   4.628339   4.125456
    33  H    2.890048   3.105870   4.321968   4.904064   5.167151
    34  H    5.164677   4.965102   6.068283   6.786885   6.563621
    35  H    7.455918   7.855247   9.183963   9.816526   9.878142
    36  H    6.113560   6.843259   8.147361   8.634853   9.021349
                   11         12         13         14         15
    11  C    0.000000
    12  C    1.512721   0.000000
    13  C    2.545201   1.403610   0.000000
    14  C    3.828770   2.433793   1.397711   0.000000
    15  C    4.318817   2.806229   2.414545   1.392423   0.000000
    16  C    3.815077   2.434774   2.791105   2.415568   1.392416
    17  C    2.523911   1.404248   2.415178   2.790205   2.414063
    18  Cl   6.039009   4.526423   3.998017   2.698909   1.720421
    19  C    7.525295   8.347603   7.989057   9.067807  10.319448
    20  C    8.217667   9.192232   8.957586  10.112356  11.340007
    21  C    9.557075  10.492618  10.183087  11.288227  12.554867
    22  C   10.219650  11.005823  10.536452  11.527427  12.841271
    23  C    9.670588  10.309678   9.725109  10.621599  11.948386
    24  Cl  10.601841  11.659626  11.467088  12.635448  13.870791
    25  H    8.772141   9.143663   8.445452   9.158500  10.421023
    26  H    8.371254   8.640071   7.791595   8.446678   9.790734
    27  H    1.095323   2.148281   3.280409   4.467391   4.800986
    28  H    1.095626   2.132606   3.226631   4.421734   4.775202
    29  H    2.768048   2.168642   1.088580   2.147195   3.393812
    30  H    4.697919   3.414784   2.154297   1.086774   2.156945
    31  H    4.678312   3.416238   3.877914   3.402088   2.156759
    32  H    2.733489   2.169705   3.409112   3.878591   3.392987
    33  H    6.500064   7.345375   7.057899   8.180823   9.390129
    34  H    7.845116   8.951935   8.876096  10.112808  11.277623
    35  H   11.282888  12.058103  11.559508  12.523135  13.851501
    36  H   10.404099  10.928922  10.238460  11.029591  12.371825
                   16         17         18         19         20
    16  C    0.000000
    17  C    1.397811   0.000000
    18  Cl   2.698417   3.997416   0.000000
    19  C   10.605205   9.699265  11.703829   0.000000
    20  C   11.535757  10.538200  12.787376   1.397890   0.000000
    21  C   12.817082  11.855319  13.951514   2.414915   1.392568
    22  C   13.236287  12.382931  14.129627   2.791251   2.415542
    23  C   12.432551  11.676225  13.155828   2.415229   2.790090
    24  Cl  14.043703  13.002298  15.324562   3.998484   2.699208
    25  H   10.988889  10.403028  11.488539   3.226193   4.420962
    26  H   10.476882   9.956683  10.808069   3.281688   4.468934
    27  H    4.132246   2.805309   6.486542   8.108760   8.658343
    28  H    4.120615   2.800469   6.468659   7.628838   8.322161
    29  H    3.879474   3.408890   4.846071   7.010032   7.998715
    30  H    3.402186   3.876964   2.853794   9.039056  10.144832
    31  H    1.086829   2.155150   2.852618  11.643747  12.562072
    32  H    2.146495   1.088583   4.844843  10.162555  10.914488
    33  H    9.613082   8.677908  10.820337   1.088540   2.147430
    34  H   11.349222  10.262573  12.801913   2.154663   1.086907
    35  H   14.277787  13.440604  15.108354   3.878141   3.402188
    36  H   12.950728  12.284303  13.477757   3.409046   3.878420
                   21         22         23         24         25
    21  C    0.000000
    22  C    1.392392   0.000000
    23  C    2.413991   1.397651   0.000000
    24  Cl   1.720463   2.698444   3.997347   0.000000
    25  H    4.774233   4.119422   2.799564   6.467570   0.000000
    26  H    4.802480   4.133155   2.806058   6.488183   1.766208
    27  H    9.983166  10.740001  10.300836  10.891496   9.626408
    28  H    9.697146  10.388069   9.840652  10.739698   8.812867
    29  H    9.187659   9.501019   8.683633  10.501302   7.494932
    30  H   11.241944  11.356997  10.379705  12.650918   8.859749
    31  H   13.857411  14.295412  13.494504  15.065649  12.007188
    32  H   12.262260  12.884149  12.252731  13.322951  11.054772
    33  H    3.394181   3.879582   3.408915   4.846605   3.490445
    34  H    2.157016   3.402200   3.876983   2.853954   5.318354
    35  H    2.156806   1.086911   2.154999   2.852663   4.867712
    36  H    3.392859   2.146319   1.088528   4.844698   2.754803
                   26         27         28         29         30
    26  H    0.000000
    27  H    9.160699   0.000000
    28  H    8.630432   1.766383   0.000000
    29  H    6.761087   3.561008   3.490494   0.000000
    30  H    8.039588   5.371392   5.318811   2.463117   0.000000
    31  H   11.535268   4.870720   4.869057   4.966272   4.302673
    32  H   10.699339   2.740071   2.755844   4.321123   4.965355
    33  H    3.562187   7.117148   6.560945   6.122949   8.232116
    34  H    5.373288   8.184205   7.914985   7.979469  10.254996
    35  H    4.871389  11.786480  11.467555  10.512534  12.312877
    36  H    2.740107  11.083553  10.591176   9.190949  10.692787
                   31         32         33         34         35
    31  H    0.000000
    32  H    2.463130   0.000000
    33  H   10.637731   9.116654   0.000000
    34  H   12.346436  10.543257   2.463654   0.000000
    35  H   15.341834  13.952348   4.966462   4.302784   0.000000
    36  H   14.013975  12.920146   4.321016   4.965316   2.462887
                   36
    36  H    0.000000
 Stoichiometry    C16H12Cl2N2O4
 Framework group  C1[X(C16H12Cl2N2O4)]
 Deg. of freedom   102
 Full point group                 C1      NOp   1
 Largest Abelian subgroup         C1      NOp   1
 Largest concise Abelian subgroup C1      NOp   1
                         Standard orientation:                         
 ---------------------------------------------------------------------
 Center     Atomic      Atomic             Coordinates (Angstroms)
 Number     Number       Type             X           Y           Z
 ---------------------------------------------------------------------
      1          6           0       -4.269450    1.401654    0.316230
      2          6           0       -3.242449    2.451916    0.678658
      3          8           0       -2.009024    1.836374    1.073853
      4          6           0       -1.400567    1.033404    0.158158
      5          8           0       -1.842132    0.810960   -0.964286
      6          7           0       -0.224621    0.551332    0.691948
      7          7           0        0.075788   -0.581629    0.247815
      8          6           0        1.273002   -1.042171    0.750807
      9          8           0        1.758666   -0.777770    1.845029
     10          8           0        1.871180   -1.838727   -0.177017
     11          6           0        3.148342   -2.391233    0.170294
     12          6           0        4.244650   -1.371155   -0.043888
     13          6           0        3.963632   -0.081320   -0.520831
     14          6           0        4.991014    0.846733   -0.712661
     15          6           0        6.304989    0.498362   -0.411085
     16          6           0        6.598314   -0.764206    0.097545
     17          6           0        5.571082   -1.693303    0.285826
     18         17           0        7.572653    1.632462   -0.669334
     19          6           0       -3.973099    0.031374    0.385059
     20          6           0       -4.936230   -0.923457    0.046277
     21          6           0       -6.208680   -0.515819   -0.346086
     22          6           0       -6.531764    0.837999   -0.385442
     23          6           0       -5.567605    1.792557   -0.049816
     24         17           0       -7.386990   -1.689846   -0.785676
     25          1           0       -3.616158    3.024424    1.535087
     26          1           0       -3.115517    3.152857   -0.153805
     27          1           0        3.376558   -3.306003   -0.387242
     28          1           0        3.117053   -2.653568    1.233589
     29          1           0        2.941167    0.209002   -0.755958
     30          1           0        4.758789    1.835381   -1.099604
     31          1           0        7.621807   -1.033237    0.345092
     32          1           0        5.817759   -2.675350    0.685513
     33          1           0       -2.985134   -0.304199    0.695276
     34          1           0       -4.685568   -1.980248    0.087845
     35          1           0       -7.528225    1.157339   -0.679489
     36          1           0       -5.837561    2.846512   -0.084376
 ---------------------------------------------------------------------
 Rotational constants (GHZ):           0.5676746           0.0560688           0.0528668
 Standard basis: 6-31G(d) (6D, 7F)
 There are   392 symmetry adapted cartesian basis functions of A   symmetry.
 There are   392 symmetry adapted basis functions of A   symmetry.
   392 basis functions,   768 primitive gaussians,   392 cartesian basis functions
    94 alpha electrons       94 beta electrons
       nuclear repulsion energy      2067.2940148618 Hartrees.
 NAtoms=   36 NActive=   36 NUniq=   36 SFac= 1.00D+00 NAtFMM=   60 NAOKFM=F Big=F
 Integral buffers will be    131072 words long.
 Raffenetti 2 integral format.
 Two-electron integral symmetry is turned on.
 One-electron integrals computed using PRISM.
 NBasis=   392 RedAO= T EigKep=  4.45D-04  NBF=   392
 NBsUse=   392 1.00D-06 EigRej= -1.00D+00 NBFU=   392
 ExpMin= 1.43D-01 ExpMax= 2.52D+04 ExpMxC= 3.78D+03 IAcc=3 IRadAn=         5 AccDes= 0.00D+00
 Harris functional with IExCor=  402 and IRadAn=       5 diagonalized for initial guess.
 HarFok:  IExCor=  402 AccDes= 0.00D+00 IRadAn=         5 IDoV= 1 UseB2=F ITyADJ=14
 ICtDFT=  3500011 ScaDFX=  1.000000  1.000000  1.000000  1.000000
 FoFCou: FMM=F IPFlag=           0 FMFlag=      100000 FMFlg1=           0
         NFxFlg=           0 DoJE=T BraDBF=F KetDBF=T FulRan=T
         wScrn=  0.000000 ICntrl=       500 IOpCl=  0 I1Cent=   200000004 NGrid=           0
         NMat0=    1 NMatS0=      1 NMatT0=    0 NMatD0=    1 NMtDS0=    0 NMtDT0=    0
 Petite list used in FoFCou.
 Gradient too large for Newton-Raphson -- use scaled steepest descent instead.
 Gradient too large for Newton-Raphson -- use scaled steepest descent instead.
     Accept linear search using points  2 and  3.
 Gradient too large for Newton-Raphson -- use scaled steepest descent instead.
 Gradient too large for Newton-Raphson -- use scaled steepest descent instead.
     Minimum is close to point  2 DX=  2.02D-02 DF= -6.28D-06 DXR=  4.80D-02 DFR=  2.31D-03 which will be used.
 Gradient too large for Newton-Raphson -- use scaled steepest descent instead.
 Gradient too large for Newton-Raphson -- use scaled steepest descent instead.
     Accept linear search using points  1 and  2.
 Gradient too large for Newton-Raphson -- use scaled steepest descent instead.
 Restarting incremental Fock formation.
 LinEq1:  Iter=  0 NonCon=     1 RMS=2.69D-05 Max=2.29D-03 NDo=     1
 AX will form     1 AO Fock derivatives at one time.
 LinEq1:  Iter=  1 NonCon=     1 RMS=3.75D-05 Max=2.88D-03 NDo=     1
 LinEq1:  Iter=  2 NonCon=     1 RMS=8.76D-06 Max=7.40D-04 NDo=     1
 LinEq1:  Iter=  3 NonCon=     1 RMS=8.07D-06 Max=5.81D-04 NDo=     1
 LinEq1:  Iter=  4 NonCon=     1 RMS=5.63D-06 Max=4.83D-04 NDo=     1
 LinEq1:  Iter=  5 NonCon=     1 RMS=3.81D-06 Max=2.14D-04 NDo=     1
 LinEq1:  Iter=  6 NonCon=     1 RMS=2.58D-06 Max=9.93D-05 NDo=     1
 LinEq1:  Iter=  7 NonCon=     1 RMS=2.00D-06 Max=9.54D-05 NDo=     1
 LinEq1:  Iter=  8 NonCon=     1 RMS=1.28D-06 Max=5.37D-05 NDo=     1
 LinEq1:  Iter=  9 NonCon=     1 RMS=7.81D-07 Max=4.40D-05 NDo=     1
 LinEq1:  Iter= 10 NonCon=     1 RMS=5.19D-07 Max=3.07D-05 NDo=     1
 LinEq1:  Iter= 11 NonCon=     1 RMS=3.23D-07 Max=1.83D-05 NDo=     1
 LinEq1:  Iter= 12 NonCon=     1 RMS=2.33D-07 Max=1.12D-05 NDo=     1
 LinEq1:  Iter= 13 NonCon=     1 RMS=1.10D-07 Max=4.48D-06 NDo=     1
 LinEq1:  Iter= 14 NonCon=     1 RMS=6.35D-08 Max=2.58D-06 NDo=     1
 LinEq1:  Iter= 15 NonCon=     1 RMS=3.62D-08 Max=1.94D-06 NDo=     1
 LinEq1:  Iter= 16 NonCon=     1 RMS=2.40D-08 Max=1.22D-06 NDo=     1
 LinEq1:  Iter= 17 NonCon=     1 RMS=1.11D-08 Max=3.73D-07 NDo=     1
 LinEq1:  Iter= 18 NonCon=     0 RMS=6.75D-09 Max=2.08D-07 NDo=     1
 Linear equations converged to 2.367D-08 2.367D-07 after    18 iterations.
     Minimum is close to point  2 DX=  1.01D-03 DF= -9.32D-12 DXR=  1.01D-03 DFR=  9.95D-07 which will be used.
 LinEq1:  Iter=  0 NonCon=     1 RMS=9.10D-08 Max=3.80D-06 NDo=     1
 LinEq1:  Iter=  1 NonCon=     1 RMS=7.46D-08 Max=4.65D-06 NDo=     1
 LinEq1:  Iter=  2 NonCon=     1 RMS=7.05D-08 Max=5.73D-06 NDo=     1
 LinEq1:  Iter=  3 NonCon=     1 RMS=3.92D-08 Max=1.86D-06 NDo=     1
 LinEq1:  Iter=  4 NonCon=     1 RMS=2.64D-08 Max=1.36D-06 NDo=     1
 LinEq1:  Iter=  5 NonCon=     1 RMS=2.10D-08 Max=1.21D-06 NDo=     1
 LinEq1:  Iter=  6 NonCon=     1 RMS=1.72D-08 Max=9.82D-07 NDo=     1
 LinEq1:  Iter=  7 NonCon=     1 RMS=1.35D-08 Max=8.45D-07 NDo=     1
 LinEq1:  Iter=  8 NonCon=     1 RMS=8.83D-09 Max=4.14D-07 NDo=     1
 LinEq1:  Iter=  9 NonCon=     1 RMS=7.23D-09 Max=3.36D-07 NDo=     1
 LinEq1:  Iter= 10 NonCon=     1 RMS=4.63D-09 Max=2.21D-07 NDo=     1
 LinEq1:  Iter= 11 NonCon=     1 RMS=3.16D-09 Max=1.08D-07 NDo=     1
 LinEq1:  Iter= 12 NonCon=     1 RMS=1.84D-09 Max=8.47D-08 NDo=     1
 LinEq1:  Iter= 13 NonCon=     1 RMS=1.28D-09 Max=5.03D-08 NDo=     1
 LinEq1:  Iter= 14 NonCon=     1 RMS=6.15D-10 Max=2.54D-08 NDo=     1
 LinEq1:  Iter= 15 NonCon=     1 RMS=4.20D-10 Max=2.21D-08 NDo=     1
 LinEq1:  Iter= 16 NonCon=     1 RMS=2.55D-10 Max=1.10D-08 NDo=     1
 LinEq1:  Iter= 17 NonCon=     1 RMS=1.52D-10 Max=5.83D-09 NDo=     1
 LinEq1:  Iter= 18 NonCon=     1 RMS=7.26D-11 Max=2.47D-09 NDo=     1
 LinEq1:  Iter= 19 NonCon=     0 RMS=3.59D-11 Max=1.06D-09 NDo=     1
 Linear equations converged to 1.228D-10 1.228D-09 after    19 iterations.
 SCF Done:  E(RB3LYP) =  -1947.63401783     a.u. after   10 cycles
            Convg  =    0.1586D-09                    61 Fock formations.
              S**2 =  0.0000                  -V/T =  2.0063
 DoSCS=F DFT=T ScalE2(SS,OS)=  1.000000  1.000000
 Range of M.O.s used for correlation:     1   392
 NBasis=   392 NAE=    94 NBE=    94 NFC=     0 NFV=     0
 NROrb=    392 NOA=    94 NOB=    94 NVA=   298 NVB=   298

 **** Warning!!: The smallest alpha delta epsilon is  0.91909503D-01

 Symmetrizing basis deriv contribution to polar:
 IMax=3 JMax=2 DiffMx= 0.00D+00
 G2DrvN: will do    37 centers at a time, making    1 passes.
 Calling FoFCou, ICntrl=  3107 FMM=F I1Cent=   0 AccDes= 0.00D+00.
 End of G2Drv F.D. properties file   721 does not exist.
 End of G2Drv F.D. properties file   722 does not exist.
 End of G2Drv F.D. properties file   788 does not exist.
          IDoAtm=111111111111111111111111111111111111
          Differentiating once with respect to electric field.
                with respect to dipole field.
          Differentiating once with respect to nuclear coordinates.
 CalDSu exits because no D1Ps are significant.
          There are   111 degrees of freedom in the 1st order CPHF.  IDoFFX=6 NUNeed=     3.
    108 vectors produced by pass  0 Test12= 2.80D-14 1.00D-09 XBig12= 3.13D+02 6.47D+00.
 AX will form   108 AO Fock derivatives at one time.
    108 vectors produced by pass  1 Test12= 2.80D-14 1.00D-09 XBig12= 6.37D+01 1.83D+00.
    108 vectors produced by pass  2 Test12= 2.80D-14 1.00D-09 XBig12= 1.05D+00 1.77D-01.
    108 vectors produced by pass  3 Test12= 2.80D-14 1.00D-09 XBig12= 6.74D-03 1.42D-02.
    108 vectors produced by pass  4 Test12= 2.80D-14 1.00D-09 XBig12= 1.53D-05 3.59D-04.
    106 vectors produced by pass  5 Test12= 2.80D-14 1.00D-09 XBig12= 1.93D-08 1.52D-05.
     33 vectors produced by pass  6 Test12= 2.80D-14 1.00D-09 XBig12= 2.24D-11 4.18D-07.
      3 vectors produced by pass  7 Test12= 2.80D-14 1.00D-09 XBig12= 2.39D-14 1.21D-08.
 InvSVY:  IOpt=1 It=  1 EMax= 1.78D-14
 Solved reduced A of dimension   682 with   111 vectors.
 Isotropic polarizability for W=    0.000000      216.14 Bohr**3.
 End of Minotr F.D. properties file   721 does not exist.
 End of Minotr F.D. properties file   722 does not exist.
 End of Minotr F.D. properties file   788 does not exist.

 **********************************************************************

            Population analysis using the SCF density.

 **********************************************************************

 Orbital symmetries:
       Occupied  (A) (A) (A) (A) (A) (A) (A) (A) (A) (A) (A) (A)
                 (A) (A) (A) (A) (A) (A) (A) (A) (A) (A) (A) (A)
                 (A) (A) (A) (A) (A) (A) (A) (A) (A) (A) (A) (A)
                 (A) (A) (A) (A) (A) (A) (A) (A) (A) (A) (A) (A)
                 (A) (A) (A) (A) (A) (A) (A) (A) (A) (A) (A) (A)
                 (A) (A) (A) (A) (A) (A) (A) (A) (A) (A) (A) (A)
                 (A) (A) (A) (A) (A) (A) (A) (A) (A) (A) (A) (A)
                 (A) (A) (A) (A) (A) (A) (A) (A) (A) (A)
       Virtual   (A) (A) (A) (A) (A) (A) (A) (A) (A) (A) (A) (A)
                 (A) (A) (A) (A) (A) (A) (A) (A) (A) (A) (A) (A)
                 (A) (A) (A) (A) (A) (A) (A) (A) (A) (A) (A) (A)
                 (A) (A) (A) (A) (A) (A) (A) (A) (A) (A) (A) (A)
                 (A) (A) (A) (A) (A) (A) (A) (A) (A) (A) (A) (A)
                 (A) (A) (A) (A) (A) (A) (A) (A) (A) (A) (A) (A)
                 (A) (A) (A) (A) (A) (A) (A) (A) (A) (A) (A) (A)
                 (A) (A) (A) (A) (A) (A) (A) (A) (A) (A) (A) (A)
                 (A) (A) (A) (A) (A) (A) (A) (A) (A) (A) (A) (A)
                 (A) (A) (A) (A) (A) (A) (A) (A) (A) (A) (A) (A)
                 (A) (A) (A) (A) (A) (A) (A) (A) (A) (A) (A) (A)
                 (A) (A) (A) (A) (A) (A) (A) (A) (A) (A) (A) (A)
                 (A) (A) (A) (A) (A) (A) (A) (A) (A) (A) (A) (A)
                 (A) (A) (A) (A) (A) (A) (A) (A) (A) (A) (A) (A)
                 (A) (A) (A) (A) (A) (A) (A) (A) (A) (A) (A) (A)
                 (A) (A) (A) (A) (A) (A) (A) (A) (A) (A) (A) (A)
                 (A) (A) (A) (A) (A) (A) (A) (A) (A) (A) (A) (A)
                 (A) (A) (A) (A) (A) (A) (A) (A) (A) (A) (A) (A)
                 (A) (A) (A) (A) (A) (A) (A) (A) (A) (A) (A) (A)
                 (A) (A) (A) (A) (A) (A) (A) (A) (A) (A) (A) (A)
                 (A) (A) (A) (A) (A) (A) (A) (A) (A) (A) (A) (A)
                 (A) (A) (A) (A) (A) (A) (A) (A) (A) (A) (A) (A)
                 (A) (A) (A) (A) (A) (A) (A) (A) (A) (A) (A) (A)
                 (A) (A) (A) (A) (A) (A) (A) (A) (A) (A) (A) (A)
                 (A) (A) (A) (A) (A) (A) (A) (A) (A) (A)
 The electronic state is 1-A.
 Alpha  occ. eigenvalues -- -101.55234-101.55041 -19.22740 -19.22589 -19.17105
 Alpha  occ. eigenvalues --  -19.17084 -14.44459 -14.44373 -10.36777 -10.36727
 Alpha  occ. eigenvalues --  -10.27498 -10.27195 -10.25505 -10.25260 -10.21815
 Alpha  occ. eigenvalues --  -10.21642 -10.21105 -10.21017 -10.20906 -10.20901
 Alpha  occ. eigenvalues --  -10.20850 -10.20742 -10.20692 -10.20574  -9.46927
 Alpha  occ. eigenvalues --   -9.46734  -7.23314  -7.23120  -7.22353  -7.22317
 Alpha  occ. eigenvalues --   -7.22161  -7.22124  -1.15586  -1.13666  -1.08650
 Alpha  occ. eigenvalues --   -1.04535  -1.03495  -0.90086  -0.89867  -0.86344
 Alpha  occ. eigenvalues --   -0.85076  -0.84152  -0.78587  -0.76859  -0.76381
 Alpha  occ. eigenvalues --   -0.76173  -0.72284  -0.70053  -0.64861  -0.63084
 Alpha  occ. eigenvalues --   -0.62581  -0.60744  -0.59369  -0.57440  -0.55762
 Alpha  occ. eigenvalues --   -0.54187  -0.53118  -0.51949  -0.50839  -0.50238
 Alpha  occ. eigenvalues --   -0.49345  -0.48299  -0.48130  -0.47822  -0.47288
 Alpha  occ. eigenvalues --   -0.46553  -0.45930  -0.45325  -0.44331  -0.43795
 Alpha  occ. eigenvalues --   -0.43728  -0.42254  -0.40393  -0.40244  -0.39644
 Alpha  occ. eigenvalues --   -0.39169  -0.38441  -0.37566  -0.37236  -0.36715
 Alpha  occ. eigenvalues --   -0.36509  -0.33872  -0.33310  -0.33012  -0.32794
 Alpha  occ. eigenvalues --   -0.32556  -0.31577  -0.31386  -0.30435  -0.28031
 Alpha  occ. eigenvalues --   -0.26738  -0.26272  -0.24526  -0.24119
 Alpha virt. eigenvalues --   -0.14929  -0.02180  -0.01828  -0.01668  -0.01393
 Alpha virt. eigenvalues --   -0.00513   0.02650   0.03704   0.04039   0.08723
 Alpha virt. eigenvalues --    0.09773   0.10257   0.10747   0.11407   0.11494
 Alpha virt. eigenvalues --    0.11823   0.12053   0.13318   0.13478   0.16048
 Alpha virt. eigenvalues --    0.16147   0.17470   0.17655   0.18909   0.19271
 Alpha virt. eigenvalues --    0.21653   0.22231   0.22317   0.23340   0.27234
 Alpha virt. eigenvalues --    0.27413   0.27682   0.27946   0.28324   0.28730
 Alpha virt. eigenvalues --    0.29692   0.29979   0.32162   0.33001   0.33412
 Alpha virt. eigenvalues --    0.38469   0.39185   0.39984   0.40250   0.40705
 Alpha virt. eigenvalues --    0.41750   0.41825   0.42424   0.44015   0.44196
 Alpha virt. eigenvalues --    0.46267   0.47071   0.47805   0.48747   0.50345
 Alpha virt. eigenvalues --    0.51572   0.52354   0.52830   0.53386   0.53681
 Alpha virt. eigenvalues --    0.54771   0.55115   0.55714   0.56086   0.56798
 Alpha virt. eigenvalues --    0.57427   0.57878   0.57913   0.58591   0.58791
 Alpha virt. eigenvalues --    0.59133   0.59507   0.60065   0.60478   0.60748
 Alpha virt. eigenvalues --    0.61530   0.61948   0.62460   0.63037   0.63775
 Alpha virt. eigenvalues --    0.64662   0.65360   0.65593   0.66441   0.67262
 Alpha virt. eigenvalues --    0.68296   0.69000   0.71130   0.71614   0.72983
 Alpha virt. eigenvalues --    0.74089   0.74734   0.75396   0.75759   0.77010
 Alpha virt. eigenvalues --    0.78093   0.80135   0.80290   0.80759   0.81394
 Alpha virt. eigenvalues --    0.82147   0.82705   0.83729   0.84723   0.85008
 Alpha virt. eigenvalues --    0.85421   0.86490   0.86827   0.87055   0.87374
 Alpha virt. eigenvalues --    0.88123   0.88777   0.89698   0.89954   0.90593
 Alpha virt. eigenvalues --    0.91168   0.91558   0.92636   0.93149   0.93246
 Alpha virt. eigenvalues --    0.95254   0.96394   0.98178   0.98902   0.99929
 Alpha virt. eigenvalues --    1.00742   1.01486   1.02905   1.03140   1.05001
 Alpha virt. eigenvalues --    1.05865   1.07796   1.08611   1.10176   1.10200
 Alpha virt. eigenvalues --    1.11752   1.12308   1.12511   1.13612   1.14039
 Alpha virt. eigenvalues --    1.15701   1.17586   1.18619   1.19162   1.20216
 Alpha virt. eigenvalues --    1.21502   1.23001   1.24619   1.25897   1.28527
 Alpha virt. eigenvalues --    1.31013   1.31965   1.33579   1.34645   1.35719
 Alpha virt. eigenvalues --    1.38712   1.39260   1.40266   1.40658   1.41775
 Alpha virt. eigenvalues --    1.43364   1.44712   1.44947   1.45504   1.46066
 Alpha virt. eigenvalues --    1.46513   1.48258   1.48703   1.49849   1.51297
 Alpha virt. eigenvalues --    1.54905   1.55240   1.55683   1.57098   1.60580
 Alpha virt. eigenvalues --    1.63635   1.66289   1.67133   1.68041   1.70538
 Alpha virt. eigenvalues --    1.71188   1.74849   1.76124   1.76881   1.76970
 Alpha virt. eigenvalues --    1.77521   1.78257   1.80495   1.80646   1.82349
 Alpha virt. eigenvalues --    1.82690   1.84615   1.85245   1.86182   1.86817
 Alpha virt. eigenvalues --    1.87812   1.89601   1.92462   1.93435   1.94366
 Alpha virt. eigenvalues --    1.94675   1.96179   1.97043   1.98725   2.00063
 Alpha virt. eigenvalues --    2.00435   2.01551   2.03300   2.05169   2.06207
 Alpha virt. eigenvalues --    2.06695   2.07048   2.09682   2.12015   2.13147
 Alpha virt. eigenvalues --    2.13576   2.13707   2.14119   2.15172   2.15454
 Alpha virt. eigenvalues --    2.17694   2.19575   2.21419   2.22711   2.23346
 Alpha virt. eigenvalues --    2.23905   2.25550   2.28066   2.28984   2.29423
 Alpha virt. eigenvalues --    2.31947   2.33295   2.35781   2.36468   2.37667
 Alpha virt. eigenvalues --    2.38215   2.42189   2.44186   2.48332   2.50935
 Alpha virt. eigenvalues --    2.56092   2.56640   2.58909   2.59605   2.62189
 Alpha virt. eigenvalues --    2.62626   2.63347   2.63755   2.65931   2.66709
 Alpha virt. eigenvalues --    2.67619   2.70443   2.70616   2.72968   2.73759
 Alpha virt. eigenvalues --    2.74732   2.76013   2.77799   2.78642   2.79514
 Alpha virt. eigenvalues --    2.82359   2.84998   2.86370   2.87290   2.92898
 Alpha virt. eigenvalues --    2.95139   3.03954   3.05474   3.06600   3.10151
 Alpha virt. eigenvalues --    3.19396   3.24655   3.36290   3.36561   3.77779
 Alpha virt. eigenvalues --    3.91282   4.01847   4.03625   4.05464   4.05579
 Alpha virt. eigenvalues --    4.09465   4.09735   4.10647   4.17617   4.22692
 Alpha virt. eigenvalues --    4.22899   4.24081   4.26838   4.29896   4.30392
 Alpha virt. eigenvalues --    4.31822   4.35348   4.36346   4.37862   4.43765
 Alpha virt. eigenvalues --    4.46468   4.68411   4.68893
          Condensed to atoms (all electrons):
               1          2          3          4          5          6
     1  C    4.776469   0.320762  -0.035146   0.000235  -0.004465  -0.000111
     2  C    0.320762   4.976532   0.209614  -0.027215   0.008400   0.004568
     3  O   -0.035146   0.209614   8.215737   0.271247  -0.078280  -0.091679
     4  C    0.000235  -0.027215   0.271247   4.340636   0.486707   0.247666
     5  O   -0.004465   0.008400  -0.078280   0.486707   8.091654  -0.074578
     6  N   -0.000111   0.004568  -0.091679   0.247666  -0.074578   6.927445
     7  N    0.000072  -0.000089   0.002362  -0.062940   0.000091   0.247297
     8  C    0.000000   0.000005  -0.000177   0.006491   0.000092  -0.055836
     9  O    0.000000   0.000000   0.000005   0.000179  -0.000005  -0.000375
    10  O    0.000000  -0.000000   0.000000  -0.000179   0.000007   0.002113
    11  C    0.000000   0.000000  -0.000000   0.000003   0.000000  -0.000049
    12  C   -0.000000  -0.000000   0.000000   0.000000  -0.000000   0.000021
    13  C    0.000000   0.000000   0.000000   0.000000  -0.000000  -0.000261
    14  C    0.000000  -0.000000   0.000000  -0.000000   0.000000  -0.000001
    15  C   -0.000000  -0.000000  -0.000000   0.000000   0.000000   0.000000
    16  C   -0.000000   0.000000   0.000000  -0.000000  -0.000000  -0.000000
    17  C    0.000000  -0.000000   0.000000   0.000000   0.000000  -0.000000
    18  Cl  -0.000000  -0.000000   0.000000  -0.000000  -0.000000  -0.000000
    19  C    0.547631  -0.061726   0.000413   0.008356  -0.011970  -0.001647
    20  C   -0.022997   0.006494   0.000795  -0.000630  -0.001272  -0.000029
    21  C   -0.032390   0.000507  -0.000011  -0.000025  -0.000014  -0.000000
    22  C   -0.016158   0.005045  -0.000062  -0.000025   0.000040  -0.000000
    23  C    0.522542  -0.056265   0.002125   0.000312  -0.000987  -0.000009
    24  Cl   0.000725   0.000008   0.000000  -0.000000   0.000000   0.000000
    25  H   -0.036403   0.373283  -0.026961   0.004267   0.000172  -0.000063
    26  H   -0.039979   0.359495  -0.027770  -0.006016   0.006122  -0.000077
    27  H    0.000000  -0.000000   0.000000  -0.000000   0.000000  -0.000001
    28  H   -0.000000   0.000000  -0.000000   0.000000   0.000000  -0.000008
    29  H   -0.000000  -0.000000   0.000000  -0.000010   0.000002   0.001211
    30  H    0.000000   0.000000   0.000000   0.000000   0.000000  -0.000001
    31  H    0.000000   0.000000  -0.000000   0.000000  -0.000000  -0.000000
    32  H    0.000000  -0.000000   0.000000  -0.000000   0.000000   0.000000
    33  H   -0.049781  -0.011565   0.002055   0.001174  -0.011585  -0.002058
    34  H    0.003792  -0.000186   0.000007   0.000048   0.000000  -0.000001
    35  H    0.003581  -0.000145   0.000000   0.000000  -0.000000   0.000000
    36  H   -0.053764  -0.006755   0.000055  -0.000001  -0.000014  -0.000000
               7          8          9         10         11         12
     1  C    0.000072   0.000000   0.000000   0.000000   0.000000  -0.000000
     2  C   -0.000089   0.000005   0.000000  -0.000000   0.000000  -0.000000
     3  O    0.002362  -0.000177   0.000005   0.000000  -0.000000   0.000000
     4  C   -0.062940   0.006491   0.000179  -0.000179   0.000003   0.000000
     5  O    0.000091   0.000092  -0.000005   0.000007   0.000000  -0.000000
     6  N    0.247297  -0.055836  -0.000375   0.002113  -0.000049   0.000021
     7  N    6.921478   0.249806  -0.074994  -0.088330   0.003938  -0.000282
     8  C    0.249806   4.268042   0.523653   0.278926  -0.019832  -0.002486
     9  O   -0.074994   0.523653   8.041273  -0.078276  -0.001307  -0.001096
    10  O   -0.088330   0.278926  -0.078276   8.216449   0.203086  -0.035393
    11  C    0.003938  -0.019832  -0.001307   0.203086   5.003544   0.327807
    12  C   -0.000282  -0.002486  -0.001096  -0.035393   0.327807   4.759128
    13  C   -0.001128   0.004776   0.000806  -0.003958  -0.059317   0.554827
    14  C   -0.000006  -0.000263  -0.000120   0.000653   0.006546  -0.020765
    15  C    0.000000  -0.000009   0.000000  -0.000009   0.000457  -0.032585
    16  C   -0.000000  -0.000009   0.000011  -0.000065   0.005126  -0.014384
    17  C   -0.000004  -0.000064  -0.000549   0.002301  -0.058999   0.513211
    18  Cl   0.000000  -0.000000   0.000000   0.000000   0.000009   0.000723
    19  C   -0.000999  -0.000003  -0.000000   0.000000  -0.000000   0.000000
    20  C   -0.000007  -0.000000   0.000000  -0.000000  -0.000000   0.000000
    21  C    0.000000  -0.000000  -0.000000  -0.000000  -0.000000  -0.000000
    22  C   -0.000000   0.000000  -0.000000   0.000000   0.000000   0.000000
    23  C    0.000000  -0.000000   0.000000  -0.000000   0.000000   0.000000
    24  Cl  -0.000000  -0.000000   0.000000   0.000000  -0.000000  -0.000000
    25  H    0.000002  -0.000000   0.000000   0.000000  -0.000000   0.000000
    26  H   -0.000008  -0.000000   0.000000  -0.000000  -0.000000   0.000000
    27  H   -0.000053   0.003581   0.000333  -0.024462   0.366165  -0.038644
    28  H    0.000357  -0.009156   0.017194  -0.032203   0.355654  -0.039838
    29  H    0.000642   0.000521  -0.002295   0.008597  -0.013684  -0.044533
    30  H   -0.000000   0.000011  -0.000001   0.000004  -0.000180   0.003726
    31  H    0.000000   0.000000   0.000000   0.000000  -0.000145   0.003435
    32  H   -0.000000  -0.000007  -0.000011   0.000051  -0.006733  -0.052769
    33  H    0.004652  -0.000063   0.000002  -0.000000  -0.000000  -0.000000
    34  H   -0.000006   0.000000   0.000000   0.000000   0.000000   0.000000
    35  H   -0.000000   0.000000  -0.000000  -0.000000   0.000000   0.000000
    36  H    0.000000   0.000000   0.000000   0.000000   0.000000  -0.000000
              13         14         15         16         17         18
     1  C    0.000000   0.000000  -0.000000  -0.000000   0.000000  -0.000000
     2  C    0.000000  -0.000000  -0.000000   0.000000  -0.000000  -0.000000
     3  O    0.000000   0.000000  -0.000000   0.000000   0.000000   0.000000
     4  C    0.000000  -0.000000   0.000000  -0.000000   0.000000  -0.000000
     5  O   -0.000000   0.000000   0.000000  -0.000000   0.000000  -0.000000
     6  N   -0.000261  -0.000001   0.000000  -0.000000  -0.000000  -0.000000
     7  N   -0.001128  -0.000006   0.000000  -0.000000  -0.000004   0.000000
     8  C    0.004776  -0.000263  -0.000009  -0.000009  -0.000064  -0.000000
     9  O    0.000806  -0.000120   0.000000   0.000011  -0.000549   0.000000
    10  O   -0.003958   0.000653  -0.000009  -0.000065   0.002301   0.000000
    11  C   -0.059317   0.006546   0.000457   0.005126  -0.058999   0.000009
    12  C    0.554827  -0.020765  -0.032585  -0.014384   0.513211   0.000723
    13  C    4.922287   0.503427  -0.029399  -0.042221  -0.028933   0.004498
    14  C    0.503427   4.942630   0.531021  -0.034635  -0.043005  -0.071418
    15  C   -0.029399   0.531021   4.931541   0.532346  -0.031714   0.237344
    16  C   -0.042221  -0.034635   0.532346   4.923106   0.512331  -0.071247
    17  C   -0.028933  -0.043005  -0.031714   0.512331   4.966488   0.004622
    18  Cl   0.004498  -0.071418   0.237344  -0.071247   0.004622  16.905133
    19  C   -0.000000  -0.000000   0.000000   0.000000  -0.000000   0.000000
    20  C   -0.000000   0.000000   0.000000  -0.000000   0.000000   0.000000
    21  C   -0.000000   0.000000  -0.000000  -0.000000   0.000000   0.000000
    22  C    0.000000  -0.000000  -0.000000   0.000000  -0.000000   0.000000
    23  C   -0.000000   0.000000   0.000000  -0.000000   0.000000   0.000000
    24  Cl   0.000000   0.000000   0.000000   0.000000   0.000000   0.000000
    25  H   -0.000000   0.000000   0.000000  -0.000000   0.000000  -0.000000
    26  H   -0.000000   0.000000   0.000000  -0.000000   0.000000   0.000000
    27  H    0.000731  -0.000086   0.000020  -0.000152  -0.001564  -0.000000
    28  H    0.001870  -0.000048   0.000019  -0.000092  -0.002074  -0.000000
    29  H    0.351747  -0.040911   0.004664   0.000368   0.005887  -0.000169
    30  H   -0.034972   0.359741  -0.043645   0.004210   0.000847  -0.000363
    31  H    0.000710   0.004379  -0.042815   0.359816  -0.035494  -0.000315
    32  H    0.005029   0.000510   0.004697  -0.040709   0.362470  -0.000176
    33  H   -0.000000   0.000000   0.000000  -0.000000   0.000000   0.000000
    34  H   -0.000000  -0.000000   0.000000   0.000000  -0.000000   0.000000
    35  H   -0.000000  -0.000000   0.000000   0.000000   0.000000   0.000000
    36  H   -0.000000   0.000000   0.000000  -0.000000   0.000000   0.000000
              19         20         21         22         23         24
     1  C    0.547631  -0.022997  -0.032390  -0.016158   0.522542   0.000725
     2  C   -0.061726   0.006494   0.000507   0.005045  -0.056265   0.000008
     3  O    0.000413   0.000795  -0.000011  -0.000062   0.002125   0.000000
     4  C    0.008356  -0.000630  -0.000025  -0.000025   0.000312  -0.000000
     5  O   -0.011970  -0.001272  -0.000014   0.000040  -0.000987   0.000000
     6  N   -0.001647  -0.000029  -0.000000  -0.000000  -0.000009   0.000000
     7  N   -0.000999  -0.000007   0.000000  -0.000000   0.000000  -0.000000
     8  C   -0.000003  -0.000000  -0.000000   0.000000  -0.000000  -0.000000
     9  O   -0.000000   0.000000  -0.000000  -0.000000   0.000000   0.000000
    10  O    0.000000  -0.000000  -0.000000   0.000000  -0.000000   0.000000
    11  C   -0.000000  -0.000000  -0.000000   0.000000   0.000000  -0.000000
    12  C    0.000000   0.000000  -0.000000   0.000000   0.000000  -0.000000
    13  C   -0.000000  -0.000000  -0.000000   0.000000  -0.000000   0.000000
    14  C   -0.000000   0.000000   0.000000  -0.000000   0.000000   0.000000
    15  C    0.000000   0.000000  -0.000000  -0.000000   0.000000   0.000000
    16  C    0.000000  -0.000000  -0.000000   0.000000  -0.000000   0.000000
    17  C   -0.000000   0.000000   0.000000  -0.000000   0.000000   0.000000
    18  Cl   0.000000   0.000000   0.000000   0.000000   0.000000   0.000000
    19  C    4.904930   0.509135  -0.029251  -0.042105  -0.027459   0.004641
    20  C    0.509135   4.947548   0.529307  -0.035339  -0.041793  -0.070878
    21  C   -0.029251   0.529307   4.932298   0.534970  -0.032338   0.236115
    22  C   -0.042105  -0.035339   0.534970   4.923166   0.512560  -0.071470
    23  C   -0.027459  -0.041793  -0.032338   0.512560   4.959667   0.004670
    24  Cl   0.004641  -0.070878   0.236115  -0.071470   0.004670  16.907727
    25  H   -0.000881  -0.000118   0.000022  -0.000120  -0.001187  -0.000000
    26  H    0.003156  -0.000010   0.000012  -0.000129  -0.002494  -0.000000
    27  H   -0.000000   0.000000   0.000000  -0.000000   0.000000   0.000000
    28  H    0.000000  -0.000000   0.000000   0.000000  -0.000000  -0.000000
    29  H    0.000000   0.000000   0.000000  -0.000000   0.000000  -0.000000
    30  H   -0.000000  -0.000000   0.000000   0.000000  -0.000000   0.000000
    31  H   -0.000000  -0.000000   0.000000   0.000000   0.000000   0.000000
    32  H   -0.000000   0.000000   0.000000  -0.000000   0.000000  -0.000000
    33  H    0.349858  -0.034708   0.004609   0.000511   0.005208  -0.000174
    34  H   -0.033911   0.358963  -0.043787   0.004158   0.000890  -0.000361
    35  H    0.000699   0.004390  -0.042975   0.359720  -0.035898  -0.000330
    36  H    0.004811   0.000535   0.004755  -0.040368   0.362501  -0.000177
              25         26         27         28         29         30
     1  C   -0.036403  -0.039979   0.000000  -0.000000  -0.000000   0.000000
     2  C    0.373283   0.359495  -0.000000   0.000000  -0.000000   0.000000
     3  O   -0.026961  -0.027770   0.000000  -0.000000   0.000000   0.000000
     4  C    0.004267  -0.006016  -0.000000   0.000000  -0.000010   0.000000
     5  O    0.000172   0.006122   0.000000   0.000000   0.000002   0.000000
     6  N   -0.000063  -0.000077  -0.000001  -0.000008   0.001211  -0.000001
     7  N    0.000002  -0.000008  -0.000053   0.000357   0.000642  -0.000000
     8  C   -0.000000  -0.000000   0.003581  -0.009156   0.000521   0.000011
     9  O    0.000000   0.000000   0.000333   0.017194  -0.002295  -0.000001
    10  O    0.000000  -0.000000  -0.024462  -0.032203   0.008597   0.000004
    11  C   -0.000000  -0.000000   0.366165   0.355654  -0.013684  -0.000180
    12  C    0.000000   0.000000  -0.038644  -0.039838  -0.044533   0.003726
    13  C   -0.000000  -0.000000   0.000731   0.001870   0.351747  -0.034972
    14  C    0.000000   0.000000  -0.000086  -0.000048  -0.040911   0.359741
    15  C    0.000000   0.000000   0.000020   0.000019   0.004664  -0.043645
    16  C   -0.000000  -0.000000  -0.000152  -0.000092   0.000368   0.004210
    17  C    0.000000   0.000000  -0.001564  -0.002074   0.005887   0.000847
    18  Cl  -0.000000   0.000000  -0.000000  -0.000000  -0.000169  -0.000363
    19  C   -0.000881   0.003156  -0.000000   0.000000   0.000000  -0.000000
    20  C   -0.000118  -0.000010   0.000000  -0.000000   0.000000  -0.000000
    21  C    0.000022   0.000012   0.000000   0.000000   0.000000   0.000000
    22  C   -0.000120  -0.000129  -0.000000   0.000000  -0.000000   0.000000
    23  C   -0.001187  -0.002494   0.000000  -0.000000   0.000000  -0.000000
    24  Cl  -0.000000  -0.000000   0.000000  -0.000000  -0.000000   0.000000
    25  H    0.536186  -0.038158   0.000000  -0.000000   0.000000  -0.000000
    26  H   -0.038158   0.556411  -0.000000  -0.000000   0.000000  -0.000000
    27  H    0.000000  -0.000000   0.541829  -0.037035   0.000032   0.000003
    28  H   -0.000000  -0.000000  -0.037035   0.551580   0.000514   0.000002
    29  H    0.000000   0.000000   0.000032   0.000514   0.589806  -0.005562
    30  H   -0.000000  -0.000000   0.000003   0.000002  -0.005562   0.559478
    31  H   -0.000000  -0.000000   0.000002   0.000001   0.000015  -0.000173
    32  H    0.000000   0.000000   0.002065   0.002031  -0.000162   0.000016
    33  H   -0.000150   0.000378   0.000000  -0.000000   0.000000  -0.000000
    34  H    0.000003   0.000002  -0.000000  -0.000000   0.000000  -0.000000
    35  H    0.000001   0.000002  -0.000000   0.000000   0.000000  -0.000000
    36  H    0.001719   0.002199   0.000000  -0.000000   0.000000  -0.000000
              31         32         33         34         35         36
     1  C    0.000000   0.000000  -0.049781   0.003792   0.003581  -0.053764
     2  C    0.000000  -0.000000  -0.011565  -0.000186  -0.000145  -0.006755
     3  O   -0.000000   0.000000   0.002055   0.000007   0.000000   0.000055
     4  C    0.000000  -0.000000   0.001174   0.000048   0.000000  -0.000001
     5  O   -0.000000   0.000000  -0.011585   0.000000  -0.000000  -0.000014
     6  N   -0.000000   0.000000  -0.002058  -0.000001   0.000000  -0.000000
     7  N    0.000000  -0.000000   0.004652  -0.000006  -0.000000   0.000000
     8  C    0.000000  -0.000007  -0.000063   0.000000   0.000000   0.000000
     9  O    0.000000  -0.000011   0.000002   0.000000  -0.000000   0.000000
    10  O    0.000000   0.000051  -0.000000   0.000000  -0.000000   0.000000
    11  C   -0.000145  -0.006733  -0.000000   0.000000   0.000000   0.000000
    12  C    0.003435  -0.052769  -0.000000   0.000000   0.000000  -0.000000
    13  C    0.000710   0.005029  -0.000000  -0.000000  -0.000000  -0.000000
    14  C    0.004379   0.000510   0.000000  -0.000000  -0.000000   0.000000
    15  C   -0.042815   0.004697   0.000000   0.000000   0.000000   0.000000
    16  C    0.359816  -0.040709  -0.000000   0.000000   0.000000  -0.000000
    17  C   -0.035494   0.362470   0.000000  -0.000000   0.000000   0.000000
    18  Cl  -0.000315  -0.000176   0.000000   0.000000   0.000000   0.000000
    19  C   -0.000000  -0.000000   0.349858  -0.033911   0.000699   0.004811
    20  C   -0.000000   0.000000  -0.034708   0.358963   0.004390   0.000535
    21  C    0.000000   0.000000   0.004609  -0.043787  -0.042975   0.004755
    22  C    0.000000  -0.000000   0.000511   0.004158   0.359720  -0.040368
    23  C    0.000000   0.000000   0.005208   0.000890  -0.035898   0.362501
    24  Cl   0.000000  -0.000000  -0.000174  -0.000361  -0.000330  -0.000177
    25  H   -0.000000   0.000000  -0.000150   0.000003   0.000001   0.001719
    26  H   -0.000000   0.000000   0.000378   0.000002   0.000002   0.002199
    27  H    0.000002   0.002065   0.000000  -0.000000  -0.000000   0.000000
    28  H    0.000001   0.002031  -0.000000  -0.000000   0.000000  -0.000000
    29  H    0.000015  -0.000162   0.000000   0.000000   0.000000   0.000000
    30  H   -0.000173   0.000016  -0.000000  -0.000000  -0.000000  -0.000000
    31  H    0.560363  -0.005690   0.000000  -0.000000   0.000000   0.000000
    32  H   -0.005690   0.594076   0.000000  -0.000000   0.000000   0.000000
    33  H    0.000000   0.000000   0.596426  -0.005695   0.000015  -0.000176
    34  H   -0.000000  -0.000000  -0.005695   0.559686  -0.000175   0.000017
    35  H    0.000000   0.000000   0.000015  -0.000175   0.562951  -0.005788
    36  H    0.000000   0.000000  -0.000176   0.000017  -0.005788   0.597612
 Mulliken charges:
               1
     1  C    0.115386
     2  C   -0.100768
     3  O   -0.444329
     4  C    0.729719
     5  O   -0.410118
     6  N   -0.203539
     7  N   -0.201850
     8  C    0.752002
     9  O   -0.424427
    10  O   -0.449312
    11  C   -0.112089
    12  C    0.119895
    13  C   -0.150519
    14  C   -0.137649
    15  C   -0.061935
    16  C   -0.133799
    17  C   -0.165758
    18  Cl  -0.008641
    19  C   -0.123678
    20  C   -0.149386
    21  C   -0.061804
    22  C   -0.134394
    23  C   -0.172045
    24  Cl  -0.010497
    25  H    0.188386
    26  H    0.186865
    27  H    0.187238
    28  H    0.191232
    29  H    0.143321
    30  H    0.156859
    31  H    0.155911
    32  H    0.135310
    33  H    0.151069
    34  H    0.156557
    35  H    0.153950
    36  H    0.132838
 Sum of Mulliken charges =  -0.00000
 Mulliken charges with hydrogens summed into heavy atoms:
               1
     1  C    0.115386
     2  C    0.274483
     3  O   -0.444329
     4  C    0.729719
     5  O   -0.410118
     6  N   -0.203539
     7  N   -0.201850
     8  C    0.752002
     9  O   -0.424427
    10  O   -0.449312
    11  C    0.266381
    12  C    0.119895
    13  C   -0.007198
    14  C    0.019210
    15  C   -0.061935
    16  C    0.022112
    17  C   -0.030447
    18  Cl  -0.008641
    19  C    0.027391
    20  C    0.007171
    21  C   -0.061804
    22  C    0.019556
    23  C   -0.039207
    24  Cl  -0.010497
 APT charges:
               1
     1  C   -0.032151
     2  C    0.591312
     3  O   -0.863040
     4  C    1.214111
     5  O   -0.623886
     6  N   -0.157229
     7  N   -0.281181
     8  C    1.361797
     9  O   -0.663096
    10  O   -0.952692
    11  C    0.605885
    12  C   -0.013517
    13  C   -0.024676
    14  C   -0.086737
    15  C    0.419781
    16  C   -0.104995
    17  C   -0.000884
    18  Cl  -0.358172
    19  C   -0.013418
    20  C   -0.074318
    21  C    0.407442
    22  C   -0.116223
    23  C    0.022913
    24  Cl  -0.361373
    25  H   -0.029919
    26  H   -0.057778
    27  H   -0.037517
    28  H   -0.038506
    29  H    0.030141
    30  H    0.045878
    31  H    0.042223
    32  H    0.021255
    33  H    0.021388
    34  H    0.047607
    35  H    0.042135
    36  H    0.017441
 Sum of APT charges =  -0.00000
 APT charges with hydrogens summed into heavy atoms:
               1
     1  C   -0.032151
     2  C    0.503615
     3  O   -0.863040
     4  C    1.214111
     5  O   -0.623886
     6  N   -0.157229
     7  N   -0.281181
     8  C    1.361797
     9  O   -0.663096
    10  O   -0.952692
    11  C    0.529863
    12  C   -0.013517
    13  C    0.005464
    14  C   -0.040859
    15  C    0.419781
    16  C   -0.062772
    17  C    0.020371
    18  Cl  -0.358172
    19  C    0.007970
    20  C   -0.026711
    21  C    0.407442
    22  C   -0.074088
    23  C    0.040354
    24  Cl  -0.361373
 Electronic spatial extent (au):  <R**2>=          18136.5582
 Charge=             -0.0000 electrons
 Dipole moment (field-independent basis, Debye):
    X=             -0.0359    Y=              0.1139    Z=              0.6001  Tot=              0.6118
 Quadrupole moment (field-independent basis, Debye-Ang):
   XX=           -154.2866   YY=           -131.3728   ZZ=           -158.7000
   XY=            -27.9542   XZ=             -4.2040   YZ=             -3.2837
 Traceless Quadrupole moment (field-independent basis, Debye-Ang):
   XX=             -6.1668   YY=             16.7470   ZZ=            -10.5802
   XY=            -27.9542   XZ=             -4.2040   YZ=             -3.2837
 Octapole moment (field-independent basis, Debye-Ang**2):
  XXX=              2.0921  YYY=              2.3787  ZZZ=             -3.7486  XYY=             -5.2506
  XXY=              5.5500  XXZ=             35.3593  XZZ=             -4.0221  YZZ=              0.3447
  YYZ=              7.4699  XYZ=             -9.5440
 Hexadecapole moment (field-independent basis, Debye-Ang**3):
 XXXX=         -22353.6991 YYYY=          -1746.4367 ZZZZ=           -560.6163 XXXY=          -1008.3694
 XXXZ=            226.4414 YYYX=           -141.1359 YYYZ=             -7.0103 ZZZX=             -5.3266
 ZZZY=              7.9443 XXYY=          -3633.4895 XXZZ=          -3843.1791 YYZZ=           -405.4851
 XXYZ=            -62.7198 YYXZ=              3.8348 ZZXY=             22.9356
 N-N= 2.067294014862D+03 E-N=-8.714018504971D+03  KE= 1.935530140814D+03
  Exact polarizability: 315.920   3.676 219.227  22.465  -5.975 113.285
 Approx polarizability: 395.016   4.100 369.934  47.103  -4.967 203.525
 Calling FoFJK, ICntrl=    100127 FMM=F ISym2X=0 I1Cent= 0 IOpClX= 0 NMat=1 NMatS=1 NMatT=0.
 ***** Axes restored to original set *****
 -------------------------------------------------------------------
 Center     Atomic                   Forces (Hartrees/Bohr)
 Number     Number              X              Y              Z
 -------------------------------------------------------------------
      1        6          -0.001486526   -0.006757648   -0.009804384
      2        6          -0.007869327   -0.011494519   -0.010612908
      3        8          -0.004203209    0.012017517    0.012424733
      4        6           0.013989158   -0.070236326    0.007016185
      5        8           0.014245400    0.029918969    0.007266792
      6        7          -0.012076856    0.037664886    0.006056953
      7        7           0.010187646   -0.040335726   -0.007210717
      8        6          -0.008772894    0.078521124    0.007275511
      9        8          -0.014084371   -0.024416752    0.000313413
     10        8          -0.002432463   -0.015621017   -0.009937007
     11        6           0.016154688    0.016702432   -0.000924367
     12        6           0.005810955    0.003397426    0.005826911
     13        6          -0.003725564    0.003707798    0.001584889
     14        6           0.000822453   -0.004895901   -0.002367955
     15        6          -0.004204423   -0.007636333   -0.011925013
     16        6          -0.005379898    0.002044115   -0.005938255
     17        6           0.001926686   -0.003852614    0.004206274
     18       17           0.006008967    0.007869992    0.014230079
     19        6           0.002177741   -0.007402099   -0.008505605
     20        6           0.000455722    0.006645474    0.001188772
     21        6           0.008043322    0.009594276    0.008552867
     22        6           0.006295599   -0.001442021    0.003312800
     23        6          -0.005875330    0.003331970   -0.000202901
     24       17          -0.009547444   -0.010798275   -0.009718949
     25        1          -0.001633621    0.008758657    0.002505783
     26        1          -0.003757008    0.006105453    0.003818728
     27        1           0.002061794   -0.015206605   -0.001448381
     28        1          -0.001110337   -0.000046591   -0.000823798
     29        1          -0.002227413    0.003117047    0.002491645
     30        1          -0.000540694    0.001545807   -0.000155790
     31        1           0.001063160   -0.001044835    0.000512727
     32        1           0.000151507   -0.000849829    0.000084087
     33        1           0.000188588   -0.009139979   -0.009176449
     34        1           0.001039629   -0.001294047    0.000092402
     35        1          -0.001174814    0.000995021   -0.000506430
     36        1          -0.000520823    0.000533157    0.000497358
 -------------------------------------------------------------------
 Cartesian Forces:  Max     0.078521124 RMS     0.013818502
 FormGI is forming the generalized inverse of G from B-inverse, IUseBI=4.

 GradGradGradGradGradGradGradGradGradGradGradGradGradGradGradGradGradGrad
 Berny optimization.
 Internal  Forces:  Max     0.069585208 RMS     0.011521425
 Search for a local minimum.
 Step number   1 out of a maximum of  180
 All quantities printed in internal units (Hartrees-Bohrs-Radians)
 Mixed Optimization -- RFO/linear search
 Second derivative matrix not updated -- analytic derivatives used.
 ITU=  0
     Eigenvalues ---   -0.00609  -0.00377  -0.00143   0.00029   0.01084
     Eigenvalues ---    0.01129   0.01337   0.01586   0.01715   0.01716
     Eigenvalues ---    0.01776   0.01787   0.02007   0.02114   0.02189
     Eigenvalues ---    0.02199   0.02230   0.02475   0.02519   0.02642
     Eigenvalues ---    0.02670   0.02749   0.02788   0.02982   0.03031
     Eigenvalues ---    0.03880   0.06064   0.06520   0.06973   0.07440
     Eigenvalues ---    0.07655   0.09642   0.10125   0.10317   0.11376
     Eigenvalues ---    0.11413   0.11436   0.11649   0.11682   0.11984
     Eigenvalues ---    0.12031   0.12847   0.12855   0.13207   0.14203
     Eigenvalues ---    0.17296   0.17399   0.18049   0.18056   0.19021
     Eigenvalues ---    0.19139   0.19738   0.20166   0.20663   0.21097
     Eigenvalues ---    0.21708   0.22142   0.23584   0.24360   0.25218
     Eigenvalues ---    0.25910   0.26946   0.28283   0.29058   0.29081
     Eigenvalues ---    0.29233   0.29608   0.30307   0.31038   0.32791
     Eigenvalues ---    0.33254   0.33419   0.33678   0.34483   0.34812
     Eigenvalues ---    0.35550   0.35562   0.36094   0.36107   0.36251
     Eigenvalues ---    0.36304   0.36334   0.36397   0.39735   0.40814
     Eigenvalues ---    0.41284   0.41375   0.44175   0.45087   0.46586
[...]
   143    O   10  py     Ryd( 3p)     0.00155
   144    O   10  pz     Val( 2p)     1.68225
   145    O   10  pz     Ryd( 3p)     0.00151
   146    O   10  dxy    Ryd( 3d)     0.00052
   147    O   10  dxz    Ryd( 3d)     0.00161
   148    O   10  dyz    Ryd( 3d)     0.00198
   149    O   10  dx2y2  Ryd( 3d)     0.00035
   150    O   10  dz2    Ryd( 3d)     0.00145
 
   151    C   11  S      Cor( 1S)     1.99912
   152    C   11  S      Val( 2S)     1.03220
   153    C   11  S      Ryd( 3S)     0.00121
   154    C   11  S      Ryd( 4S)     0.00005
   155    C   11  px     Val( 2p)     0.78571
   156    C   11  px     Ryd( 3p)     0.00311
   157    C   11  py     Val( 2p)     1.03014
   158    C   11  py     Ryd( 3p)     0.00116
   159    C   11  pz     Val( 2p)     1.25771
   160    C   11  pz     Ryd( 3p)     0.00769
   161    C   11  dxy    Ryd( 3d)     0.00160
   162    C   11  dxz    Ryd( 3d)     0.00066
   163    C   11  dyz    Ryd( 3d)     0.00138
   164    C   11  dx2y2  Ryd( 3d)     0.00139
   165    C   11  dz2    Ryd( 3d)     0.00108
 
   166    C   12  S      Cor( 1S)     1.99901
   167    C   12  S      Val( 2S)     0.88852
   168    C   12  S      Ryd( 3S)     0.00068
   169    C   12  S      Ryd( 4S)     0.00006
   170    C   12  px     Val( 2p)     1.05234
   171    C   12  px     Ryd( 3p)     0.00390
   172    C   12  py     Val( 2p)     1.04629
   173    C   12  py     Ryd( 3p)     0.00244
   174    C   12  pz     Val( 2p)     1.09356
   175    C   12  pz     Ryd( 3p)     0.00445
   176    C   12  dxy    Ryd( 3d)     0.00052
   177    C   12  dxz    Ryd( 3d)     0.00066
   178    C   12  dyz    Ryd( 3d)     0.00066
   179    C   12  dx2y2  Ryd( 3d)     0.00037
   180    C   12  dz2    Ryd( 3d)     0.00058
 
   181    C   13  S      Cor( 1S)     1.99903
   182    C   13  S      Val( 2S)     0.95332
   183    C   13  S      Ryd( 3S)     0.00058
   184    C   13  S      Ryd( 4S)     0.00005
   185    C   13  px     Val( 2p)     1.03924
   186    C   13  px     Ryd( 3p)     0.00282
   187    C   13  py     Val( 2p)     1.01916
   188    C   13  py     Ryd( 3p)     0.00183
   189    C   13  pz     Val( 2p)     1.17519
   190    C   13  pz     Ryd( 3p)     0.00501
   191    C   13  dxy    Ryd( 3d)     0.00042
   192    C   13  dxz    Ryd( 3d)     0.00058
   193    C   13  dyz    Ryd( 3d)     0.00054
   194    C   13  dx2y2  Ryd( 3d)     0.00054
   195    C   13  dz2    Ryd( 3d)     0.00074
 
   196    C   14  S      Cor( 1S)     1.99893
   197    C   14  S      Val( 2S)     0.95910
   198    C   14  S      Ryd( 3S)     0.00097
   199    C   14  S      Ryd( 4S)     0.00005
   200    C   14  px     Val( 2p)     1.07568
   201    C   14  px     Ryd( 3p)     0.00383
   202    C   14  py     Val( 2p)     1.03829
   203    C   14  py     Ryd( 3p)     0.00256
   204    C   14  pz     Val( 2p)     1.15648
   205    C   14  pz     Ryd( 3p)     0.00479
   206    C   14  dxy    Ryd( 3d)     0.00043
   207    C   14  dxz    Ryd( 3d)     0.00067
   208    C   14  dyz    Ryd( 3d)     0.00054
   209    C   14  dx2y2  Ryd( 3d)     0.00046
   210    C   14  dz2    Ryd( 3d)     0.00060
 
   211    C   15  S      Cor( 1S)     1.99856
   212    C   15  S      Val( 2S)     0.93312
   213    C   15  S      Ryd( 3S)     0.00060
   214    C   15  S      Ryd( 4S)     0.00009
   215    C   15  px     Val( 2p)     0.97384
   216    C   15  px     Ryd( 3p)     0.00492
   217    C   15  py     Val( 2p)     1.00443
   218    C   15  py     Ryd( 3p)     0.00333
   219    C   15  pz     Val( 2p)     1.10393
   220    C   15  pz     Ryd( 3p)     0.00767
   221    C   15  dxy    Ryd( 3d)     0.00139
   222    C   15  dxz    Ryd( 3d)     0.00089
   223    C   15  dyz    Ryd( 3d)     0.00080
   224    C   15  dx2y2  Ryd( 3d)     0.00109
   225    C   15  dz2    Ryd( 3d)     0.00099
 
   226    C   16  S      Cor( 1S)     1.99894
   227    C   16  S      Val( 2S)     0.95984
   228    C   16  S      Ryd( 3S)     0.00097
   229    C   16  S      Ryd( 4S)     0.00005
   230    C   16  px     Val( 2p)     1.05124
   231    C   16  px     Ryd( 3p)     0.00368
   232    C   16  py     Val( 2p)     1.03468
   233    C   16  py     Ryd( 3p)     0.00256
   234    C   16  pz     Val( 2p)     1.18252
   235    C   16  pz     Ryd( 3p)     0.00495
   236    C   16  dxy    Ryd( 3d)     0.00040
   237    C   16  dxz    Ryd( 3d)     0.00064
   238    C   16  dyz    Ryd( 3d)     0.00056
   239    C   16  dx2y2  Ryd( 3d)     0.00046
   240    C   16  dz2    Ryd( 3d)     0.00065
 
   241    C   17  S      Cor( 1S)     1.99903
   242    C   17  S      Val( 2S)     0.95646
   243    C   17  S      Ryd( 3S)     0.00059
   244    C   17  S      Ryd( 4S)     0.00004
   245    C   17  px     Val( 2p)     1.05726
   246    C   17  px     Ryd( 3p)     0.00313
   247    C   17  py     Val( 2p)     1.01499
   248    C   17  py     Ryd( 3p)     0.00189
   249    C   17  pz     Val( 2p)     1.15781
   250    C   17  pz     Ryd( 3p)     0.00483
   251    C   17  dxy    Ryd( 3d)     0.00044
   252    C   17  dxz    Ryd( 3d)     0.00070
   253    C   17  dyz    Ryd( 3d)     0.00054
   254    C   17  dx2y2  Ryd( 3d)     0.00052
   255    C   17  dz2    Ryd( 3d)     0.00063
 
   256   Cl   18  S      Cor( 1S)     2.00000
   257   Cl   18  S      Cor( 2S)     1.99979
   258   Cl   18  S      Val( 3S)     1.83542
   259   Cl   18  S      Ryd( 4S)     0.00331
   260   Cl   18  S      Ryd( 5S)     0.00000
   261   Cl   18  px     Cor( 2p)     1.99994
   262   Cl   18  px     Val( 3p)     1.50781
   263   Cl   18  px     Ryd( 4p)     0.00306
   264   Cl   18  py     Cor( 2p)     1.99996
   265   Cl   18  py     Val( 3p)     1.67019
   266   Cl   18  py     Ryd( 4p)     0.00250
   267   Cl   18  pz     Cor( 2p)     1.99999
   268   Cl   18  pz     Val( 3p)     1.96525
   269   Cl   18  pz     Ryd( 4p)     0.00154
   270   Cl   18  dxy    Ryd( 3d)     0.00377
   271   Cl   18  dxz    Ryd( 3d)     0.00082
   272   Cl   18  dyz    Ryd( 3d)     0.00051
   273   Cl   18  dx2y2  Ryd( 3d)     0.00242
   274   Cl   18  dz2    Ryd( 3d)     0.00136
 
   275    C   19  S      Cor( 1S)     1.99903
   276    C   19  S      Val( 2S)     0.95646
   277    C   19  S      Ryd( 3S)     0.00059
   278    C   19  S      Ryd( 4S)     0.00004
   279    C   19  px     Val( 2p)     1.05727
   280    C   19  px     Ryd( 3p)     0.00313
   281    C   19  py     Val( 2p)     1.01498
   282    C   19  py     Ryd( 3p)     0.00189
   283    C   19  pz     Val( 2p)     1.15780
   284    C   19  pz     Ryd( 3p)     0.00483
   285    C   19  dxy    Ryd( 3d)     0.00044
   286    C   19  dxz    Ryd( 3d)     0.00070
   287    C   19  dyz    Ryd( 3d)     0.00054
   288    C   19  dx2y2  Ryd( 3d)     0.00052
   289    C   19  dz2    Ryd( 3d)     0.00063
 
   290    C   20  S      Cor( 1S)     1.99894
   291    C   20  S      Val( 2S)     0.95984
   292    C   20  S      Ryd( 3S)     0.00097
   293    C   20  S      Ryd( 4S)     0.00005
   294    C   20  px     Val( 2p)     1.05122
   295    C   20  px     Ryd( 3p)     0.00368
   296    C   20  py     Val( 2p)     1.03470
   297    C   20  py     Ryd( 3p)     0.00256
   298    C   20  pz     Val( 2p)     1.18252
   299    C   20  pz     Ryd( 3p)     0.00495
   300    C   20  dxy    Ryd( 3d)     0.00040
   301    C   20  dxz    Ryd( 3d)     0.00064
   302    C   20  dyz    Ryd( 3d)     0.00056
   303    C   20  dx2y2  Ryd( 3d)     0.00046
   304    C   20  dz2    Ryd( 3d)     0.00065
 
   305    C   21  S      Cor( 1S)     1.99856
   306    C   21  S      Val( 2S)     0.93312
   307    C   21  S      Ryd( 3S)     0.00060
   308    C   21  S      Ryd( 4S)     0.00009
   309    C   21  px     Val( 2p)     0.97385
   310    C   21  px     Ryd( 3p)     0.00492
   311    C   21  py     Val( 2p)     1.00442
   312    C   21  py     Ryd( 3p)     0.00333
   313    C   21  pz     Val( 2p)     1.10393
   314    C   21  pz     Ryd( 3p)     0.00767
   315    C   21  dxy    Ryd( 3d)     0.00139
   316    C   21  dxz    Ryd( 3d)     0.00089
   317    C   21  dyz    Ryd( 3d)     0.00080
   318    C   21  dx2y2  Ryd( 3d)     0.00109
   319    C   21  dz2    Ryd( 3d)     0.00099
 
   320    C   22  S      Cor( 1S)     1.99893
   321    C   22  S      Val( 2S)     0.95910
   322    C   22  S      Ryd( 3S)     0.00097
   323    C   22  S      Ryd( 4S)     0.00005
   324    C   22  px     Val( 2p)     1.07569
   325    C   22  px     Ryd( 3p)     0.00383
   326    C   22  py     Val( 2p)     1.03829
   327    C   22  py     Ryd( 3p)     0.00256
   328    C   22  pz     Val( 2p)     1.15647
   329    C   22  pz     Ryd( 3p)     0.00479
   330    C   22  dxy    Ryd( 3d)     0.00043
   331    C   22  dxz    Ryd( 3d)     0.00067
   332    C   22  dyz    Ryd( 3d)     0.00054
   333    C   22  dx2y2  Ryd( 3d)     0.00046
   334    C   22  dz2    Ryd( 3d)     0.00060
 
   335    C   23  S      Cor( 1S)     1.99903
   336    C   23  S      Val( 2S)     0.95332
   337    C   23  S      Ryd( 3S)     0.00058
   338    C   23  S      Ryd( 4S)     0.00005
   339    C   23  px     Val( 2p)     1.03923
   340    C   23  px     Ryd( 3p)     0.00282
   341    C   23  py     Val( 2p)     1.01918
   342    C   23  py     Ryd( 3p)     0.00183
   343    C   23  pz     Val( 2p)     1.17518
   344    C   23  pz     Ryd( 3p)     0.00501
   345    C   23  dxy    Ryd( 3d)     0.00042
   346    C   23  dxz    Ryd( 3d)     0.00058
   347    C   23  dyz    Ryd( 3d)     0.00054
   348    C   23  dx2y2  Ryd( 3d)     0.00054
   349    C   23  dz2    Ryd( 3d)     0.00074
 
   350   Cl   24  S      Cor( 1S)     2.00000
   351   Cl   24  S      Cor( 2S)     1.99979
   352   Cl   24  S      Val( 3S)     1.83542
   353   Cl   24  S      Ryd( 4S)     0.00331
   354   Cl   24  S      Ryd( 5S)     0.00000
   355   Cl   24  px     Cor( 2p)     1.99994
   356   Cl   24  px     Val( 3p)     1.50785
   357   Cl   24  px     Ryd( 4p)     0.00306
   358   Cl   24  py     Cor( 2p)     1.99996
   359   Cl   24  py     Val( 3p)     1.67015
   360   Cl   24  py     Ryd( 4p)     0.00250
   361   Cl   24  pz     Cor( 2p)     1.99999
   362   Cl   24  pz     Val( 3p)     1.96524
   363   Cl   24  pz     Ryd( 4p)     0.00154
   364   Cl   24  dxy    Ryd( 3d)     0.00377
   365   Cl   24  dxz    Ryd( 3d)     0.00082
   366   Cl   24  dyz    Ryd( 3d)     0.00051
   367   Cl   24  dx2y2  Ryd( 3d)     0.00242
   368   Cl   24  dz2    Ryd( 3d)     0.00136
 
   369    H   25  S      Val( 1S)     0.75500
   370    H   25  S      Ryd( 2S)     0.00111
 
   371    H   26  S      Val( 1S)     0.75420
   372    H   26  S      Ryd( 2S)     0.00217
 
   373    H   27  S      Val( 1S)     0.75499
   374    H   27  S      Ryd( 2S)     0.00111
 
   375    H   28  S      Val( 1S)     0.75420
   376    H   28  S      Ryd( 2S)     0.00217
 
   377    H   29  S      Val( 1S)     0.75506
   378    H   29  S      Ryd( 2S)     0.00100
 
   379    H   30  S      Val( 1S)     0.74245
   380    H   30  S      Ryd( 2S)     0.00101
 
   381    H   31  S      Val( 1S)     0.74181
   382    H   31  S      Ryd( 2S)     0.00100
 
   383    H   32  S      Val( 1S)     0.74021
   384    H   32  S      Ryd( 2S)     0.00132
 
   385    H   33  S      Val( 1S)     0.74020
   386    H   33  S      Ryd( 2S)     0.00132
 
   387    H   34  S      Val( 1S)     0.74181
   388    H   34  S      Ryd( 2S)     0.00100
 
   389    H   35  S      Val( 1S)     0.74245
   390    H   35  S      Ryd( 2S)     0.00101
 
   391    H   36  S      Val( 1S)     0.75506
   392    H   36  S      Ryd( 2S)     0.00100

 WARNING:  1 low occupancy (<1.9990e) core orbital  found on  C   14
           1 low occupancy (<1.9990e) core orbital  found on  C   15
           1 low occupancy (<1.9990e) core orbital  found on  C   16
           1 low occupancy (<1.9990e) core orbital  found on  C   20
           1 low occupancy (<1.9990e) core orbital  found on  C   21
           1 low occupancy (<1.9990e) core orbital  found on  C   22


 Summary of Natural Population Analysis:                  
                                                          
                                       Natural Population 
                Natural  -----------------------------------------------
    Atom  No    Charge         Core      Valence    Rydberg      Total
 -----------------------------------------------------------------------
      C    1   -0.09406      1.99901     4.08072    0.01433     6.09406
      C    2   -0.12421      1.99912     4.10576    0.01933     6.12421
      O    3   -0.52175      1.99973     6.50975    0.01227     8.52175
      C    4    0.91916      1.99950     3.03105    0.05029     5.08084
      O    5   -0.55586      1.99977     6.53539    0.02070     8.55586
      N    6   -0.21025      1.99938     5.18460    0.02627     7.21025
      N    7   -0.21025      1.99938     5.18460    0.02627     7.21025
      C    8    0.91916      1.99950     3.03105    0.05029     5.08084
      O    9   -0.55585      1.99977     6.53538    0.02070     8.55585
      O   10   -0.52176      1.99973     6.50975    0.01227     8.52176
      C   11   -0.12421      1.99912     4.10576    0.01933     6.12421
      C   12   -0.09406      1.99901     4.08072    0.01433     6.09406
      C   13   -0.19904      1.99903     4.18691    0.01310     6.19904
      C   14   -0.24340      1.99893     4.22956    0.01491     6.24340
      C   15   -0.03563      1.99856     4.01532    0.02175     6.03563
      C   16   -0.24214      1.99894     4.22828    0.01492     6.24214
      C   17   -0.19887      1.99903     4.18651    0.01332     6.19887
     Cl   18    0.00238      9.99967     6.97866    0.01929    16.99762
      C   19   -0.19887      1.99903     4.18652    0.01332     6.19887
      C   20   -0.24214      1.99894     4.22828    0.01492     6.24214
      C   21   -0.03563      1.99856     4.01532    0.02175     6.03563
      C   22   -0.24340      1.99893     4.22956    0.01491     6.24340
      C   23   -0.19904      1.99903     4.18691    0.01310     6.19904
     Cl   24    0.00238      9.99967     6.97866    0.01929    16.99762
      H   25    0.24389      0.00000     0.75500    0.00111     0.75611
      H   26    0.24364      0.00000     0.75420    0.00217     0.75636
      H   27    0.24390      0.00000     0.75499    0.00111     0.75610
      H   28    0.24363      0.00000     0.75420    0.00217     0.75637
      H   29    0.24394      0.00000     0.75506    0.00100     0.75606
      H   30    0.25654      0.00000     0.74245    0.00101     0.74346
      H   31    0.25719      0.00000     0.74181    0.00100     0.74281
      H   32    0.25847      0.00000     0.74021    0.00132     0.74153
      H   33    0.25848      0.00000     0.74020    0.00132     0.74152
      H   34    0.25719      0.00000     0.74181    0.00100     0.74281
      H   35    0.25654      0.00000     0.74245    0.00101     0.74346
      H   36    0.24394      0.00000     0.75506    0.00100     0.75606
 =======================================================================
   * Total *    0.00000     63.98134   123.52244    0.49622   188.00000

                                 Natural Population      
 --------------------------------------------------------
   Core                      63.98134 ( 99.9708% of  64)
   Valence                  123.52244 ( 99.6149% of 124)
   Natural Minimal Basis    187.50378 ( 99.7361% of 188)
   Natural Rydberg Basis      0.49622 (  0.2639% of 188)
 --------------------------------------------------------

    Atom  No          Natural Electron Configuration
 ----------------------------------------------------------------------------
      C    1      [core]2S( 0.89)2p( 3.19)3p( 0.01)
      C    2      [core]2S( 1.03)2p( 3.07)3p( 0.01)3d( 0.01)
      O    3      [core]2S( 1.63)2p( 4.88)3d( 0.01)
      C    4      [core]2S( 0.73)2p( 2.30)3p( 0.03)3d( 0.01)
      O    5      [core]2S( 1.71)2p( 4.83)3d( 0.02)
      N    6      [core]2S( 1.39)2p( 3.79)3S( 0.01)3p( 0.01)3d( 0.01)
      N    7      [core]2S( 1.39)2p( 3.79)3S( 0.01)3p( 0.01)3d( 0.01)
      C    8      [core]2S( 0.73)2p( 2.30)3p( 0.03)3d( 0.01)
      O    9      [core]2S( 1.71)2p( 4.83)3d( 0.02)
      O   10      [core]2S( 1.63)2p( 4.88)3d( 0.01)
      C   11      [core]2S( 1.03)2p( 3.07)3p( 0.01)3d( 0.01)
      C   12      [core]2S( 0.89)2p( 3.19)3p( 0.01)
      C   13      [core]2S( 0.95)2p( 3.23)3p( 0.01)
      C   14      [core]2S( 0.96)2p( 3.27)3p( 0.01)
      C   15      [core]2S( 0.93)2p( 3.08)3p( 0.02)3d( 0.01)
      C   16      [core]2S( 0.96)2p( 3.27)3p( 0.01)
      C   17      [core]2S( 0.96)2p( 3.23)3p( 0.01)
     Cl   18      [core]3S( 1.84)3p( 5.14)3d( 0.01)4p( 0.01)
      C   19      [core]2S( 0.96)2p( 3.23)3p( 0.01)
      C   20      [core]2S( 0.96)2p( 3.27)3p( 0.01)
      C   21      [core]2S( 0.93)2p( 3.08)3p( 0.02)3d( 0.01)
      C   22      [core]2S( 0.96)2p( 3.27)3p( 0.01)
      C   23      [core]2S( 0.95)2p( 3.23)3p( 0.01)
     Cl   24      [core]3S( 1.84)3p( 5.14)3d( 0.01)4p( 0.01)
      H   25            1S( 0.75)
      H   26            1S( 0.75)
      H   27            1S( 0.75)
      H   28            1S( 0.75)
      H   29            1S( 0.76)
      H   30            1S( 0.74)
      H   31            1S( 0.74)
      H   32            1S( 0.74)
      H   33            1S( 0.74)
      H   34            1S( 0.74)
      H   35            1S( 0.74)
      H   36            1S( 0.76)


 NBO analysis skipped by request.
 1\1\GINC-DELLA-R2C1N7\SP\RB3LYP TD-FC\6-31G(d)\C16H12Cl2N2O4\BJS4\22-A
 ug-2020\0\\# TD(NStates=10, Root=1) B3LYP/6-31G* scf=qc volume pop=NPA
  density=current Geom=AllCheck Guess=Read\\Title Card Required\\0,1\C,
 0,-4.1799814466,-1.0154431219,-1.8451229553\C,0,-3.6521788264,-0.25498
 28762,-0.6583325518\O,0,-4.3277767085,1.0365934808,-0.4963216852\C,0,-
 5.427010107,1.0338352369,0.2531889422\O,0,-5.9427928514,0.1024125795,0
 .820191899\N,0,-5.9173777076,2.3838136777,0.4402827881\N,0,-6.48709206
 01,2.8373409474,-0.5702421538\C,0,-6.977461216,4.1873170706,-0.3831515
 754\O,0,-6.4616467701,5.1187528062,-0.9501011767\O,0,-8.0767445812,4.1
 845429687,0.3662916987\C,0,-8.7523590463,5.4761071935,0.5282628225\C,0
 ,-8.2246361842,6.2365741814,1.7150871986\C,0,-8.7762126901,6.033967353
 9,2.9859104658\C,0,-8.294307063,6.7250213034,4.0960935329\C,0,-7.24678
 38821,7.6296203491,3.9252068059\C,0,-6.6785431639,7.8492676068,2.67064
 02182\C,0,-7.1713806725,7.1492119639,1.5707175769\Cl,0,-6.6345255875,8
 .5116573349,5.3163747508\C,0,-5.2334482269,-1.9278386094,-1.7007467869
 \C,0,-5.7263858542,-2.6278535991,-2.8006500254\C,0,-5.1580325608,-2.40
 84137828,-4.0552024147\C,0,-4.1102962656,-1.5040626951,-4.2260952694\C
 ,0,-3.6282930748,-0.8130460737,-3.1159315527\Cl,0,-5.7704155638,-3.290
 4062034,-5.4463430295\H,0,-2.6056508758,0.0228560735,-0.7922962504\H,0
 ,-3.7707680224,-0.8169913206,0.2699079884\H,0,-9.798895608,5.198262968
 4,0.662159256\H,0,-8.6337205747,6.0381247048,-0.3999669758\H,0,-9.5934
 302461,5.328282117,3.113289004\H,0,-8.7244905223,6.5683466436,5.079345
 9615\H,0,-5.8645840657,8.5573024817,2.5581669685\H,0,-6.7273808784,7.3
 037293445,0.5920539283\H,0,-5.6775372665,-2.0821824812,-0.7220978261\H
 ,0,-6.5405054618,-3.3357032167,-2.6881723304\H,0,-3.680023177,-1.34755
 39621,-5.2093348521\H,0,-2.8109011904,-0.1075624458,-3.2433123947\\Ver
 sion=ES64L-G16RevA.03\State=1-A\HF=-1947.6739163\RMSD=3.871e-09\Dipole
 =-0.0000161,0.0000066,-0.0000579\Quadrupole=12.2337684,-3.7754577,-8.4
 583107,-8.7742433,-5.0828854,-5.3478583\PG=C01 [X(C16H12Cl2N2O4)]\\@


 WE THE UNWILLING
 LED BY THE UNQUALIFIED
 HAVE BEEN DOING THE UNBELIEVABLE SO LONG WITH SO LITTLE
 THAT WE NOW ATTEMPT THE IMPOSSIBLE WITH NOTHING.

                                    -- ANONYMOUS
 Job cpu time:       0 days  0 hours 52 minutes 31.5 seconds.
 Elapsed time:       0 days  0 hours 10 minutes 32.3 seconds.
 File lengths (MBytes):  RWF=   1224 Int=      0 D2E=      0 Chk=    268 Scr=      1
 Normal termination of Gaussian 16 at Sat Aug 22 17:27:40 2020.
