 Entering Gaussian System, Link 0=g16
 Input=azadicarboxylate_4_conf29123.com
 Output=azadicarboxylate_4_conf29123.log
 Initial command:
 /opt/export//g16/l1.exe "/scratch/bjs4/job.171116/Gau-171118.inp" -scrdir="/scratch/bjs4/job.171116/"
 Entering Link 1 = /opt/export//g16/l1.exe PID=    171119.
  
 Copyright (c) 1988,1990,1992,1993,1995,1998,2003,2009,2016,
            Gaussian, Inc.  All Rights Reserved.
  
 This is part of the Gaussian(R) 16 program.  It is based on
 the Gaussian(R) 09 system (copyright 2009, Gaussian, Inc.),
 the Gaussian(R) 03 system (copyright 2003, Gaussian, Inc.),
 the Gaussian(R) 98 system (copyright 1998, Gaussian, Inc.),
 the Gaussian(R) 94 system (copyright 1995, Gaussian, Inc.),
 the Gaussian 92(TM) system (copyright 1992, Gaussian, Inc.),
 the Gaussian 90(TM) system (copyright 1990, Gaussian, Inc.),
 the Gaussian 88(TM) system (copyright 1988, Gaussian, Inc.),
 the Gaussian 86(TM) system (copyright 1986, Carnegie Mellon
 University), and the Gaussian 82(TM) system (copyright 1983,
 Carnegie Mellon University). Gaussian is a federally registered
 trademark of Gaussian, Inc.
  
 This software contains proprietary and confidential information,
 including trade secrets, belonging to Gaussian, Inc.
  
 This software is provided under written license and may be
 used, copied, transmitted, or stored only in accord with that
 written license.
  
 The following legend is applicable only to US Government
 contracts under FAR:
  
                    RESTRICTED RIGHTS LEGEND
  
 Use, reproduction and disclosure by the US Government is
 subject to restrictions as set forth in subparagraphs (a)
 and (c) of the Commercial Computer Software - Restricted
 Rights clause in FAR 52.227-19.
  
 Gaussian, Inc.
 340 Quinnipiac St., Bldg. 40, Wallingford CT 06492
  
  
 ---------------------------------------------------------------
 Warning -- This program may not be used in any manner that
 competes with the business of Gaussian, Inc. or will provide
 assistance to any competitor of Gaussian, Inc.  The licensee
 of this program is prohibited from giving any competitor of
 Gaussian, Inc. access to this program.  By using this program,
 the user acknowledges that Gaussian, Inc. is engaged in the
 business of creating and licensing software in the field of
 computational chemistry and represents and warrants to the
 licensee that it is not a competitor of Gaussian, Inc. and that
 it will not use this program in any manner prohibited above.
 ---------------------------------------------------------------
  

 Cite this work as:
 Gaussian 16, Revision A.03,
 M. J. Frisch, G. W. Trucks, H. B. Schlegel, G. E. Scuseria, 
 M. A. Robb, J. R. Cheeseman, G. Scalmani, V. Barone, 
 G. A. Petersson, H. Nakatsuji, X. Li, M. Caricato, A. V. Marenich, 
 J. Bloino, B. G. Janesko, R. Gomperts, B. Mennucci, H. P. Hratchian, 
 J. V. Ortiz, A. F. Izmaylov, J. L. Sonnenberg, D. Williams-Young, 
 F. Ding, F. Lipparini, F. Egidi, J. Goings, B. Peng, A. Petrone, 
 T. Henderson, D. Ranasinghe, V. G. Zakrzewski, J. Gao, N. Rega, 
 G. Zheng, W. Liang, M. Hada, M. Ehara, K. Toyota, R. Fukuda, 
 J. Hasegawa, M. Ishida, T. Nakajima, Y. Honda, O. Kitao, H. Nakai, 
 T. Vreven, K. Throssell, J. A. Montgomery, Jr., J. E. Peralta, 
 F. Ogliaro, M. J. Bearpark, J. J. Heyd, E. N. Brothers, K. N. Kudin, 
 V. N. Staroverov, T. A. Keith, R. Kobayashi, J. Normand, 
 K. Raghavachari, A. P. Rendell, J. C. Burant, S. S. Iyengar, 
 J. Tomasi, M. Cossi, J. M. Millam, M. Klene, C. Adamo, R. Cammi, 
 J. W. Ochterski, R. L. Martin, K. Morokuma, O. Farkas, 
 J. B. Foresman, and D. J. Fox, Gaussian, Inc., Wallingford CT, 2016.
 
 ******************************************
 Gaussian 16:  ES64L-G16RevA.03 25-Dec-2016
                22-Aug-2020 
 ******************************************
 %nprocshared=5
 Will use up to    5 processors via shared memory.
 %Mem=10GB
 %Chk=azadicarboxylate_4_conf291.chk
 ---------------------------------
 # opt=CalcAll B3LYP/6-31G* scf=qc
 ---------------------------------
 1/10=4,18=20,19=15,26=3,38=1/1,3;
 2/9=110,12=2,17=6,18=5,40=1/2;
 3/5=1,6=6,7=1,11=2,25=1,30=1,71=2,74=-5,140=1/1,2,3;
 4//1;
 5/5=2,8=3,38=5/8;
 8/6=4,10=90,11=11/1;
 11/6=1,8=1,9=11,15=111,16=1/1,2,10;
 10/6=1/2;
 6/7=2,8=2,9=2,10=2,18=1,28=1/1;
 7/10=1,25=1/1,2,3,16;
 1/10=4,18=20,19=15,26=3/3(3);
 2/9=110/2;
 7/8=1,9=1,25=1,44=-1/16;
 99//99;
 2/9=110/2;
 3/5=1,6=6,7=1,11=2,25=1,30=1,71=2,74=-5,140=1/1,2,3;
 4/5=5,16=3,69=1/1;
 5/5=2,8=3,38=5/8;
 8/6=4,10=90,11=11/1;
 11/6=1,8=1,9=11,15=111,16=1/1,2,10;
 10/6=1/2;
 7/10=1,25=1/1,2,3,16;
 1/10=4,18=20,19=15,26=3/3(-8);
 2/9=110/2;
 6/7=2,8=2,9=2,10=2,18=1,19=2,28=1/1;
 7/8=1,9=1,25=1,44=-1/16;
 99//99;
 -------------------
 Title Card Required
 -------------------
 Symbolic Z-matrix:
 Charge =  0 Multiplicity = 1
 C                    -6.5988   -1.52518   0.54199 
 C                    -5.87161  -0.80859  -0.57256 
 O1                   -6.09656   0.60617  -0.49638 
 C2                   -5.0001    1.3961   -0.3376 
 O3                   -3.85189   0.97354  -0.25753 
 N4                   -5.3965    2.7153   -0.3106 
 N5                   -6.637     2.8452   -0.4364 
 C6                   -7.0368    4.1615   -0.3722 
 O7                   -8.11045   4.58306   0.0457 
 O8                   -6.05026   4.95121  -0.87767 
 C                    -6.30427   6.36224  -0.91414 
 C                    -7.15825   6.72178  -2.10847 
 C                    -7.60295   5.74758  -3.01431 
 C                    -8.40096   6.1011   -4.10465 
 C                    -8.77935   7.42862  -4.29277 
 C                    -8.37052   8.40206  -3.38447 
 C                    -7.56966   8.05059  -2.29591 
 C                    -7.79019  -1.02108   1.08459 
 C                    -8.45214  -1.70548   2.10659 
 C                    -7.94213  -2.91013   2.58573 
 C                    -6.77662  -3.43802   2.03547 
 C                    -6.1118   -2.75328   1.01601 
 H                    -6.27344  -1.15537  -1.53107 
 H                    -4.80707  -1.06684  -0.55137 
 H                    -5.38368   6.95551  -0.92094 
 H                    -6.85372   6.62179  -0.00186 
 H                    -7.32587   4.70362  -2.88099 
 H                    -8.72687   5.33899  -4.80793 
 H                    -9.39565   7.70352  -5.14507 
 H                    -8.67382   9.43659  -3.52435 
 H                    -7.26466   8.82603  -1.59575 
 H                    -8.20984  -0.08618   0.71891 
 H                    -9.36661  -1.29688   2.52904 
 H                    -8.45485  -3.43871   3.38513 
 H                    -6.3834   -4.38314   2.40126 
 H                    -5.20515  -3.18533   0.59724 
 

 GradGradGradGradGradGradGradGradGradGradGradGradGradGradGradGradGradGrad
 Berny optimization.
 Initialization pass.
                           ----------------------------
                           !    Initial Parameters    !
                           ! (Angstroms and Degrees)  !
 --------------------------                            --------------------------
 ! Name  Definition              Value          Derivative Info.                !
 --------------------------------------------------------------------------------
 ! R1    R(1,2)                  1.5115         calculate D2E/DX2 analytically  !
 ! R2    R(1,18)                 1.4028         calculate D2E/DX2 analytically  !
 ! R3    R(1,22)                 1.4036         calculate D2E/DX2 analytically  !
 ! R4    R(2,3)                  1.4346         calculate D2E/DX2 analytically  !
 ! R5    R(2,23)                 1.0957         calculate D2E/DX2 analytically  !
 ! R6    R(2,24)                 1.0956         calculate D2E/DX2 analytically  !
 ! R7    R(3,4)                  1.3607         calculate D2E/DX2 analytically  !
 ! R8    R(4,5)                  1.2261         calculate D2E/DX2 analytically  !
 ! R9    R(4,6)                  1.3777         calculate D2E/DX2 analytically  !
 ! R10   R(6,7)                  1.2536         calculate D2E/DX2 analytically  !
 ! R11   R(7,8)                  1.3772         calculate D2E/DX2 analytically  !
 ! R12   R(8,9)                  1.2268         calculate D2E/DX2 analytically  !
 ! R13   R(8,10)                 1.361          calculate D2E/DX2 analytically  !
 ! R14   R(10,11)                1.4342         calculate D2E/DX2 analytically  !
 ! R15   R(11,12)                1.5116         calculate D2E/DX2 analytically  !
 ! R16   R(11,25)                1.0952         calculate D2E/DX2 analytically  !
 ! R17   R(11,26)                1.0961         calculate D2E/DX2 analytically  !
 ! R18   R(12,13)                1.4026         calculate D2E/DX2 analytically  !
 ! R19   R(12,17)                1.4036         calculate D2E/DX2 analytically  !
 ! R20   R(13,14)                1.3967         calculate D2E/DX2 analytically  !
 ! R21   R(13,27)                1.0883         calculate D2E/DX2 analytically  !
 ! R22   R(14,15)                1.3932         calculate D2E/DX2 analytically  !
 ! R23   R(14,28)                1.087          calculate D2E/DX2 analytically  !
 ! R24   R(15,16)                1.3927         calculate D2E/DX2 analytically  !
 ! R25   R(15,29)                1.0871         calculate D2E/DX2 analytically  !
 ! R26   R(16,17)                1.3964         calculate D2E/DX2 analytically  !
 ! R27   R(16,30)                1.0871         calculate D2E/DX2 analytically  !
 ! R28   R(17,31)                1.0884         calculate D2E/DX2 analytically  !
 ! R29   R(18,19)                1.3968         calculate D2E/DX2 analytically  !
 ! R30   R(18,32)                1.0881         calculate D2E/DX2 analytically  !
 ! R31   R(19,20)                1.3932         calculate D2E/DX2 analytically  !
 ! R32   R(19,33)                1.087          calculate D2E/DX2 analytically  !
 ! R33   R(20,21)                1.3928         calculate D2E/DX2 analytically  !
 ! R34   R(20,34)                1.0869         calculate D2E/DX2 analytically  !
 ! R35   R(21,22)                1.3965         calculate D2E/DX2 analytically  !
 ! R36   R(21,35)                1.087          calculate D2E/DX2 analytically  !
 ! R37   R(22,36)                1.0881         calculate D2E/DX2 analytically  !
 ! A1    A(2,1,18)             121.5639         calculate D2E/DX2 analytically  !
 ! A2    A(2,1,22)             119.7967         calculate D2E/DX2 analytically  !
 ! A3    A(18,1,22)            118.5846         calculate D2E/DX2 analytically  !
 ! A4    A(1,2,3)              110.6684         calculate D2E/DX2 analytically  !
 ! A5    A(1,2,23)             108.5777         calculate D2E/DX2 analytically  !
 ! A6    A(1,2,24)             109.9655         calculate D2E/DX2 analytically  !
 ! A7    A(3,2,23)             107.5227         calculate D2E/DX2 analytically  !
 ! A8    A(3,2,24)             112.5687         calculate D2E/DX2 analytically  !
 ! A9    A(23,2,24)            107.3771         calculate D2E/DX2 analytically  !
 ! A10   A(2,3,4)              116.8959         calculate D2E/DX2 analytically  !
 ! A11   A(3,4,5)              124.2059         calculate D2E/DX2 analytically  !
 ! A12   A(3,4,6)              109.0453         calculate D2E/DX2 analytically  !
 ! A13   A(5,4,6)              126.7375         calculate D2E/DX2 analytically  !
 ! A14   A(4,6,7)              112.4552         calculate D2E/DX2 analytically  !
 ! A15   A(6,7,8)              112.4347         calculate D2E/DX2 analytically  !
 ! A16   A(7,8,9)              126.7534         calculate D2E/DX2 analytically  !
 ! A17   A(7,8,10)             109.0772         calculate D2E/DX2 analytically  !
 ! A18   A(9,8,10)             124.1583         calculate D2E/DX2 analytically  !
 ! A19   A(8,10,11)            116.8676         calculate D2E/DX2 analytically  !
 ! A20   A(10,11,12)           110.7422         calculate D2E/DX2 analytically  !
 ! A21   A(10,11,25)           112.5963         calculate D2E/DX2 analytically  !
 ! A22   A(10,11,26)           107.4925         calculate D2E/DX2 analytically  !
 ! A23   A(12,11,25)           109.9451         calculate D2E/DX2 analytically  !
 ! A24   A(12,11,26)           108.5464         calculate D2E/DX2 analytically  !
 ! A25   A(25,11,26)           107.3519         calculate D2E/DX2 analytically  !
 ! A26   A(11,12,13)           121.6127         calculate D2E/DX2 analytically  !
 ! A27   A(11,12,17)           119.754          calculate D2E/DX2 analytically  !
 ! A28   A(13,12,17)           118.5787         calculate D2E/DX2 analytically  !
 ! A29   A(12,13,14)           120.6321         calculate D2E/DX2 analytically  !
 ! A30   A(12,13,27)           120.4257         calculate D2E/DX2 analytically  !
 ! A31   A(14,13,27)           118.9413         calculate D2E/DX2 analytically  !
 ! A32   A(13,14,15)           120.1192         calculate D2E/DX2 analytically  !
 ! A33   A(13,14,28)           119.9291         calculate D2E/DX2 analytically  !
 ! A34   A(15,14,28)           119.9517         calculate D2E/DX2 analytically  !
 ! A35   A(14,15,16)           119.8821         calculate D2E/DX2 analytically  !
 ! A36   A(14,15,29)           120.0531         calculate D2E/DX2 analytically  !
 ! A37   A(16,15,29)           120.0644         calculate D2E/DX2 analytically  !
 ! A38   A(15,16,17)           120.0552         calculate D2E/DX2 analytically  !
 ! A39   A(15,16,30)           119.9549         calculate D2E/DX2 analytically  !
 ! A40   A(17,16,30)           119.9898         calculate D2E/DX2 analytically  !
 ! A41   A(12,17,16)           120.6969         calculate D2E/DX2 analytically  !
 ! A42   A(12,17,31)           120.4283         calculate D2E/DX2 analytically  !
 ! A43   A(16,17,31)           118.8742         calculate D2E/DX2 analytically  !
 ! A44   A(1,18,19)            120.6242         calculate D2E/DX2 analytically  !
 ! A45   A(1,18,32)            120.4192         calculate D2E/DX2 analytically  !
 ! A46   A(19,18,32)           118.9555         calculate D2E/DX2 analytically  !
 ! A47   A(18,19,20)           120.1212         calculate D2E/DX2 analytically  !
 ! A48   A(18,19,33)           119.9231         calculate D2E/DX2 analytically  !
 ! A49   A(20,19,33)           119.9557         calculate D2E/DX2 analytically  !
 ! A50   A(19,20,21)           119.8811         calculate D2E/DX2 analytically  !
 ! A51   A(19,20,34)           120.052          calculate D2E/DX2 analytically  !
 ! A52   A(21,20,34)           120.0666         calculate D2E/DX2 analytically  !
 ! A53   A(20,21,22)           120.0631         calculate D2E/DX2 analytically  !
 ! A54   A(20,21,35)           119.953          calculate D2E/DX2 analytically  !
 ! A55   A(22,21,35)           119.9838         calculate D2E/DX2 analytically  !
 ! A56   A(1,22,21)            120.6895         calculate D2E/DX2 analytically  !
 ! A57   A(1,22,36)            120.4331         calculate D2E/DX2 analytically  !
 ! A58   A(21,22,36)           118.8766         calculate D2E/DX2 analytically  !
 ! D1    D(18,1,2,3)            29.6468         calculate D2E/DX2 analytically  !
 ! D2    D(18,1,2,23)          -88.1461         calculate D2E/DX2 analytically  !
 ! D3    D(18,1,2,24)          154.6391         calculate D2E/DX2 analytically  !
 ! D4    D(22,1,2,3)          -153.0815         calculate D2E/DX2 analytically  !
 ! D5    D(22,1,2,23)           89.1256         calculate D2E/DX2 analytically  !
 ! D6    D(22,1,2,24)          -28.0892         calculate D2E/DX2 analytically  !
 ! D7    D(2,1,18,19)          179.4492         calculate D2E/DX2 analytically  !
 ! D8    D(2,1,18,32)           -0.9242         calculate D2E/DX2 analytically  !
 ! D9    D(22,1,18,19)           2.1454         calculate D2E/DX2 analytically  !
 ! D10   D(22,1,18,32)        -178.228          calculate D2E/DX2 analytically  !
 ! D11   D(2,1,22,21)         -179.3351         calculate D2E/DX2 analytically  !
 ! D12   D(2,1,22,36)            0.9774         calculate D2E/DX2 analytically  !
 ! D13   D(18,1,22,21)          -1.9824         calculate D2E/DX2 analytically  !
 ! D14   D(18,1,22,36)         178.3302         calculate D2E/DX2 analytically  !
 ! D15   D(1,2,3,4)            120.0            calculate D2E/DX2 analytically  !
 ! D16   D(23,2,3,4)          -121.5637         calculate D2E/DX2 analytically  !
 ! D17   D(24,2,3,4)            -3.504          calculate D2E/DX2 analytically  !
 ! D18   D(2,3,4,5)              0.0003         calculate D2E/DX2 analytically  !
 ! D19   D(2,3,4,6)            178.8516         calculate D2E/DX2 analytically  !
 ! D20   D(3,4,6,7)              0.0001         calculate D2E/DX2 analytically  !
 ! D21   D(5,4,6,7)            178.8147         calculate D2E/DX2 analytically  !
 ! D22   D(4,6,7,8)            178.3141         calculate D2E/DX2 analytically  !
 ! D23   D(6,7,8,9)           -149.6469         calculate D2E/DX2 analytically  !
 ! D24   D(6,7,8,10)            31.5271         calculate D2E/DX2 analytically  !
 ! D25   D(7,8,10,11)          178.8629         calculate D2E/DX2 analytically  !
 ! D26   D(9,8,10,11)           -0.0004         calculate D2E/DX2 analytically  !
 ! D27   D(8,10,11,12)         -80.4703         calculate D2E/DX2 analytically  !
 ! D28   D(8,10,11,25)         155.9769         calculate D2E/DX2 analytically  !
 ! D29   D(8,10,11,26)          37.9516         calculate D2E/DX2 analytically  !
 ! D30   D(10,11,12,13)         -0.0001         calculate D2E/DX2 analytically  !
 ! D31   D(10,11,12,17)        177.2752         calculate D2E/DX2 analytically  !
 ! D32   D(25,11,12,13)        125.0653         calculate D2E/DX2 analytically  !
 ! D33   D(25,11,12,17)        -57.6594         calculate D2E/DX2 analytically  !
 ! D34   D(26,11,12,13)       -117.78           calculate D2E/DX2 analytically  !
 ! D35   D(26,11,12,17)         59.4954         calculate D2E/DX2 analytically  !
 ! D36   D(11,12,13,14)        179.4389         calculate D2E/DX2 analytically  !
 ! D37   D(11,12,13,27)         -0.9228         calculate D2E/DX2 analytically  !
 ! D38   D(17,12,13,14)          2.1325         calculate D2E/DX2 analytically  !
 ! D39   D(17,12,13,27)       -178.2291         calculate D2E/DX2 analytically  !
 ! D40   D(11,12,17,16)       -179.3179         calculate D2E/DX2 analytically  !
 ! D41   D(11,12,17,31)          0.9754         calculate D2E/DX2 analytically  !
 ! D42   D(13,12,17,16)         -1.9601         calculate D2E/DX2 analytically  !
 ! D43   D(13,12,17,31)        178.3332         calculate D2E/DX2 analytically  !
 ! D44   D(12,13,14,15)         -0.8839         calculate D2E/DX2 analytically  !
 ! D45   D(12,13,14,28)        179.0843         calculate D2E/DX2 analytically  !
 ! D46   D(27,13,14,15)        179.4724         calculate D2E/DX2 analytically  !
 ! D47   D(27,13,14,28)         -0.5593         calculate D2E/DX2 analytically  !
 ! D48   D(13,14,15,16)         -0.5829         calculate D2E/DX2 analytically  !
 ! D49   D(13,14,15,29)        179.6394         calculate D2E/DX2 analytically  !
 ! D50   D(28,14,15,16)        179.4489         calculate D2E/DX2 analytically  !
 ! D51   D(28,14,15,29)         -0.3288         calculate D2E/DX2 analytically  !
 ! D52   D(14,15,16,17)          0.7553         calculate D2E/DX2 analytically  !
 ! D53   D(14,15,16,30)       -179.3556         calculate D2E/DX2 analytically  !
 ! D54   D(29,15,16,17)       -179.4671         calculate D2E/DX2 analytically  !
 ! D55   D(29,15,16,30)          0.4221         calculate D2E/DX2 analytically  !
 ! D56   D(15,16,17,12)          0.5356         calculate D2E/DX2 analytically  !
 ! D57   D(15,16,17,31)       -179.7532         calculate D2E/DX2 analytically  !
 ! D58   D(30,16,17,12)       -179.3535         calculate D2E/DX2 analytically  !
 ! D59   D(30,16,17,31)          0.3577         calculate D2E/DX2 analytically  !
 ! D60   D(1,18,19,20)          -0.8851         calculate D2E/DX2 analytically  !
 ! D61   D(1,18,19,33)         179.0817         calculate D2E/DX2 analytically  !
 ! D62   D(32,18,19,20)        179.4829         calculate D2E/DX2 analytically  !
 ! D63   D(32,18,19,33)         -0.5503         calculate D2E/DX2 analytically  !
 ! D64   D(18,19,20,21)         -0.5839         calculate D2E/DX2 analytically  !
 ! D65   D(18,19,20,34)        179.6301         calculate D2E/DX2 analytically  !
 ! D66   D(33,19,20,21)        179.4493         calculate D2E/DX2 analytically  !
 ! D67   D(33,19,20,34)         -0.3367         calculate D2E/DX2 analytically  !
 ! D68   D(19,20,21,22)          0.747          calculate D2E/DX2 analytically  !
 ! D69   D(19,20,21,35)       -179.3557         calculate D2E/DX2 analytically  !
 ! D70   D(34,20,21,22)       -179.467          calculate D2E/DX2 analytically  !
 ! D71   D(34,20,21,35)          0.4303         calculate D2E/DX2 analytically  !
 ! D72   D(20,21,22,1)           0.5558         calculate D2E/DX2 analytically  !
 ! D73   D(20,21,22,36)       -179.752          calculate D2E/DX2 analytically  !
 ! D74   D(35,21,22,1)        -179.3415         calculate D2E/DX2 analytically  !
 ! D75   D(35,21,22,36)          0.3507         calculate D2E/DX2 analytically  !
 --------------------------------------------------------------------------------
 Trust Radius=3.00D-01 FncErr=1.00D-07 GrdErr=1.00D-06 EigMax=2.50D+02 EigMin=1.00D-04
 Number of steps in this run=    180 maximum allowed number of steps=    216.
 GradGradGradGradGradGradGradGradGradGradGradGradGradGradGradGradGradGrad

                          Input orientation:                          
 ---------------------------------------------------------------------
 Center     Atomic      Atomic             Coordinates (Angstroms)
 Number     Number       Type             X           Y           Z
 ---------------------------------------------------------------------
      1          6           0       -6.598800   -1.525180    0.541990
      2          6           0       -5.871610   -0.808590   -0.572560
      3          8           0       -6.096560    0.606170   -0.496380
      4          6           0       -5.000100    1.396100   -0.337600
      5          8           0       -3.851890    0.973540   -0.257530
      6          7           0       -5.396500    2.715300   -0.310600
      7          7           0       -6.637000    2.845200   -0.436400
      8          6           0       -7.036800    4.161500   -0.372200
      9          8           0       -8.110450    4.583060    0.045700
     10          8           0       -6.050260    4.951210   -0.877670
     11          6           0       -6.304270    6.362240   -0.914140
     12          6           0       -7.158250    6.721780   -2.108470
     13          6           0       -7.602950    5.747580   -3.014310
     14          6           0       -8.400960    6.101100   -4.104650
     15          6           0       -8.779350    7.428620   -4.292770
     16          6           0       -8.370520    8.402060   -3.384470
     17          6           0       -7.569660    8.050590   -2.295910
     18          6           0       -7.790190   -1.021080    1.084590
     19          6           0       -8.452140   -1.705480    2.106590
     20          6           0       -7.942130   -2.910130    2.585730
     21          6           0       -6.776620   -3.438020    2.035470
     22          6           0       -6.111800   -2.753280    1.016010
     23          1           0       -6.273440   -1.155370   -1.531070
     24          1           0       -4.807070   -1.066840   -0.551370
     25          1           0       -5.383680    6.955510   -0.920940
     26          1           0       -6.853720    6.621790   -0.001860
     27          1           0       -7.325870    4.703620   -2.880990
     28          1           0       -8.726870    5.338990   -4.807930
     29          1           0       -9.395650    7.703520   -5.145070
     30          1           0       -8.673820    9.436590   -3.524350
     31          1           0       -7.264660    8.826030   -1.595750
     32          1           0       -8.209840   -0.086180    0.718910
     33          1           0       -9.366610   -1.296880    2.529040
     34          1           0       -8.454850   -3.438710    3.385130
     35          1           0       -6.383400   -4.383140    2.401260
     36          1           0       -5.205150   -3.185330    0.597240
 ---------------------------------------------------------------------
                    Distance matrix (angstroms):
                    1          2          3          4          5
     1  C    0.000000
     2  C    1.511466   0.000000
     3  O    2.423450   1.434556   0.000000
     4  C    3.444328   2.382309   1.360671   0.000000
     5  O    3.798467   2.711918   2.287040   1.226114   0.000000
     6  N    4.489332   3.565411   2.230029   1.377734   2.328597
     7  N    4.478719   3.735578   2.304111   2.188400   3.360349
     8  C    5.776324   5.108777   3.679653   3.434644   4.507759
     9  O    6.312051   5.870651   4.490574   4.469666   5.590699
    10  O    6.652816   5.770642   4.361983   3.746107   4.586858
    11  C    8.026111   7.191987   5.774947   5.166798   5.956794
    12  C    8.680453   7.792364   6.413011   6.013024   6.884785
    13  C    8.157734   7.207152   5.919736   5.733671   6.667964
    14  C    9.110389   8.161929   6.965926   6.920516   7.860422
    15  C   10.406740   9.494553   8.255650   8.143549   9.068136
    16  C   10.821561   9.949244   8.619040   8.350247   9.240058
    17  C   10.034521   9.183593   7.799213   7.397287   8.249936
    18  C    1.402833   2.544061   2.831217   3.956006   4.614109
    19  C    2.432149   3.826407   4.203324   5.245040   5.824819
    20  C    2.810604   4.321842   5.026917   5.978714   6.316414
    21  C    2.433323   3.812449   4.819566   5.670644   5.768341
    22  C    1.403600   2.522512   3.684218   4.503942   4.540736
    23  H    2.130774   1.095657   2.050584   3.091240   3.466708
    24  H    2.148443   1.095622   2.113000   2.479724   2.271973
    25  H    8.691305   7.787213   6.403325   5.603076   6.210512
    26  H    8.169081   7.516700   6.083217   5.554860   6.401490
    27  H    7.144464   6.150462   4.897618   4.776790   5.732763
    28  H    8.959194   7.992722   6.921530   7.029868   7.970491
    29  H   11.195264  10.285073   9.103114   9.067314   9.995697
    30  H   11.874394  11.024026   9.684379   9.396865  10.273575
    31  H   10.590602   9.788432   8.374913   7.868611   8.665993
    32  H    2.167365   2.767145   2.534212   3.689959   4.590008
    33  H    3.414859   4.698231   4.844377   5.876749   6.582698
    34  H    3.897430   5.408694   6.081834   7.012090   7.343307
    35  H    3.416316   4.677921   5.776834   6.543278   6.493976
    36  H    2.168274   2.731574   4.045502   4.680328   4.456248
                    6          7          8          9         10
     6  N    0.000000
     7  N    1.253611   0.000000
     8  C    2.187664   1.377174   0.000000
     9  O    3.313759   2.328869   1.226816   0.000000
    10  O    2.397554   2.230305   1.361030   2.287472   0.000000
    11  C    3.806373   3.564900   2.381923   2.710915   1.434175
    12  C    4.731594   4.253868   3.095871   3.181392   2.424341
    13  C    4.623115   4.000311   3.133197   3.313205   2.758674
    14  C    5.906373   5.212341   4.422009   4.428797   4.154689
    15  C    7.036813   6.361524   5.392719   5.231344   5.024779
    16  C    7.115667   6.524945   5.369816   5.139889   4.855514
    17  C    6.093390   5.605686   4.371455   4.218928   3.731774
    18  C    4.651542   4.311772   5.435896   5.708611   6.522735
    19  C    5.892626   5.519984   6.524495   6.626444   7.680258
    20  C    6.820148   6.630268   7.718609   7.913784   8.796305
    21  C    6.728456   6.753406   7.976044   8.371142   8.910284
    22  C    5.672470   5.807608   7.113152   7.665376   7.934039
    23  H    4.152187   4.163537   5.494980   6.228193   6.145491
    24  H    3.835359   4.320407   5.686769   6.571924   6.153773
    25  H    4.283930   4.324377   3.292478   3.741415   2.112681
    26  H    4.180846   3.807680   2.494734   2.395423   2.050226
    27  H    3.779258   3.147108   2.582921   3.032427   2.387839
    28  H    6.180703   5.449479   4.890656   4.950669   4.770907
    29  H    8.015463   7.306504   6.394558   6.191373   6.080917
    30  H    8.139088   7.558472   6.359439   6.051396   5.831519
    31  H    6.517872   6.124408   4.827715   4.627366   4.123668
    32  H    4.101593   3.521584   4.539750   4.718569   5.708603
    33  H    6.318458   5.779397   6.605991   6.505276   7.851272
    34  H    7.802805   7.576028   8.596022   8.695930   9.713098
    35  H    7.662637   7.769525   9.007213   9.429958   9.899114
    36  H    5.973125   6.283781   7.633523   8.312211   8.312211
                   11         12         13         14         15
    11  C    0.000000
    12  C    1.511613   0.000000
    13  C    2.544620   1.402630   0.000000
    14  C    3.826703   2.431935   1.396652   0.000000
    15  C    4.321843   2.810472   2.417493   1.393154   0.000000
    16  C    3.812189   2.433334   2.787911   2.411224   1.392744
    17  C    2.522107   1.403612   2.412688   2.786236   2.416122
    18  C    7.792066   8.399218   7.915226   8.833272  10.064386
    19  C    8.878415   9.511025   9.082557   9.976212  11.157538
    20  C   10.045323  10.743541  10.316561  11.232719  12.446062
    21  C   10.245409  10.979044  10.514673  11.460121  12.733476
    22  C    9.319615  10.031660   9.525315  10.481482  11.788556
    23  H    7.542945   7.947690   7.184589   7.987867   9.359031
    24  H    7.587123   8.283430   7.766553   8.770474  10.097025
    25  H    1.095218   2.148012   3.281227   4.468781   4.808705
    26  H    1.096137   2.130855   3.224972   4.415649   4.771890
    27  H    2.768246   2.167453   1.088301   2.146186   3.395784
    28  H    4.698684   3.414639   2.155740   1.087029   2.152835
    29  H    5.408921   3.897526   3.402883   2.153980   1.087111
    30  H    4.677563   3.416411   3.875009   3.396571   2.152568
    31  H    2.730788   2.168426   3.406407   3.874403   3.394254
    32  H    6.919550   7.446357   6.952554   7.847655   9.050608
    33  H    8.938430   9.522723   9.135844   9.983408  11.091272
    34  H   10.916379  11.623096  11.227933  12.128796  13.309933
    35  H   11.245503  12.010716  11.551934  12.502668  13.786526
    36  H    9.728742  10.454009   9.929231  10.888469  12.220599
                   16         17         18         19         20
    16  C    0.000000
    17  C    1.396378   0.000000
    18  C   10.445327   9.683574   0.000000
    19  C   11.503076  10.739724   1.396805   0.000000
    20  C   12.798142  12.004438   2.417647   1.393150   0.000000
    21  C   13.118832  12.303574   2.788027   2.411249   1.392791
    22  C   12.202772  11.393760   2.412926   2.786475   2.416347
    23  H    9.958780   9.328176   3.026589   4.275737   4.776165
    24  H   10.506412   9.685187   3.402567   4.556221   4.802886
    25  H    4.133122   2.805040   8.569681   9.674406  10.778370
    26  H    4.112432   2.795837   7.776298   8.737502   9.936687
    27  H    3.875983   3.406459   6.979513   8.198841   9.393295
    28  H    3.396413   3.873261   8.720645   9.874747  11.105404
    29  H    2.153732   3.401824  10.839964  11.916630  13.210888
    30  H    1.087111   2.156207  11.462373  12.486086  13.795287
    31  H    2.145273   1.088373  10.218903  11.226314  12.477227
    32  H    9.429410   8.700919   1.088056   2.146275   3.395788
    33  H   11.403124  10.671662   2.155830   1.087048   2.152889
    34  H   13.639591  12.847638   3.402821   2.153778   1.086885
    35  H   14.173378  13.344222   3.875065   3.396524   2.152540
    36  H   12.654690  11.840909   3.406453   3.874408   3.394243
                   21         22         23         24         25
    21  C    0.000000
    22  C    1.396479   0.000000
    23  H    4.264257   3.011156   0.000000
    24  H    4.024098   2.646333   1.765755   0.000000
    25  H   10.895233   9.926859   8.182317   8.051532   0.000000
    26  H   10.264328   9.459305   7.947290   7.975322   1.765530
    27  H    9.526781   8.500937   6.103905   6.713396   3.561588
    28  H   11.299182  10.307362   7.676838   8.632369   5.375756
    29  H   13.511232  12.573275  10.064250  10.912212   5.873559
    30  H   14.151556  13.257894  11.041948  11.580691   4.874272
    31  H   12.799643  11.926055  10.030705  10.246919   2.737206
    32  H    3.875859   3.406386   3.155190   3.762200   7.762840
    33  H    3.396489   3.873519   5.106096   5.507381   9.791222
    34  H    2.153611   3.401827   5.843048   5.867546  11.662510
    35  H    1.087049   2.156184   5.088596   4.711760  11.857548
    36  H    2.145198   1.088140   3.129167   2.442493  10.255407
                   26         27         28         29         30
    26  H    0.000000
    27  H    3.491660   0.000000
    28  H    5.315315   2.465683   0.000000
    29  H    5.838164   4.290623   2.480309   0.000000
    30  H    4.862489   4.963052   4.294266   2.480182   0.000000
    31  H    2.751005   4.318548   4.961412   4.289385   2.465363
    32  H    6.881528   6.056638   7.761814   9.822008  10.435693
    33  H    8.684780   8.333009   9.913383  11.827933  12.342239
    34  H   10.735408  10.336169  12.010339  14.064093  14.613768
    35  H   11.274071  10.552707  12.328183  14.563931  15.209991
    36  H    9.962746   8.878686  10.690295  13.003902  13.723412
                   31         32         33         34         35
    31  H    0.000000
    32  H    9.256268   0.000000
    33  H   11.131280   2.465863   0.000000
    34  H   13.290958   4.290480   2.480248   0.000000
    35  H   13.828770   4.962867   4.294283   2.480091   0.000000
    36  H   12.382389   4.318298   4.961436   4.289182   2.465261
                   36
    36  H    0.000000
 Stoichiometry    C16H14N2O4
 Framework group  C1[X(C16H14N2O4)]
 Deg. of freedom   102
 Full point group                 C1      NOp   1
 Largest Abelian subgroup         C1      NOp   1
 Largest concise Abelian subgroup C1      NOp   1
                         Standard orientation:                         
 ---------------------------------------------------------------------
 Center     Atomic      Atomic             Coordinates (Angstroms)
 Number     Number       Type             X           Y           Z
 ---------------------------------------------------------------------
      1          6           0       -4.252464   -0.102611    0.587278
      2          6           0       -3.223491    0.775300    1.261826
      3          8           0       -1.945092    0.637437    0.625710
      4          6           0       -1.400182    1.762709    0.088811
      5          8           0       -1.931403    2.867382    0.118059
      6          7           0       -0.171733    1.453102   -0.452676
      7          7           0        0.120987    0.242009   -0.314440
      8          6           0        1.332124   -0.074793   -0.888366
      9          8           0        1.654015   -1.154048   -1.374856
     10          8           0        2.155892    1.006080   -0.814056
     11          6           0        3.479263    0.850098   -1.344353
     12          6           0        4.373513    0.142128   -0.352350
     13          6           0        3.897475   -0.275164    0.899299
     14          6           0        4.738693   -0.938089    1.795691
     15          6           0        6.059733   -1.208287    1.445370
     16          6           0        6.537667   -0.826906    0.194025
     17          6           0        5.698747   -0.160843   -0.701767
     18          6           0       -3.894081   -1.305526   -0.039219
     19          6           0       -4.862936   -2.107510   -0.646843
     20          6           0       -6.202819   -1.726910   -0.619894
     21          6           0       -6.577163   -0.550511    0.024948
     22          6           0       -5.609310    0.254097    0.629942
     23          1           0       -3.111925    0.446940    2.301152
     24          1           0       -3.573161    1.813421    1.282387
     25          1           0        3.929695    1.803945   -1.638952
     26          1           0        3.401964    0.232554   -2.246673
     27          1           0        2.866555   -0.081599    1.189362
     28          1           0        4.361938   -1.243232    2.768612
     29          1           0        6.715241   -1.719140    2.146190
     30          1           0        7.565275   -1.046490   -0.084570
     31          1           0        6.090971    0.124716   -1.676022
     32          1           0       -2.854341   -1.625180   -0.064264
     33          1           0       -4.570555   -3.029984   -1.142047
     34          1           0       -6.955013   -2.348754   -1.098258
     35          1           0       -7.623605   -0.257786    0.055731
     36          1           0       -5.923724    1.166906    1.131912
 ---------------------------------------------------------------------
 Rotational constants (GHZ):           0.7439836           0.0963334           0.0927067
 Standard basis: 6-31G(d) (6D, 7F)
 There are   358 symmetry adapted cartesian basis functions of A   symmetry.
 There are   358 symmetry adapted basis functions of A   symmetry.
   358 basis functions,   672 primitive gaussians,   358 cartesian basis functions
    78 alpha electrons       78 beta electrons
       nuclear repulsion energy      1608.8133115162 Hartrees.
 NAtoms=   36 NActive=   36 NUniq=   36 SFac= 1.00D+00 NAtFMM=   60 NAOKFM=F Big=F
 Integral buffers will be    131072 words long.
 Raffenetti 2 integral format.
 Two-electron integral symmetry is turned on.
 One-electron integrals computed using PRISM.
 NBasis=   358 RedAO= T EigKep=  4.69D-04  NBF=   358
 NBsUse=   358 1.00D-06 EigRej= -1.00D+00 NBFU=   358
 ExpMin= 1.61D-01 ExpMax= 5.48D+03 ExpMxC= 8.25D+02 IAcc=3 IRadAn=         5 AccDes= 0.00D+00
 Harris functional with IExCor=  402 and IRadAn=       5 diagonalized for initial guess.
 HarFok:  IExCor=  402 AccDes= 0.00D+00 IRadAn=         5 IDoV= 1 UseB2=F ITyADJ=14
 ICtDFT=  3500011 ScaDFX=  1.000000  1.000000  1.000000  1.000000
 FoFCou: FMM=F IPFlag=           0 FMFlag=      100000 FMFlg1=           0
         NFxFlg=           0 DoJE=T BraDBF=F KetDBF=T FulRan=T
         wScrn=  0.000000 ICntrl=       500 IOpCl=  0 I1Cent=   200000004 NGrid=           0
         NMat0=    1 NMatS0=      1 NMatT0=    0 NMatD0=    1 NMtDS0=    0 NMtDT0=    0
 Petite list used in FoFCou.
 Gradient too large for Newton-Raphson -- use scaled steepest descent instead.
     Minimum is close to point  2 DX=  1.63D-02 DF= -1.11D-03 DXR=  5.16D-02 DFR=  2.67D-03 which will be used.
 Gradient too large for Newton-Raphson -- use scaled steepest descent instead.
     Accept linear search using points  2 and  3.
 Gradient too large for Newton-Raphson -- use scaled steepest descent instead.
     Minimum is close to point  2 DX=  1.61D-02 DF= -1.83D-05 DXR=  3.86D-02 DFR=  1.49D-03 which will be used.
 Gradient too large for Newton-Raphson -- use scaled steepest descent instead.
     Minimum is close to point  2 DX=  3.73D-02 DF= -2.37D-05 DXR=  8.53D-02 DFR=  7.32D-03 which will be used.
 Gradient too large for Newton-Raphson -- use scaled steepest descent instead.
 Gradient too large for Newton-Raphson -- use scaled steepest descent instead.
     Accept linear search using points  1 and  2.
 Gradient too large for Newton-Raphson -- use scaled steepest descent instead.
     Accept linear search using points  2 and  3.
 LinEq1:  Iter=  0 NonCon=     1 RMS=2.87D-05 Max=1.70D-03 NDo=     1
 AX will form     1 AO Fock derivatives at one time.
 LinEq1:  Iter=  1 NonCon=     1 RMS=4.29D-05 Max=2.49D-03 NDo=     1
 LinEq1:  Iter=  2 NonCon=     1 RMS=7.84D-06 Max=8.08D-04 NDo=     1
 LinEq1:  Iter=  3 NonCon=     1 RMS=5.68D-06 Max=3.17D-04 NDo=     1
 LinEq1:  Iter=  4 NonCon=     1 RMS=4.25D-06 Max=2.21D-04 NDo=     1
 LinEq1:  Iter=  5 NonCon=     1 RMS=2.18D-06 Max=8.68D-05 NDo=     1
 LinEq1:  Iter=  6 NonCon=     1 RMS=1.97D-06 Max=8.27D-05 NDo=     1
 LinEq1:  Iter=  7 NonCon=     1 RMS=1.39D-06 Max=4.71D-05 NDo=     1
 LinEq1:  Iter=  8 NonCon=     1 RMS=6.67D-07 Max=2.34D-05 NDo=     1
 LinEq1:  Iter=  9 NonCon=     1 RMS=5.67D-07 Max=2.07D-05 NDo=     1
 LinEq1:  Iter= 10 NonCon=     1 RMS=2.53D-07 Max=1.14D-05 NDo=     1
 LinEq1:  Iter= 11 NonCon=     1 RMS=1.71D-07 Max=6.07D-06 NDo=     1
 LinEq1:  Iter= 12 NonCon=     1 RMS=9.60D-08 Max=5.46D-06 NDo=     1
 LinEq1:  Iter= 13 NonCon=     1 RMS=5.16D-08 Max=1.98D-06 NDo=     1
 LinEq1:  Iter= 14 NonCon=     1 RMS=3.10D-08 Max=1.18D-06 NDo=     1
 LinEq1:  Iter= 15 NonCon=     1 RMS=1.73D-08 Max=9.62D-07 NDo=     1
 LinEq1:  Iter= 16 NonCon=     1 RMS=1.13D-08 Max=4.52D-07 NDo=     1
 LinEq1:  Iter= 17 NonCon=     0 RMS=6.00D-09 Max=1.56D-07 NDo=     1
 Linear equations converged to 2.090D-08 2.090D-07 after    17 iterations.
     Minimum is close to point  2 DX=  2.12D-04 DF= -4.55D-13 DXR=  2.12D-04 DFR=  4.62D-08 which will be used.
 LinEq1:  Iter=  0 NonCon=     1 RMS=5.06D-08 Max=2.82D-06 NDo=     1
 LinEq1:  Iter=  1 NonCon=     1 RMS=4.30D-08 Max=2.88D-06 NDo=     1
 LinEq1:  Iter=  2 NonCon=     1 RMS=3.92D-08 Max=2.47D-06 NDo=     1
 LinEq1:  Iter=  3 NonCon=     1 RMS=2.11D-08 Max=1.04D-06 NDo=     1
 LinEq1:  Iter=  4 NonCon=     1 RMS=1.70D-08 Max=1.10D-06 NDo=     1
 LinEq1:  Iter=  5 NonCon=     1 RMS=1.08D-08 Max=5.37D-07 NDo=     1
 LinEq1:  Iter=  6 NonCon=     1 RMS=8.97D-09 Max=3.45D-07 NDo=     1
 LinEq1:  Iter=  7 NonCon=     1 RMS=7.74D-09 Max=3.41D-07 NDo=     1
 LinEq1:  Iter=  8 NonCon=     1 RMS=5.50D-09 Max=2.36D-07 NDo=     1
 LinEq1:  Iter=  9 NonCon=     1 RMS=3.47D-09 Max=1.20D-07 NDo=     1
 LinEq1:  Iter= 10 NonCon=     1 RMS=1.90D-09 Max=4.88D-08 NDo=     1
 LinEq1:  Iter= 11 NonCon=     1 RMS=1.24D-09 Max=5.56D-08 NDo=     1
 LinEq1:  Iter= 12 NonCon=     1 RMS=1.07D-09 Max=3.98D-08 NDo=     1
 LinEq1:  Iter= 13 NonCon=     1 RMS=5.84D-10 Max=1.56D-08 NDo=     1
 LinEq1:  Iter= 14 NonCon=     1 RMS=3.61D-10 Max=1.13D-08 NDo=     1
 LinEq1:  Iter= 15 NonCon=     1 RMS=1.64D-10 Max=6.84D-09 NDo=     1
 LinEq1:  Iter= 16 NonCon=     1 RMS=1.26D-10 Max=5.54D-09 NDo=     1
 LinEq1:  Iter= 17 NonCon=     1 RMS=5.66D-11 Max=1.57D-09 NDo=     1
 LinEq1:  Iter= 18 NonCon=     1 RMS=2.32D-11 Max=5.70D-10 NDo=     1
 LinEq1:  Iter= 19 NonCon=     0 RMS=1.46D-11 Max=3.89D-10 NDo=     1
 Linear equations converged to 5.327D-11 5.327D-10 after    19 iterations.
 Restarting incremental Fock formation.
 SCF Done:  E(RB3LYP) =  -1028.44804007     a.u. after   10 cycles
            Convg  =    0.2745D-09                    57 Fock formations.
              S**2 =  0.0000                  -V/T =  2.0092
 DoSCS=F DFT=T ScalE2(SS,OS)=  1.000000  1.000000
 Range of M.O.s used for correlation:     1   358
 NBasis=   358 NAE=    78 NBE=    78 NFC=     0 NFV=     0
 NROrb=    358 NOA=    78 NOB=    78 NVA=   280 NVB=   280

 **** Warning!!: The smallest alpha delta epsilon is  0.97649693D-01

 Symmetrizing basis deriv contribution to polar:
 IMax=3 JMax=2 DiffMx= 0.00D+00
 G2DrvN: will do    37 centers at a time, making    1 passes.
 Calling FoFCou, ICntrl=  3107 FMM=F I1Cent=   0 AccDes= 0.00D+00.
 End of G2Drv F.D. properties file   721 does not exist.
 End of G2Drv F.D. properties file   722 does not exist.
 End of G2Drv F.D. properties file   788 does not exist.
          IDoAtm=111111111111111111111111111111111111
          Differentiating once with respect to electric field.
                with respect to dipole field.
          Differentiating once with respect to nuclear coordinates.
 CalDSu exits because no D1Ps are significant.
          There are   111 degrees of freedom in the 1st order CPHF.  IDoFFX=6 NUNeed=     3.
    108 vectors produced by pass  0 Test12= 2.18D-14 1.00D-09 XBig12= 2.41D+02 5.57D+00.
 AX will form   108 AO Fock derivatives at one time.
    108 vectors produced by pass  1 Test12= 2.18D-14 1.00D-09 XBig12= 7.36D+01 1.98D+00.
    108 vectors produced by pass  2 Test12= 2.18D-14 1.00D-09 XBig12= 7.87D-01 1.18D-01.
    108 vectors produced by pass  3 Test12= 2.18D-14 1.00D-09 XBig12= 4.25D-03 9.47D-03.
    108 vectors produced by pass  4 Test12= 2.18D-14 1.00D-09 XBig12= 8.13D-06 2.83D-04.
     92 vectors produced by pass  5 Test12= 2.18D-14 1.00D-09 XBig12= 1.00D-08 1.02D-05.
     21 vectors produced by pass  6 Test12= 2.18D-14 1.00D-09 XBig12= 8.72D-12 3.23D-07.
      3 vectors produced by pass  7 Test12= 2.18D-14 1.00D-09 XBig12= 7.26D-15 7.38D-09.
 InvSVY:  IOpt=1 It=  1 EMax= 5.33D-15
 Solved reduced A of dimension   656 with   111 vectors.
 Isotropic polarizability for W=    0.000000      186.30 Bohr**3.
 End of Minotr F.D. properties file   721 does not exist.
 End of Minotr F.D. properties file   722 does not exist.
 End of Minotr F.D. properties file   788 does not exist.

 **********************************************************************

            Population analysis using the SCF density.

 **********************************************************************

 Orbital symmetries:
       Occupied  (A) (A) (A) (A) (A) (A) (A) (A) (A) (A) (A) (A)
                 (A) (A) (A) (A) (A) (A) (A) (A) (A) (A) (A) (A)
                 (A) (A) (A) (A) (A) (A) (A) (A) (A) (A) (A) (A)
                 (A) (A) (A) (A) (A) (A) (A) (A) (A) (A) (A) (A)
                 (A) (A) (A) (A) (A) (A) (A) (A) (A) (A) (A) (A)
                 (A) (A) (A) (A) (A) (A) (A) (A) (A) (A) (A) (A)
                 (A) (A) (A) (A) (A) (A)
       Virtual   (A) (A) (A) (A) (A) (A) (A) (A) (A) (A) (A) (A)
                 (A) (A) (A) (A) (A) (A) (A) (A) (A) (A) (A) (A)
                 (A) (A) (A) (A) (A) (A) (A) (A) (A) (A) (A) (A)
                 (A) (A) (A) (A) (A) (A) (A) (A) (A) (A) (A) (A)
                 (A) (A) (A) (A) (A) (A) (A) (A) (A) (A) (A) (A)
                 (A) (A) (A) (A) (A) (A) (A) (A) (A) (A) (A) (A)
                 (A) (A) (A) (A) (A) (A) (A) (A) (A) (A) (A) (A)
                 (A) (A) (A) (A) (A) (A) (A) (A) (A) (A) (A) (A)
                 (A) (A) (A) (A) (A) (A) (A) (A) (A) (A) (A) (A)
                 (A) (A) (A) (A) (A) (A) (A) (A) (A) (A) (A) (A)
                 (A) (A) (A) (A) (A) (A) (A) (A) (A) (A) (A) (A)
                 (A) (A) (A) (A) (A) (A) (A) (A) (A) (A) (A) (A)
                 (A) (A) (A) (A) (A) (A) (A) (A) (A) (A) (A) (A)
                 (A) (A) (A) (A) (A) (A) (A) (A) (A) (A) (A) (A)
                 (A) (A) (A) (A) (A) (A) (A) (A) (A) (A) (A) (A)
                 (A) (A) (A) (A) (A) (A) (A) (A) (A) (A) (A) (A)
                 (A) (A) (A) (A) (A) (A) (A) (A) (A) (A) (A) (A)
                 (A) (A) (A) (A) (A) (A) (A) (A) (A) (A) (A) (A)
                 (A) (A) (A) (A) (A) (A) (A) (A) (A) (A) (A) (A)
                 (A) (A) (A) (A) (A) (A) (A) (A) (A) (A) (A) (A)
                 (A) (A) (A) (A) (A) (A) (A) (A) (A) (A) (A) (A)
                 (A) (A) (A) (A) (A) (A) (A) (A) (A) (A) (A) (A)
                 (A) (A) (A) (A) (A) (A) (A) (A) (A) (A) (A) (A)
                 (A) (A) (A) (A)
 The electronic state is 1-A.
 Alpha  occ. eigenvalues --  -19.21254 -19.21051 -19.17428 -19.17081 -14.43621
 Alpha  occ. eigenvalues --  -14.43365 -10.36301 -10.36238 -10.26050 -10.25535
 Alpha  occ. eigenvalues --  -10.20648 -10.20439 -10.19578 -10.19525 -10.19422
 Alpha  occ. eigenvalues --  -10.19405 -10.19327 -10.19313 -10.19214 -10.19126
 Alpha  occ. eigenvalues --  -10.19104 -10.19103  -1.15432  -1.12752  -1.06694
 Alpha  occ. eigenvalues --   -1.04020  -1.03903  -0.86277  -0.85850  -0.84374
 Alpha  occ. eigenvalues --   -0.78111  -0.77296  -0.74768  -0.74633  -0.71061
 Alpha  occ. eigenvalues --   -0.69970  -0.63592  -0.61494  -0.61128  -0.60178
 Alpha  occ. eigenvalues --   -0.59407  -0.56555  -0.56281  -0.53200  -0.52622
 Alpha  occ. eigenvalues --   -0.51821  -0.50892  -0.48944  -0.48148  -0.47186
 Alpha  occ. eigenvalues --   -0.46627  -0.46224  -0.45643  -0.44757  -0.44415
 Alpha  occ. eigenvalues --   -0.43483  -0.42315  -0.42150  -0.42076  -0.41477
 Alpha  occ. eigenvalues --   -0.38531  -0.37876  -0.37479  -0.35905  -0.35724
 Alpha  occ. eigenvalues --   -0.35557  -0.35382  -0.34606  -0.34265  -0.32126
 Alpha  occ. eigenvalues --   -0.31713  -0.31512  -0.31443  -0.27410  -0.25308
 Alpha  occ. eigenvalues --   -0.25226  -0.24790  -0.24642
 Alpha virt. eigenvalues --   -0.14877  -0.00765  -0.00668  -0.00393  -0.00251
 Alpha virt. eigenvalues --    0.00730   0.04656   0.09153   0.09271   0.10167
 Alpha virt. eigenvalues --    0.11779   0.11839   0.12194   0.13186   0.13438
 Alpha virt. eigenvalues --    0.14083   0.14863   0.15298   0.15842   0.17824
 Alpha virt. eigenvalues --    0.18122   0.18769   0.19105   0.19407   0.20496
 Alpha virt. eigenvalues --    0.21794   0.22798   0.23632   0.24285   0.24944
 Alpha virt. eigenvalues --    0.29772   0.30194   0.30364   0.30753   0.31943
 Alpha virt. eigenvalues --    0.32653   0.33285   0.34253   0.34471   0.35263
 Alpha virt. eigenvalues --    0.36005   0.43707   0.46530   0.46804   0.47229
 Alpha virt. eigenvalues --    0.48691   0.50480   0.50845   0.52645   0.53005
 Alpha virt. eigenvalues --    0.53599   0.54113   0.54404   0.55036   0.56100
 Alpha virt. eigenvalues --    0.56369   0.56915   0.57272   0.57782   0.57962
 Alpha virt. eigenvalues --    0.59078   0.59163   0.59434   0.59638   0.60407
 Alpha virt. eigenvalues --    0.60830   0.61172   0.61280   0.61331   0.62024
 Alpha virt. eigenvalues --    0.62551   0.62623   0.63297   0.63959   0.64343
 Alpha virt. eigenvalues --    0.66009   0.66595   0.67810   0.68984   0.69321
 Alpha virt. eigenvalues --    0.70203   0.71275   0.72237   0.73021   0.75527
 Alpha virt. eigenvalues --    0.76633   0.76894   0.78313   0.79859   0.81775
 Alpha virt. eigenvalues --    0.82156   0.82817   0.83557   0.83835   0.84195
 Alpha virt. eigenvalues --    0.84467   0.84778   0.85281   0.86340   0.87894
 Alpha virt. eigenvalues --    0.88664   0.88758   0.91033   0.91363   0.92168
 Alpha virt. eigenvalues --    0.92471   0.93488   0.94412   0.94765   0.95419
 Alpha virt. eigenvalues --    0.97518   0.98038   0.99990   1.00422   1.03367
 Alpha virt. eigenvalues --    1.05358   1.06128   1.06879   1.07685   1.08378
 Alpha virt. eigenvalues --    1.09695   1.10741   1.11450   1.13267   1.13956
 Alpha virt. eigenvalues --    1.15136   1.16403   1.16502   1.18241   1.18989
 Alpha virt. eigenvalues --    1.19311   1.21373   1.24652   1.25735   1.26211
 Alpha virt. eigenvalues --    1.28403   1.31286   1.36110   1.38306   1.39209
 Alpha virt. eigenvalues --    1.40645   1.40927   1.42136   1.43247   1.43447
 Alpha virt. eigenvalues --    1.45101   1.46093   1.46490   1.47304   1.48060
 Alpha virt. eigenvalues --    1.48236   1.48421   1.49316   1.49587   1.51090
 Alpha virt. eigenvalues --    1.51123   1.53416   1.59545   1.62274   1.63197
 Alpha virt. eigenvalues --    1.65618   1.66572   1.69060   1.70131   1.72237
 Alpha virt. eigenvalues --    1.75718   1.77154   1.78050   1.78668   1.78777
 Alpha virt. eigenvalues --    1.79577   1.80988   1.81462   1.81930   1.82368
 Alpha virt. eigenvalues --    1.83952   1.85510   1.87092   1.88518   1.90460
 Alpha virt. eigenvalues --    1.90835   1.91019   1.91814   1.94233   1.96021
 Alpha virt. eigenvalues --    1.96495   1.97371   1.98498   2.00335   2.01484
 Alpha virt. eigenvalues --    2.02994   2.03951   2.05276   2.05474   2.06885
 Alpha virt. eigenvalues --    2.08021   2.08914   2.11904   2.13141   2.13975
 Alpha virt. eigenvalues --    2.14591   2.14979   2.15965   2.16140   2.16763
 Alpha virt. eigenvalues --    2.21768   2.23045   2.23645   2.24639   2.26712
 Alpha virt. eigenvalues --    2.28118   2.30115   2.30628   2.30720   2.32073
 Alpha virt. eigenvalues --    2.34291   2.35758   2.36005   2.37674   2.40808
 Alpha virt. eigenvalues --    2.43286   2.46044   2.50777   2.53997   2.55564
 Alpha virt. eigenvalues --    2.57638   2.57824   2.58234   2.59568   2.64586
 Alpha virt. eigenvalues --    2.65014   2.65669   2.66059   2.67965   2.69261
 Alpha virt. eigenvalues --    2.70924   2.71565   2.72879   2.73577   2.73847
 Alpha virt. eigenvalues --    2.75047   2.76320   2.79575   2.80943   2.84432
 Alpha virt. eigenvalues --    2.86380   2.87009   2.88588   2.91876   2.95837
 Alpha virt. eigenvalues --    3.05178   3.05823   3.08289   3.11786   3.17497
 Alpha virt. eigenvalues --    3.23428   3.40430   3.40497   3.77816   3.90507
 Alpha virt. eigenvalues --    4.02197   4.06181   4.08338   4.08747   4.11248
 Alpha virt. eigenvalues --    4.11281   4.11431   4.12893   4.20518   4.23086
 Alpha virt. eigenvalues --    4.27601   4.30481   4.32701   4.33316   4.38380
 Alpha virt. eigenvalues --    4.41165   4.44735   4.49818   4.69305   4.69986
          Condensed to atoms (all electrons):
               1          2          3          4          5          6
     1  C    4.722212   0.345445  -0.036907  -0.000252   0.000059  -0.000331
     2  C    0.345445   5.033892   0.191220  -0.015932  -0.011445   0.004297
     3  O   -0.036907   0.191220   8.247824   0.281935  -0.077551  -0.101717
     4  C   -0.000252  -0.015932   0.281935   4.219748   0.552947   0.232069
     5  O    0.000059  -0.011445  -0.077551   0.552947   8.009776  -0.061557
     6  N   -0.000331   0.004297  -0.101717   0.232069  -0.061557   7.030308
     7  N    0.000150   0.000418  -0.019061  -0.049459   0.001834   0.182773
     8  C   -0.000000  -0.000010   0.000280   0.003155  -0.000108  -0.047303
     9  O    0.000000  -0.000000   0.000006  -0.000119   0.000000   0.000620
    10  O    0.000000   0.000001  -0.000024   0.000325   0.000005  -0.009472
    11  C   -0.000000  -0.000000   0.000000   0.000011  -0.000000   0.000544
    12  C    0.000000   0.000000  -0.000000   0.000001  -0.000000   0.000073
    13  C   -0.000000  -0.000000   0.000000   0.000003   0.000000  -0.000057
    14  C    0.000000   0.000000   0.000000  -0.000000   0.000000  -0.000000
    15  C    0.000000   0.000000  -0.000000   0.000000  -0.000000   0.000000
    16  C   -0.000000   0.000000  -0.000000   0.000000   0.000000  -0.000000
    17  C    0.000000  -0.000000   0.000000  -0.000000   0.000000   0.000000
    18  C    0.540147  -0.064371   0.000306   0.000526   0.000084  -0.000025
    19  C   -0.020803   0.005720   0.000203  -0.000000   0.000001   0.000000
    20  C   -0.035385   0.000376  -0.000002  -0.000001  -0.000000   0.000000
    21  C   -0.017685   0.005968  -0.000065  -0.000004  -0.000000   0.000000
    22  C    0.532353  -0.055768   0.001647  -0.000015  -0.000108  -0.000002
    23  H   -0.035041   0.360111  -0.035305   0.002572   0.000508  -0.000183
    24  H   -0.035415   0.348730  -0.025915  -0.009817   0.022530   0.000588
    25  H    0.000000   0.000000   0.000000  -0.000001  -0.000000   0.000065
    26  H    0.000000   0.000000  -0.000000   0.000001  -0.000000  -0.000185
    27  H    0.000000  -0.000000  -0.000001  -0.000018  -0.000000   0.000244
    28  H    0.000000   0.000000   0.000000   0.000000   0.000000  -0.000000
    29  H    0.000000   0.000000  -0.000000  -0.000000  -0.000000   0.000000
    30  H    0.000000  -0.000000   0.000000  -0.000000   0.000000  -0.000000
    31  H    0.000000  -0.000000   0.000000  -0.000000   0.000000   0.000000
    32  H   -0.041415  -0.011846   0.006470  -0.000060   0.000005  -0.000165
    33  H    0.003690  -0.000182   0.000002   0.000000  -0.000000   0.000000
    34  H    0.000729   0.000009   0.000000  -0.000000   0.000000  -0.000000
    35  H    0.003723  -0.000164   0.000000   0.000000   0.000000   0.000000
    36  H   -0.048958  -0.008617   0.000057  -0.000014  -0.000022  -0.000000
               7          8          9         10         11         12
     1  C    0.000150  -0.000000   0.000000   0.000000  -0.000000   0.000000
     2  C    0.000418  -0.000010  -0.000000   0.000001  -0.000000   0.000000
     3  O   -0.019061   0.000280   0.000006  -0.000024   0.000000  -0.000000
     4  C   -0.049459   0.003155  -0.000119   0.000325   0.000011   0.000001
     5  O    0.001834  -0.000108   0.000000   0.000005  -0.000000  -0.000000
     6  N    0.182773  -0.047303   0.000620  -0.009472   0.000544   0.000073
     7  N    7.014349   0.226529  -0.061756  -0.100734   0.004511  -0.000466
     8  C    0.226529   4.258784   0.540530   0.262176  -0.016934  -0.003582
     9  O   -0.061756   0.540530   8.030122  -0.081209  -0.002027  -0.001062
    10  O   -0.100734   0.262176  -0.081209   8.248772   0.201984  -0.033379
    11  C    0.004511  -0.016934  -0.002027   0.201984   5.003130   0.329289
    12  C   -0.000466  -0.003582  -0.001062  -0.033379   0.329289   4.756315
    13  C   -0.001246   0.004900   0.000671  -0.004423  -0.061138   0.555294
    14  C   -0.000007  -0.000218  -0.000115   0.000643   0.006449  -0.018476
    15  C    0.000000  -0.000007  -0.000000  -0.000010   0.000391  -0.036949
    16  C   -0.000000  -0.000013   0.000010  -0.000063   0.004996  -0.013131
    17  C   -0.000004   0.000011  -0.000528   0.002281  -0.060397   0.515898
    18  C   -0.000554  -0.000002  -0.000000  -0.000000   0.000000  -0.000000
    19  C   -0.000000   0.000000   0.000000  -0.000000  -0.000000   0.000000
    20  C    0.000000   0.000000   0.000000   0.000000  -0.000000   0.000000
    21  C   -0.000000  -0.000000  -0.000000  -0.000000   0.000000  -0.000000
    22  C    0.000000  -0.000000   0.000000  -0.000000   0.000000   0.000000
    23  H    0.000066  -0.000001   0.000000  -0.000000   0.000000   0.000000
    24  H   -0.000132   0.000004  -0.000000  -0.000000   0.000000  -0.000000
    25  H   -0.000107   0.003668   0.000314  -0.024716   0.363451  -0.037846
    26  H    0.000492  -0.009758   0.016971  -0.033209   0.356849  -0.040471
    27  H    0.001401   0.001067  -0.002702   0.008560  -0.014632  -0.047204
    28  H   -0.000001   0.000011  -0.000001   0.000004  -0.000192   0.003919
    29  H    0.000000  -0.000000   0.000000   0.000000   0.000011   0.000835
    30  H    0.000000   0.000000   0.000000   0.000000  -0.000155   0.003594
    31  H   -0.000000  -0.000005  -0.000010   0.000053  -0.007277  -0.055062
    32  H    0.001931   0.000008   0.000004   0.000000  -0.000000   0.000000
    33  H   -0.000000  -0.000000  -0.000000  -0.000000   0.000000  -0.000000
    34  H    0.000000   0.000000   0.000000   0.000000  -0.000000   0.000000
    35  H   -0.000000  -0.000000   0.000000  -0.000000   0.000000  -0.000000
    36  H    0.000000   0.000000   0.000000   0.000000  -0.000000   0.000000
              13         14         15         16         17         18
     1  C   -0.000000   0.000000   0.000000  -0.000000   0.000000   0.540147
     2  C   -0.000000   0.000000   0.000000   0.000000  -0.000000  -0.064371
     3  O    0.000000   0.000000  -0.000000  -0.000000   0.000000   0.000306
     4  C    0.000003  -0.000000   0.000000   0.000000  -0.000000   0.000526
     5  O    0.000000   0.000000  -0.000000   0.000000   0.000000   0.000084
     6  N   -0.000057  -0.000000   0.000000  -0.000000   0.000000  -0.000025
     7  N   -0.001246  -0.000007   0.000000  -0.000000  -0.000004  -0.000554
     8  C    0.004900  -0.000218  -0.000007  -0.000013   0.000011  -0.000002
     9  O    0.000671  -0.000115  -0.000000   0.000010  -0.000528  -0.000000
    10  O   -0.004423   0.000643  -0.000010  -0.000063   0.002281  -0.000000
    11  C   -0.061138   0.006449   0.000391   0.004996  -0.060397   0.000000
    12  C    0.555294  -0.018476  -0.036949  -0.013131   0.515898  -0.000000
    13  C    4.930926   0.521141  -0.033574  -0.044986  -0.030893   0.000000
    14  C    0.521141   4.867115   0.550740  -0.026828  -0.045678  -0.000000
    15  C   -0.033574   0.550740   4.847571   0.551914  -0.036368  -0.000000
    16  C   -0.044986  -0.026828   0.551914   4.846546   0.531743   0.000000
    17  C   -0.030893  -0.045678  -0.036368   0.531743   4.969751  -0.000000
    18  C    0.000000  -0.000000  -0.000000   0.000000  -0.000000   4.960597
    19  C    0.000000   0.000000   0.000000  -0.000000   0.000000   0.523334
    20  C   -0.000000   0.000000   0.000000   0.000000   0.000000  -0.034114
    21  C    0.000000  -0.000000   0.000000   0.000000  -0.000000  -0.045916
    22  C   -0.000000  -0.000000  -0.000000  -0.000000   0.000000  -0.035887
    23  H   -0.000000  -0.000000   0.000000  -0.000000   0.000000  -0.004312
    24  H    0.000000  -0.000000  -0.000000   0.000000  -0.000000   0.005080
    25  H    0.000838  -0.000091   0.000021  -0.000160  -0.001539  -0.000000
    26  H    0.001811  -0.000051   0.000023  -0.000093  -0.002036   0.000000
    27  H    0.350274  -0.043173   0.004961   0.000348   0.006115  -0.000000
    28  H   -0.040044   0.357700  -0.043111   0.004507   0.000962   0.000000
    29  H    0.004733  -0.042967   0.358509  -0.043112   0.004780  -0.000000
    30  H    0.000800   0.004681  -0.042593   0.358067  -0.040338   0.000000
    31  H    0.005358   0.000468   0.004932  -0.042662   0.360158  -0.000000
    32  H   -0.000000   0.000000   0.000000  -0.000000   0.000000   0.358414
    33  H    0.000000  -0.000000  -0.000000   0.000000  -0.000000  -0.039880
    34  H   -0.000000   0.000000   0.000000   0.000000   0.000000   0.004747
    35  H    0.000000  -0.000000   0.000000   0.000000   0.000000   0.000748
    36  H   -0.000000  -0.000000   0.000000   0.000000   0.000000   0.005858
              19         20         21         22         23         24
     1  C   -0.020803  -0.035385  -0.017685   0.532353  -0.035041  -0.035415
     2  C    0.005720   0.000376   0.005968  -0.055768   0.360111   0.348730
     3  O    0.000203  -0.000002  -0.000065   0.001647  -0.035305  -0.025915
     4  C   -0.000000  -0.000001  -0.000004  -0.000015   0.002572  -0.009817
     5  O    0.000001  -0.000000  -0.000000  -0.000108   0.000508   0.022530
     6  N    0.000000   0.000000   0.000000  -0.000002  -0.000183   0.000588
     7  N   -0.000000   0.000000  -0.000000   0.000000   0.000066  -0.000132
     8  C    0.000000   0.000000  -0.000000  -0.000000  -0.000001   0.000004
     9  O    0.000000   0.000000  -0.000000   0.000000   0.000000  -0.000000
    10  O   -0.000000   0.000000  -0.000000  -0.000000  -0.000000  -0.000000
    11  C   -0.000000  -0.000000   0.000000   0.000000   0.000000   0.000000
    12  C    0.000000   0.000000  -0.000000   0.000000   0.000000  -0.000000
    13  C    0.000000  -0.000000   0.000000  -0.000000  -0.000000   0.000000
    14  C    0.000000   0.000000  -0.000000  -0.000000  -0.000000  -0.000000
    15  C    0.000000   0.000000   0.000000  -0.000000   0.000000  -0.000000
    16  C   -0.000000   0.000000   0.000000  -0.000000  -0.000000   0.000000
    17  C    0.000000   0.000000  -0.000000   0.000000   0.000000  -0.000000
    18  C    0.523334  -0.034114  -0.045916  -0.035887  -0.004312   0.005080
    19  C    4.866272   0.548979  -0.026726  -0.045686  -0.000118  -0.000062
    20  C    0.548979   4.847670   0.553072  -0.036268   0.000040   0.000000
    21  C   -0.026726   0.553072   4.855727   0.526743  -0.000311   0.000076
    22  C   -0.045686  -0.036268   0.526743   4.967289   0.000414  -0.003382
    23  H   -0.000118   0.000040  -0.000311   0.000414   0.572500  -0.036887
    24  H   -0.000062   0.000000   0.000076  -0.003382  -0.036887   0.539316
    25  H    0.000000   0.000000  -0.000000  -0.000000   0.000000  -0.000000
    26  H   -0.000000  -0.000000   0.000000  -0.000000  -0.000000   0.000000
    27  H   -0.000000   0.000000  -0.000000  -0.000000   0.000000  -0.000000
    28  H   -0.000000  -0.000000   0.000000   0.000000  -0.000000   0.000000
    29  H    0.000000   0.000000   0.000000   0.000000   0.000000  -0.000000
    30  H   -0.000000   0.000000   0.000000   0.000000  -0.000000   0.000000
    31  H    0.000000   0.000000   0.000000   0.000000   0.000000  -0.000000
    32  H   -0.043436   0.004678   0.000364   0.005577   0.000697   0.000154
    33  H    0.358600  -0.043186   0.004576   0.000905   0.000002   0.000002
    34  H   -0.043329   0.358839  -0.043271   0.004883  -0.000000  -0.000000
    35  H    0.004691  -0.042842   0.357889  -0.040037   0.000004  -0.000005
    36  H    0.000390   0.004892  -0.043776   0.356608   0.000578   0.005404
              25         26         27         28         29         30
     1  C    0.000000   0.000000   0.000000   0.000000   0.000000   0.000000
     2  C    0.000000   0.000000  -0.000000   0.000000   0.000000  -0.000000
     3  O    0.000000  -0.000000  -0.000001   0.000000  -0.000000   0.000000
     4  C   -0.000001   0.000001  -0.000018   0.000000  -0.000000  -0.000000
     5  O   -0.000000  -0.000000  -0.000000   0.000000  -0.000000   0.000000
     6  N    0.000065  -0.000185   0.000244  -0.000000   0.000000  -0.000000
     7  N   -0.000107   0.000492   0.001401  -0.000001   0.000000   0.000000
     8  C    0.003668  -0.009758   0.001067   0.000011  -0.000000   0.000000
     9  O    0.000314   0.016971  -0.002702  -0.000001   0.000000   0.000000
    10  O   -0.024716  -0.033209   0.008560   0.000004   0.000000   0.000000
    11  C    0.363451   0.356849  -0.014632  -0.000192   0.000011  -0.000155
    12  C   -0.037846  -0.040471  -0.047204   0.003919   0.000835   0.003594
    13  C    0.000838   0.001811   0.350274  -0.040044   0.004733   0.000800
    14  C   -0.000091  -0.000051  -0.043173   0.357700  -0.042967   0.004681
    15  C    0.000021   0.000023   0.004961  -0.043111   0.358509  -0.042593
    16  C   -0.000160  -0.000093   0.000348   0.004507  -0.043112   0.358067
    17  C   -0.001539  -0.002036   0.006115   0.000962   0.004780  -0.040338
    18  C   -0.000000   0.000000  -0.000000   0.000000  -0.000000   0.000000
    19  C    0.000000  -0.000000  -0.000000  -0.000000   0.000000  -0.000000
    20  C    0.000000  -0.000000   0.000000  -0.000000   0.000000   0.000000
    21  C   -0.000000   0.000000  -0.000000   0.000000   0.000000   0.000000
    22  C   -0.000000  -0.000000  -0.000000   0.000000   0.000000   0.000000
    23  H    0.000000  -0.000000   0.000000  -0.000000   0.000000  -0.000000
    24  H   -0.000000   0.000000  -0.000000   0.000000  -0.000000   0.000000
    25  H    0.548477  -0.038088   0.000075   0.000003  -0.000000   0.000002
    26  H   -0.038088   0.559690   0.000518   0.000002  -0.000000   0.000001
    27  H    0.000075   0.000518   0.610243  -0.005558  -0.000186   0.000017
    28  H    0.000003   0.000002  -0.005558   0.594076  -0.005659  -0.000190
    29  H   -0.000000  -0.000000  -0.000186  -0.005659   0.598108  -0.005610
    30  H    0.000002   0.000001   0.000017  -0.000190  -0.005610   0.594316
    31  H    0.002213   0.002135  -0.000155   0.000018  -0.000191  -0.005690
    32  H    0.000000  -0.000000   0.000000  -0.000000   0.000000  -0.000000
    33  H   -0.000000   0.000000  -0.000000   0.000000  -0.000000   0.000000
    34  H    0.000000  -0.000000   0.000000   0.000000   0.000000   0.000000
    35  H   -0.000000   0.000000  -0.000000  -0.000000   0.000000   0.000000
    36  H    0.000000  -0.000000   0.000000  -0.000000   0.000000   0.000000
              31         32         33         34         35         36
     1  C    0.000000  -0.041415   0.003690   0.000729   0.003723  -0.048958
     2  C   -0.000000  -0.011846  -0.000182   0.000009  -0.000164  -0.008617
     3  O    0.000000   0.006470   0.000002   0.000000   0.000000   0.000057
     4  C   -0.000000  -0.000060   0.000000  -0.000000   0.000000  -0.000014
     5  O    0.000000   0.000005  -0.000000   0.000000   0.000000  -0.000022
     6  N    0.000000  -0.000165   0.000000  -0.000000   0.000000  -0.000000
     7  N   -0.000000   0.001931  -0.000000   0.000000  -0.000000   0.000000
     8  C   -0.000005   0.000008  -0.000000   0.000000  -0.000000   0.000000
     9  O   -0.000010   0.000004  -0.000000   0.000000   0.000000   0.000000
    10  O    0.000053   0.000000  -0.000000   0.000000  -0.000000   0.000000
    11  C   -0.007277  -0.000000   0.000000  -0.000000   0.000000  -0.000000
    12  C   -0.055062   0.000000  -0.000000   0.000000  -0.000000   0.000000
    13  C    0.005358  -0.000000   0.000000  -0.000000   0.000000  -0.000000
    14  C    0.000468   0.000000  -0.000000   0.000000  -0.000000  -0.000000
    15  C    0.004932   0.000000  -0.000000   0.000000   0.000000   0.000000
    16  C   -0.042662  -0.000000   0.000000   0.000000   0.000000   0.000000
    17  C    0.360158   0.000000  -0.000000   0.000000   0.000000   0.000000
    18  C   -0.000000   0.358414  -0.039880   0.004747   0.000748   0.005858
    19  C    0.000000  -0.043436   0.358600  -0.043329   0.004691   0.000390
    20  C    0.000000   0.004678  -0.043186   0.358839  -0.042842   0.004892
    21  C    0.000000   0.000364   0.004576  -0.043271   0.357889  -0.043776
    22  C    0.000000   0.005577   0.000905   0.004883  -0.040037   0.356608
    23  H    0.000000   0.000697   0.000002  -0.000000   0.000004   0.000578
    24  H   -0.000000   0.000154   0.000002  -0.000000  -0.000005   0.005404
    25  H    0.002213   0.000000  -0.000000   0.000000  -0.000000   0.000000
    26  H    0.002135  -0.000000   0.000000  -0.000000   0.000000  -0.000000
    27  H   -0.000155   0.000000  -0.000000   0.000000  -0.000000   0.000000
    28  H    0.000018  -0.000000   0.000000   0.000000  -0.000000  -0.000000
    29  H   -0.000191   0.000000  -0.000000   0.000000   0.000000   0.000000
    30  H   -0.005690  -0.000000   0.000000   0.000000   0.000000   0.000000
    31  H    0.611375   0.000000  -0.000000   0.000000   0.000000   0.000000
    32  H    0.000000   0.570254  -0.005230  -0.000174   0.000016  -0.000149
    33  H   -0.000000  -0.005230   0.591322  -0.005645  -0.000188   0.000017
    34  H    0.000000  -0.000174  -0.005645   0.597997  -0.005687  -0.000187
    35  H    0.000000   0.000016  -0.000188  -0.005687   0.594713  -0.005664
    36  H    0.000000  -0.000149   0.000017  -0.000187  -0.005664   0.606138
 Mulliken charges:
               1
     1  C    0.123685
     2  C   -0.127851
     3  O   -0.433402
     4  C    0.782398
     5  O   -0.436956
     6  N   -0.230582
     7  N   -0.200927
     8  C    0.776819
     9  O   -0.439718
    10  O   -0.437565
    11  C   -0.108864
    12  C    0.122411
    13  C   -0.160387
    14  C   -0.131334
    15  C   -0.126451
    16  C   -0.127082
    17  C   -0.173918
    18  C   -0.174781
    19  C   -0.128027
    20  C   -0.126748
    21  C   -0.126661
    22  C   -0.179265
    23  H    0.174666
    24  H    0.189730
    25  H    0.183422
    26  H    0.185400
    27  H    0.129805
    28  H    0.133554
    29  H    0.130750
    30  H    0.133099
    31  H    0.124340
    32  H    0.153903
    33  H    0.135197
    34  H    0.131090
    35  H    0.132804
    36  H    0.127446
 Sum of Mulliken charges =   0.00000
 Mulliken charges with hydrogens summed into heavy atoms:
               1
     1  C    0.123685
     2  C    0.236544
     3  O   -0.433402
     4  C    0.782398
     5  O   -0.436956
     6  N   -0.230582
     7  N   -0.200927
     8  C    0.776819
     9  O   -0.439718
    10  O   -0.437565
    11  C    0.259958
    12  C    0.122411
    13  C   -0.030582
    14  C    0.002221
    15  C    0.004300
    16  C    0.006016
    17  C   -0.049577
    18  C   -0.020878
    19  C    0.007170
    20  C    0.004342
    21  C    0.006143
    22  C   -0.051818
 APT charges:
               1
     1  C    0.014727
     2  C    0.574133
     3  O   -0.920941
     4  C    1.250091
     5  O   -0.614687
     6  N   -0.191986
     7  N   -0.202594
     8  C    1.224965
     9  O   -0.617265
    10  O   -0.871710
    11  C    0.552570
    12  C    0.014645
    13  C   -0.057252
    14  C    0.018585
    15  C   -0.037885
    16  C   -0.004866
    17  C   -0.037447
    18  C   -0.060900
    19  C    0.002414
    20  C   -0.025335
    21  C   -0.005789
    22  C   -0.049308
    23  H   -0.076283
    24  H    0.007573
    25  H   -0.035987
    26  H   -0.035735
    27  H    0.023793
    28  H    0.015156
    29  H    0.012115
    30  H    0.010480
    31  H    0.016077
    32  H    0.049052
    33  H    0.015534
    34  H    0.012556
    35  H    0.010780
    36  H    0.020723
 Sum of APT charges =   0.00000
 APT charges with hydrogens summed into heavy atoms:
               1
     1  C    0.014727
     2  C    0.505423
     3  O   -0.920941
     4  C    1.250091
     5  O   -0.614687
     6  N   -0.191986
     7  N   -0.202594
     8  C    1.224965
     9  O   -0.617265
    10  O   -0.871710
    11  C    0.480849
    12  C    0.014645
    13  C   -0.033459
    14  C    0.033741
    15  C   -0.025770
    16  C    0.005614
    17  C   -0.021370
    18  C   -0.011848
    19  C    0.017949
    20  C   -0.012779
    21  C    0.004991
    22  C   -0.028585
 Electronic spatial extent (au):  <R**2>=          11220.3094
 Charge=              0.0000 electrons
 Dipole moment (field-independent basis, Debye):
    X=              0.4167    Y=             -0.4120    Z=              0.8185  Tot=              1.0067
 Quadrupole moment (field-independent basis, Debye-Ang):
   XX=            -98.9799   YY=           -133.5971   ZZ=           -117.9685
   XY=              4.0705   XZ=             -4.0364   YZ=             -0.9716
 Traceless Quadrupole moment (field-independent basis, Debye-Ang):
   XX=             17.8686   YY=            -16.7486   ZZ=             -1.1200
   XY=              4.0705   XZ=             -4.0364   YZ=             -0.9716
 Octapole moment (field-independent basis, Debye-Ang**2):
  XXX=              5.6281  YYY=            -14.3599  ZZZ=             -0.5907  XYY=             -4.6112
  XXY=            -10.6636  XXZ=            -17.4950  XZZ=             18.8268  YZZ=              9.2438
  YYZ=             -1.3766  XYZ=            -40.2426
 Hexadecapole moment (field-independent basis, Debye-Ang**3):
 XXXX=         -11854.3846 YYYY=          -1284.7015 ZZZZ=           -717.3401 XXXY=           -151.2563
 XXXZ=            -84.8825 YYYX=             82.4582 YYYZ=             23.6757 ZZZX=            -35.2027
 ZZZY=            -15.1965 XXYY=          -2413.5579 XXZZ=          -2277.9702 YYZZ=           -314.7310
 XXYZ=              6.9489 YYXZ=             33.0658 ZZXY=            -31.6935
 N-N= 1.608813311516D+03 E-N=-5.613007429981D+03  KE= 1.019105813634D+03
  Exact polarizability: 260.040 -21.621 158.553  -5.247   6.309 140.297
 Approx polarizability: 338.647 -49.862 294.327 -12.700  16.384 231.537
 Calling FoFJK, ICntrl=    100127 FMM=F ISym2X=0 I1Cent= 0 IOpClX= 0 NMat=1 NMatS=1 NMatT=0.
 ***** Axes restored to original set *****
 -------------------------------------------------------------------
 Center     Atomic                   Forces (Hartrees/Bohr)
 Number     Number              X              Y              Z
 -------------------------------------------------------------------
      1        6          -0.003526073   -0.003073126    0.005087870
      2        6          -0.002427267   -0.014695377    0.002166302
      3        8           0.018686872   -0.014406193   -0.001922152
      4        6           0.008896424   -0.077076245   -0.007919250
      5        8          -0.024538052    0.026788066   -0.000046821
      6        7           0.000203381    0.042193332    0.010697115
      7        7           0.001544283   -0.030246958    0.002864366
      8        6          -0.013214002    0.075224554    0.004323549
      9        8           0.025193794   -0.025409867   -0.007170942
     10        8           0.004040024    0.008689325    0.001752818
     11        6          -0.022221193    0.004510832    0.002833400
     12        6          -0.007920044    0.000771678   -0.006921692
     13        6           0.001587315    0.000995470   -0.001292196
     14        6           0.000681556    0.000554950    0.001068257
     15        6          -0.002229196   -0.000578486   -0.003552036
     16        6           0.002066452    0.000422227    0.002666089
     17        6           0.001166024   -0.000286378   -0.002019593
     18        6          -0.001333529    0.001768801    0.000499239
     19        6           0.001099411    0.000871309   -0.001689337
     20        6          -0.001922445   -0.001585223    0.002615457
     21        6           0.000803108   -0.000395953   -0.002210084
     22        6           0.000135500    0.001394046    0.001110908
     23        1          -0.000402477    0.005244115   -0.003192023
     24        1          -0.001201826    0.006575284    0.000082423
     25        1           0.006843655   -0.013453955   -0.000058265
     26        1           0.001301387    0.001027513    0.000541715
     27        1           0.000726033    0.003491740   -0.001236031
     28        1           0.000202172   -0.000265868    0.000679859
     29        1          -0.000115772   -0.000043045    0.000298683
     30        1           0.000317518   -0.000137243    0.000719161
     31        1           0.001054652   -0.000915414    0.000814522
     32        1           0.002959108   -0.000410852   -0.000214332
     33        1           0.000219390    0.000357471   -0.000625619
     34        1           0.000039000   -0.000110788    0.000020505
     35        1           0.000497344    0.000315084   -0.000456508
     36        1           0.000787473    0.001895175   -0.000315357
 -------------------------------------------------------------------
 Cartesian Forces:  Max     0.077076245 RMS     0.013398948
 FormGI is forming the generalized inverse of G from B-inverse, IUseBI=4.

 GradGradGradGradGradGradGradGradGradGradGradGradGradGradGradGradGradGrad
 Berny optimization.
 Internal  Forces:  Max     0.063502169 RMS     0.010436811
 Search for a local minimum.
 Step number   1 out of a maximum of  180
 All quantities printed in internal units (Hartrees-Bohrs-Radians)
 Mixed Optimization -- RFO/linear search
 Second derivative matrix not updated -- analytic derivatives used.
 ITU=  0
     Eigenvalues ---   -0.02165  -0.00588  -0.00171  -0.00124   0.00054
     Eigenvalues ---    0.01190   0.01600   0.01617   0.01712   0.01728
     Eigenvalues ---    0.01749   0.01750   0.01849   0.02042   0.02102
     Eigenvalues ---    0.02262   0.02345   0.02371   0.02430   0.02482
     Eigenvalues ---    0.02671   0.02675   0.02761   0.02767   0.02851
     Eigenvalues ---    0.02851   0.06065   0.06082   0.06739   0.07249
     Eigenvalues ---    0.07483   0.10176   0.10389   0.10606   0.11124
     Eigenvalues ---    0.11126   0.11629   0.11672   0.12046   0.12079
     Eigenvalues ---    0.12146   0.12549   0.12549   0.12983   0.13034
     Eigenvalues ---    0.14029   0.14226   0.18323   0.18761   0.19126
     Eigenvalues ---    0.19214   0.19374   0.19442   0.19554   0.20015
     Eigenvalues ---    0.20826   0.21851   0.23496   0.23593   0.24577
     Eigenvalues ---    0.26903   0.29054   0.29175   0.29544   0.30927
     Eigenvalues ---    0.31243   0.31540   0.32927   0.32998   0.33474
     Eigenvalues ---    0.33560   0.34362   0.35461   0.35556   0.35796
     Eigenvalues ---    0.35807   0.35838   0.35932   0.35950   0.36034
     Eigenvalues ---    0.36088   0.36148   0.36176   0.36763   0.39214
     Eigenvalues ---    0.41593   0.41679   0.42090   0.44921   0.46827
     Eigenvalues ---    0.47330   0.47364   0.47421   0.48507   0.50228
     Eigenvalues ---    0.51349   0.51387   0.61422   0.75808   0.79137
     Eigenvalues ---    0.79350   0.91436
 RFO step:  Lambda=-3.81730220D-02 EMin=-2.16492197D-02
 Linear search not attempted -- first point.
 Maximum step size (   0.300) exceeded in Quadratic search.
    -- Step size scaled by   0.953
 Iteration  1 RMS(Cart)=  0.26744053 RMS(Int)=  0.04038024
 Iteration  2 RMS(Cart)=  0.31846947 RMS(Int)=  0.01921954
 Iteration  3 RMS(Cart)=  0.13856775 RMS(Int)=  0.00277946
 Iteration  4 RMS(Cart)=  0.00701351 RMS(Int)=  0.00051250
[...]
    97    N    7  py     Val( 2p)     1.26425
    98    N    7  py     Ryd( 3p)     0.00429
    99    N    7  pz     Val( 2p)     1.41084
   100    N    7  pz     Ryd( 3p)     0.00474
   101    N    7  dxy    Ryd( 3d)     0.00144
   102    N    7  dxz    Ryd( 3d)     0.00096
   103    N    7  dyz    Ryd( 3d)     0.00179
   104    N    7  dx2y2  Ryd( 3d)     0.00215
   105    N    7  dz2    Ryd( 3d)     0.00133
 
   106    C    8  S      Cor( 1S)     1.99951
   107    C    8  S      Val( 2S)     0.73152
   108    C    8  S      Ryd( 3S)     0.00393
   109    C    8  S      Ryd( 4S)     0.00048
   110    C    8  px     Val( 2p)     0.80219
   111    C    8  px     Ryd( 3p)     0.00746
   112    C    8  py     Val( 2p)     0.77858
   113    C    8  py     Ryd( 3p)     0.00559
   114    C    8  pz     Val( 2p)     0.71276
   115    C    8  pz     Ryd( 3p)     0.02070
   116    C    8  dxy    Ryd( 3d)     0.00179
   117    C    8  dxz    Ryd( 3d)     0.00344
   118    C    8  dyz    Ryd( 3d)     0.00252
   119    C    8  dx2y2  Ryd( 3d)     0.00141
   120    C    8  dz2    Ryd( 3d)     0.00316
 
   121    O    9  S      Cor( 1S)     1.99977
   122    O    9  S      Val( 2S)     1.70767
   123    O    9  S      Ryd( 3S)     0.00090
   124    O    9  S      Ryd( 4S)     0.00012
   125    O    9  px     Val( 2p)     1.72200
   126    O    9  px     Ryd( 3p)     0.00129
   127    O    9  py     Val( 2p)     1.47499
   128    O    9  py     Ryd( 3p)     0.00075
   129    O    9  pz     Val( 2p)     1.61995
   130    O    9  pz     Ryd( 3p)     0.00056
   131    O    9  dxy    Ryd( 3d)     0.00130
   132    O    9  dxz    Ryd( 3d)     0.00473
   133    O    9  dyz    Ryd( 3d)     0.00431
   134    O    9  dx2y2  Ryd( 3d)     0.00119
   135    O    9  dz2    Ryd( 3d)     0.00554
 
   136    O   10  S      Cor( 1S)     1.99973
   137    O   10  S      Val( 2S)     1.63146
   138    O   10  S      Ryd( 3S)     0.00200
   139    O   10  S      Ryd( 4S)     0.00010
   140    O   10  px     Val( 2p)     1.45965
   141    O   10  px     Ryd( 3p)     0.00109
   142    O   10  py     Val( 2p)     1.76622
   143    O   10  py     Ryd( 3p)     0.00174
   144    O   10  pz     Val( 2p)     1.65234
   145    O   10  pz     Ryd( 3p)     0.00150
   146    O   10  dxy    Ryd( 3d)     0.00047
   147    O   10  dxz    Ryd( 3d)     0.00138
   148    O   10  dyz    Ryd( 3d)     0.00168
   149    O   10  dx2y2  Ryd( 3d)     0.00080
   150    O   10  dz2    Ryd( 3d)     0.00156
 
   151    C   11  S      Cor( 1S)     1.99912
   152    C   11  S      Val( 2S)     1.03245
   153    C   11  S      Ryd( 3S)     0.00117
   154    C   11  S      Ryd( 4S)     0.00005
   155    C   11  px     Val( 2p)     0.69617
   156    C   11  px     Ryd( 3p)     0.00303
   157    C   11  py     Val( 2p)     1.13238
   158    C   11  py     Ryd( 3p)     0.00146
   159    C   11  pz     Val( 2p)     1.24678
   160    C   11  pz     Ryd( 3p)     0.00719
   161    C   11  dxy    Ryd( 3d)     0.00122
   162    C   11  dxz    Ryd( 3d)     0.00086
   163    C   11  dyz    Ryd( 3d)     0.00090
   164    C   11  dx2y2  Ryd( 3d)     0.00182
   165    C   11  dz2    Ryd( 3d)     0.00129
 
   166    C   12  S      Cor( 1S)     1.99901
   167    C   12  S      Val( 2S)     0.88926
   168    C   12  S      Ryd( 3S)     0.00071
   169    C   12  S      Ryd( 4S)     0.00006
   170    C   12  px     Val( 2p)     1.03347
   171    C   12  px     Ryd( 3p)     0.00247
   172    C   12  py     Val( 2p)     1.06108
   173    C   12  py     Ryd( 3p)     0.00409
   174    C   12  pz     Val( 2p)     1.09428
   175    C   12  pz     Ryd( 3p)     0.00441
   176    C   12  dxy    Ryd( 3d)     0.00043
   177    C   12  dxz    Ryd( 3d)     0.00057
   178    C   12  dyz    Ryd( 3d)     0.00071
   179    C   12  dx2y2  Ryd( 3d)     0.00048
   180    C   12  dz2    Ryd( 3d)     0.00061
 
   181    C   13  S      Cor( 1S)     1.99903
   182    C   13  S      Val( 2S)     0.95426
   183    C   13  S      Ryd( 3S)     0.00061
   184    C   13  S      Ryd( 4S)     0.00005
   185    C   13  px     Val( 2p)     1.00689
   186    C   13  px     Ryd( 3p)     0.00132
   187    C   13  py     Val( 2p)     1.05558
   188    C   13  py     Ryd( 3p)     0.00337
   189    C   13  pz     Val( 2p)     1.18278
   190    C   13  pz     Ryd( 3p)     0.00504
   191    C   13  dxy    Ryd( 3d)     0.00047
   192    C   13  dxz    Ryd( 3d)     0.00042
   193    C   13  dyz    Ryd( 3d)     0.00061
   194    C   13  dx2y2  Ryd( 3d)     0.00046
   195    C   13  dz2    Ryd( 3d)     0.00082
 
   196    C   14  S      Cor( 1S)     1.99910
   197    C   14  S      Val( 2S)     0.96173
   198    C   14  S      Ryd( 3S)     0.00058
   199    C   14  S      Ryd( 4S)     0.00003
   200    C   14  px     Val( 2p)     1.01295
   201    C   14  px     Ryd( 3p)     0.00134
   202    C   14  py     Val( 2p)     1.11260
   203    C   14  py     Ryd( 3p)     0.00421
   204    C   14  pz     Val( 2p)     1.13024
   205    C   14  pz     Ryd( 3p)     0.00492
   206    C   14  dxy    Ryd( 3d)     0.00042
   207    C   14  dxz    Ryd( 3d)     0.00046
   208    C   14  dyz    Ryd( 3d)     0.00084
   209    C   14  dx2y2  Ryd( 3d)     0.00048
   210    C   14  dz2    Ryd( 3d)     0.00057
 
   211    C   15  S      Cor( 1S)     1.99910
   212    C   15  S      Val( 2S)     0.96530
   213    C   15  S      Ryd( 3S)     0.00053
   214    C   15  S      Ryd( 4S)     0.00003
   215    C   15  px     Val( 2p)     1.02258
   216    C   15  px     Ryd( 3p)     0.00143
   217    C   15  py     Val( 2p)     1.15170
   218    C   15  py     Ryd( 3p)     0.00435
   219    C   15  pz     Val( 2p)     1.06955
   220    C   15  pz     Ryd( 3p)     0.00433
   221    C   15  dxy    Ryd( 3d)     0.00055
   222    C   15  dxz    Ryd( 3d)     0.00054
   223    C   15  dyz    Ryd( 3d)     0.00064
   224    C   15  dx2y2  Ryd( 3d)     0.00046
   225    C   15  dz2    Ryd( 3d)     0.00060
 
   226    C   16  S      Cor( 1S)     1.99910
   227    C   16  S      Val( 2S)     0.96256
   228    C   16  S      Ryd( 3S)     0.00058
   229    C   16  S      Ryd( 4S)     0.00003
   230    C   16  px     Val( 2p)     1.01249
   231    C   16  px     Ryd( 3p)     0.00134
   232    C   16  py     Val( 2p)     1.05425
   233    C   16  py     Ryd( 3p)     0.00394
   234    C   16  pz     Val( 2p)     1.18657
   235    C   16  pz     Ryd( 3p)     0.00521
   236    C   16  dxy    Ryd( 3d)     0.00045
   237    C   16  dxz    Ryd( 3d)     0.00046
   238    C   16  dyz    Ryd( 3d)     0.00060
   239    C   16  dx2y2  Ryd( 3d)     0.00044
   240    C   16  dz2    Ryd( 3d)     0.00082
 
   241    C   17  S      Cor( 1S)     1.99903
   242    C   17  S      Val( 2S)     0.95755
   243    C   17  S      Ryd( 3S)     0.00062
   244    C   17  S      Ryd( 4S)     0.00004
   245    C   17  px     Val( 2p)     0.99597
   246    C   17  px     Ryd( 3p)     0.00137
   247    C   17  py     Val( 2p)     1.12006
   248    C   17  py     Ryd( 3p)     0.00404
   249    C   17  pz     Val( 2p)     1.12555
   250    C   17  pz     Ryd( 3p)     0.00451
   251    C   17  dxy    Ryd( 3d)     0.00043
   252    C   17  dxz    Ryd( 3d)     0.00046
   253    C   17  dyz    Ryd( 3d)     0.00084
   254    C   17  dx2y2  Ryd( 3d)     0.00050
   255    C   17  dz2    Ryd( 3d)     0.00057
 
   256    C   18  S      Cor( 1S)     1.99903
   257    C   18  S      Val( 2S)     0.95397
   258    C   18  S      Ryd( 3S)     0.00061
   259    C   18  S      Ryd( 4S)     0.00005
   260    C   18  px     Val( 2p)     1.01136
   261    C   18  px     Ryd( 3p)     0.00124
   262    C   18  py     Val( 2p)     1.06176
   263    C   18  py     Ryd( 3p)     0.00377
   264    C   18  pz     Val( 2p)     1.17342
   265    C   18  pz     Ryd( 3p)     0.00470
   266    C   18  dxy    Ryd( 3d)     0.00053
   267    C   18  dxz    Ryd( 3d)     0.00045
   268    C   18  dyz    Ryd( 3d)     0.00060
   269    C   18  dx2y2  Ryd( 3d)     0.00043
   270    C   18  dz2    Ryd( 3d)     0.00075
 
   271    C   19  S      Cor( 1S)     1.99910
   272    C   19  S      Val( 2S)     0.96143
   273    C   19  S      Ryd( 3S)     0.00058
   274    C   19  S      Ryd( 4S)     0.00003
   275    C   19  px     Val( 2p)     1.00567
   276    C   19  px     Ryd( 3p)     0.00115
   277    C   19  py     Val( 2p)     1.17028
   278    C   19  py     Ryd( 3p)     0.00503
   279    C   19  pz     Val( 2p)     1.08040
   280    C   19  pz     Ryd( 3p)     0.00428
   281    C   19  dxy    Ryd( 3d)     0.00039
   282    C   19  dxz    Ryd( 3d)     0.00043
   283    C   19  dyz    Ryd( 3d)     0.00076
   284    C   19  dx2y2  Ryd( 3d)     0.00063
   285    C   19  dz2    Ryd( 3d)     0.00055
 
   286    C   20  S      Cor( 1S)     1.99910
   287    C   20  S      Val( 2S)     0.96499
   288    C   20  S      Ryd( 3S)     0.00053
   289    C   20  S      Ryd( 4S)     0.00003
   290    C   20  px     Val( 2p)     1.00892
   291    C   20  px     Ryd( 3p)     0.00121
   292    C   20  py     Val( 2p)     1.14932
   293    C   20  py     Ryd( 3p)     0.00481
   294    C   20  pz     Val( 2p)     1.08731
   295    C   20  pz     Ryd( 3p)     0.00410
   296    C   20  dxy    Ryd( 3d)     0.00051
   297    C   20  dxz    Ryd( 3d)     0.00048
   298    C   20  dyz    Ryd( 3d)     0.00076
   299    C   20  dx2y2  Ryd( 3d)     0.00051
   300    C   20  dz2    Ryd( 3d)     0.00054
 
   301    C   21  S      Cor( 1S)     1.99910
   302    C   21  S      Val( 2S)     0.96244
   303    C   21  S      Ryd( 3S)     0.00058
   304    C   21  S      Ryd( 4S)     0.00003
   305    C   21  px     Val( 2p)     1.01809
   306    C   21  px     Ryd( 3p)     0.00123
   307    C   21  py     Val( 2p)     1.06155
   308    C   21  py     Ryd( 3p)     0.00449
   309    C   21  pz     Val( 2p)     1.17344
   310    C   21  pz     Ryd( 3p)     0.00475
   311    C   21  dxy    Ryd( 3d)     0.00050
   312    C   21  dxz    Ryd( 3d)     0.00049
   313    C   21  dyz    Ryd( 3d)     0.00061
   314    C   21  dx2y2  Ryd( 3d)     0.00042
   315    C   21  dz2    Ryd( 3d)     0.00074
 
   316    C   22  S      Cor( 1S)     1.99903
   317    C   22  S      Val( 2S)     0.95736
   318    C   22  S      Ryd( 3S)     0.00063
   319    C   22  S      Ryd( 4S)     0.00004
   320    C   22  px     Val( 2p)     0.98664
   321    C   22  px     Ryd( 3p)     0.00112
   322    C   22  py     Val( 2p)     1.18385
   323    C   22  py     Ryd( 3p)     0.00503
   324    C   22  pz     Val( 2p)     1.07170
   325    C   22  pz     Ryd( 3p)     0.00375
   326    C   22  dxy    Ryd( 3d)     0.00039
   327    C   22  dxz    Ryd( 3d)     0.00044
   328    C   22  dyz    Ryd( 3d)     0.00073
   329    C   22  dx2y2  Ryd( 3d)     0.00065
   330    C   22  dz2    Ryd( 3d)     0.00057
 
   331    H   23  S      Val( 1S)     0.75848
   332    H   23  S      Ryd( 2S)     0.00115
 
   333    H   24  S      Val( 1S)     0.75571
   334    H   24  S      Ryd( 2S)     0.00221
 
   335    H   25  S      Val( 1S)     0.75805
   336    H   25  S      Ryd( 2S)     0.00118
 
   337    H   26  S      Val( 1S)     0.75493
   338    H   26  S      Ryd( 2S)     0.00214
 
   339    H   27  S      Val( 1S)     0.76206
   340    H   27  S      Ryd( 2S)     0.00106
 
   341    H   28  S      Val( 1S)     0.75954
   342    H   28  S      Ryd( 2S)     0.00085
 
   343    H   29  S      Val( 1S)     0.76010
   344    H   29  S      Ryd( 2S)     0.00082
 
   345    H   30  S      Val( 1S)     0.75810
   346    H   30  S      Ryd( 2S)     0.00083
 
   347    H   31  S      Val( 1S)     0.74685
   348    H   31  S      Ryd( 2S)     0.00140
 
   349    H   32  S      Val( 1S)     0.76295
   350    H   32  S      Ryd( 2S)     0.00106
 
   351    H   33  S      Val( 1S)     0.76011
   352    H   33  S      Ryd( 2S)     0.00085
 
   353    H   34  S      Val( 1S)     0.76060
   354    H   34  S      Ryd( 2S)     0.00082
 
   355    H   35  S      Val( 1S)     0.75855
   356    H   35  S      Ryd( 2S)     0.00083
 
   357    H   36  S      Val( 1S)     0.74652
   358    H   36  S      Ryd( 2S)     0.00136


 Summary of Natural Population Analysis:                  
                                                          
                                       Natural Population 
                Natural  -----------------------------------------------
    Atom  No    Charge         Core      Valence    Rydberg      Total
 -----------------------------------------------------------------------
      C    1   -0.09147      1.99901     4.07795    0.01451     6.09147
      C    2   -0.12392      1.99912     4.10574    0.01907     6.12392
      O    3   -0.52358      1.99973     6.51158    0.01227     8.52358
      C    4    0.92158      1.99950     3.02862    0.05029     5.07842
      O    5   -0.55227      1.99977     6.53178    0.02072     8.55227
      N    6   -0.22279      1.99938     5.19689    0.02652     7.22279
      N    7   -0.21794      1.99938     5.19223    0.02633     7.21794
      C    8    0.92496      1.99951     3.02506    0.05047     5.07504
      O    9   -0.54508      1.99977     6.52462    0.02070     8.54508
      O   10   -0.52173      1.99973     6.50967    0.01232     8.52173
      C   11   -0.12588      1.99912     4.10777    0.01899     6.12588
      C   12   -0.09164      1.99901     4.07809    0.01454     6.09164
      C   13   -0.21170      1.99903     4.19951    0.01316     6.21170
      C   14   -0.23046      1.99910     4.21753    0.01383     6.23046
      C   15   -0.22169      1.99910     4.20912    0.01347     6.22169
      C   16   -0.22884      1.99910     4.21587    0.01386     6.22884
      C   17   -0.21155      1.99903     4.19914    0.01338     6.21155
      C   18   -0.21267      1.99903     4.20050    0.01314     6.21267
      C   19   -0.23071      1.99910     4.21778    0.01383     6.23071
      C   20   -0.22311      1.99910     4.21054    0.01347     6.22311
      C   21   -0.22846      1.99910     4.21552    0.01384     6.22846
      C   22   -0.21193      1.99903     4.19955    0.01335     6.21193
      H   23    0.24037      0.00000     0.75848    0.00115     0.75963
      H   24    0.24208      0.00000     0.75571    0.00221     0.75792
      H   25    0.24077      0.00000     0.75805    0.00118     0.75923
      H   26    0.24293      0.00000     0.75493    0.00214     0.75707
      H   27    0.23688      0.00000     0.76206    0.00106     0.76312
      H   28    0.23962      0.00000     0.75954    0.00085     0.76038
      H   29    0.23908      0.00000     0.76010    0.00082     0.76092
      H   30    0.24107      0.00000     0.75810    0.00083     0.75893
      H   31    0.25175      0.00000     0.74685    0.00140     0.74825
      H   32    0.23599      0.00000     0.76295    0.00106     0.76401
      H   33    0.23904      0.00000     0.76011    0.00085     0.76096
      H   34    0.23857      0.00000     0.76060    0.00082     0.76143
      H   35    0.24062      0.00000     0.75855    0.00083     0.75938
      H   36    0.25213      0.00000     0.74652    0.00136     0.74787
 =======================================================================
   * Total *   -0.00000     43.98375   111.57760    0.43865   156.00000

                                 Natural Population      
 --------------------------------------------------------
   Core                      43.98375 ( 99.9631% of  44)
   Valence                  111.57760 ( 99.6229% of 112)
   Natural Minimal Basis    155.56135 ( 99.7188% of 156)
   Natural Rydberg Basis      0.43865 (  0.2812% of 156)
 --------------------------------------------------------

    Atom  No          Natural Electron Configuration
 ----------------------------------------------------------------------------
      C    1      [core]2S( 0.89)2p( 3.19)3p( 0.01)
      C    2      [core]2S( 1.03)2p( 3.07)3p( 0.01)3d( 0.01)
      O    3      [core]2S( 1.63)2p( 4.88)3d( 0.01)
      C    4      [core]2S( 0.73)2p( 2.30)3p( 0.03)3d( 0.01)
      O    5      [core]2S( 1.71)2p( 4.82)3d( 0.02)
      N    6      [core]2S( 1.39)2p( 3.80)3S( 0.01)3p( 0.01)3d( 0.01)
      N    7      [core]2S( 1.39)2p( 3.80)3S( 0.01)3p( 0.01)3d( 0.01)
      C    8      [core]2S( 0.73)2p( 2.29)3p( 0.03)3d( 0.01)
      O    9      [core]2S( 1.71)2p( 4.82)3d( 0.02)
      O   10      [core]2S( 1.63)2p( 4.88)3d( 0.01)
      C   11      [core]2S( 1.03)2p( 3.08)3p( 0.01)3d( 0.01)
      C   12      [core]2S( 0.89)2p( 3.19)3p( 0.01)
      C   13      [core]2S( 0.95)2p( 3.25)3p( 0.01)
      C   14      [core]2S( 0.96)2p( 3.26)3p( 0.01)
      C   15      [core]2S( 0.97)2p( 3.24)3p( 0.01)
      C   16      [core]2S( 0.96)2p( 3.25)3p( 0.01)
      C   17      [core]2S( 0.96)2p( 3.24)3p( 0.01)
      C   18      [core]2S( 0.95)2p( 3.25)3p( 0.01)
      C   19      [core]2S( 0.96)2p( 3.26)3p( 0.01)
      C   20      [core]2S( 0.96)2p( 3.25)3p( 0.01)
      C   21      [core]2S( 0.96)2p( 3.25)3p( 0.01)
      C   22      [core]2S( 0.96)2p( 3.24)3p( 0.01)
      H   23            1S( 0.76)
      H   24            1S( 0.76)
      H   25            1S( 0.76)
      H   26            1S( 0.75)
      H   27            1S( 0.76)
      H   28            1S( 0.76)
      H   29            1S( 0.76)
      H   30            1S( 0.76)
      H   31            1S( 0.75)
      H   32            1S( 0.76)
      H   33            1S( 0.76)
      H   34            1S( 0.76)
      H   35            1S( 0.76)
      H   36            1S( 0.75)


 NBO analysis skipped by request.
 1\1\GINC-DELLA-R2C4N7\SP\RB3LYP TD-FC\6-31G(d)\C16H14N2O4\BJS4\22-Aug-
 2020\0\\# TD(NStates=10, Root=1) B3LYP/6-31G* scf=qc volume pop=NPA de
 nsity=current Geom=AllCheck Guess=Read\\Title Card Required\\0,1\C,0,-
 6.3936934077,-1.4644460617,0.4939618907\C,0,-5.0655121044,-0.984373961
 8,-0.026653219\O,0,-5.0909821297,0.4496914481,-0.3400314676\C,0,-4.730
 842549,1.2734872829,0.6406882626\O,0,-4.3822071434,0.9964343685,1.7613
 543909\N,0,-4.6702751102,2.6367711159,0.1513173451\N,0,-5.7918939281,3
 .1675186327,0.0526907745\C,0,-5.7270086997,4.5626494852,-0.3334734606\
 O,0,-5.8143254989,5.4486624964,0.4795222146\O,0,-5.669819325,4.6588330
 943,-1.6593478313\C,0,-5.7464117775,6.0148599568,-2.2177240786\C,0,-7.
 1686258327,6.4219808787,-2.4953828818\C,0,-7.7572986779,6.1274145814,-
 3.7317051019\C,0,-9.0774612055,6.4931603776,-3.9931277339\C,0,-9.82219
 09518,7.1589331182,-3.0174479109\C,0,-9.2431874456,7.4562995852,-1.781
 9668175\C,0,-7.9228016835,7.0901704897,-1.5209687309\C,0,-7.3703578813
 ,-1.9322543594,-0.3940135469\C,0,-8.6063598841,-2.3718384621,0.0794639
 124\C,0,-8.8763375079,-2.3472603402,1.4491191637\C,0,-7.9080542883,-1.
 8820125818,2.3414749797\C,0,-6.6721752773,-1.4425393112,1.8674683605\H
 ,0,-4.8177011859,-1.4473999469,-0.9832093409\H,0,-4.2599062397,-1.1568
 588177,0.6894232126\H,0,-5.1619706743,5.9405743376,-3.1361273783\H,0,-
 5.2547870693,6.6951850751,-1.5205575061\H,0,-7.1769158758,5.6105516696
 ,-4.4927033197\H,0,-9.5229962638,6.2619849601,-4.9568708974\H,0,-10.85
 01888388,7.4471457614,-3.2203772253\H,0,-9.819416224,7.9754007398,-1.0
 20949037\H,0,-7.472575438,7.3110812359,-0.5576406125\H,0,-7.1599288206
 ,-1.9527869435,-1.4609698555\H,0,-9.3559298264,-2.7348086372,-0.618473
 1221\H,0,-9.8380454158,-2.6914125443,1.8201949127\H,0,-8.1145828291,-1
 .862373082,3.4080561676\H,0,-5.9206729894,-1.0705356413,2.5576554881\\
 Version=ES64L-G16RevA.03\State=1-A\HF=-1028.4822518\RMSD=7.252e-13\Dip
 ole=-0.7753085,-0.359322,-1.3433565\Quadrupole=-2.1486671,6.2895428,-4
 .1408757,-1.5008651,-3.9029608,-5.7631831\PG=C01 [X(C16H14N2O4)]\\@


 THE MOLECULE ALSO HAS A BODY.  WHEN THIS BODY IS HIT, THE MOLECULE
 FEELS HURT ALL OVER -- A. KITAIGORODSKI
 Job cpu time:       0 days  0 hours 52 minutes  9.6 seconds.
 Elapsed time:       0 days  0 hours 10 minutes 28.0 seconds.
 File lengths (MBytes):  RWF=   1047 Int=      0 D2E=      0 Chk=    268 Scr=      1
 Normal termination of Gaussian 16 at Sat Aug 22 17:54:49 2020.
