 Entering Gaussian System, Link 0=g16
 Input=azadicarboxylate_5_conf1123.com
 Output=azadicarboxylate_5_conf1123.log
 Initial command:
 /opt/export//g16/l1.exe "/scratch/bjs4/job.63329/Gau-63331.inp" -scrdir="/scratch/bjs4/job.63329/"
 Entering Link 1 = /opt/export//g16/l1.exe PID=     63332.
  
 Copyright (c) 1988,1990,1992,1993,1995,1998,2003,2009,2016,
            Gaussian, Inc.  All Rights Reserved.
  
 This is part of the Gaussian(R) 16 program.  It is based on
 the Gaussian(R) 09 system (copyright 2009, Gaussian, Inc.),
 the Gaussian(R) 03 system (copyright 2003, Gaussian, Inc.),
 the Gaussian(R) 98 system (copyright 1998, Gaussian, Inc.),
 the Gaussian(R) 94 system (copyright 1995, Gaussian, Inc.),
 the Gaussian 92(TM) system (copyright 1992, Gaussian, Inc.),
 the Gaussian 90(TM) system (copyright 1990, Gaussian, Inc.),
 the Gaussian 88(TM) system (copyright 1988, Gaussian, Inc.),
 the Gaussian 86(TM) system (copyright 1986, Carnegie Mellon
 University), and the Gaussian 82(TM) system (copyright 1983,
 Carnegie Mellon University). Gaussian is a federally registered
 trademark of Gaussian, Inc.
  
 This software contains proprietary and confidential information,
 including trade secrets, belonging to Gaussian, Inc.
  
 This software is provided under written license and may be
 used, copied, transmitted, or stored only in accord with that
 written license.
  
 The following legend is applicable only to US Government
 contracts under FAR:
  
                    RESTRICTED RIGHTS LEGEND
  
 Use, reproduction and disclosure by the US Government is
 subject to restrictions as set forth in subparagraphs (a)
 and (c) of the Commercial Computer Software - Restricted
 Rights clause in FAR 52.227-19.
  
 Gaussian, Inc.
 340 Quinnipiac St., Bldg. 40, Wallingford CT 06492
  
  
 ---------------------------------------------------------------
 Warning -- This program may not be used in any manner that
 competes with the business of Gaussian, Inc. or will provide
 assistance to any competitor of Gaussian, Inc.  The licensee
 of this program is prohibited from giving any competitor of
 Gaussian, Inc. access to this program.  By using this program,
 the user acknowledges that Gaussian, Inc. is engaged in the
 business of creating and licensing software in the field of
 computational chemistry and represents and warrants to the
 licensee that it is not a competitor of Gaussian, Inc. and that
 it will not use this program in any manner prohibited above.
 ---------------------------------------------------------------
  

 Cite this work as:
 Gaussian 16, Revision A.03,
 M. J. Frisch, G. W. Trucks, H. B. Schlegel, G. E. Scuseria, 
 M. A. Robb, J. R. Cheeseman, G. Scalmani, V. Barone, 
 G. A. Petersson, H. Nakatsuji, X. Li, M. Caricato, A. V. Marenich, 
 J. Bloino, B. G. Janesko, R. Gomperts, B. Mennucci, H. P. Hratchian, 
 J. V. Ortiz, A. F. Izmaylov, J. L. Sonnenberg, D. Williams-Young, 
 F. Ding, F. Lipparini, F. Egidi, J. Goings, B. Peng, A. Petrone, 
 T. Henderson, D. Ranasinghe, V. G. Zakrzewski, J. Gao, N. Rega, 
 G. Zheng, W. Liang, M. Hada, M. Ehara, K. Toyota, R. Fukuda, 
 J. Hasegawa, M. Ishida, T. Nakajima, Y. Honda, O. Kitao, H. Nakai, 
 T. Vreven, K. Throssell, J. A. Montgomery, Jr., J. E. Peralta, 
 F. Ogliaro, M. J. Bearpark, J. J. Heyd, E. N. Brothers, K. N. Kudin, 
 V. N. Staroverov, T. A. Keith, R. Kobayashi, J. Normand, 
 K. Raghavachari, A. P. Rendell, J. C. Burant, S. S. Iyengar, 
 J. Tomasi, M. Cossi, J. M. Millam, M. Klene, C. Adamo, R. Cammi, 
 J. W. Ochterski, R. L. Martin, K. Morokuma, O. Farkas, 
 J. B. Foresman, and D. J. Fox, Gaussian, Inc., Wallingford CT, 2016.
 
 ******************************************
 Gaussian 16:  ES64L-G16RevA.03 25-Dec-2016
                22-Aug-2020 
 ******************************************
 %nprocshared=5
 Will use up to    5 processors via shared memory.
 %Mem=10GB
 %Chk=azadicarboxylate_5_conf11.chk
 ---------------------------------
 # opt=CalcAll B3LYP/6-31G* scf=qc
 ---------------------------------
 1/10=4,18=20,19=15,26=3,38=1/1,3;
 2/9=110,12=2,17=6,18=5,40=1/2;
 3/5=1,6=6,7=1,11=2,25=1,30=1,71=2,74=-5,140=1/1,2,3;
 4//1;
 5/5=2,8=3,38=5/8;
 8/6=4,10=90,11=11/1;
 11/6=1,8=1,9=11,15=111,16=1/1,2,10;
 10/6=1/2;
 6/7=2,8=2,9=2,10=2,18=1,28=1/1;
 7/10=1,25=1/1,2,3,16;
 1/10=4,18=20,19=15,26=3/3(3);
 2/9=110/2;
 7/8=1,9=1,25=1,44=-1/16;
 99//99;
 2/9=110/2;
 3/5=1,6=6,7=1,11=2,25=1,30=1,71=2,74=-5,140=1/1,2,3;
 4/5=5,16=3,69=1/1;
 5/5=2,8=3,38=5/8;
 8/6=4,10=90,11=11/1;
 11/6=1,8=1,9=11,15=111,16=1/1,2,10;
 10/6=1/2;
 7/10=1,25=1/1,2,3,16;
 1/10=4,18=20,19=15,26=3/3(-8);
 2/9=110/2;
 6/7=2,8=2,9=2,10=2,18=1,19=2,28=1/1;
 7/8=1,9=1,25=1,44=-1/16;
 99//99;
 -------------------
 Title Card Required
 -------------------
 Symbolic Z-matrix:
 Charge =  0 Multiplicity = 1
 C2                    0.8141    0.1461    0.0473 
 O3                    1.90895  -0.07688  -0.47327 
 N4                    0.2028    1.3863    0.0651 
 N5                   -1.0496    1.3066    0.0658 
 C6                   -1.6625    2.5457    0.0392 
 O7                   -2.75799   2.76337  -0.48227 
 N8                   -0.95989   3.57693   0.66703 
 C                     0.34209   3.31142   1.26709 
 C                     1.35491   4.38333   0.87096 
 C                     0.83283   5.7841    1.18444 
 C                    -0.5465    6.00683   0.56414 
 C                    -1.5269    4.89733   0.94541 
 N1                    0.10816  -0.8807    0.68426 
 C                    -1.19339  -0.60452   1.28217 
 C                    -2.21099  -1.67298   0.88994 
 C                    -1.69567  -3.07501   1.2091 
 C                    -0.31722  -3.30678   0.59007 
 C                     0.6681   -2.20046   0.96775 
 H                     0.72106   2.32729   0.97793 
 H                     0.20592   3.30175   2.35564 
 H                     1.55909   4.30931  -0.20454 
 H                     2.30343   4.21323   1.39273 
 H                     1.53574   6.53481   0.80532 
 H                     0.77415   5.91894   2.27122 
 H                    -0.44451   6.03753  -0.52774 
 H                    -0.94152   6.97898   0.8796 
 H                    -2.47495   5.04946   0.42287 
 H                    -1.73832   4.93704   2.02133 
 H                    -1.56751   0.38065   0.98793 
 H                    -1.05733  -0.59025   2.37055 
 H                    -2.41414  -1.60254  -0.18611 
 H                    -3.15863  -1.49624   1.41054 
 H                    -2.40222  -3.82382   0.83279 
 H                    -1.6379   -3.20585   2.29648 
 H                    -0.41887  -3.34114  -0.50167 
 H                     0.07284  -4.27972   0.90927 
 H                     1.61606  -2.35925   0.44736 
 H                     0.87798  -2.23704   2.044 
 

 GradGradGradGradGradGradGradGradGradGradGradGradGradGradGradGradGradGrad
 Berny optimization.
 Initialization pass.
                           ----------------------------
                           !    Initial Parameters    !
                           ! (Angstroms and Degrees)  !
 --------------------------                            --------------------------
 ! Name  Definition              Value          Derivative Info.                !
 --------------------------------------------------------------------------------
 ! R1    R(1,2)                  1.2326         calculate D2E/DX2 analytically  !
 ! R2    R(1,3)                  1.3828         calculate D2E/DX2 analytically  !
 ! R3    R(1,13)                 1.3994         calculate D2E/DX2 analytically  !
 ! R4    R(3,4)                  1.2549         calculate D2E/DX2 analytically  !
 ! R5    R(4,5)                  1.3827         calculate D2E/DX2 analytically  !
 ! R6    R(5,6)                  1.2326         calculate D2E/DX2 analytically  !
 ! R7    R(5,7)                  1.3969         calculate D2E/DX2 analytically  !
 ! R8    R(7,8)                  1.458          calculate D2E/DX2 analytically  !
 ! R9    R(7,12)                 1.4637         calculate D2E/DX2 analytically  !
 ! R10   R(8,9)                  1.527          calculate D2E/DX2 analytically  !
 ! R11   R(8,19)                 1.0935         calculate D2E/DX2 analytically  !
 ! R12   R(8,20)                 1.0971         calculate D2E/DX2 analytically  !
 ! R13   R(9,10)                 1.5274         calculate D2E/DX2 analytically  !
 ! R14   R(9,21)                 1.0972         calculate D2E/DX2 analytically  !
 ! R15   R(9,22)                 1.0958         calculate D2E/DX2 analytically  !
 ! R16   R(10,11)                1.5287         calculate D2E/DX2 analytically  !
 ! R17   R(10,23)                1.0961         calculate D2E/DX2 analytically  !
 ! R18   R(10,24)                1.0967         calculate D2E/DX2 analytically  !
 ! R19   R(11,12)                1.5289         calculate D2E/DX2 analytically  !
 ! R20   R(11,25)                1.0971         calculate D2E/DX2 analytically  !
 ! R21   R(11,26)                1.0957         calculate D2E/DX2 analytically  !
 ! R22   R(12,27)                1.0932         calculate D2E/DX2 analytically  !
 ! R23   R(12,28)                1.0972         calculate D2E/DX2 analytically  !
 ! R24   R(13,14)                1.4587         calculate D2E/DX2 analytically  !
 ! R25   R(13,18)                1.4614         calculate D2E/DX2 analytically  !
 ! R26   R(14,15)                1.5267         calculate D2E/DX2 analytically  !
 ! R27   R(14,29)                1.0941         calculate D2E/DX2 analytically  !
 ! R28   R(14,30)                1.0969         calculate D2E/DX2 analytically  !
 ! R29   R(15,16)                1.5275         calculate D2E/DX2 analytically  !
 ! R30   R(15,31)                1.0973         calculate D2E/DX2 analytically  !
 ! R31   R(15,32)                1.0956         calculate D2E/DX2 analytically  !
 ! R32   R(16,17)                1.5287         calculate D2E/DX2 analytically  !
 ! R33   R(16,33)                1.0961         calculate D2E/DX2 analytically  !
 ! R34   R(16,34)                1.0967         calculate D2E/DX2 analytically  !
 ! R35   R(17,18)                1.5289         calculate D2E/DX2 analytically  !
 ! R36   R(17,35)                1.097          calculate D2E/DX2 analytically  !
 ! R37   R(17,36)                1.0957         calculate D2E/DX2 analytically  !
 ! R38   R(18,37)                1.093          calculate D2E/DX2 analytically  !
 ! R39   R(18,38)                1.0971         calculate D2E/DX2 analytically  !
 ! A1    A(2,1,3)              124.0792         calculate D2E/DX2 analytically  !
 ! A2    A(2,1,13)             120.501          calculate D2E/DX2 analytically  !
 ! A3    A(3,1,13)             115.4172         calculate D2E/DX2 analytically  !
 ! A4    A(1,3,4)              112.5961         calculate D2E/DX2 analytically  !
 ! A5    A(3,4,5)              112.6722         calculate D2E/DX2 analytically  !
 ! A6    A(4,5,6)              124.08           calculate D2E/DX2 analytically  !
 ! A7    A(4,5,7)              115.4665         calculate D2E/DX2 analytically  !
 ! A8    A(6,5,7)              120.4507         calculate D2E/DX2 analytically  !
 ! A9    A(5,7,8)              119.9807         calculate D2E/DX2 analytically  !
 ! A10   A(5,7,12)             123.8205         calculate D2E/DX2 analytically  !
 ! A11   A(8,7,12)             115.5902         calculate D2E/DX2 analytically  !
 ! A12   A(7,8,9)              110.9592         calculate D2E/DX2 analytically  !
 ! A13   A(7,8,19)             111.3795         calculate D2E/DX2 analytically  !
 ! A14   A(7,8,20)             107.4056         calculate D2E/DX2 analytically  !
 ! A15   A(9,8,19)             109.4689         calculate D2E/DX2 analytically  !
 ! A16   A(9,8,20)             110.2377         calculate D2E/DX2 analytically  !
 ! A17   A(19,8,20)            107.3053         calculate D2E/DX2 analytically  !
 ! A18   A(8,9,10)             111.3347         calculate D2E/DX2 analytically  !
 ! A19   A(8,9,21)             109.2905         calculate D2E/DX2 analytically  !
 ! A20   A(8,9,22)             109.976          calculate D2E/DX2 analytically  !
 ! A21   A(10,9,21)            109.0656         calculate D2E/DX2 analytically  !
 ! A22   A(10,9,22)            109.9066         calculate D2E/DX2 analytically  !
 ! A23   A(21,9,22)            107.1678         calculate D2E/DX2 analytically  !
 ! A24   A(9,10,11)            111.0233         calculate D2E/DX2 analytically  !
 ! A25   A(9,10,23)            109.7509         calculate D2E/DX2 analytically  !
 ! A26   A(9,10,24)            109.5378         calculate D2E/DX2 analytically  !
 ! A27   A(11,10,23)           109.7851         calculate D2E/DX2 analytically  !
 ! A28   A(11,10,24)           109.628          calculate D2E/DX2 analytically  !
 ! A29   A(23,10,24)           107.0297         calculate D2E/DX2 analytically  !
 ! A30   A(10,11,12)           111.8185         calculate D2E/DX2 analytically  !
 ! A31   A(10,11,25)           108.9078         calculate D2E/DX2 analytically  !
 ! A32   A(10,11,26)           109.7385         calculate D2E/DX2 analytically  !
 ! A33   A(12,11,25)           109.1546         calculate D2E/DX2 analytically  !
 ! A34   A(12,11,26)           109.9298         calculate D2E/DX2 analytically  !
 ! A35   A(25,11,26)           107.1711         calculate D2E/DX2 analytically  !
 ! A36   A(7,12,11)            111.0265         calculate D2E/DX2 analytically  !
 ! A37   A(7,12,27)            111.7518         calculate D2E/DX2 analytically  !
 ! A38   A(7,12,28)            107.0849         calculate D2E/DX2 analytically  !
 ! A39   A(11,12,27)           109.6292         calculate D2E/DX2 analytically  !
 ! A40   A(11,12,28)           109.9885         calculate D2E/DX2 analytically  !
 ! A41   A(27,12,28)           107.2527         calculate D2E/DX2 analytically  !
 ! A42   A(1,13,14)            119.8513         calculate D2E/DX2 analytically  !
 ! A43   A(1,13,18)            123.8922         calculate D2E/DX2 analytically  !
 ! A44   A(14,13,18)           115.6802         calculate D2E/DX2 analytically  !
 ! A45   A(13,14,15)           110.9103         calculate D2E/DX2 analytically  !
 ! A46   A(13,14,29)           111.4289         calculate D2E/DX2 analytically  !
 ! A47   A(13,14,30)           107.3665         calculate D2E/DX2 analytically  !
 ! A48   A(15,14,29)           109.4597         calculate D2E/DX2 analytically  !
 ! A49   A(15,14,30)           110.2841         calculate D2E/DX2 analytically  !
 ! A50   A(29,14,30)           107.3091         calculate D2E/DX2 analytically  !
 ! A51   A(14,15,16)           111.335          calculate D2E/DX2 analytically  !
 ! A52   A(14,15,31)           109.2928         calculate D2E/DX2 analytically  !
 ! A53   A(14,15,32)           109.9708         calculate D2E/DX2 analytically  !
 ! A54   A(16,15,31)           109.0431         calculate D2E/DX2 analytically  !
 ! A55   A(16,15,32)           109.9136         calculate D2E/DX2 analytically  !
 ! A56   A(31,15,32)           107.1865         calculate D2E/DX2 analytically  !
 ! A57   A(15,16,17)           111.0238         calculate D2E/DX2 analytically  !
 ! A58   A(15,16,33)           109.7454         calculate D2E/DX2 analytically  !
 ! A59   A(15,16,34)           109.5384         calculate D2E/DX2 analytically  !
 ! A60   A(17,16,33)           109.7933         calculate D2E/DX2 analytically  !
 ! A61   A(17,16,34)           109.6266         calculate D2E/DX2 analytically  !
 ! A62   A(33,16,34)           107.0273         calculate D2E/DX2 analytically  !
 ! A63   A(16,17,18)           111.8008         calculate D2E/DX2 analytically  !
 ! A64   A(16,17,35)           108.9161         calculate D2E/DX2 analytically  !
 ! A65   A(16,17,36)           109.7332         calculate D2E/DX2 analytically  !
 ! A66   A(18,17,35)           109.1614         calculate D2E/DX2 analytically  !
 ! A67   A(18,17,36)           109.9464         calculate D2E/DX2 analytically  !
 ! A68   A(35,17,36)           107.1628         calculate D2E/DX2 analytically  !
 ! A69   A(13,18,17)           111.0163         calculate D2E/DX2 analytically  !
 ! A70   A(13,18,37)           111.7866         calculate D2E/DX2 analytically  !
 ! A71   A(13,18,38)           107.0797         calculate D2E/DX2 analytically  !
 ! A72   A(17,18,37)           109.6463         calculate D2E/DX2 analytically  !
 ! A73   A(17,18,38)           109.9677         calculate D2E/DX2 analytically  !
 ! A74   A(37,18,38)           107.235          calculate D2E/DX2 analytically  !
 ! D1    D(2,1,3,4)            149.647          calculate D2E/DX2 analytically  !
 ! D2    D(13,1,3,4)           -30.9426         calculate D2E/DX2 analytically  !
 ! D3    D(2,1,13,14)         -179.2939         calculate D2E/DX2 analytically  !
 ! D4    D(2,1,13,18)            9.7966         calculate D2E/DX2 analytically  !
 ! D5    D(3,1,13,14)            1.2728         calculate D2E/DX2 analytically  !
 ! D6    D(3,1,13,18)         -169.6367         calculate D2E/DX2 analytically  !
 ! D7    D(1,3,4,5)           -178.0064         calculate D2E/DX2 analytically  !
 ! D8    D(3,4,5,6)            149.647          calculate D2E/DX2 analytically  !
 ! D9    D(3,4,5,7)            -30.9646         calculate D2E/DX2 analytically  !
 ! D10   D(4,5,7,8)              1.2932         calculate D2E/DX2 analytically  !
 ! D11   D(4,5,7,12)          -169.3588         calculate D2E/DX2 analytically  !
 ! D12   D(6,5,7,8)           -179.2945         calculate D2E/DX2 analytically  !
 ! D13   D(6,5,7,12)            10.0535         calculate D2E/DX2 analytically  !
 ! D14   D(5,7,8,9)            133.4709         calculate D2E/DX2 analytically  !
 ! D15   D(5,7,8,19)            11.2462         calculate D2E/DX2 analytically  !
 ! D16   D(5,7,8,20)          -105.9797         calculate D2E/DX2 analytically  !
 ! D17   D(12,7,8,9)           -55.134          calculate D2E/DX2 analytically  !
 ! D18   D(12,7,8,19)         -177.3587         calculate D2E/DX2 analytically  !
 ! D19   D(12,7,8,20)           65.4153         calculate D2E/DX2 analytically  !
 ! D20   D(5,7,12,11)         -134.806          calculate D2E/DX2 analytically  !
 ! D21   D(5,7,12,27)          -12.064          calculate D2E/DX2 analytically  !
 ! D22   D(5,7,12,28)          105.1101         calculate D2E/DX2 analytically  !
 ! D23   D(8,7,12,11)           54.1687         calculate D2E/DX2 analytically  !
 ! D24   D(8,7,12,27)          176.9107         calculate D2E/DX2 analytically  !
 ! D25   D(8,7,12,28)          -65.9152         calculate D2E/DX2 analytically  !
 ! D26   D(7,8,9,10)            53.4582         calculate D2E/DX2 analytically  !
 ! D27   D(7,8,9,21)           -67.0891         calculate D2E/DX2 analytically  !
 ! D28   D(7,8,9,22)           175.5254         calculate D2E/DX2 analytically  !
 ! D29   D(19,8,9,10)          176.7879         calculate D2E/DX2 analytically  !
 ! D30   D(19,8,9,21)           56.2406         calculate D2E/DX2 analytically  !
 ! D31   D(19,8,9,22)          -61.1449         calculate D2E/DX2 analytically  !
 ! D32   D(20,8,9,10)          -65.3988         calculate D2E/DX2 analytically  !
 ! D33   D(20,8,9,21)          174.0539         calculate D2E/DX2 analytically  !
 ! D34   D(20,8,9,22)           56.6684         calculate D2E/DX2 analytically  !
 ! D35   D(8,9,10,11)          -53.1495         calculate D2E/DX2 analytically  !
 ! D36   D(8,9,10,23)         -174.7031         calculate D2E/DX2 analytically  !
 ! D37   D(8,9,10,24)           68.0646         calculate D2E/DX2 analytically  !
 ! D38   D(21,9,10,11)          67.5299         calculate D2E/DX2 analytically  !
 ! D39   D(21,9,10,23)         -54.0236         calculate D2E/DX2 analytically  !
 ! D40   D(21,9,10,24)        -171.2559         calculate D2E/DX2 analytically  !
 ! D41   D(22,9,10,11)        -175.2569         calculate D2E/DX2 analytically  !
 ! D42   D(22,9,10,23)          63.1896         calculate D2E/DX2 analytically  !
 ! D43   D(22,9,10,24)         -54.0428         calculate D2E/DX2 analytically  !
 ! D44   D(9,10,11,12)          52.4205         calculate D2E/DX2 analytically  !
 ! D45   D(9,10,11,25)         -68.2917         calculate D2E/DX2 analytically  !
 ! D46   D(9,10,11,26)         174.6789         calculate D2E/DX2 analytically  !
 ! D47   D(23,10,11,12)        173.9539         calculate D2E/DX2 analytically  !
 ! D48   D(23,10,11,25)         53.2418         calculate D2E/DX2 analytically  !
 ! D49   D(23,10,11,26)        -63.7876         calculate D2E/DX2 analytically  !
 ! D50   D(24,10,11,12)        -68.7407         calculate D2E/DX2 analytically  !
 ! D51   D(24,10,11,25)        170.5472         calculate D2E/DX2 analytically  !
 ! D52   D(24,10,11,26)         53.5178         calculate D2E/DX2 analytically  !
 ! D53   D(10,11,12,7)         -51.6939         calculate D2E/DX2 analytically  !
 ! D54   D(10,11,12,27)       -175.654          calculate D2E/DX2 analytically  !
 ! D55   D(10,11,12,28)         66.6487         calculate D2E/DX2 analytically  !
 ! D56   D(25,11,12,7)          68.8746         calculate D2E/DX2 analytically  !
 ! D57   D(25,11,12,27)        -55.0855         calculate D2E/DX2 analytically  !
 ! D58   D(25,11,12,28)       -172.7829         calculate D2E/DX2 analytically  !
 ! D59   D(26,11,12,7)        -173.8427         calculate D2E/DX2 analytically  !
 ! D60   D(26,11,12,27)         62.1972         calculate D2E/DX2 analytically  !
 ! D61   D(26,11,12,28)        -55.5002         calculate D2E/DX2 analytically  !
 ! D62   D(1,13,14,15)         133.2491         calculate D2E/DX2 analytically  !
 ! D63   D(1,13,14,29)          11.0361         calculate D2E/DX2 analytically  !
 ! D64   D(1,13,14,30)        -106.1983         calculate D2E/DX2 analytically  !
 ! D65   D(18,13,14,15)        -55.1184         calculate D2E/DX2 analytically  !
 ! D66   D(18,13,14,29)       -177.3315         calculate D2E/DX2 analytically  !
 ! D67   D(18,13,14,30)         65.4342         calculate D2E/DX2 analytically  !
 ! D68   D(1,13,18,17)        -134.5529         calculate D2E/DX2 analytically  !
 ! D69   D(1,13,18,37)         -11.7712         calculate D2E/DX2 analytically  !
 ! D70   D(1,13,18,38)         105.3976         calculate D2E/DX2 analytically  !
 ! D71   D(14,13,18,17)         54.1928         calculate D2E/DX2 analytically  !
 ! D72   D(14,13,18,37)        176.9745         calculate D2E/DX2 analytically  !
 ! D73   D(14,13,18,38)        -65.8567         calculate D2E/DX2 analytically  !
 ! D74   D(13,14,15,16)         53.3814         calculate D2E/DX2 analytically  !
 ! D75   D(13,14,15,31)        -67.1394         calculate D2E/DX2 analytically  !
 ! D76   D(13,14,15,32)        175.4541         calculate D2E/DX2 analytically  !
 ! D77   D(29,14,15,16)        176.7344         calculate D2E/DX2 analytically  !
 ! D78   D(29,14,15,31)         56.2135         calculate D2E/DX2 analytically  !
 ! D79   D(29,14,15,32)        -61.193          calculate D2E/DX2 analytically  !
 ! D80   D(30,14,15,16)        -65.4257         calculate D2E/DX2 analytically  !
 ! D81   D(30,14,15,31)        174.0535         calculate D2E/DX2 analytically  !
 ! D82   D(30,14,15,32)         56.647          calculate D2E/DX2 analytically  !
 ! D83   D(14,15,16,17)        -53.1542         calculate D2E/DX2 analytically  !
 ! D84   D(14,15,16,33)       -174.7147         calculate D2E/DX2 analytically  !
 ! D85   D(14,15,16,34)         68.0588         calculate D2E/DX2 analytically  !
 ! D86   D(31,15,16,17)         67.5134         calculate D2E/DX2 analytically  !
 ! D87   D(31,15,16,33)        -54.047          calculate D2E/DX2 analytically  !
 ! D88   D(31,15,16,34)       -171.2736         calculate D2E/DX2 analytically  !
 ! D89   D(32,15,16,17)       -175.2599         calculate D2E/DX2 analytically  !
 ! D90   D(32,15,16,33)         63.1796         calculate D2E/DX2 analytically  !
 ! D91   D(32,15,16,34)        -54.0469         calculate D2E/DX2 analytically  !
 ! D92   D(15,16,17,18)         52.4337         calculate D2E/DX2 analytically  !
 ! D93   D(15,16,17,35)        -68.2813         calculate D2E/DX2 analytically  !
 ! D94   D(15,16,17,36)        174.6976         calculate D2E/DX2 analytically  !
 ! D95   D(33,16,17,18)        173.9661         calculate D2E/DX2 analytically  !
 ! D96   D(33,16,17,35)         53.2511         calculate D2E/DX2 analytically  !
 ! D97   D(33,16,17,36)        -63.77           calculate D2E/DX2 analytically  !
 ! D98   D(34,16,17,18)        -68.7275         calculate D2E/DX2 analytically  !
 ! D99   D(34,16,17,35)        170.5575         calculate D2E/DX2 analytically  !
 ! D100  D(34,16,17,36)         53.5363         calculate D2E/DX2 analytically  !
 ! D101  D(16,17,18,13)        -51.7109         calculate D2E/DX2 analytically  !
 ! D102  D(16,17,18,37)       -175.7205         calculate D2E/DX2 analytically  !
 ! D103  D(16,17,18,38)         66.6057         calculate D2E/DX2 analytically  !
 ! D104  D(35,17,18,13)         68.8612         calculate D2E/DX2 analytically  !
 ! D105  D(35,17,18,37)        -55.1484         calculate D2E/DX2 analytically  !
 ! D106  D(35,17,18,38)       -172.8222         calculate D2E/DX2 analytically  !
 ! D107  D(36,17,18,13)       -173.8527         calculate D2E/DX2 analytically  !
 ! D108  D(36,17,18,37)         62.1378         calculate D2E/DX2 analytically  !
 ! D109  D(36,17,18,38)        -55.536          calculate D2E/DX2 analytically  !
 --------------------------------------------------------------------------------
 Trust Radius=3.00D-01 FncErr=1.00D-07 GrdErr=1.00D-06 EigMax=2.50D+02 EigMin=1.00D-04
 Number of steps in this run=    228 maximum allowed number of steps=    228.
 GradGradGradGradGradGradGradGradGradGradGradGradGradGradGradGradGradGrad

                          Input orientation:                          
 ---------------------------------------------------------------------
 Center     Atomic      Atomic             Coordinates (Angstroms)
 Number     Number       Type             X           Y           Z
 ---------------------------------------------------------------------
      1          6           0        0.814100    0.146100    0.047300
      2          8           0        1.908950   -0.076880   -0.473270
      3          7           0        0.202800    1.386300    0.065100
      4          7           0       -1.049600    1.306600    0.065800
      5          6           0       -1.662500    2.545700    0.039200
      6          8           0       -2.757990    2.763370   -0.482270
      7          7           0       -0.959890    3.576930    0.667030
      8          6           0        0.342090    3.311420    1.267090
      9          6           0        1.354910    4.383330    0.870960
     10          6           0        0.832830    5.784100    1.184440
     11          6           0       -0.546500    6.006830    0.564140
     12          6           0       -1.526900    4.897330    0.945410
     13          7           0        0.108160   -0.880700    0.684260
     14          6           0       -1.193390   -0.604520    1.282170
     15          6           0       -2.210990   -1.672980    0.889940
     16          6           0       -1.695670   -3.075010    1.209100
     17          6           0       -0.317220   -3.306780    0.590070
     18          6           0        0.668100   -2.200460    0.967750
     19          1           0        0.721060    2.327290    0.977930
     20          1           0        0.205920    3.301750    2.355640
     21          1           0        1.559090    4.309310   -0.204540
     22          1           0        2.303430    4.213230    1.392730
     23          1           0        1.535740    6.534810    0.805320
     24          1           0        0.774150    5.918940    2.271220
     25          1           0       -0.444510    6.037530   -0.527740
     26          1           0       -0.941520    6.978980    0.879600
     27          1           0       -2.474950    5.049460    0.422870
     28          1           0       -1.738320    4.937040    2.021330
     29          1           0       -1.567510    0.380650    0.987930
     30          1           0       -1.057330   -0.590250    2.370550
     31          1           0       -2.414140   -1.602540   -0.186110
     32          1           0       -3.158630   -1.496240    1.410540
     33          1           0       -2.402220   -3.823820    0.832790
     34          1           0       -1.637900   -3.205850    2.296480
     35          1           0       -0.418870   -3.341140   -0.501670
     36          1           0        0.072840   -4.279720    0.909270
     37          1           0        1.616060   -2.359250    0.447360
     38          1           0        0.877980   -2.237040    2.044000
 ---------------------------------------------------------------------
                    Distance matrix (angstroms):
                    1          2          3          4          5
     1  C    0.000000
     2  O    1.232643   0.000000
     3  N    1.382787   2.311209   0.000000
     4  N    2.195559   3.310231   1.254934   0.000000
     5  C    3.448433   4.460472   2.196411   1.382651   0.000000
     6  O    4.459863   5.463280   3.310923   2.311094   1.232643
     7  N    3.911739   4.783394   2.552063   2.350303   1.396877
     8  C    3.424899   4.118796   2.273822   2.720147   2.472331
     9  C    4.350288   4.691203   3.310431   3.987006   3.629528
    10  C    5.751563   6.185234   4.581540   4.984266   4.245643
    11  C    6.038751   6.642062   4.707418   4.753274   3.674294
    12  C    5.372250   6.209709   4.011750   3.727582   2.523840
    13  N    1.399424   2.286667   2.351936   2.550918   3.910442
    14  C    2.473530   3.603399   2.719186   2.269936   3.418907
    15  C    3.629086   4.623828   3.983207   3.302413   4.338417
    16  C    4.245500   4.981208   4.981587   4.574172   5.741267
    17  C    3.673808   4.064330   4.750896   4.700480   6.030320
    18  C    2.524854   2.850586   3.727751   4.007927   5.368420
    19  H    2.373251   3.049114   1.409721   2.238085   2.571046
    20  H    3.956822   4.724212   2.985889   3.286384   3.070586
    21  H    4.236833   4.408319   3.233607   3.986805   3.680811
    22  H    4.535398   4.694956   3.763878   4.631636   4.510133
    23  H    6.473869   6.744518   5.369526   5.879205   5.169978
    24  H    6.186526   6.691028   5.073286   5.428040   4.722068
    25  H    6.051753   6.551927   4.733330   4.806259   3.741363
    26  H    7.103744   7.729204   5.766364   5.731479   4.569470
    27  H    5.916235   6.804484   4.551603   4.020960   2.660092
    28  H    5.776223   6.683188   4.494723   4.180733   3.106943
    29  H    2.571355   3.798712   2.235385   1.405681   2.365704
    30  H    3.072776   4.141217   3.287823   2.984958   3.954188
    31  H    3.678825   4.593387   3.980533   3.223123   4.221803
    32  H    4.509799   5.589606   4.628008   3.756627   4.522859
    33  H    5.169330   5.859312   5.875443   5.360883   6.461250
    34  H    4.722995   5.481069   5.427253   5.067962   6.178693
    35  H    3.739308   4.009357   4.801707   4.724545   6.041030
    36  H    4.569501   4.790259   5.730034   5.760059   7.096111
    37  H    2.660821   2.478418   4.021514   4.548603   5.913889
    38  H    3.109702   3.473592   4.183361   4.492908   5.774761
                    6          7          8          9         10
     6  O    0.000000
     7  N    2.283842   0.000000
     8  C    3.601543   1.457985   0.000000
     9  C    4.622926   2.459709   1.526995   0.000000
    10  C    4.979631   2.890183   2.522262   1.527414   0.000000
    11  C    4.062720   2.466960   2.923861   2.518978   1.528703
    12  C    2.847391   1.463712   2.472188   2.928236   2.532158
    13  N    4.780675   4.583830   4.238901   5.412879   6.722714
    14  C    4.111436   4.232900   4.206247   5.616189   6.702953
    15  C    4.675828   5.401527   5.612905   7.028150   8.059753
    16  C    6.170570   6.714426   6.703903   8.065185   9.212912
    17  C    6.629781   6.914073   6.685328   7.874815   9.182592
    18  C    6.203246   6.009910   5.529621   6.620224   7.989198
    19  H    3.798176   2.117511   1.093501   2.154184   3.464776
    20  H    4.138641   2.070324   1.097077   2.166626   2.815455
    21  H    4.593936   2.764286   2.154662   1.097209   2.152144
    22  H    5.588890   3.403054   2.162383   1.095841   2.161870
    23  H    5.858137   3.872512   3.468180   2.160063   1.096075
    24  H    5.478626   3.326459   2.827386   2.157802   1.096684
    25  H    4.009287   2.783459   3.357355   2.816141   2.151136
    26  H    4.788071   3.408734   3.904971   3.465698   2.160783
    27  H    2.474994   2.126821   3.416022   3.913099   3.472908
    28  H    3.468801   2.071227   2.745838   3.346344   2.833497
    29  H    3.042382   3.269310   3.509119   4.957385   5.915870
    30  H    4.719915   4.502984   4.289409   5.727492   6.753658
    31  H    4.389432   5.446981   5.818556   7.152187   8.184355
    32  H    4.678410   5.578917   5.948883   7.431859   8.305795
    33  H    6.726591   7.541810   7.657121   9.026339  10.144029
    34  H    6.678895   7.008631   6.888745   8.281586   9.389374
    35  H    6.537347   7.036921   6.925614   8.043497   9.363745
    36  H    7.717195   7.927935   7.604337   8.757489  10.096226
    37  H    6.799835   6.474721   5.869536   6.760919   8.214066
    38  H    6.678804   6.251085   5.628159   6.740385   8.067191
                   11         12         13         14         15
    11  C    0.000000
    12  C    1.528902   0.000000
    13  N    6.919615   6.010595   0.000000
    14  C    6.681615   5.522227   1.458699   0.000000
    15  C    7.864868   6.606060   2.459363   1.526748   0.000000
    16  C    9.176948   7.978485   2.888643   2.522091   1.527451
    17  C    9.316468   8.300422   2.464890   2.923848   2.519045
    18  C    8.306489   7.429478   1.461392   2.472050   2.928045
    19  H    3.913687   3.414599   3.279190   3.514711   4.960526
    20  H    3.330625   2.745412   4.505103   4.285948   5.721684
    21  H    2.811753   3.345368   5.461810   5.825133   7.155360
    22  H    3.467804   3.916569   5.591893   5.954048   7.435069
    23  H    2.161632   3.475734   7.552644   7.658040   9.022913
    24  H    2.160084   2.845398   7.014064   6.885126   8.273829
    25  H    1.097063   2.154483   7.045303   6.924841   8.036307
    26  H    1.095733   2.163393   7.931870   7.598353   8.744602
    27  H    2.157645   1.093156   6.473606   5.860741   6.743814
    28  H    2.165246   1.097214   6.248467   5.617134   6.722784
    29  H    5.733756   4.517063   2.119219   1.094122   2.154313
    30  H    6.858974   5.689029   2.070339   1.096944   2.166897
    31  H    7.871052   6.657015   2.764162   2.154558   1.097322
    32  H    7.989723   6.614879   3.402689   2.161900   1.095574
    33  H   10.007874   8.765690   3.871179   3.468012   2.160080
    34  H    9.437459   8.215792   3.324801   2.827248   2.157887
    35  H    9.409399   8.437663   2.781718   3.357239   2.816208
    36  H   10.310956   9.315510   3.406643   3.905059   3.465739
    37  H    8.641852   7.923648   2.125087   3.415991   3.913203
    38  H    8.495912   7.608520   2.069100   2.745192   3.345408
                   16         17         18         19         20
    16  C    0.000000
    17  C    1.528738   0.000000
    18  C    2.531896   1.528869   0.000000
    19  H    5.922742   5.742056   4.528071   0.000000
    20  H    6.752308   6.860290   5.693344   1.764377   0.000000
    21  H    8.192681   7.883957   6.674221   2.455389   3.066067
    22  H    8.315345   8.003913   6.632521   2.496542   2.481439
    23  H   10.146610  10.016820   8.779757   4.289140   3.824211
    24  H    9.387185   9.440936   8.224046   3.817770   2.679495
    25  H    9.360577   9.411792   8.446234   4.170309   4.027584
    26  H   10.087618  10.308755   9.319912   4.940856   4.125207
    27  H    8.199539   8.631947   7.920669   4.234711   3.738603
    28  H    8.053228   8.486966   7.605577   3.734706   2.562422
    29  H    3.465101   3.913906   3.414746   3.004507   3.680830
    30  H    2.816110   3.331277   2.745493   3.689729   4.091905
    31  H    2.151971   2.811399   3.345012   5.160236   6.113695
    32  H    2.161792   3.467685   3.916102   5.464296   5.935833
    33  H    1.096147   2.161821   3.475684   6.900152   7.739200
    34  H    1.096746   2.160143   2.844990   6.157833   6.764025
    35  H    2.151227   1.097000   2.154495   5.968229   7.258276
    36  H    2.160753   1.095741   2.163580   6.639088   7.719351
    37  H    3.472768   2.157719   1.093000   4.800644   6.138155
    38  H    2.832477   2.164892   1.097133   4.689801   5.588110
                   21         22         23         24         25
    21  H    0.000000
    22  H    1.764807   0.000000
    23  H    2.444016   2.514783   0.000000
    24  H    3.055557   2.453546   1.763003   0.000000
    25  H    2.665636   3.816733   2.438386   3.055057   0.000000
    26  H    3.815173   4.294459   2.517861   2.450268   1.764640
    27  H    4.149090   4.947002   4.293969   3.837844   2.450026
    28  H    4.027587   4.153888   3.840705   2.709073   3.063132
    29  H    5.160618   5.462299   6.894722   6.148403   5.963110
    30  H    6.122290   5.943422   7.742121   6.762673   7.259690
    31  H    7.122982   7.653194   9.099503   8.530904   7.897267
    32  H    7.653089   7.901422   9.322079   8.437560   8.238997
    33  H    9.105813   9.330104  11.081945  10.347936  10.145437
    34  H    8.541281   8.449473  10.352585   9.438242   9.738607
    35  H    7.907591   8.250344  10.152000   9.739676   9.378741
    36  H    8.787545   8.794286  10.913521  10.313070  10.429683
    37  H    6.700590   6.675604   8.901623   8.518433   8.700729
    38  H    6.955181   6.637925   8.883261   8.159805   8.765349
                   26         27         28         29         30
    26  H    0.000000
    27  H    2.506603   0.000000
    28  H    2.471428   1.763615   0.000000
    29  H    6.628843   4.789627   4.675231   0.000000
    30  H    7.715542   6.132653   5.580021   1.764814   0.000000
    31  H    8.771934   6.680094   6.935101   2.455238   3.066297
    32  H    8.776493   6.655006   6.616452   2.496593   2.481511
    33  H   10.901207   8.883041   8.866006   4.289333   3.824841
    34  H   10.306467   8.506539   8.148156   3.818408   2.680282
    35  H   10.425255   8.688176   8.754127   4.170132   4.027986
    36  H   11.304341   9.683048   9.458628   4.941253   4.126113
    37  H    9.691779   8.463211   8.183220   4.234901   3.738320
    38  H    9.465803   8.183110   7.636293   3.734703   2.562026
                   31         32         33         34         35
    31  H    0.000000
    32  H    1.764896   0.000000
    33  H    2.443846   2.514673   0.000000
    34  H    3.055553   2.453625   1.763083   0.000000
    35  H    2.665222   3.816607   2.438738   3.055156   0.000000
    36  H    3.814737   4.294349   2.517859   2.450343   1.764501
    37  H    4.149266   4.946733   4.294193   3.837217   2.450654
    38  H    4.026665   4.152623   3.839871   2.707765   3.062890
                   36         37         38
    36  H    0.000000
    37  H    2.506610   0.000000
    38  H    2.471519   1.763223   0.000000
 Stoichiometry    C12H20N4O2
 Framework group  C1[X(C12H20N4O2)]
 Deg. of freedom   108
 Full point group                 C1      NOp   1
 Largest Abelian subgroup         C1      NOp   1
 Largest concise Abelian subgroup C1      NOp   1
                         Standard orientation:                         
 ---------------------------------------------------------------------
 Center     Atomic      Atomic             Coordinates (Angstroms)
 Number     Number       Type             X           Y           Z
 ---------------------------------------------------------------------
      1          6           0        1.146670    1.293031   -0.564834
      2          8           0        1.320171    2.396816   -1.085377
      3          7           0       -0.065630    0.628208   -0.543835
      4          7           0        0.068623   -0.619524   -0.544126
      5          6           0       -1.142637   -1.285876   -0.567531
      6          8           0       -1.313830   -2.389566   -1.089039
      7          7           0       -2.201704   -0.629219    0.063693
      8          6           0       -1.991495    0.682814    0.663778
      9          6           0       -3.107707    1.648105    0.271353
     10          6           0       -4.483456    1.065271    0.588548
     11          6           0       -4.647611   -0.322162   -0.031948
     12          6           0       -3.495302   -1.253418    0.345529
     13          7           0        2.205129    0.632244    0.068737
     14          6           0        1.987719   -0.680402    0.666648
     15          6           0        3.098404   -1.650239    0.270723
     16          6           0        4.477544   -1.074408    0.586158
     17          6           0        4.647170    0.313138   -0.032697
     18          6           0        3.500027    1.249081    0.348766
     19          1           0       -1.025675    1.104490    0.372016
     20          1           0       -1.972734    0.546670    1.752213
     21          1           0       -3.045786    1.855838   -0.804231
     22          1           0       -2.977627    2.602890    0.793208
     23          1           0       -5.265208    1.734949    0.212019
     24          1           0       -4.612453    1.000241    1.675675
     25          1           0       -4.685901   -0.221082   -1.123673
     26          1           0       -5.600686   -0.759363    0.286070
     27          1           0       -3.607453   -2.206949   -0.177148
     28          1           0       -3.522629   -1.466888    1.421430
     29          1           0        1.018955   -1.096996    0.375018
     30          1           0        1.970688   -0.545619    1.755147
     31          1           0        3.033768   -1.855749   -0.805243
     32          1           0        2.964678   -2.604937    0.791253
     33          1           0        5.255363   -1.747442    0.207264
     34          1           0        4.608896   -1.011511    1.673192
     35          1           0        4.682761    0.213610   -1.124594
     36          1           0        5.603094    0.745111    0.283937
     37          1           0        3.615807    2.203316   -0.171502
     38          1           0        3.530543    1.459838    1.425034
 ---------------------------------------------------------------------
 Rotational constants (GHZ):           0.9450332           0.2250290           0.1956608
 Standard basis: 6-31G(d) (6D, 7F)
 There are   310 symmetry adapted cartesian basis functions of A   symmetry.
 There are   310 symmetry adapted basis functions of A   symmetry.
   310 basis functions,   584 primitive gaussians,   310 cartesian basis functions
    68 alpha electrons       68 beta electrons
       nuclear repulsion energy      1417.6700522547 Hartrees.
 NAtoms=   38 NActive=   38 NUniq=   38 SFac= 1.00D+00 NAtFMM=   60 NAOKFM=F Big=F
 Integral buffers will be    131072 words long.
 Raffenetti 2 integral format.
 Two-electron integral symmetry is turned on.
 One-electron integrals computed using PRISM.
 NBasis=   310 RedAO= T EigKep=  1.59D-03  NBF=   310
 NBsUse=   310 1.00D-06 EigRej= -1.00D+00 NBFU=   310
 ExpMin= 1.61D-01 ExpMax= 5.48D+03 ExpMxC= 8.25D+02 IAcc=3 IRadAn=         5 AccDes= 0.00D+00
 Harris functional with IExCor=  402 and IRadAn=       5 diagonalized for initial guess.
 HarFok:  IExCor=  402 AccDes= 0.00D+00 IRadAn=         5 IDoV= 1 UseB2=F ITyADJ=14
 ICtDFT=  3500011 ScaDFX=  1.000000  1.000000  1.000000  1.000000
 FoFCou: FMM=F IPFlag=           0 FMFlag=      100000 FMFlg1=           0
         NFxFlg=           0 DoJE=T BraDBF=F KetDBF=T FulRan=T
         wScrn=  0.000000 ICntrl=       500 IOpCl=  0 I1Cent=   200000004 NGrid=           0
         NMat0=    1 NMatS0=      1 NMatT0=    0 NMatD0=    1 NMtDS0=    0 NMtDT0=    0
 Petite list used in FoFCou.
 Gradient too large for Newton-Raphson -- use scaled steepest descent instead.
     Minimum is close to point  2 DX=  1.07D-02 DF= -5.50D-04 DXR=  3.43D-02 DFR=  1.18D-03 which will be used.
 Gradient too large for Newton-Raphson -- use scaled steepest descent instead.
     Minimum is close to point  3 DX= -2.74D-02 DF= -2.11D-04 DXR=  5.80D-02 DFR=  3.33D-03 which will be used.
 Gradient too large for Newton-Raphson -- use scaled steepest descent instead.
     Accept linear search using points  1 and  2.
 Gradient too large for Newton-Raphson -- use scaled steepest descent instead.
 Gradient too large for Newton-Raphson -- use scaled steepest descent instead.
     Accept linear search using points  1 and  2.
 Gradient too large for Newton-Raphson -- use scaled steepest descent instead.
     Accept linear search using points  1 and  2.
 Gradient too large for Newton-Raphson -- use scaled steepest descent instead.
 LinEq1:  Iter=  0 NonCon=     1 RMS=5.83D-05 Max=3.95D-03 NDo=     1
 AX will form     1 AO Fock derivatives at one time.
 LinEq1:  Iter=  1 NonCon=     1 RMS=8.65D-05 Max=6.13D-03 NDo=     1
 LinEq1:  Iter=  2 NonCon=     1 RMS=1.88D-05 Max=7.23D-04 NDo=     1
 LinEq1:  Iter=  3 NonCon=     1 RMS=1.71D-05 Max=8.99D-04 NDo=     1
 LinEq1:  Iter=  4 NonCon=     1 RMS=4.56D-06 Max=1.75D-04 NDo=     1
 LinEq1:  Iter=  5 NonCon=     1 RMS=2.75D-06 Max=1.13D-04 NDo=     1
 LinEq1:  Iter=  6 NonCon=     1 RMS=1.45D-06 Max=8.52D-05 NDo=     1
 LinEq1:  Iter=  7 NonCon=     1 RMS=1.26D-06 Max=7.19D-05 NDo=     1
 LinEq1:  Iter=  8 NonCon=     1 RMS=1.19D-06 Max=5.82D-05 NDo=     1
 LinEq1:  Iter=  9 NonCon=     1 RMS=8.20D-07 Max=4.72D-05 NDo=     1
 LinEq1:  Iter= 10 NonCon=     1 RMS=7.89D-07 Max=4.03D-05 NDo=     1
 LinEq1:  Iter= 11 NonCon=     1 RMS=5.00D-07 Max=1.32D-05 NDo=     1
 LinEq1:  Iter= 12 NonCon=     1 RMS=2.44D-07 Max=8.08D-06 NDo=     1
 LinEq1:  Iter= 13 NonCon=     1 RMS=8.80D-08 Max=1.82D-06 NDo=     1
 LinEq1:  Iter= 14 NonCon=     1 RMS=2.81D-08 Max=1.44D-06 NDo=     1
 LinEq1:  Iter= 15 NonCon=     1 RMS=1.66D-08 Max=5.72D-07 NDo=     1
 LinEq1:  Iter= 16 NonCon=     1 RMS=7.94D-09 Max=1.91D-07 NDo=     1
 LinEq1:  Iter= 17 NonCon=     0 RMS=4.50D-09 Max=1.42D-07 NDo=     1
 Linear equations converged to 1.814D-08 1.814D-07 after    17 iterations.
     Minimum is close to point  2 DX=  9.02D-04 DF= -2.82D-11 DXR=  9.01D-04 DFR=  8.10D-07 which will be used.
 LinEq1:  Iter=  0 NonCon=     1 RMS=1.78D-07 Max=1.05D-05 NDo=     1
 LinEq1:  Iter=  1 NonCon=     1 RMS=1.52D-07 Max=6.74D-06 NDo=     1
 LinEq1:  Iter=  2 NonCon=     1 RMS=1.33D-07 Max=1.05D-05 NDo=     1
 LinEq1:  Iter=  3 NonCon=     1 RMS=5.58D-08 Max=3.11D-06 NDo=     1
 LinEq1:  Iter=  4 NonCon=     1 RMS=5.08D-08 Max=2.22D-06 NDo=     1
 LinEq1:  Iter=  5 NonCon=     1 RMS=1.58D-08 Max=3.64D-07 NDo=     1
 LinEq1:  Iter=  6 NonCon=     1 RMS=7.64D-09 Max=2.30D-07 NDo=     1
 LinEq1:  Iter=  7 NonCon=     1 RMS=8.06D-09 Max=6.36D-07 NDo=     1
 LinEq1:  Iter=  8 NonCon=     1 RMS=5.93D-09 Max=2.61D-07 NDo=     1
 LinEq1:  Iter=  9 NonCon=     1 RMS=3.95D-09 Max=2.20D-07 NDo=     1
 LinEq1:  Iter= 10 NonCon=     1 RMS=4.19D-09 Max=2.69D-07 NDo=     1
 LinEq1:  Iter= 11 NonCon=     1 RMS=3.03D-09 Max=1.30D-07 NDo=     1
 LinEq1:  Iter= 12 NonCon=     1 RMS=1.47D-09 Max=4.32D-08 NDo=     1
 LinEq1:  Iter= 13 NonCon=     1 RMS=6.59D-10 Max=1.49D-08 NDo=     1
 LinEq1:  Iter= 14 NonCon=     1 RMS=3.10D-10 Max=7.35D-09 NDo=     1
 LinEq1:  Iter= 15 NonCon=     1 RMS=2.04D-10 Max=5.27D-09 NDo=     1
 LinEq1:  Iter= 16 NonCon=     1 RMS=8.98D-11 Max=3.10D-09 NDo=     1
 LinEq1:  Iter= 17 NonCon=     0 RMS=2.24D-11 Max=1.12D-09 NDo=     1
 Linear equations converged to 1.258D-10 1.258D-09 after    17 iterations.
 Restarting incremental Fock formation.
 SCF Done:  E(RB3LYP) =  -838.623113480     a.u. after   10 cycles
            Convg  =    0.3352D-09                    55 Fock formations.
              S**2 =  0.0000                  -V/T =  2.0083
 DoSCS=F DFT=T ScalE2(SS,OS)=  1.000000  1.000000
 Range of M.O.s used for correlation:     1   310
 NBasis=   310 NAE=    68 NBE=    68 NFC=     0 NFV=     0
 NROrb=    310 NOA=    68 NOB=    68 NVA=   242 NVB=   242

 **** Warning!!: The smallest alpha delta epsilon is  0.85736563D-01

 Symmetrizing basis deriv contribution to polar:
 IMax=3 JMax=2 DiffMx= 0.00D+00
 G2DrvN: will do    39 centers at a time, making    1 passes.
 Calling FoFCou, ICntrl=  3107 FMM=F I1Cent=   0 AccDes= 0.00D+00.
 End of G2Drv F.D. properties file   721 does not exist.
 End of G2Drv F.D. properties file   722 does not exist.
 End of G2Drv F.D. properties file   788 does not exist.
          IDoAtm=11111111111111111111111111111111111111
          Differentiating once with respect to electric field.
                with respect to dipole field.
          Differentiating once with respect to nuclear coordinates.
 Keep R1 ints in memory in canonical form, NReq=1176942819.
          There are   117 degrees of freedom in the 1st order CPHF.  IDoFFX=6 NUNeed=     3.
    114 vectors produced by pass  0 Test12= 1.65D-14 1.00D-09 XBig12= 2.22D+02 7.04D+00.
 AX will form   114 AO Fock derivatives at one time.
    114 vectors produced by pass  1 Test12= 1.65D-14 1.00D-09 XBig12= 4.61D+01 1.05D+00.
    114 vectors produced by pass  2 Test12= 1.65D-14 1.00D-09 XBig12= 7.43D-01 9.84D-02.
    114 vectors produced by pass  3 Test12= 1.65D-14 1.00D-09 XBig12= 2.81D-03 9.55D-03.
    114 vectors produced by pass  4 Test12= 1.65D-14 1.00D-09 XBig12= 3.65D-06 1.93D-04.
     69 vectors produced by pass  5 Test12= 1.65D-14 1.00D-09 XBig12= 2.93D-09 6.80D-06.
      9 vectors produced by pass  6 Test12= 1.65D-14 1.00D-09 XBig12= 2.30D-12 1.71D-07.
      3 vectors produced by pass  7 Test12= 1.65D-14 1.00D-09 XBig12= 1.84D-15 4.40D-09.
 InvSVY:  IOpt=1 It=  1 EMax= 1.07D-14
 Solved reduced A of dimension   651 with   117 vectors.
 Isotropic polarizability for W=    0.000000      173.43 Bohr**3.
 End of Minotr F.D. properties file   721 does not exist.
 End of Minotr F.D. properties file   722 does not exist.
 End of Minotr F.D. properties file   788 does not exist.

 **********************************************************************

            Population analysis using the SCF density.

 **********************************************************************

 Orbital symmetries:
       Occupied  (A) (A) (A) (A) (A) (A) (A) (A) (A) (A) (A) (A)
                 (A) (A) (A) (A) (A) (A) (A) (A) (A) (A) (A) (A)
                 (A) (A) (A) (A) (A) (A) (A) (A) (A) (A) (A) (A)
                 (A) (A) (A) (A) (A) (A) (A) (A) (A) (A) (A) (A)
                 (A) (A) (A) (A) (A) (A) (A) (A) (A) (A) (A) (A)
                 (A) (A) (A) (A) (A) (A) (A) (A)
       Virtual   (A) (A) (A) (A) (A) (A) (A) (A) (A) (A) (A) (A)
                 (A) (A) (A) (A) (A) (A) (A) (A) (A) (A) (A) (A)
                 (A) (A) (A) (A) (A) (A) (A) (A) (A) (A) (A) (A)
                 (A) (A) (A) (A) (A) (A) (A) (A) (A) (A) (A) (A)
                 (A) (A) (A) (A) (A) (A) (A) (A) (A) (A) (A) (A)
                 (A) (A) (A) (A) (A) (A) (A) (A) (A) (A) (A) (A)
                 (A) (A) (A) (A) (A) (A) (A) (A) (A) (A) (A) (A)
                 (A) (A) (A) (A) (A) (A) (A) (A) (A) (A) (A) (A)
                 (A) (A) (A) (A) (A) (A) (A) (A) (A) (A) (A) (A)
                 (A) (A) (A) (A) (A) (A) (A) (A) (A) (A) (A) (A)
                 (A) (A) (A) (A) (A) (A) (A) (A) (A) (A) (A) (A)
                 (A) (A) (A) (A) (A) (A) (A) (A) (A) (A) (A) (A)
                 (A) (A) (A) (A) (A) (A) (A) (A) (A) (A) (A) (A)
                 (A) (A) (A) (A) (A) (A) (A) (A) (A) (A) (A) (A)
                 (A) (A) (A) (A) (A) (A) (A) (A) (A) (A) (A) (A)
                 (A) (A) (A) (A) (A) (A) (A) (A) (A) (A) (A) (A)
                 (A) (A) (A) (A) (A) (A) (A) (A) (A) (A) (A) (A)
                 (A) (A) (A) (A) (A) (A) (A) (A) (A) (A) (A) (A)
                 (A) (A) (A) (A) (A) (A) (A) (A) (A) (A) (A) (A)
                 (A) (A) (A) (A) (A) (A) (A) (A) (A) (A) (A) (A)
                 (A) (A)
 The electronic state is 1-A.
 Alpha  occ. eigenvalues --  -19.12759 -19.12746 -14.41616 -14.41563 -14.37285
 Alpha  occ. eigenvalues --  -14.37277 -10.31758 -10.31748 -10.22595 -10.22582
 Alpha  occ. eigenvalues --  -10.20357 -10.20312 -10.19139 -10.19134 -10.18843
 Alpha  occ. eigenvalues --  -10.18832 -10.18767 -10.18756  -1.11942  -1.04804
 Alpha  occ. eigenvalues --   -1.02316  -0.94624  -0.93842  -0.83339  -0.80364
 Alpha  occ. eigenvalues --   -0.79269  -0.77288  -0.76831  -0.68572  -0.66528
 Alpha  occ. eigenvalues --   -0.65523  -0.64498  -0.61495  -0.60145  -0.58041
 Alpha  occ. eigenvalues --   -0.56592  -0.55861  -0.51085  -0.50541  -0.47251
 Alpha  occ. eigenvalues --   -0.46988  -0.46439  -0.46404  -0.45514  -0.44521
 Alpha  occ. eigenvalues --   -0.44015  -0.43430  -0.43407  -0.42691  -0.41232
 Alpha  occ. eigenvalues --   -0.40690  -0.39306  -0.39047  -0.37157  -0.36165
 Alpha  occ. eigenvalues --   -0.35509  -0.35289  -0.34630  -0.34015  -0.33705
 Alpha  occ. eigenvalues --   -0.32941  -0.32839  -0.31395  -0.27936  -0.27560
 Alpha  occ. eigenvalues --   -0.24401  -0.24128  -0.21066
 Alpha virt. eigenvalues --   -0.12492   0.03004   0.04675   0.08963   0.09284
 Alpha virt. eigenvalues --    0.10734   0.10958   0.12812   0.12963   0.13615
 Alpha virt. eigenvalues --    0.14027   0.14375   0.14682   0.15924   0.16173
 Alpha virt. eigenvalues --    0.16508   0.16559   0.16743   0.16967   0.17058
 Alpha virt. eigenvalues --    0.17662   0.18280   0.18415   0.19442   0.20202
 Alpha virt. eigenvalues --    0.22307   0.22405   0.22755   0.23373   0.24026
 Alpha virt. eigenvalues --    0.24985   0.25413   0.25501   0.27085   0.27695
 Alpha virt. eigenvalues --    0.28023   0.30365   0.31708   0.34994   0.37965
 Alpha virt. eigenvalues --    0.40916   0.43093   0.46575   0.49421   0.50468
 Alpha virt. eigenvalues --    0.51699   0.51965   0.51980   0.52558   0.52876
 Alpha virt. eigenvalues --    0.54904   0.55175   0.55702   0.57065   0.58190
 Alpha virt. eigenvalues --    0.59079   0.59483   0.60946   0.61999   0.62755
 Alpha virt. eigenvalues --    0.63096   0.63501   0.64210   0.64597   0.66189
 Alpha virt. eigenvalues --    0.66589   0.70240   0.70403   0.71272   0.71909
 Alpha virt. eigenvalues --    0.72688   0.75299   0.76929   0.77254   0.78279
 Alpha virt. eigenvalues --    0.79460   0.80032   0.81418   0.83001   0.83255
 Alpha virt. eigenvalues --    0.83488   0.84288   0.85561   0.86421   0.86774
 Alpha virt. eigenvalues --    0.87234   0.87339   0.87688   0.87789   0.88441
 Alpha virt. eigenvalues --    0.89059   0.90432   0.90712   0.91820   0.92023
 Alpha virt. eigenvalues --    0.92540   0.94555   0.94972   0.95418   0.95645
 Alpha virt. eigenvalues --    0.96745   0.97334   0.98173   0.99747   1.00111
 Alpha virt. eigenvalues --    1.02339   1.04184   1.08307   1.09235   1.10495
 Alpha virt. eigenvalues --    1.11968   1.12775   1.14991   1.15938   1.17711
 Alpha virt. eigenvalues --    1.21025   1.24894   1.25116   1.31058   1.31928
 Alpha virt. eigenvalues --    1.33398   1.34200   1.36815   1.37056   1.37170
 Alpha virt. eigenvalues --    1.38567   1.39066   1.41638   1.44204   1.44851
 Alpha virt. eigenvalues --    1.49719   1.53879   1.54125   1.57859   1.58641
 Alpha virt. eigenvalues --    1.59537   1.60787   1.63794   1.66490   1.68773
 Alpha virt. eigenvalues --    1.69829   1.69942   1.71805   1.73274   1.75002
 Alpha virt. eigenvalues --    1.77925   1.78534   1.79941   1.80590   1.82051
 Alpha virt. eigenvalues --    1.84459   1.85088   1.85157   1.87793   1.87874
 Alpha virt. eigenvalues --    1.90064   1.90438   1.91280   1.92128   1.93204
 Alpha virt. eigenvalues --    1.93841   1.94291   1.96140   1.98099   1.98938
 Alpha virt. eigenvalues --    1.99362   2.00168   2.00315   2.01010   2.01390
 Alpha virt. eigenvalues --    2.04419   2.05072   2.08705   2.09807   2.10403
 Alpha virt. eigenvalues --    2.15235   2.15857   2.16423   2.17393   2.18476
 Alpha virt. eigenvalues --    2.22814   2.26112   2.28212   2.29501   2.30633
 Alpha virt. eigenvalues --    2.30926   2.32308   2.34212   2.34857   2.35591
 Alpha virt. eigenvalues --    2.35822   2.36771   2.37653   2.40635   2.40866
 Alpha virt. eigenvalues --    2.41417   2.41502   2.45989   2.49000   2.51695
 Alpha virt. eigenvalues --    2.55579   2.56968   2.60103   2.61800   2.62070
 Alpha virt. eigenvalues --    2.62824   2.64086   2.66305   2.67768   2.69572
 Alpha virt. eigenvalues --    2.72265   2.72847   2.74615   2.75136   2.76789
 Alpha virt. eigenvalues --    2.77891   2.84140   2.86356   2.94111   2.95303
 Alpha virt. eigenvalues --    3.11090   3.11505   3.20483   3.22945   3.89850
 Alpha virt. eigenvalues --    3.95756   4.00337   4.08487   4.10482   4.17634
 Alpha virt. eigenvalues --    4.18169   4.23418   4.25633   4.26503   4.42818
 Alpha virt. eigenvalues --    4.44050   4.54572   4.54623   4.57280   4.59777
 Alpha virt. eigenvalues --    4.60509   4.65529
          Condensed to atoms (all electrons):
               1          2          3          4          5          6
     1  C    4.304824   0.595910   0.179956  -0.039674   0.000041  -0.000209
     2  O    0.595910   8.061832  -0.071022   0.001386  -0.000209   0.000000
     3  N    0.179956  -0.071022   7.453306   0.130237  -0.039787   0.001370
     4  N   -0.039674   0.001386   0.130237   7.457272   0.179278  -0.071067
     5  C    0.000041  -0.000209  -0.039787   0.179278   4.305056   0.596121
     6  O   -0.000209   0.000000   0.001370  -0.071067   0.596121   8.062493
     7  N    0.001060   0.000008   0.003102  -0.114204   0.277123  -0.112621
     8  C    0.007280   0.000016  -0.205882   0.001344  -0.018714   0.002906
     9  C   -0.000330   0.000017   0.001033   0.001048   0.001018  -0.000057
    10  C    0.000002   0.000000  -0.000096  -0.000038   0.000034  -0.000007
    11  C   -0.000000  -0.000000  -0.000078  -0.000120   0.001212   0.000109
    12  C    0.000012  -0.000000  -0.001278   0.004637  -0.018316  -0.000708
    13  N    0.276941  -0.112016  -0.113756   0.002837   0.001079   0.000008
    14  C   -0.018946   0.002881   0.000946  -0.206718   0.007391   0.000020
    15  C    0.001026  -0.000057   0.001075   0.000956  -0.000338   0.000018
    16  C    0.000033  -0.000007  -0.000039  -0.000094   0.000002   0.000000
    17  C    0.001201   0.000107  -0.000120  -0.000081  -0.000000  -0.000000
    18  C   -0.018332  -0.000624   0.004641  -0.001279   0.000012  -0.000000
    19  H    0.009397   0.001781  -0.042775  -0.013582  -0.010900  -0.000144
    20  H   -0.000091  -0.000008   0.009904  -0.000995  -0.000765  -0.000075
    21  H   -0.000036   0.000004   0.004401  -0.000326   0.000251  -0.000022
    22  H    0.000057  -0.000001   0.000306  -0.000015  -0.000075   0.000000
    23  H   -0.000000  -0.000000   0.000005   0.000000   0.000008   0.000000
    24  H    0.000000  -0.000000   0.000004  -0.000000  -0.000027   0.000000
    25  H    0.000000   0.000000   0.000012  -0.000012   0.000594   0.000034
    26  H    0.000000   0.000000  -0.000000   0.000002  -0.000039  -0.000005
    27  H    0.000000  -0.000000  -0.000010   0.000468  -0.001717   0.013121
    28  H    0.000003   0.000000   0.000108  -0.000160   0.000480   0.000679
    29  H   -0.010892  -0.000145  -0.013621  -0.044321   0.009604   0.001824
    30  H   -0.000728  -0.000075  -0.000976   0.009973  -0.000095  -0.000008
    31  H    0.000253  -0.000022  -0.000335   0.004546  -0.000036   0.000004
    32  H   -0.000075   0.000000  -0.000015   0.000313   0.000059  -0.000002
    33  H    0.000008   0.000000   0.000000   0.000006  -0.000000  -0.000000
    34  H   -0.000027   0.000000  -0.000000   0.000004   0.000000  -0.000000
    35  H    0.000598   0.000033  -0.000012   0.000013   0.000000   0.000000
    36  H   -0.000039  -0.000005   0.000002  -0.000000   0.000000   0.000000
    37  H   -0.001697   0.013101   0.000471  -0.000010   0.000000  -0.000000
    38  H    0.000494   0.000660  -0.000163   0.000110   0.000003   0.000000
               7          8          9         10         11         12
     1  C    0.001060   0.007280  -0.000330   0.000002  -0.000000   0.000012
     2  O    0.000008   0.000016   0.000017   0.000000  -0.000000  -0.000000
     3  N    0.003102  -0.205882   0.001033  -0.000096  -0.000078  -0.001278
     4  N   -0.114204   0.001344   0.001048  -0.000038  -0.000120   0.004637
     5  C    0.277123  -0.018714   0.001018   0.000034   0.001212  -0.018316
     6  O   -0.112621   0.002906  -0.000057  -0.000007   0.000109  -0.000708
     7  N    7.102584   0.271709  -0.051414  -0.013712  -0.043718   0.281732
     8  C    0.271709   5.185532   0.369979  -0.041306  -0.015052  -0.045396
     9  C   -0.051414   0.369979   5.010385   0.389767  -0.045442  -0.012472
    10  C   -0.013712  -0.041306   0.389767   5.010659   0.382833  -0.041261
    11  C   -0.043718  -0.015052  -0.045442   0.382833   5.027613   0.374560
    12  C    0.281732  -0.045396  -0.012472  -0.041261   0.374560   4.917036
    13  N    0.000028  -0.001078   0.000008  -0.000000   0.000000  -0.000000
    14  C   -0.001101   0.002306  -0.000013   0.000000  -0.000000   0.000045
    15  C    0.000008  -0.000013   0.000000  -0.000000   0.000000  -0.000000
    16  C   -0.000000   0.000000  -0.000000   0.000000   0.000000   0.000000
    17  C    0.000000  -0.000000   0.000000   0.000000   0.000000   0.000000
    18  C   -0.000000   0.000044  -0.000000   0.000000   0.000000   0.000000
    19  H   -0.028244   0.373471  -0.018687   0.003312   0.000254   0.003266
    20  H   -0.060769   0.335946  -0.045339  -0.009390  -0.001333  -0.005067
    21  H   -0.000322  -0.041999   0.368648  -0.045348  -0.004231  -0.000884
    22  H    0.004329  -0.029968   0.363524  -0.034119   0.005195   0.000092
    23  H   -0.000102   0.005374  -0.035095   0.373314  -0.033378   0.004949
    24  H   -0.000943  -0.003613  -0.041424   0.369574  -0.042000  -0.003352
    25  H   -0.000414  -0.000458  -0.003991  -0.042429   0.371766  -0.037961
    26  H    0.004023   0.000001   0.005208  -0.033822   0.366633  -0.032229
    27  H   -0.031711   0.004014  -0.000021   0.004057  -0.029384   0.373348
    28  H   -0.055186  -0.001871  -0.001428  -0.006745  -0.047861   0.372846
    29  H   -0.000070  -0.000609  -0.000008  -0.000000   0.000000   0.000022
    30  H    0.000017  -0.000214   0.000001  -0.000000   0.000000  -0.000003
    31  H    0.000003  -0.000002   0.000000  -0.000000   0.000000  -0.000000
    32  H    0.000000  -0.000000  -0.000000  -0.000000  -0.000000  -0.000000
    33  H    0.000000  -0.000000   0.000000  -0.000000   0.000000  -0.000000
    34  H   -0.000000  -0.000000   0.000000  -0.000000  -0.000000  -0.000000
    35  H   -0.000000  -0.000000   0.000000  -0.000000  -0.000000  -0.000000
    36  H   -0.000000   0.000000  -0.000000   0.000000  -0.000000   0.000000
    37  H    0.000000  -0.000000   0.000000  -0.000000   0.000000  -0.000000
    38  H   -0.000000  -0.000004   0.000000  -0.000000  -0.000000  -0.000000
              13         14         15         16         17         18
     1  C    0.276941  -0.018946   0.001026   0.000033   0.001201  -0.018332
     2  O   -0.112016   0.002881  -0.000057  -0.000007   0.000107  -0.000624
     3  N   -0.113756   0.000946   0.001075  -0.000039  -0.000120   0.004641
     4  N    0.002837  -0.206718   0.000956  -0.000094  -0.000081  -0.001279
     5  C    0.001079   0.007391  -0.000338   0.000002  -0.000000   0.000012
     6  O    0.000008   0.000020   0.000018   0.000000  -0.000000  -0.000000
     7  N    0.000028  -0.001101   0.000008  -0.000000   0.000000  -0.000000
     8  C   -0.001078   0.002306  -0.000013   0.000000  -0.000000   0.000044
     9  C    0.000008  -0.000013   0.000000  -0.000000   0.000000  -0.000000
    10  C   -0.000000   0.000000  -0.000000   0.000000   0.000000   0.000000
    11  C    0.000000  -0.000000   0.000000   0.000000   0.000000   0.000000
    12  C   -0.000000   0.000045  -0.000000   0.000000   0.000000   0.000000
    13  N    7.102492   0.272063  -0.051433  -0.013817  -0.044020   0.282345
    14  C    0.272063   5.185322   0.369997  -0.041162  -0.015105  -0.045302
    15  C   -0.051433   0.369997   5.010707   0.389730  -0.045407  -0.012427
    16  C   -0.013817  -0.041162   0.389730   5.010668   0.382945  -0.041274
    17  C   -0.044020  -0.015105  -0.045407   0.382945   5.028013   0.374622
    18  C    0.282345  -0.045302  -0.012427  -0.041274   0.374622   4.915924
    19  H   -0.000011  -0.000631  -0.000007  -0.000000   0.000000   0.000019
    20  H    0.000015  -0.000211   0.000001  -0.000000   0.000000  -0.000003
    21  H    0.000003  -0.000002   0.000000  -0.000000   0.000000  -0.000000
    22  H    0.000000  -0.000000  -0.000000  -0.000000  -0.000000  -0.000000
    23  H    0.000000  -0.000000   0.000000  -0.000000   0.000000  -0.000000
    24  H   -0.000000  -0.000000   0.000000  -0.000000  -0.000000  -0.000000
    25  H   -0.000000  -0.000000   0.000000  -0.000000  -0.000000  -0.000000
    26  H   -0.000000   0.000000  -0.000000   0.000000  -0.000000   0.000000
    27  H    0.000000  -0.000000   0.000000  -0.000000   0.000000  -0.000000
    28  H   -0.000000  -0.000004   0.000000  -0.000000  -0.000000  -0.000000
    29  H   -0.028168   0.373651  -0.018882   0.003322   0.000255   0.003268
    30  H   -0.060917   0.335646  -0.045332  -0.009378  -0.001343  -0.005076
    31  H   -0.000335  -0.041970   0.368492  -0.045335  -0.004233  -0.000881
    32  H    0.004343  -0.030042   0.363487  -0.034127   0.005193   0.000089
    33  H   -0.000102   0.005368  -0.035120   0.373371  -0.033354   0.004949
    34  H   -0.000945  -0.003607  -0.041433   0.369544  -0.041995  -0.003349
    35  H   -0.000394  -0.000458  -0.003991  -0.042437   0.371702  -0.037925
    36  H    0.004043   0.000007   0.005210  -0.033836   0.366543  -0.032202
    37  H   -0.031834   0.004023  -0.000023   0.004058  -0.029378   0.373402
    38  H   -0.055433  -0.001889  -0.001436  -0.006783  -0.048046   0.372883
              19         20         21         22         23         24
     1  C    0.009397  -0.000091  -0.000036   0.000057  -0.000000   0.000000
     2  O    0.001781  -0.000008   0.000004  -0.000001  -0.000000  -0.000000
     3  N   -0.042775   0.009904   0.004401   0.000306   0.000005   0.000004
     4  N   -0.013582  -0.000995  -0.000326  -0.000015   0.000000  -0.000000
     5  C   -0.010900  -0.000765   0.000251  -0.000075   0.000008  -0.000027
     6  O   -0.000144  -0.000075  -0.000022   0.000000   0.000000   0.000000
     7  N   -0.028244  -0.060769  -0.000322   0.004329  -0.000102  -0.000943
     8  C    0.373471   0.335946  -0.041999  -0.029968   0.005374  -0.003613
     9  C   -0.018687  -0.045339   0.368648   0.363524  -0.035095  -0.041424
    10  C    0.003312  -0.009390  -0.045348  -0.034119   0.373314   0.369574
    11  C    0.000254  -0.001333  -0.004231   0.005195  -0.033378  -0.042000
    12  C    0.003266  -0.005067  -0.000884   0.000092   0.004949  -0.003352
    13  N   -0.000011   0.000015   0.000003   0.000000   0.000000  -0.000000
    14  C   -0.000631  -0.000211  -0.000002  -0.000000  -0.000000  -0.000000
    15  C   -0.000007   0.000001   0.000000  -0.000000   0.000000   0.000000
    16  C   -0.000000  -0.000000  -0.000000  -0.000000  -0.000000  -0.000000
    17  C    0.000000   0.000000   0.000000  -0.000000   0.000000  -0.000000
    18  C    0.000019  -0.000003  -0.000000  -0.000000  -0.000000  -0.000000
    19  H    0.479987  -0.030181  -0.004779  -0.002415  -0.000122  -0.000017
    20  H   -0.030181   0.668138   0.007123  -0.001122   0.000021   0.005646
    21  H   -0.004779   0.007123   0.593692  -0.031087  -0.004206   0.006151
    22  H   -0.002415  -0.001122  -0.031087   0.591045  -0.002339  -0.004350
    23  H   -0.000122   0.000021  -0.004206  -0.002339   0.593833  -0.035836
    24  H   -0.000017   0.005646   0.006151  -0.004350  -0.035836   0.612296
    25  H   -0.000031   0.000237   0.005011  -0.000006  -0.005062   0.006099
    26  H    0.000005   0.000033  -0.000032  -0.000152  -0.002253  -0.004467
    27  H   -0.000150  -0.000112  -0.000021   0.000010  -0.000139  -0.000053
    28  H   -0.000124   0.008663   0.000244   0.000044  -0.000066   0.005109
    29  H   -0.000870   0.000329   0.000004  -0.000000   0.000000   0.000000
    30  H    0.000323   0.000099   0.000000   0.000000   0.000000   0.000000
    31  H    0.000004   0.000000   0.000000   0.000000   0.000000   0.000000
    32  H   -0.000000   0.000000   0.000000   0.000000   0.000000   0.000000
    33  H    0.000000   0.000000   0.000000   0.000000   0.000000   0.000000
    34  H    0.000000   0.000000   0.000000   0.000000   0.000000   0.000000
    35  H   -0.000000   0.000000   0.000000   0.000000   0.000000   0.000000
    36  H   -0.000000  -0.000000  -0.000000   0.000000  -0.000000  -0.000000
    37  H   -0.000002   0.000000  -0.000000   0.000000   0.000000   0.000000
    38  H   -0.000004   0.000001   0.000000   0.000000   0.000000   0.000000
              25         26         27         28         29         30
     1  C    0.000000   0.000000   0.000000   0.000003  -0.010892  -0.000728
     2  O    0.000000   0.000000  -0.000000   0.000000  -0.000145  -0.000075
     3  N    0.000012  -0.000000  -0.000010   0.000108  -0.013621  -0.000976
     4  N   -0.000012   0.000002   0.000468  -0.000160  -0.044321   0.009973
     5  C    0.000594  -0.000039  -0.001717   0.000480   0.009604  -0.000095
     6  O    0.000034  -0.000005   0.013121   0.000679   0.001824  -0.000008
     7  N   -0.000414   0.004023  -0.031711  -0.055186  -0.000070   0.000017
     8  C   -0.000458   0.000001   0.004014  -0.001871  -0.000609  -0.000214
     9  C   -0.003991   0.005208  -0.000021  -0.001428  -0.000008   0.000001
    10  C   -0.042429  -0.033822   0.004057  -0.006745  -0.000000  -0.000000
    11  C    0.371766   0.366633  -0.029384  -0.047861   0.000000   0.000000
    12  C   -0.037961  -0.032229   0.373348   0.372846   0.000022  -0.000003
    13  N   -0.000000  -0.000000   0.000000  -0.000000  -0.028168  -0.060917
    14  C   -0.000000   0.000000  -0.000000  -0.000004   0.373651   0.335646
    15  C    0.000000  -0.000000   0.000000   0.000000  -0.018882  -0.045332
    16  C   -0.000000   0.000000  -0.000000  -0.000000   0.003322  -0.009378
    17  C   -0.000000  -0.000000   0.000000  -0.000000   0.000255  -0.001343
    18  C   -0.000000   0.000000  -0.000000  -0.000000   0.003268  -0.005076
    19  H   -0.000031   0.000005  -0.000150  -0.000124  -0.000870   0.000323
    20  H    0.000237   0.000033  -0.000112   0.008663   0.000329   0.000099
    21  H    0.005011  -0.000032  -0.000021   0.000244   0.000004   0.000000
    22  H   -0.000006  -0.000152   0.000010   0.000044  -0.000000   0.000000
    23  H   -0.005062  -0.002253  -0.000139  -0.000066   0.000000   0.000000
    24  H    0.006099  -0.004467  -0.000053   0.005109   0.000000   0.000000
    25  H    0.587367  -0.032180  -0.004516   0.006082  -0.000000   0.000000
    26  H   -0.032180   0.589686  -0.001087  -0.001969   0.000000  -0.000000
    27  H   -0.004516  -0.001087   0.516434  -0.032606  -0.000002   0.000000
    28  H    0.006082  -0.001969  -0.032606   0.609625  -0.000004   0.000001
    29  H   -0.000000   0.000000  -0.000002  -0.000004   0.481188  -0.030220
    30  H    0.000000  -0.000000   0.000000   0.000001  -0.030220   0.668373
    31  H    0.000000  -0.000000  -0.000000   0.000000  -0.004822   0.007133
    32  H    0.000000   0.000000   0.000000   0.000000  -0.002417  -0.001115
    33  H    0.000000  -0.000000   0.000000   0.000000  -0.000123   0.000021
    34  H    0.000000  -0.000000   0.000000   0.000000  -0.000017   0.005637
    35  H    0.000000   0.000000   0.000000   0.000000  -0.000032   0.000237
    36  H    0.000000   0.000000  -0.000000   0.000000   0.000005   0.000034
    37  H    0.000000  -0.000000   0.000000   0.000000  -0.000150  -0.000114
    38  H    0.000000   0.000000   0.000000   0.000000  -0.000124   0.008717
              31         32         33         34         35         36
     1  C    0.000253  -0.000075   0.000008  -0.000027   0.000598  -0.000039
     2  O   -0.000022   0.000000   0.000000   0.000000   0.000033  -0.000005
     3  N   -0.000335  -0.000015   0.000000  -0.000000  -0.000012   0.000002
     4  N    0.004546   0.000313   0.000006   0.000004   0.000013  -0.000000
     5  C   -0.000036   0.000059  -0.000000   0.000000   0.000000   0.000000
     6  O    0.000004  -0.000002  -0.000000  -0.000000   0.000000   0.000000
     7  N    0.000003   0.000000   0.000000  -0.000000  -0.000000  -0.000000
     8  C   -0.000002  -0.000000  -0.000000  -0.000000  -0.000000   0.000000
     9  C    0.000000  -0.000000   0.000000   0.000000   0.000000  -0.000000
    10  C   -0.000000  -0.000000  -0.000000  -0.000000  -0.000000   0.000000
    11  C    0.000000  -0.000000   0.000000  -0.000000  -0.000000  -0.000000
    12  C   -0.000000  -0.000000  -0.000000  -0.000000  -0.000000   0.000000
    13  N   -0.000335   0.004343  -0.000102  -0.000945  -0.000394   0.004043
    14  C   -0.041970  -0.030042   0.005368  -0.003607  -0.000458   0.000007
    15  C    0.368492   0.363487  -0.035120  -0.041433  -0.003991   0.005210
    16  C   -0.045335  -0.034127   0.373371   0.369544  -0.042437  -0.033836
    17  C   -0.004233   0.005193  -0.033354  -0.041995   0.371702   0.366543
    18  C   -0.000881   0.000089   0.004949  -0.003349  -0.037925  -0.032202
    19  H    0.000004  -0.000000   0.000000   0.000000  -0.000000  -0.000000
    20  H    0.000000   0.000000   0.000000   0.000000   0.000000  -0.000000
    21  H    0.000000   0.000000   0.000000   0.000000   0.000000  -0.000000
    22  H    0.000000   0.000000   0.000000   0.000000   0.000000   0.000000
    23  H    0.000000   0.000000   0.000000   0.000000   0.000000  -0.000000
    24  H    0.000000   0.000000   0.000000   0.000000   0.000000  -0.000000
    25  H    0.000000   0.000000   0.000000   0.000000   0.000000   0.000000
    26  H   -0.000000   0.000000  -0.000000  -0.000000   0.000000   0.000000
    27  H   -0.000000   0.000000   0.000000   0.000000   0.000000  -0.000000
    28  H    0.000000   0.000000   0.000000   0.000000   0.000000   0.000000
    29  H   -0.004822  -0.002417  -0.000123  -0.000017  -0.000032   0.000005
    30  H    0.007133  -0.001115   0.000021   0.005637   0.000237   0.000034
    31  H    0.593446  -0.031032  -0.004202   0.006148   0.005013  -0.000032
    32  H   -0.031032   0.590971  -0.002348  -0.004338  -0.000005  -0.000152
    33  H   -0.004202  -0.002348   0.593664  -0.035835  -0.005057  -0.002248
    34  H    0.006148  -0.004338  -0.035835   0.612232   0.006098  -0.004457
    35  H    0.005013  -0.000005  -0.005057   0.006098   0.587359  -0.032174
    36  H   -0.000032  -0.000152  -0.002248  -0.004457  -0.032174   0.589731
    37  H   -0.000021   0.000010  -0.000139  -0.000053  -0.004508  -0.001088
    38  H    0.000246   0.000045  -0.000066   0.005128   0.006091  -0.001943
              37         38
     1  C   -0.001697   0.000494
     2  O    0.013101   0.000660
     3  N    0.000471  -0.000163
     4  N   -0.000010   0.000110
     5  C    0.000000   0.000003
     6  O   -0.000000   0.000000
     7  N    0.000000  -0.000000
     8  C   -0.000000  -0.000004
     9  C    0.000000   0.000000
    10  C   -0.000000  -0.000000
    11  C    0.000000  -0.000000
    12  C   -0.000000  -0.000000
    13  N   -0.031834  -0.055433
    14  C    0.004023  -0.001889
    15  C   -0.000023  -0.001436
    16  C    0.004058  -0.006783
    17  C   -0.029378  -0.048046
    18  C    0.373402   0.372883
    19  H   -0.000002  -0.000004
    20  H    0.000000   0.000001
    21  H   -0.000000   0.000000
    22  H    0.000000   0.000000
    23  H    0.000000   0.000000
    24  H    0.000000   0.000000
    25  H    0.000000   0.000000
    26  H   -0.000000   0.000000
    27  H    0.000000   0.000000
    28  H    0.000000   0.000000
    29  H   -0.000150  -0.000124
    30  H   -0.000114   0.008717
    31  H   -0.000021   0.000246
    32  H    0.000010   0.000045
    33  H   -0.000139  -0.000066
    34  H   -0.000053   0.005128
    35  H   -0.004508   0.006091
    36  H   -0.001088  -0.001943
    37  H    0.516615  -0.032629
    38  H   -0.032629   0.610217
 Mulliken charges:
               1
     1  C    0.711981
     2  O   -0.493547
     3  N   -0.300914
     4  N   -0.301730
     5  C    0.711650
     6  O   -0.493783
     7  N   -0.431196
     8  C   -0.153743
     9  C   -0.254914
    10  C   -0.265280
    11  C   -0.267578
    12  C   -0.133617
    13  N   -0.431947
    14  C   -0.152509
    15  C   -0.254809
    16  C   -0.265384
    17  C   -0.267500
    18  C   -0.133523
    19  H    0.281860
    20  H    0.119302
    21  H    0.147764
    22  H    0.141048
    23  H    0.141094
    24  H    0.131202
    25  H    0.149859
    26  H    0.142646
    27  H    0.190078
    28  H    0.144141
    29  H    0.282026
    30  H    0.119382
    31  H    0.147970
    32  H    0.141157
    33  H    0.141207
    34  H    0.131265
    35  H    0.149849
    36  H    0.142601
    37  H    0.189967
    38  H    0.143925
 Sum of Mulliken charges =   0.00000
 Mulliken charges with hydrogens summed into heavy atoms:
               1
     1  C    0.711981
     2  O   -0.493547
     3  N   -0.300914
     4  N   -0.301730
     5  C    0.711650
     6  O   -0.493783
     7  N   -0.431196
     8  C    0.247418
     9  C    0.033899
    10  C    0.007015
    11  C    0.024927
    12  C    0.200602
    13  N   -0.431947
    14  C    0.248900
    15  C    0.034317
    16  C    0.007088
    17  C    0.024950
    18  C    0.200369
 APT charges:
               1
     1  C    0.837432
     2  O   -0.673208
     3  N    0.115062
     4  N    0.126203
     5  C    0.841819
     6  O   -0.674256
     7  N   -0.676170
     8  C    0.148669
     9  C    0.093300
    10  C    0.097580
    11  C    0.103671
    12  C    0.324415
    13  N   -0.675647
    14  C    0.153427
    15  C    0.090564
    16  C    0.098384
    17  C    0.102950
    18  C    0.325450
    19  H    0.046924
    20  H   -0.082646
    21  H   -0.028188
    22  H   -0.048941
    23  H   -0.070732
    24  H   -0.047117
    25  H   -0.032506
    26  H   -0.056761
    27  H    0.010904
    28  H   -0.066724
    29  H    0.039716
    30  H   -0.083862
    31  H   -0.027694
    32  H   -0.048742
    33  H   -0.070815
    34  H   -0.047102
    35  H   -0.032499
    36  H   -0.056741
    37  H    0.010755
    38  H   -0.066872
 Sum of APT charges =   0.00000
 APT charges with hydrogens summed into heavy atoms:
               1
     1  C    0.837432
     2  O   -0.673208
     3  N    0.115062
     4  N    0.126203
     5  C    0.841819
     6  O   -0.674256
     7  N   -0.676170
     8  C    0.112948
     9  C    0.016171
    10  C   -0.020270
    11  C    0.014404
    12  C    0.268594
    13  N   -0.675647
    14  C    0.109281
    15  C    0.014128
    16  C   -0.019533
    17  C    0.013710
    18  C    0.269333
 Electronic spatial extent (au):  <R**2>=           5681.5527
 Charge=              0.0000 electrons
 Dipole moment (field-independent basis, Debye):
    X=             -0.0048    Y=             -0.0169    Z=              3.5833  Tot=              3.5833
 Quadrupole moment (field-independent basis, Debye-Ang):
   XX=            -88.4509   YY=           -120.8044   ZZ=           -110.2096
   XY=             -4.5852   XZ=              0.0055   YZ=             -0.0117
 Traceless Quadrupole moment (field-independent basis, Debye-Ang):
[...]
    54    N    4  pz     Val( 2p)     1.26127
    55    N    4  pz     Ryd( 3p)     0.00445
    56    N    4  dxy    Ryd( 3d)     0.00098
    57    N    4  dxz    Ryd( 3d)     0.00150
    58    N    4  dyz    Ryd( 3d)     0.00203
    59    N    4  dx2y2  Ryd( 3d)     0.00075
    60    N    4  dz2    Ryd( 3d)     0.00225
 
    61    C    5  S      Cor( 1S)     1.99934
    62    C    5  S      Val( 2S)     0.73358
    63    C    5  S      Ryd( 3S)     0.00455
    64    C    5  S      Ryd( 4S)     0.00039
    65    C    5  px     Val( 2p)     0.83231
    66    C    5  px     Ryd( 3p)     0.00838
    67    C    5  py     Val( 2p)     0.77062
    68    C    5  py     Ryd( 3p)     0.01961
    69    C    5  pz     Val( 2p)     0.82198
    70    C    5  pz     Ryd( 3p)     0.00395
    71    C    5  dxy    Ryd( 3d)     0.00317
    72    C    5  dxz    Ryd( 3d)     0.00193
    73    C    5  dyz    Ryd( 3d)     0.00231
    74    C    5  dx2y2  Ryd( 3d)     0.00214
    75    C    5  dz2    Ryd( 3d)     0.00041
 
    76    O    6  S      Cor( 1S)     1.99979
    77    O    6  S      Val( 2S)     1.70350
    78    O    6  S      Ryd( 3S)     0.00078
    79    O    6  S      Ryd( 4S)     0.00009
    80    O    6  px     Val( 2p)     1.73644
    81    O    6  px     Ryd( 3p)     0.00147
    82    O    6  py     Val( 2p)     1.57331
    83    O    6  py     Ryd( 3p)     0.00037
    84    O    6  pz     Val( 2p)     1.53979
    85    O    6  pz     Ryd( 3p)     0.00093
    86    O    6  dxy    Ryd( 3d)     0.00436
    87    O    6  dxz    Ryd( 3d)     0.00023
    88    O    6  dyz    Ryd( 3d)     0.00459
    89    O    6  dx2y2  Ryd( 3d)     0.00436
    90    O    6  dz2    Ryd( 3d)     0.00136
 
    91    N    7  S      Cor( 1S)     1.99928
    92    N    7  S      Val( 2S)     1.20570
    93    N    7  S      Ryd( 3S)     0.00173
    94    N    7  S      Ryd( 4S)     0.00006
    95    N    7  px     Val( 2p)     1.29908
    96    N    7  px     Ryd( 3p)     0.00149
    97    N    7  py     Val( 2p)     1.30279
    98    N    7  py     Ryd( 3p)     0.00159
    99    N    7  pz     Val( 2p)     1.65036
   100    N    7  pz     Ryd( 3p)     0.00491
   101    N    7  dxy    Ryd( 3d)     0.00072
   102    N    7  dxz    Ryd( 3d)     0.00073
   103    N    7  dyz    Ryd( 3d)     0.00045
   104    N    7  dx2y2  Ryd( 3d)     0.00068
   105    N    7  dz2    Ryd( 3d)     0.00053
 
   106    C    8  S      Cor( 1S)     1.99930
   107    C    8  S      Val( 2S)     1.01834
   108    C    8  S      Ryd( 3S)     0.00128
   109    C    8  S      Ryd( 4S)     0.00003
   110    C    8  px     Val( 2p)     1.24308
   111    C    8  px     Ryd( 3p)     0.00630
   112    C    8  py     Val( 2p)     0.85072
   113    C    8  py     Ryd( 3p)     0.00263
   114    C    8  pz     Val( 2p)     1.13378
   115    C    8  pz     Ryd( 3p)     0.00126
   116    C    8  dxy    Ryd( 3d)     0.00068
   117    C    8  dxz    Ryd( 3d)     0.00102
   118    C    8  dyz    Ryd( 3d)     0.00092
   119    C    8  dx2y2  Ryd( 3d)     0.00127
   120    C    8  dz2    Ryd( 3d)     0.00094
 
   121    C    9  S      Cor( 1S)     1.99932
   122    C    9  S      Val( 2S)     1.04165
   123    C    9  S      Ryd( 3S)     0.00066
   124    C    9  S      Ryd( 4S)     0.00002
   125    C    9  px     Val( 2p)     1.10244
   126    C    9  px     Ryd( 3p)     0.00212
   127    C    9  py     Val( 2p)     1.19309
   128    C    9  py     Ryd( 3p)     0.00333
   129    C    9  pz     Val( 2p)     1.12401
   130    C    9  pz     Ryd( 3p)     0.00185
   131    C    9  dxy    Ryd( 3d)     0.00045
   132    C    9  dxz    Ryd( 3d)     0.00109
   133    C    9  dyz    Ryd( 3d)     0.00029
   134    C    9  dx2y2  Ryd( 3d)     0.00095
   135    C    9  dz2    Ryd( 3d)     0.00070
 
   136    C   10  S      Cor( 1S)     1.99933
   137    C   10  S      Val( 2S)     1.03668
   138    C   10  S      Ryd( 3S)     0.00060
   139    C   10  S      Ryd( 4S)     0.00002
   140    C   10  px     Val( 2p)     1.12459
   141    C   10  px     Ryd( 3p)     0.00154
   142    C   10  py     Val( 2p)     1.05030
   143    C   10  py     Ryd( 3p)     0.00168
   144    C   10  pz     Val( 2p)     1.24310
   145    C   10  pz     Ryd( 3p)     0.00416
   146    C   10  dxy    Ryd( 3d)     0.00059
   147    C   10  dxz    Ryd( 3d)     0.00114
   148    C   10  dyz    Ryd( 3d)     0.00049
   149    C   10  dx2y2  Ryd( 3d)     0.00068
   150    C   10  dz2    Ryd( 3d)     0.00065
 
   151    C   11  S      Cor( 1S)     1.99932
   152    C   11  S      Val( 2S)     1.04114
   153    C   11  S      Ryd( 3S)     0.00063
   154    C   11  S      Ryd( 4S)     0.00002
   155    C   11  px     Val( 2p)     1.21092
   156    C   11  px     Ryd( 3p)     0.00384
   157    C   11  py     Val( 2p)     1.08326
   158    C   11  py     Ryd( 3p)     0.00176
   159    C   11  pz     Val( 2p)     1.12585
   160    C   11  pz     Ryd( 3p)     0.00158
   161    C   11  dxy    Ryd( 3d)     0.00084
   162    C   11  dxz    Ryd( 3d)     0.00086
   163    C   11  dyz    Ryd( 3d)     0.00044
   164    C   11  dx2y2  Ryd( 3d)     0.00059
   165    C   11  dz2    Ryd( 3d)     0.00074
 
   166    C   12  S      Cor( 1S)     1.99932
   167    C   12  S      Val( 2S)     1.01813
   168    C   12  S      Ryd( 3S)     0.00118
   169    C   12  S      Ryd( 4S)     0.00003
   170    C   12  px     Val( 2p)     0.95037
   171    C   12  px     Ryd( 3p)     0.00385
   172    C   12  py     Val( 2p)     1.15029
   173    C   12  py     Ryd( 3p)     0.00461
   174    C   12  pz     Val( 2p)     1.12510
   175    C   12  pz     Ryd( 3p)     0.00162
   176    C   12  dxy    Ryd( 3d)     0.00105
   177    C   12  dxz    Ryd( 3d)     0.00147
   178    C   12  dyz    Ryd( 3d)     0.00046
   179    C   12  dx2y2  Ryd( 3d)     0.00090
   180    C   12  dz2    Ryd( 3d)     0.00099
 
   181    N   13  S      Cor( 1S)     1.99927
   182    N   13  S      Val( 2S)     1.20578
   183    N   13  S      Ryd( 3S)     0.00169
   184    N   13  S      Ryd( 4S)     0.00006
   185    N   13  px     Val( 2p)     1.29915
   186    N   13  px     Ryd( 3p)     0.00168
   187    N   13  py     Val( 2p)     1.30122
   188    N   13  py     Ryd( 3p)     0.00155
   189    N   13  pz     Val( 2p)     1.65277
   190    N   13  pz     Ryd( 3p)     0.00484
   191    N   13  dxy    Ryd( 3d)     0.00073
   192    N   13  dxz    Ryd( 3d)     0.00068
   193    N   13  dyz    Ryd( 3d)     0.00044
   194    N   13  dx2y2  Ryd( 3d)     0.00068
   195    N   13  dz2    Ryd( 3d)     0.00055
 
   196    C   14  S      Cor( 1S)     1.99930
   197    C   14  S      Val( 2S)     1.01820
   198    C   14  S      Ryd( 3S)     0.00132
   199    C   14  S      Ryd( 4S)     0.00003
   200    C   14  px     Val( 2p)     1.20702
   201    C   14  px     Ryd( 3p)     0.00563
   202    C   14  py     Val( 2p)     0.85790
   203    C   14  py     Ryd( 3p)     0.00246
   204    C   14  pz     Val( 2p)     1.16296
   205    C   14  pz     Ryd( 3p)     0.00186
   206    C   14  dxy    Ryd( 3d)     0.00070
   207    C   14  dxz    Ryd( 3d)     0.00071
   208    C   14  dyz    Ryd( 3d)     0.00100
   209    C   14  dx2y2  Ryd( 3d)     0.00126
   210    C   14  dz2    Ryd( 3d)     0.00115
 
   211    C   15  S      Cor( 1S)     1.99932
   212    C   15  S      Val( 2S)     1.04084
   213    C   15  S      Ryd( 3S)     0.00066
   214    C   15  S      Ryd( 4S)     0.00002
   215    C   15  px     Val( 2p)     1.05964
   216    C   15  px     Ryd( 3p)     0.00189
   217    C   15  py     Val( 2p)     1.20367
   218    C   15  py     Ryd( 3p)     0.00363
   219    C   15  pz     Val( 2p)     1.15575
   220    C   15  pz     Ryd( 3p)     0.00180
   221    C   15  dxy    Ryd( 3d)     0.00048
   222    C   15  dxz    Ryd( 3d)     0.00089
   223    C   15  dyz    Ryd( 3d)     0.00025
   224    C   15  dx2y2  Ryd( 3d)     0.00095
   225    C   15  dz2    Ryd( 3d)     0.00092
 
   226    C   16  S      Cor( 1S)     1.99933
   227    C   16  S      Val( 2S)     1.03646
   228    C   16  S      Ryd( 3S)     0.00060
   229    C   16  S      Ryd( 4S)     0.00002
   230    C   16  px     Val( 2p)     1.12661
   231    C   16  px     Ryd( 3p)     0.00200
   232    C   16  py     Val( 2p)     1.04848
   233    C   16  py     Ryd( 3p)     0.00157
   234    C   16  pz     Val( 2p)     1.24283
   235    C   16  pz     Ryd( 3p)     0.00381
   236    C   16  dxy    Ryd( 3d)     0.00060
   237    C   16  dxz    Ryd( 3d)     0.00113
   238    C   16  dyz    Ryd( 3d)     0.00047
   239    C   16  dx2y2  Ryd( 3d)     0.00066
   240    C   16  dz2    Ryd( 3d)     0.00067
 
   241    C   17  S      Cor( 1S)     1.99932
   242    C   17  S      Val( 2S)     1.04092
   243    C   17  S      Ryd( 3S)     0.00063
   244    C   17  S      Ryd( 4S)     0.00002
   245    C   17  px     Val( 2p)     1.16692
   246    C   17  px     Ryd( 3p)     0.00345
   247    C   17  py     Val( 2p)     1.09315
   248    C   17  py     Ryd( 3p)     0.00170
   249    C   17  pz     Val( 2p)     1.15974
   250    C   17  pz     Ryd( 3p)     0.00212
   251    C   17  dxy    Ryd( 3d)     0.00083
   252    C   17  dxz    Ryd( 3d)     0.00075
   253    C   17  dyz    Ryd( 3d)     0.00052
   254    C   17  dx2y2  Ryd( 3d)     0.00056
   255    C   17  dz2    Ryd( 3d)     0.00083
 
   256    C   18  S      Cor( 1S)     1.99932
   257    C   18  S      Val( 2S)     1.01799
   258    C   18  S      Ryd( 3S)     0.00122
   259    C   18  S      Ryd( 4S)     0.00003
   260    C   18  px     Val( 2p)     0.91712
   261    C   18  px     Ryd( 3p)     0.00372
   262    C   18  py     Val( 2p)     1.15388
   263    C   18  py     Ryd( 3p)     0.00478
   264    C   18  pz     Val( 2p)     1.15476
   265    C   18  pz     Ryd( 3p)     0.00157
   266    C   18  dxy    Ryd( 3d)     0.00114
   267    C   18  dxz    Ryd( 3d)     0.00119
   268    C   18  dyz    Ryd( 3d)     0.00046
   269    C   18  dx2y2  Ryd( 3d)     0.00088
   270    C   18  dz2    Ryd( 3d)     0.00120
 
   271    H   19  S      Val( 1S)     0.72415
   272    H   19  S      Ryd( 2S)     0.00243
 
   273    H   20  S      Val( 1S)     0.77258
   274    H   20  S      Ryd( 2S)     0.00217
 
   275    H   21  S      Val( 1S)     0.76008
   276    H   21  S      Ryd( 2S)     0.00199
 
   277    H   22  S      Val( 1S)     0.75295
   278    H   22  S      Ryd( 2S)     0.00112
 
   279    H   23  S      Val( 1S)     0.75454
   280    H   23  S      Ryd( 2S)     0.00111
 
   281    H   24  S      Val( 1S)     0.77227
   282    H   24  S      Ryd( 2S)     0.00194
 
   283    H   25  S      Val( 1S)     0.76125
   284    H   25  S      Ryd( 2S)     0.00189
 
   285    H   26  S      Val( 1S)     0.75449
   286    H   26  S      Ryd( 2S)     0.00113
 
   287    H   27  S      Val( 1S)     0.73035
   288    H   27  S      Ryd( 2S)     0.00205
 
   289    H   28  S      Val( 1S)     0.77220
   290    H   28  S      Ryd( 2S)     0.00205
 
   291    H   29  S      Val( 1S)     0.72412
   292    H   29  S      Ryd( 2S)     0.00243
 
   293    H   30  S      Val( 1S)     0.77351
   294    H   30  S      Ryd( 2S)     0.00227
 
   295    H   31  S      Val( 1S)     0.76214
   296    H   31  S      Ryd( 2S)     0.00207
 
   297    H   32  S      Val( 1S)     0.75245
   298    H   32  S      Ryd( 2S)     0.00110
 
   299    H   33  S      Val( 1S)     0.75453
   300    H   33  S      Ryd( 2S)     0.00111
 
   301    H   34  S      Val( 1S)     0.77136
   302    H   34  S      Ryd( 2S)     0.00194
 
   303    H   35  S      Val( 1S)     0.76181
   304    H   35  S      Ryd( 2S)     0.00188
 
   305    H   36  S      Val( 1S)     0.75326
   306    H   36  S      Ryd( 2S)     0.00113
 
   307    H   37  S      Val( 1S)     0.73017
   308    H   37  S      Ryd( 2S)     0.00203
 
   309    H   38  S      Val( 1S)     0.77304
   310    H   38  S      Ryd( 2S)     0.00201


 Summary of Natural Population Analysis:                  
                                                          
                                       Natural Population 
                Natural  -----------------------------------------------
    Atom  No    Charge         Core      Valence    Rydberg      Total
 -----------------------------------------------------------------------
      C    1    0.79711      1.99934     3.15683    0.04672     5.20289
      O    2   -0.57264      1.99979     6.55431    0.01854     8.57264
      N    3   -0.25251      1.99941     5.22706    0.02603     7.25251
      N    4   -0.24921      1.99941     5.22367    0.02613     7.24921
      C    5    0.79533      1.99934     3.15849    0.04684     5.20467
      O    6   -0.57138      1.99979     6.55304    0.01855     8.57138
      N    7   -0.47011      1.99928     5.45794    0.01289     7.47011
      C    8   -0.26153      1.99930     4.24592    0.01631     6.26153
      C    9   -0.47197      1.99932     4.46120    0.01145     6.47197
      C   10   -0.46554      1.99933     4.45466    0.01155     6.46554
      C   11   -0.47181      1.99932     4.46117    0.01132     6.47181
      C   12   -0.25936      1.99932     4.24388    0.01616     6.25936
      N   13   -0.47109      1.99927     5.45892    0.01290     7.47109
      C   14   -0.26150      1.99930     4.24608    0.01613     6.26150
      C   15   -0.47070      1.99932     4.45990    0.01148     6.47070
      C   16   -0.46524      1.99933     4.45437    0.01154     6.46524
      C   17   -0.47146      1.99932     4.46074    0.01140     6.47146
      C   18   -0.25927      1.99932     4.24375    0.01620     6.25927
      H   19    0.27343      0.00000     0.72415    0.00243     0.72657
      H   20    0.22524      0.00000     0.77258    0.00217     0.77476
      H   21    0.23793      0.00000     0.76008    0.00199     0.76207
      H   22    0.24593      0.00000     0.75295    0.00112     0.75407
      H   23    0.24435      0.00000     0.75454    0.00111     0.75565
      H   24    0.22579      0.00000     0.77227    0.00194     0.77421
      H   25    0.23686      0.00000     0.76125    0.00189     0.76314
      H   26    0.24438      0.00000     0.75449    0.00113     0.75562
      H   27    0.26759      0.00000     0.73035    0.00205     0.73241
      H   28    0.22575      0.00000     0.77220    0.00205     0.77425
      H   29    0.27345      0.00000     0.72412    0.00243     0.72655
      H   30    0.22422      0.00000     0.77351    0.00227     0.77578
      H   31    0.23579      0.00000     0.76214    0.00207     0.76421
      H   32    0.24646      0.00000     0.75245    0.00110     0.75354
      H   33    0.24436      0.00000     0.75453    0.00111     0.75564
      H   34    0.22670      0.00000     0.77136    0.00194     0.77330
      H   35    0.23631      0.00000     0.76181    0.00188     0.76369
      H   36    0.24561      0.00000     0.75326    0.00113     0.75439
      H   37    0.26780      0.00000     0.73017    0.00203     0.73220
      H   38    0.22495      0.00000     0.77304    0.00201     0.77505
 =======================================================================
   * Total *   -0.00000     35.98882    99.63317    0.37801   136.00000

                                 Natural Population      
 --------------------------------------------------------
   Core                      35.98882 ( 99.9690% of  36)
   Valence                   99.63317 ( 99.6332% of 100)
   Natural Minimal Basis    135.62199 ( 99.7221% of 136)
   Natural Rydberg Basis      0.37801 (  0.2779% of 136)
 --------------------------------------------------------

    Atom  No          Natural Electron Configuration
 ----------------------------------------------------------------------------
      C    1      [core]2S( 0.73)2p( 2.42)3p( 0.03)3d( 0.01)
      O    2      [core]2S( 1.70)2p( 4.85)3d( 0.01)
      N    3      [core]2S( 1.40)2p( 3.83)3S( 0.01)3p( 0.01)3d( 0.01)
      N    4      [core]2S( 1.40)2p( 3.82)3S( 0.01)3p( 0.01)3d( 0.01)
      C    5      [core]2S( 0.73)2p( 2.42)3p( 0.03)3d( 0.01)
      O    6      [core]2S( 1.70)2p( 4.85)3d( 0.01)
      N    7      [core]2S( 1.21)2p( 4.25)3p( 0.01)
      C    8      [core]2S( 1.02)2p( 3.23)3p( 0.01)
      C    9      [core]2S( 1.04)2p( 3.42)3p( 0.01)
      C   10      [core]2S( 1.04)2p( 3.42)3p( 0.01)
      C   11      [core]2S( 1.04)2p( 3.42)3p( 0.01)
      C   12      [core]2S( 1.02)2p( 3.23)3p( 0.01)
      N   13      [core]2S( 1.21)2p( 4.25)3p( 0.01)
      C   14      [core]2S( 1.02)2p( 3.23)3p( 0.01)
      C   15      [core]2S( 1.04)2p( 3.42)3p( 0.01)
      C   16      [core]2S( 1.04)2p( 3.42)3p( 0.01)
      C   17      [core]2S( 1.04)2p( 3.42)3p( 0.01)
      C   18      [core]2S( 1.02)2p( 3.23)3p( 0.01)
      H   19            1S( 0.72)
      H   20            1S( 0.77)
      H   21            1S( 0.76)
      H   22            1S( 0.75)
      H   23            1S( 0.75)
      H   24            1S( 0.77)
      H   25            1S( 0.76)
      H   26            1S( 0.75)
      H   27            1S( 0.73)
      H   28            1S( 0.77)
      H   29            1S( 0.72)
      H   30            1S( 0.77)
      H   31            1S( 0.76)
      H   32            1S( 0.75)
      H   33            1S( 0.75)
      H   34            1S( 0.77)
      H   35            1S( 0.76)
      H   36            1S( 0.75)
      H   37            1S( 0.73)
      H   38            1S( 0.77)


 NBO analysis skipped by request.
 1\1\GINC-DELLA-R2C2N15\SP\RB3LYP TD-FC\6-31G(d)\C12H20N4O2\BJS4\22-Aug
 -2020\0\\# TD(NStates=10, Root=1) B3LYP/6-31G* scf=qc volume pop=NPA d
 ensity=current Geom=AllCheck Guess=Read\\Title Card Required\\0,1\C,0,
 0.3550919306,-0.1466384682,1.2402680422\O,0,1.5659815849,-0.0501065987
 ,1.3637958963\N,0,-0.4147724047,1.0514042345,0.907577674\N,0,-0.558241
 8808,1.8087317113,1.8845571883\C,0,-1.3244002031,3.007993871,1.5439299
 757\O,0,-2.5321546945,2.913346197,1.3928002576\N,0,-0.5898768651,4.145
 9565543,1.5425629143\C,0,0.8710715847,4.1886061916,1.6750387713\C,0,1.
 5054841802,4.8227431823,0.4295243749\C,0,0.8796580372,6.1939990289,0.1
 293207637\C,0,-0.6507304266,6.0921417624,0.0297419133\C,0,-1.243612397
 1,5.4306657461,1.2809335479\N,0,-0.377342922,-1.285777498,1.2592944842
 \C,0,-1.8389534791,-1.3305913963,1.132964081\C,0,-2.2535536968,-2.2972
 541068,0.01585083\C,0,-1.6107011111,-3.679081672,0.2088895572\C,0,-0.0
 850673234,-3.5577038488,0.3452024648\C,0,0.2934431721,-2.5734134347,1.
 4588280507\H,0,1.2490683743,3.179118077,1.8421300251\H,0,1.1170205228,
 4.7867094872,2.5652998882\H,0,1.3565391762,4.1487079749,-0.4242952303\
 H,0,2.5872992967,4.9147979331,0.5851083657\H,0,1.2954839278,6.60743359
 26,-0.7972160414\H,0,1.1447561306,6.8964684284,0.9335956115\H,0,-0.926
 9739733,5.4955798549,-0.849682936\H,0,-1.0974733593,7.0856571594,-0.09
 99434001\H,0,-2.3124106449,5.2404908729,1.1760110929\H,0,-1.0933848299
 ,6.0796569618,2.1568492094\H,0,-2.2146895025,-0.324343774,0.9425815514
 \H,0,-2.2614919475,-1.6641378051,2.0931229728\H,0,-1.9442881998,-1.874
 8178924,-0.9492496185\H,0,-3.3473871159,-2.3758902461,-0.0002301554\H,
 0,-1.8685365417,-4.339437122,-0.6276201927\H,0,-2.0204117163,-4.146593
 8337,1.1166637495\H,0,0.3452261187,-3.2054997807,-0.6016166958\H,0,0.3
 643505953,-4.5348521096,0.5611468864\H,0,1.3667386763,-2.3818360851,1.
 489448596\H,0,-0.009098073,-2.9784131493,2.4365355337\\Version=ES64L-G
 16RevA.03\State=1-A\HF=-838.7633152\RMSD=2.109e-09\Dipole=0.0273718,-0
 .0517573,-0.2647053\Quadrupole=-11.4213582,16.437901,-5.0165429,6.2698
 912,0.2297372,0.1850202\PG=C01 [X(C12H20N4O2)]\\@


 MICHAEL FARADAY, ASKED BY A POLITICIAN WHAT GOOD
 HIS ELECTRICAL DISCOVERIES WERE, REPLIED 
 "AT PRESENT I DO NOT KNOW, BUT ONE DAY YOU WILL BE
 ABLE TO TAX THEM."
 Job cpu time:       0 days  0 hours 40 minutes 26.2 seconds.
 Elapsed time:       0 days  0 hours  8 minutes  7.9 seconds.
 File lengths (MBytes):  RWF=    821 Int=      0 D2E=      0 Chk=    268 Scr=      1
 Normal termination of Gaussian 16 at Sat Aug 22 17:35:45 2020.
