 Entering Gaussian System, Link 0=g16
 Input=azadicarboxylate_3_conf20123.com
 Output=azadicarboxylate_3_conf20123.log
 Initial command:
 /opt/export//g16/l1.exe "/scratch/bjs4/job.25527/Gau-25529.inp" -scrdir="/scratch/bjs4/job.25527/"
 Entering Link 1 = /opt/export//g16/l1.exe PID=     25530.
  
 Copyright (c) 1988,1990,1992,1993,1995,1998,2003,2009,2016,
            Gaussian, Inc.  All Rights Reserved.
  
 This is part of the Gaussian(R) 16 program.  It is based on
 the Gaussian(R) 09 system (copyright 2009, Gaussian, Inc.),
 the Gaussian(R) 03 system (copyright 2003, Gaussian, Inc.),
 the Gaussian(R) 98 system (copyright 1998, Gaussian, Inc.),
 the Gaussian(R) 94 system (copyright 1995, Gaussian, Inc.),
 the Gaussian 92(TM) system (copyright 1992, Gaussian, Inc.),
 the Gaussian 90(TM) system (copyright 1990, Gaussian, Inc.),
 the Gaussian 88(TM) system (copyright 1988, Gaussian, Inc.),
 the Gaussian 86(TM) system (copyright 1986, Carnegie Mellon
 University), and the Gaussian 82(TM) system (copyright 1983,
 Carnegie Mellon University). Gaussian is a federally registered
 trademark of Gaussian, Inc.
  
 This software contains proprietary and confidential information,
 including trade secrets, belonging to Gaussian, Inc.
  
 This software is provided under written license and may be
 used, copied, transmitted, or stored only in accord with that
 written license.
  
 The following legend is applicable only to US Government
 contracts under FAR:
  
                    RESTRICTED RIGHTS LEGEND
  
 Use, reproduction and disclosure by the US Government is
 subject to restrictions as set forth in subparagraphs (a)
 and (c) of the Commercial Computer Software - Restricted
 Rights clause in FAR 52.227-19.
  
 Gaussian, Inc.
 340 Quinnipiac St., Bldg. 40, Wallingford CT 06492
  
  
 ---------------------------------------------------------------
 Warning -- This program may not be used in any manner that
 competes with the business of Gaussian, Inc. or will provide
 assistance to any competitor of Gaussian, Inc.  The licensee
 of this program is prohibited from giving any competitor of
 Gaussian, Inc. access to this program.  By using this program,
 the user acknowledges that Gaussian, Inc. is engaged in the
 business of creating and licensing software in the field of
 computational chemistry and represents and warrants to the
 licensee that it is not a competitor of Gaussian, Inc. and that
 it will not use this program in any manner prohibited above.
 ---------------------------------------------------------------
  

 Cite this work as:
 Gaussian 16, Revision A.03,
 M. J. Frisch, G. W. Trucks, H. B. Schlegel, G. E. Scuseria, 
 M. A. Robb, J. R. Cheeseman, G. Scalmani, V. Barone, 
 G. A. Petersson, H. Nakatsuji, X. Li, M. Caricato, A. V. Marenich, 
 J. Bloino, B. G. Janesko, R. Gomperts, B. Mennucci, H. P. Hratchian, 
 J. V. Ortiz, A. F. Izmaylov, J. L. Sonnenberg, D. Williams-Young, 
 F. Ding, F. Lipparini, F. Egidi, J. Goings, B. Peng, A. Petrone, 
 T. Henderson, D. Ranasinghe, V. G. Zakrzewski, J. Gao, N. Rega, 
 G. Zheng, W. Liang, M. Hada, M. Ehara, K. Toyota, R. Fukuda, 
 J. Hasegawa, M. Ishida, T. Nakajima, Y. Honda, O. Kitao, H. Nakai, 
 T. Vreven, K. Throssell, J. A. Montgomery, Jr., J. E. Peralta, 
 F. Ogliaro, M. J. Bearpark, J. J. Heyd, E. N. Brothers, K. N. Kudin, 
 V. N. Staroverov, T. A. Keith, R. Kobayashi, J. Normand, 
 K. Raghavachari, A. P. Rendell, J. C. Burant, S. S. Iyengar, 
 J. Tomasi, M. Cossi, J. M. Millam, M. Klene, C. Adamo, R. Cammi, 
 J. W. Ochterski, R. L. Martin, K. Morokuma, O. Farkas, 
 J. B. Foresman, and D. J. Fox, Gaussian, Inc., Wallingford CT, 2016.
 
 ******************************************
 Gaussian 16:  ES64L-G16RevA.03 25-Dec-2016
                22-Aug-2020 
 ******************************************
 %nprocshared=5
 Will use up to    5 processors via shared memory.
 %Mem=10GB
 %Chk=azadicarboxylate_3_conf201.chk
 ---------------------------------
 # opt=CalcAll B3LYP/6-31G* scf=qc
 ---------------------------------
 1/10=4,18=20,19=15,26=3,38=1/1,3;
 2/9=110,12=2,17=6,18=5,40=1/2;
 3/5=1,6=6,7=1,11=2,25=1,30=1,71=2,74=-5,140=1/1,2,3;
 4//1;
 5/5=2,8=3,38=5/8;
 8/6=4,10=90,11=11/1;
 11/6=1,8=1,9=11,15=111,16=1/1,2,10;
 10/6=1/2;
 6/7=2,8=2,9=2,10=2,18=1,28=1/1;
 7/10=1,25=1/1,2,3,16;
 1/10=4,18=20,19=15,26=3/3(3);
 2/9=110/2;
 7/8=1,9=1,25=1,44=-1/16;
 99//99;
 2/9=110/2;
 3/5=1,6=6,7=1,11=2,25=1,30=1,71=2,74=-5,140=1/1,2,3;
 4/5=5,16=3,69=1/1;
 5/5=2,8=3,38=5/8;
 8/6=4,10=90,11=11/1;
 11/6=1,8=1,9=11,15=111,16=1/1,2,10;
 10/6=1/2;
 7/10=1,25=1/1,2,3,16;
 1/10=4,18=20,19=15,26=3/3(-8);
 2/9=110/2;
 6/7=2,8=2,9=2,10=2,18=1,19=2,28=1/1;
 7/8=1,9=1,25=1,44=-1/16;
 99//99;
 -------------------
 Title Card Required
 -------------------
 Symbolic Z-matrix:
 Charge =  0 Multiplicity = 1
 C                    -4.53796  -0.93794  -2.31252 
 C                    -5.59763  -0.72112  -1.25458 
 O1                   -5.87348   0.67713  -1.09578 
 C2                   -5.0041    1.3932   -0.331 
 O3                   -4.01755   0.91641   0.22013 
 N4                   -5.404     2.7122   -0.3088 
 N5                   -6.6449    2.8402   -0.4308 
 C6                   -7.0458    4.1568   -0.3655 
 O7                   -8.19472   4.5779   -0.44139 
 O8                   -5.94972   4.95164  -0.22398 
 C                    -6.17888   6.3661   -0.16226 
 C                    -5.67385   6.92962   1.1476 
 C                    -4.36019   7.40483   1.28393 
 C                    -3.91244   7.92127   2.50311 
 C                    -4.78055   7.98397   3.58998 
 C                    -6.0979    7.55111   3.4632 
 C                    -6.54428   7.03133   2.24484 
 Cl                   -4.22291   8.59775   5.09735 
 C                    -3.95503   0.13907  -2.99844 
 C                    -2.97702  -0.08239  -3.97236 
 C                    -2.5612   -1.38109  -4.25468 
 C                    -3.10223  -2.45897  -3.55881 
 C                    -4.08242  -2.23752  -2.58742 
 Cl                   -1.37453  -1.65581  -5.46973 
 H                    -5.21645  -1.09427  -0.29732 
 H                    -6.4938   -1.302    -1.49929 
 H                    -7.2338    6.62761  -0.29824 
 H                    -5.61745   6.82812  -0.98185 
 H                    -3.67052   7.36835   0.44248 
 H                    -2.88698   8.26862   2.59714 
 H                    -6.78011   7.61099   4.30713 
 H                    -7.57751   6.69862   2.16265 
 H                    -4.26465   1.16074  -2.78574 
 H                    -2.54804   0.76107  -4.5071 
 H                    -2.7698   -3.47218  -3.76923 
 H                    -4.49348  -3.09134  -2.05175 
 

 GradGradGradGradGradGradGradGradGradGradGradGradGradGradGradGradGradGrad
 Berny optimization.
 Initialization pass.
                           ----------------------------
                           !    Initial Parameters    !
                           ! (Angstroms and Degrees)  !
 --------------------------                            --------------------------
 ! Name  Definition              Value          Derivative Info.                !
 --------------------------------------------------------------------------------
 ! R1    R(1,2)                  1.513          calculate D2E/DX2 analytically  !
 ! R2    R(1,19)                 1.4037         calculate D2E/DX2 analytically  !
 ! R3    R(1,23)                 1.4043         calculate D2E/DX2 analytically  !
 ! R4    R(2,3)                  1.434          calculate D2E/DX2 analytically  !
 ! R5    R(2,25)                 1.0958         calculate D2E/DX2 analytically  !
 ! R6    R(2,26)                 1.0956         calculate D2E/DX2 analytically  !
 ! R7    R(3,4)                  1.3614         calculate D2E/DX2 analytically  !
 ! R8    R(4,5)                  1.2265         calculate D2E/DX2 analytically  !
 ! R9    R(4,6)                  1.3785         calculate D2E/DX2 analytically  !
 ! R10   R(6,7)                  1.2534         calculate D2E/DX2 analytically  !
 ! R11   R(7,8)                  1.3778         calculate D2E/DX2 analytically  !
 ! R12   R(8,9)                  1.226          calculate D2E/DX2 analytically  !
 ! R13   R(8,10)                 1.3613         calculate D2E/DX2 analytically  !
 ! R14   R(10,11)                1.4342         calculate D2E/DX2 analytically  !
 ! R15   R(11,12)                1.5127         calculate D2E/DX2 analytically  !
 ! R16   R(11,27)                1.0953         calculate D2E/DX2 analytically  !
 ! R17   R(11,28)                1.0956         calculate D2E/DX2 analytically  !
 ! R18   R(12,13)                1.4036         calculate D2E/DX2 analytically  !
 ! R19   R(12,17)                1.4043         calculate D2E/DX2 analytically  !
 ! R20   R(13,14)                1.3977         calculate D2E/DX2 analytically  !
 ! R21   R(13,29)                1.0886         calculate D2E/DX2 analytically  !
 ! R22   R(14,15)                1.3924         calculate D2E/DX2 analytically  !
 ! R23   R(14,30)                1.0868         calculate D2E/DX2 analytically  !
 ! R24   R(15,16)                1.3924         calculate D2E/DX2 analytically  !
 ! R25   R(15,18)                1.7204         calculate D2E/DX2 analytically  !
 ! R26   R(16,17)                1.3978         calculate D2E/DX2 analytically  !
 ! R27   R(16,31)                1.0868         calculate D2E/DX2 analytically  !
 ! R28   R(17,32)                1.0886         calculate D2E/DX2 analytically  !
 ! R29   R(19,20)                1.3979         calculate D2E/DX2 analytically  !
 ! R30   R(19,33)                1.0885         calculate D2E/DX2 analytically  !
 ! R31   R(20,21)                1.3926         calculate D2E/DX2 analytically  !
 ! R32   R(20,34)                1.0869         calculate D2E/DX2 analytically  !
 ! R33   R(21,22)                1.3924         calculate D2E/DX2 analytically  !
 ! R34   R(21,24)                1.7205         calculate D2E/DX2 analytically  !
 ! R35   R(22,23)                1.3976         calculate D2E/DX2 analytically  !
 ! R36   R(22,35)                1.0869         calculate D2E/DX2 analytically  !
 ! R37   R(23,36)                1.0885         calculate D2E/DX2 analytically  !
 ! A1    A(2,1,19)             121.5069         calculate D2E/DX2 analytically  !
 ! A2    A(2,1,23)             119.7821         calculate D2E/DX2 analytically  !
 ! A3    A(19,1,23)            118.6661         calculate D2E/DX2 analytically  !
 ! A4    A(1,2,3)              110.6029         calculate D2E/DX2 analytically  !
 ! A5    A(1,2,25)             108.5655         calculate D2E/DX2 analytically  !
 ! A6    A(1,2,26)             109.9207         calculate D2E/DX2 analytically  !
 ! A7    A(3,2,25)             107.5896         calculate D2E/DX2 analytically  !
 ! A8    A(3,2,26)             112.6029         calculate D2E/DX2 analytically  !
 ! A9    A(25,2,26)            107.4026         calculate D2E/DX2 analytically  !
 ! A10   A(2,3,4)              116.8863         calculate D2E/DX2 analytically  !
 ! A11   A(3,4,5)              124.1665         calculate D2E/DX2 analytically  !
 ! A12   A(3,4,6)              109.0912         calculate D2E/DX2 analytically  !
 ! A13   A(5,4,6)              126.7319         calculate D2E/DX2 analytically  !
 ! A14   A(4,6,7)              112.5413         calculate D2E/DX2 analytically  !
 ! A15   A(6,7,8)              112.397          calculate D2E/DX2 analytically  !
 ! A16   A(7,8,9)              126.7227         calculate D2E/DX2 analytically  !
 ! A17   A(7,8,10)             109.1827         calculate D2E/DX2 analytically  !
 ! A18   A(9,8,10)             124.085          calculate D2E/DX2 analytically  !
 ! A19   A(8,10,11)            116.8497         calculate D2E/DX2 analytically  !
 ! A20   A(10,11,12)           110.5671         calculate D2E/DX2 analytically  !
 ! A21   A(10,11,27)           112.5818         calculate D2E/DX2 analytically  !
 ! A22   A(10,11,28)           107.5667         calculate D2E/DX2 analytically  !
 ! A23   A(12,11,27)           109.8828         calculate D2E/DX2 analytically  !
 ! A24   A(12,11,28)           108.637          calculate D2E/DX2 analytically  !
 ! A25   A(27,11,28)           107.4563         calculate D2E/DX2 analytically  !
 ! A26   A(11,12,13)           121.5124         calculate D2E/DX2 analytically  !
 ! A27   A(11,12,17)           119.7768         calculate D2E/DX2 analytically  !
 ! A28   A(13,12,17)           118.6668         calculate D2E/DX2 analytically  !
 ! A29   A(12,13,14)           120.6395         calculate D2E/DX2 analytically  !
 ! A30   A(12,13,29)           120.4326         calculate D2E/DX2 analytically  !
 ! A31   A(14,13,29)           118.9256         calculate D2E/DX2 analytically  !
 ! A32   A(13,14,15)           119.8531         calculate D2E/DX2 analytically  !
 ! A33   A(13,14,30)           119.7252         calculate D2E/DX2 analytically  !
 ! A34   A(15,14,30)           120.4214         calculate D2E/DX2 analytically  !
 ! A35   A(14,15,16)           120.3161         calculate D2E/DX2 analytically  !
 ! A36   A(14,15,18)           119.8601         calculate D2E/DX2 analytically  !
 ! A37   A(16,15,18)           119.8237         calculate D2E/DX2 analytically  !
 ! A38   A(15,16,17)           119.8075         calculate D2E/DX2 analytically  !
 ! A39   A(15,16,31)           120.3998         calculate D2E/DX2 analytically  !
 ! A40   A(17,16,31)           119.7922         calculate D2E/DX2 analytically  !
 ! A41   A(12,17,16)           120.6672         calculate D2E/DX2 analytically  !
 ! A42   A(12,17,32)           120.4776         calculate D2E/DX2 analytically  !
 ! A43   A(16,17,32)           118.8534         calculate D2E/DX2 analytically  !
 ! A44   A(1,19,20)            120.6277         calculate D2E/DX2 analytically  !
 ! A45   A(1,19,33)            120.434          calculate D2E/DX2 analytically  !
 ! A46   A(20,19,33)           118.9361         calculate D2E/DX2 analytically  !
 ! A47   A(19,20,21)           119.8616         calculate D2E/DX2 analytically  !
 ! A48   A(19,20,34)           119.7328         calculate D2E/DX2 analytically  !
 ! A49   A(21,20,34)           120.4053         calculate D2E/DX2 analytically  !
 ! A50   A(20,21,22)           120.3046         calculate D2E/DX2 analytically  !
 ! A51   A(20,21,24)           119.871          calculate D2E/DX2 analytically  !
 ! A52   A(22,21,24)           119.8245         calculate D2E/DX2 analytically  !
 ! A53   A(21,22,23)           119.8145         calculate D2E/DX2 analytically  !
 ! A54   A(21,22,35)           120.4            calculate D2E/DX2 analytically  !
 ! A55   A(23,22,35)           119.7851         calculate D2E/DX2 analytically  !
 ! A56   A(1,23,22)            120.6766         calculate D2E/DX2 analytically  !
 ! A57   A(1,23,36)            120.4681         calculate D2E/DX2 analytically  !
 ! A58   A(22,23,36)           118.8536         calculate D2E/DX2 analytically  !
 ! D1    D(19,1,2,3)             0.0004         calculate D2E/DX2 analytically  !
 ! D2    D(19,1,2,25)         -117.8284         calculate D2E/DX2 analytically  !
 ! D3    D(19,1,2,26)          124.9584         calculate D2E/DX2 analytically  !
 ! D4    D(23,1,2,3)           177.5286         calculate D2E/DX2 analytically  !
 ! D5    D(23,1,2,25)           59.6998         calculate D2E/DX2 analytically  !
 ! D6    D(23,1,2,26)          -57.5134         calculate D2E/DX2 analytically  !
 ! D7    D(2,1,19,20)          179.9787         calculate D2E/DX2 analytically  !
 ! D8    D(2,1,19,33)           -0.562          calculate D2E/DX2 analytically  !
 ! D9    D(23,1,19,20)           2.4237         calculate D2E/DX2 analytically  !
 ! D10   D(23,1,19,33)        -178.117          calculate D2E/DX2 analytically  !
 ! D11   D(2,1,23,22)         -179.865          calculate D2E/DX2 analytically  !
 ! D12   D(2,1,23,36)            0.6174         calculate D2E/DX2 analytically  !
 ! D13   D(19,1,23,22)          -2.2668         calculate D2E/DX2 analytically  !
 ! D14   D(19,1,23,36)         178.2157         calculate D2E/DX2 analytically  !
 ! D15   D(1,2,3,4)            -80.4709         calculate D2E/DX2 analytically  !
 ! D16   D(25,2,3,4)            37.9539         calculate D2E/DX2 analytically  !
 ! D17   D(26,2,3,4)           156.1076         calculate D2E/DX2 analytically  !
 ! D18   D(2,3,4,5)             -0.0793         calculate D2E/DX2 analytically  !
 ! D19   D(2,3,4,6)            178.8171         calculate D2E/DX2 analytically  !
 ! D20   D(3,4,6,7)             29.6471         calculate D2E/DX2 analytically  !
 ! D21   D(5,4,6,7)           -151.4923         calculate D2E/DX2 analytically  !
 ! D22   D(4,6,7,8)            178.0638         calculate D2E/DX2 analytically  !
 ! D23   D(6,7,8,9)           -179.2939         calculate D2E/DX2 analytically  !
 ! D24   D(6,7,8,10)             1.8019         calculate D2E/DX2 analytically  !
 ! D25   D(7,8,10,11)          178.9397         calculate D2E/DX2 analytically  !
 ! D26   D(9,8,10,11)            0.0001         calculate D2E/DX2 analytically  !
 ! D27   D(8,10,11,12)         119.9997         calculate D2E/DX2 analytically  !
 ! D28   D(8,10,11,27)          -3.3303         calculate D2E/DX2 analytically  !
 ! D29   D(8,10,11,28)        -121.5231         calculate D2E/DX2 analytically  !
 ! D30   D(10,11,12,13)         90.3528         calculate D2E/DX2 analytically  !
 ! D31   D(10,11,12,17)        -92.0896         calculate D2E/DX2 analytically  !
 ! D32   D(27,11,12,13)       -144.7683         calculate D2E/DX2 analytically  !
 ! D33   D(27,11,12,17)         32.7893         calculate D2E/DX2 analytically  !
 ! D34   D(28,11,12,13)        -27.4705         calculate D2E/DX2 analytically  !
 ! D35   D(28,11,12,17)        150.0871         calculate D2E/DX2 analytically  !
 ! D36   D(11,12,13,14)       -179.9697         calculate D2E/DX2 analytically  !
 ! D37   D(11,12,13,29)         -0.5264         calculate D2E/DX2 analytically  !
 ! D38   D(17,12,13,14)          2.4463         calculate D2E/DX2 analytically  !
 ! D39   D(17,12,13,29)       -178.1103         calculate D2E/DX2 analytically  !
 ! D40   D(11,12,17,16)       -179.8986         calculate D2E/DX2 analytically  !
 ! D41   D(11,12,17,32)          0.5948         calculate D2E/DX2 analytically  !
 ! D42   D(13,12,17,16)         -2.2716         calculate D2E/DX2 analytically  !
 ! D43   D(13,12,17,32)        178.2218         calculate D2E/DX2 analytically  !
 ! D44   D(12,13,14,15)         -0.9086         calculate D2E/DX2 analytically  !
 ! D45   D(12,13,14,30)        178.8995         calculate D2E/DX2 analytically  !
 ! D46   D(29,13,14,15)        179.6398         calculate D2E/DX2 analytically  !
 ! D47   D(29,13,14,30)         -0.5521         calculate D2E/DX2 analytically  !
 ! D48   D(13,14,15,16)         -0.857          calculate D2E/DX2 analytically  !
 ! D49   D(13,14,15,18)        179.0858         calculate D2E/DX2 analytically  !
 ! D50   D(30,14,15,16)        179.3362         calculate D2E/DX2 analytically  !
 ! D51   D(30,14,15,18)         -0.7209         calculate D2E/DX2 analytically  !
 ! D52   D(14,15,16,17)          1.0305         calculate D2E/DX2 analytically  !
 ! D53   D(14,15,16,31)       -179.2321         calculate D2E/DX2 analytically  !
 ! D54   D(18,15,16,17)       -178.9124         calculate D2E/DX2 analytically  !
 ! D55   D(18,15,16,31)          0.825          calculate D2E/DX2 analytically  !
 ! D56   D(15,16,17,12)          0.5581         calculate D2E/DX2 analytically  !
 ! D57   D(15,16,17,32)       -179.9274         calculate D2E/DX2 analytically  !
 ! D58   D(31,16,17,12)       -179.1809         calculate D2E/DX2 analytically  !
 ! D59   D(31,16,17,32)          0.3336         calculate D2E/DX2 analytically  !
 ! D60   D(1,19,20,21)          -0.8879         calculate D2E/DX2 analytically  !
 ! D61   D(1,19,20,34)         178.9145         calculate D2E/DX2 analytically  !
 ! D62   D(33,19,20,21)        179.6448         calculate D2E/DX2 analytically  !
 ! D63   D(33,19,20,34)         -0.5528         calculate D2E/DX2 analytically  !
 ! D64   D(19,20,21,22)         -0.858          calculate D2E/DX2 analytically  !
 ! D65   D(19,20,21,24)        179.0888         calculate D2E/DX2 analytically  !
 ! D66   D(34,20,21,22)        179.341          calculate D2E/DX2 analytically  !
 ! D67   D(34,20,21,24)         -0.7123         calculate D2E/DX2 analytically  !
 ! D68   D(20,21,22,23)          1.0143         calculate D2E/DX2 analytically  !
 ! D69   D(20,21,22,35)       -179.233          calculate D2E/DX2 analytically  !
 ! D70   D(24,21,22,23)       -178.9325         calculate D2E/DX2 analytically  !
 ! D71   D(24,21,22,35)          0.8203         calculate D2E/DX2 analytically  !
 ! D72   D(21,22,23,1)           0.5722         calculate D2E/DX2 analytically  !
 ! D73   D(21,22,23,36)       -179.9026         calculate D2E/DX2 analytically  !
 ! D74   D(35,22,23,1)        -179.1821         calculate D2E/DX2 analytically  !
 ! D75   D(35,22,23,36)          0.3431         calculate D2E/DX2 analytically  !
 --------------------------------------------------------------------------------
 Trust Radius=3.00D-01 FncErr=1.00D-07 GrdErr=1.00D-06 EigMax=2.50D+02 EigMin=1.00D-04
 Number of steps in this run=    180 maximum allowed number of steps=    216.
 GradGradGradGradGradGradGradGradGradGradGradGradGradGradGradGradGradGrad

                          Input orientation:                          
 ---------------------------------------------------------------------
 Center     Atomic      Atomic             Coordinates (Angstroms)
 Number     Number       Type             X           Y           Z
 ---------------------------------------------------------------------
      1          6           0       -4.537960   -0.937940   -2.312520
      2          6           0       -5.597630   -0.721120   -1.254580
      3          8           0       -5.873480    0.677130   -1.095780
      4          6           0       -5.004100    1.393200   -0.331000
      5          8           0       -4.017550    0.916410    0.220130
      6          7           0       -5.404000    2.712200   -0.308800
      7          7           0       -6.644900    2.840200   -0.430800
      8          6           0       -7.045800    4.156800   -0.365500
      9          8           0       -8.194720    4.577900   -0.441390
     10          8           0       -5.949720    4.951640   -0.223980
     11          6           0       -6.178880    6.366100   -0.162260
     12          6           0       -5.673850    6.929620    1.147600
     13          6           0       -4.360190    7.404830    1.283930
     14          6           0       -3.912440    7.921270    2.503110
     15          6           0       -4.780550    7.983970    3.589980
     16          6           0       -6.097900    7.551110    3.463200
     17          6           0       -6.544280    7.031330    2.244840
     18         17           0       -4.222910    8.597750    5.097350
     19          6           0       -3.955030    0.139070   -2.998440
     20          6           0       -2.977020   -0.082390   -3.972360
     21          6           0       -2.561200   -1.381090   -4.254680
     22          6           0       -3.102230   -2.458970   -3.558810
     23          6           0       -4.082420   -2.237520   -2.587420
     24         17           0       -1.374530   -1.655810   -5.469730
     25          1           0       -5.216450   -1.094270   -0.297320
     26          1           0       -6.493800   -1.302000   -1.499290
     27          1           0       -7.233800    6.627610   -0.298240
     28          1           0       -5.617450    6.828120   -0.981850
     29          1           0       -3.670520    7.368350    0.442480
     30          1           0       -2.886980    8.268620    2.597140
     31          1           0       -6.780110    7.610990    4.307130
     32          1           0       -7.577510    6.698620    2.162650
     33          1           0       -4.264650    1.160740   -2.785740
     34          1           0       -2.548040    0.761070   -4.507100
     35          1           0       -2.769800   -3.472180   -3.769230
     36          1           0       -4.493480   -3.091340   -2.051750
 ---------------------------------------------------------------------
                    Distance matrix (angstroms):
                    1          2          3          4          5
     1  C    0.000000
     2  C    1.512993   0.000000
     3  O    2.423328   1.434020   0.000000
     4  C    3.094822   2.382357   1.361421   0.000000
     5  O    3.181785   2.711628   2.287652   1.226521   0.000000
     6  N    4.253051   3.566466   2.231873   1.378468   2.329565
     7  N    4.717458   3.802419   2.390849   2.189976   3.320790
     8  C    6.003043   5.165439   3.743761   3.436163   4.473633
     9  O    6.877319   5.956993   4.586108   4.509385   5.594003
    10  O    6.406420   5.776358   4.363174   3.683496   4.495953
    11  C    7.788789   7.194422   5.773137   5.112564   5.875091
    12  C    8.669555   8.019358   6.645768   5.769469   6.305730
    13  C    9.086686   8.602695   7.294862   6.257980   6.583970
    14  C   10.102830   9.573453   8.323176   7.199972   7.368250
    15  C   10.700413   9.995798   8.748757   7.672178   7.866922
    16  C   10.385390   9.536116   8.251440   7.315204   7.672327
    17  C    9.397027   8.558187   7.210102   6.387145   6.919253
    18  Cl  12.080348  11.361259  10.188987   9.054434   9.101232
    19  C    1.403654   2.545409   2.755009   3.128678   3.311700
    20  C    2.433838   3.829086   4.152236   4.421077   4.433653
    21  C    2.806412   4.319267   5.018577   5.390706   5.236734
    22  C    2.434767   3.815314   4.856075   5.373554   5.148921
    23  C    1.404277   2.524241   3.732033   4.372991   4.223011
    24  Cl   4.526655   6.039512   6.694371   6.991193   6.780588
    25  H    2.132093   1.095849   2.051118   2.496745   2.397488
    26  H    2.149231   1.095639   2.112954   3.293662   3.742935
    27  H    8.280243   7.589168   6.155871   5.689612   6.575012
    28  H    7.952840   7.554191   6.157370   5.508009   6.241214
    29  H    8.794142   8.487243   7.210527   6.170829   6.465091
    30  H   10.563676  10.148832   8.954751   7.767084   7.809184
    31  H   11.042246  10.087365   8.836958   7.957850   8.315811
    32  H    9.358582   8.405351   7.055454   6.402204   7.062624
    33  H    2.168662   2.768155   2.382893   2.574213   3.025890
    34  H    3.415055   4.698486   4.764735   4.885860   4.952807
    35  H    3.416250   4.678506   5.830689   6.362817   6.060660
    36  H    2.169588   2.733600   4.125487   4.830405   4.631415
                    6          7          8          9         10
     6  N    0.000000
     7  N    1.253436   0.000000
     8  C    2.187599   1.377832   0.000000
     9  O    3.359544   2.328445   1.226010   0.000000
    10  O    2.306533   2.232539   1.361319   2.286258   0.000000
    11  C    3.738034   3.566687   2.381987   2.709093   1.434232
    12  C    4.469961   4.489726   3.443871   3.796085   2.422755
    13  C    5.064297   5.384798   4.525795   5.066743   3.289155
    14  C    6.104588   6.472360   5.676099   6.179492   4.517326
    15  C    6.586405   6.789760   5.951841   6.285683   5.010816
    16  C    6.174507   6.136377   5.203729   5.336896   4.513812
    17  C    5.145503   4.973404   3.915140   3.994885   3.282329
    18  Cl   8.078436   8.341215   7.585082   7.912781   6.677765
    19  C    3.994330   4.596116   5.712039   6.649563   5.902309
    20  C    5.207844   5.876863   6.894573   7.836482   6.944693
    21  C    6.356611   7.008420   8.118225   9.043633   8.236023
    22  C    6.526998   7.100434   8.337709   9.228722   8.610832
    23  C    5.606997   6.082808   7.389579   8.244174   7.794657
    24  Cl   7.870917   8.566313   9.591814  10.519427   9.597325
    25  H    3.811105   4.187880   5.561017   6.408148   6.090656
    26  H    4.326515   4.280458   5.602560   6.211723   6.405502
    27  H    4.321888   3.835212   2.478865   2.268297   2.112641
    28  H    4.176045   4.154854   3.091282   3.463800   2.050841
    29  H    5.024849   5.487595   4.728573   5.388527   3.388128
    30  H    6.756751   7.263479   6.555920   7.143261   5.323669
    31  H    6.870126   6.725080   5.816828   5.809406   5.319083
    32  H    5.169502   4.741640   3.624239   3.414590   3.376039
    33  H    3.136938   3.745920   4.750656   5.711253   4.875756
    34  H    5.439590   6.141927   6.993831   7.936195   6.890386
    35  H    7.560433   8.124510   9.384609  10.261972   9.676850
    36  H    6.127642   6.514542   7.867230   8.666584   8.375614
                   11         12         13         14         15
    11  C    0.000000
    12  C    1.512727   0.000000
    13  C    2.545203   1.403607   0.000000
    14  C    3.828773   2.433792   1.397709   0.000000
    15  C    4.318812   2.806218   2.414534   1.392420   0.000000
    16  C    3.815071   2.434763   2.791102   2.415580   1.392427
    17  C    2.523921   1.404254   2.415181   2.790211   2.414056
    18  Cl   6.039005   4.526412   3.998009   2.698907   1.720422
    19  C    7.194813   8.139752   8.443584   9.530556  10.277705
    20  C    8.145661   9.091489   9.252038  10.337567  11.203030
    21  C    9.479159  10.389472  10.540634  11.577024  12.416463
    22  C    9.944053  10.812453  11.060251  12.047933  12.766243
    23  C    9.181439  10.025940  10.394201  11.364128  11.963549
    24  Cl  10.751840  11.661167  11.688511  12.717218  13.660332
    25  H    7.523406   8.165771   8.687245   9.530100   9.885118
    26  H    7.790159   8.685500   9.386559  10.380334  10.726842
    27  H    1.095324   2.148280   3.371197   4.533492   4.793371
    28  H    1.095625   2.132614   2.654629   4.030755   4.789365
    29  H    2.768047   2.168642   1.088583   2.147194   3.393805
    30  H    4.697923   3.414781   2.154298   1.086767   2.156934
    31  H    4.678320   3.416242   3.877919   3.402101   2.156770
    32  H    2.733485   2.169702   3.409110   3.878598   3.392990
    33  H    6.135364   7.122990   7.453858   8.590736   9.352669
    34  H    7.967245   8.932935   8.997748  10.113016  11.077775
    35  H   11.019247  11.866177  12.098476  13.055979  13.763882
    36  H    9.790501  10.585308  11.014269  11.931552  12.432780
                   16         17         18         19         20
    16  C    0.000000
    17  C    1.397794   0.000000
    18  Cl   2.698423   3.997405   0.000000
    19  C   10.063947   9.038775  11.711654   0.000000
    20  C   11.103953  10.098709  12.615733   1.397880   0.000000
    21  C   12.323072  11.352423  13.776756   2.414909   1.392563
    22  C   12.589057  11.644563  14.086734   2.791253   2.415540
    23  C   11.682869  10.738858  13.284521   2.415232   2.790081
    24  Cl  13.670217  12.716419  14.997064   3.998481   2.699211
    25  H    9.468952   8.616907  11.136644   3.226199   4.420958
    26  H   10.156801   9.135943  12.111055   3.281690   4.468922
    27  H    4.036279   2.665649   6.485314   7.755164   8.754624
    28  H    4.529019   3.363307   6.483287   7.181481   7.979359
    29  H    3.879475   3.408897   4.846068   8.011452   8.688227
    30  H    3.402189   3.876963   2.853784   9.926773  10.625714
    31  H    1.086837   2.155148   2.852615  10.825064  11.924829
    32  H    2.146489   1.088584   4.844843   9.098731  10.236452
    33  H    9.123973   8.060228  10.837618   1.088538   2.147424
    34  H   11.055851  10.043644  12.508565   2.154660   1.086920
    35  H   13.597692  12.678307  15.046959   3.878146   3.402187
    36  H   12.093411  11.186372  13.704658   3.409061   3.878424
                   21         22         23         24         25
    21  C    0.000000
    22  C    1.392399   0.000000
    23  C    2.413988   1.397645   0.000000
    24  Cl   1.720466   2.698449   3.997345   0.000000
    25  H    4.774235   4.119423   2.799572   6.467573   0.000000
    26  H    4.802476   4.133152   2.806061   6.488182   1.766213
    27  H   10.080966  10.500815   9.683082  11.388169   7.981048
    28  H    9.351107   9.960778   9.333810  10.493832   7.962013
    29  H    9.992327  10.625888  10.080808  11.030016   8.634416
    30  H   11.839361  12.370256  11.776575  12.878517  10.073134
    31  H   13.113401  13.296763  12.320937  14.514850   9.971336
    32  H   11.472890  11.688656  10.706700  12.904522   8.506185
    33  H    3.394175   3.879582   3.408916   4.846602   3.490448
    34  H    2.157021   3.402211   3.876988   2.853961   5.318359
    35  H    2.156811   1.086913   2.155001   2.852662   4.867721
    36  H    3.392869   2.146322   1.088541   4.844707   2.754814
                   26         27         28         29         30
    26  H    0.000000
    27  H    8.054119   0.000000
    28  H    8.193570   1.766385   0.000000
    29  H    9.322894   3.714071   2.472064   0.000000
    30  H   11.017561   5.474576   4.726487   2.463124   0.000000
    31  H   10.641329   4.730994   5.471560   4.966281   4.302674
    32  H    8.865334   2.485791   3.707625   4.321122   4.965355
    33  H    3.562184   6.700013   6.099449   7.022024   9.021936
    34  H    5.373286   8.607389   7.658835   8.331534  10.341587
    35  H    4.871395  11.575009  11.044219  11.664771  13.356301
    36  H    2.740115  10.249007  10.040104  10.784413  12.379084
                   31         32         33         34         35
    31  H    0.000000
    32  H    2.463140   0.000000
    33  H    9.911714   8.132018   0.000000
    34  H   11.938278  10.248689   2.463649   0.000000
    35  H   14.287996  12.717958   4.966465   4.302794   0.000000
    36  H   12.657168  11.095753   4.321029   4.965334   2.462895
                   36
    36  H    0.000000
 Stoichiometry    C16H12Cl2N2O4
 Framework group  C1[X(C16H12Cl2N2O4)]
 Deg. of freedom   102
 Full point group                 C1      NOp   1
 Largest Abelian subgroup         C1      NOp   1
 Largest concise Abelian subgroup C1      NOp   1
                         Standard orientation:                         
 ---------------------------------------------------------------------
 Center     Atomic      Atomic             Coordinates (Angstroms)
 Number     Number       Type             X           Y           Z
 ---------------------------------------------------------------------
      1          6           0       -4.311781    0.700123    0.799113
      2          6           0       -3.322742    1.661244    1.421365
      3          8           0       -2.077339    1.633947    0.710985
      4          6           0       -1.224839    0.613140    1.001953
      5          8           0       -1.458888   -0.266713    1.823801
      6          7           0       -0.099183    0.727465    0.214551
      7          7           0        0.159674    1.917018   -0.083873
      8          6           0        1.308969    2.031628   -0.835144
      9          8           0        1.808683    3.068674   -1.256953
     10          8           0        1.815027    0.790021   -1.070745
     11          6           0        3.007462    0.716384   -1.864278
     12          6           0        4.127835    0.068530   -1.081085
     13          6           0        4.338879   -1.318741   -1.113511
     14          6           0        5.379471   -1.898242   -0.382117
     15          6           0        6.228695   -1.092925    0.372281
     16          6           0        6.057295    0.288829    0.387495
     17          6           0        5.014302    0.867667   -0.341161
     18         17           0        7.495035   -1.808193    1.291316
     19          6           0       -3.975056   -0.075993   -0.320934
     20          6           0       -4.903220   -0.958650   -0.880839
     21          6           0       -6.168793   -1.085574   -0.313874
     22          6           0       -6.508112   -0.350509    0.818961
     23          6           0       -5.581039    0.534352    1.376606
     24         17           0       -7.319321   -2.154367   -1.016703
     25          1           0       -3.124269    1.340187    2.450159
     26          1           0       -3.758033    2.665540    1.469705
     27          1           0        3.328778    1.696602   -2.232605
     28          1           0        2.785346    0.093653   -2.737928
     29          1           0        3.687655   -1.961925   -1.702778
     30          1           0        5.518343   -2.975882   -0.403757
     31          1           0        6.727020    0.919756    0.965952
     32          1           0        4.895358    1.949511   -0.319225
     33          1           0       -2.988213    0.007011   -0.772784
     34          1           0       -4.632980   -1.539612   -1.758819
     35          1           0       -7.491177   -0.457642    1.270056
     36          1           0       -5.862209    1.099939    2.263159
 ---------------------------------------------------------------------
 Rotational constants (GHZ):           0.4218472           0.0559216           0.0536392
 Standard basis: 6-31G(d) (6D, 7F)
 There are   392 symmetry adapted cartesian basis functions of A   symmetry.
 There are   392 symmetry adapted basis functions of A   symmetry.
   392 basis functions,   768 primitive gaussians,   392 cartesian basis functions
    94 alpha electrons       94 beta electrons
       nuclear repulsion energy      2045.5574449795 Hartrees.
 NAtoms=   36 NActive=   36 NUniq=   36 SFac= 1.00D+00 NAtFMM=   60 NAOKFM=F Big=F
 Integral buffers will be    131072 words long.
 Raffenetti 2 integral format.
 Two-electron integral symmetry is turned on.
 One-electron integrals computed using PRISM.
 NBasis=   392 RedAO= T EigKep=  4.53D-04  NBF=   392
 NBsUse=   392 1.00D-06 EigRej= -1.00D+00 NBFU=   392
 ExpMin= 1.43D-01 ExpMax= 2.52D+04 ExpMxC= 3.78D+03 IAcc=3 IRadAn=         5 AccDes= 0.00D+00
 Harris functional with IExCor=  402 and IRadAn=       5 diagonalized for initial guess.
 HarFok:  IExCor=  402 AccDes= 0.00D+00 IRadAn=         5 IDoV= 1 UseB2=F ITyADJ=14
 ICtDFT=  3500011 ScaDFX=  1.000000  1.000000  1.000000  1.000000
 FoFCou: FMM=F IPFlag=           0 FMFlag=      100000 FMFlg1=           0
         NFxFlg=           0 DoJE=T BraDBF=F KetDBF=T FulRan=T
         wScrn=  0.000000 ICntrl=       500 IOpCl=  0 I1Cent=   200000004 NGrid=           0
         NMat0=    1 NMatS0=      1 NMatT0=    0 NMatD0=    1 NMtDS0=    0 NMtDT0=    0
 Petite list used in FoFCou.
 Gradient too large for Newton-Raphson -- use scaled steepest descent instead.
 Gradient too large for Newton-Raphson -- use scaled steepest descent instead.
 Gradient too large for Newton-Raphson -- use scaled steepest descent instead.
     Minimum is close to point  2 DX=  2.78D-02 DF= -4.29D-05 DXR=  6.50D-02 DFR=  4.24D-03 which will be used.
 Gradient too large for Newton-Raphson -- use scaled steepest descent instead.
 Gradient too large for Newton-Raphson -- use scaled steepest descent instead.
     Accept linear search using points  1 and  2.
 Gradient too large for Newton-Raphson -- use scaled steepest descent instead.
     Minimum is close to point  3 DX=  9.34D-02 DF= -4.01D-06 DXR=  9.40D-02 DFR=  8.92D-03 which will be used.
 LinEq1:  Iter=  0 NonCon=     1 RMS=4.55D-05 Max=2.28D-03 NDo=     1
 AX will form     1 AO Fock derivatives at one time.
 LinEq1:  Iter=  1 NonCon=     1 RMS=6.07D-05 Max=3.78D-03 NDo=     1
 LinEq1:  Iter=  2 NonCon=     1 RMS=1.13D-05 Max=7.53D-04 NDo=     1
 LinEq1:  Iter=  3 NonCon=     1 RMS=1.10D-05 Max=9.25D-04 NDo=     1
 LinEq1:  Iter=  4 NonCon=     1 RMS=8.36D-06 Max=4.85D-04 NDo=     1
 LinEq1:  Iter=  5 NonCon=     1 RMS=7.32D-06 Max=5.46D-04 NDo=     1
 LinEq1:  Iter=  6 NonCon=     1 RMS=5.17D-06 Max=2.91D-04 NDo=     1
 LinEq1:  Iter=  7 NonCon=     1 RMS=4.01D-06 Max=1.72D-04 NDo=     1
 LinEq1:  Iter=  8 NonCon=     1 RMS=2.55D-06 Max=8.20D-05 NDo=     1
 LinEq1:  Iter=  9 NonCon=     1 RMS=1.87D-06 Max=1.12D-04 NDo=     1
 LinEq1:  Iter= 10 NonCon=     1 RMS=1.08D-06 Max=3.79D-05 NDo=     1
 LinEq1:  Iter= 11 NonCon=     1 RMS=6.39D-07 Max=2.05D-05 NDo=     1
 LinEq1:  Iter= 12 NonCon=     1 RMS=3.68D-07 Max=1.24D-05 NDo=     1
 LinEq1:  Iter= 13 NonCon=     1 RMS=2.16D-07 Max=8.05D-06 NDo=     1
 LinEq1:  Iter= 14 NonCon=     1 RMS=1.08D-07 Max=4.51D-06 NDo=     1
 LinEq1:  Iter= 15 NonCon=     1 RMS=7.14D-08 Max=2.72D-06 NDo=     1
 LinEq1:  Iter= 16 NonCon=     1 RMS=4.64D-08 Max=1.97D-06 NDo=     1
 LinEq1:  Iter= 17 NonCon=     1 RMS=1.96D-08 Max=4.79D-07 NDo=     1
 LinEq1:  Iter= 18 NonCon=     1 RMS=9.71D-09 Max=3.52D-07 NDo=     1
 LinEq1:  Iter= 19 NonCon=     1 RMS=5.80D-09 Max=2.46D-07 NDo=     1
 LinEq1:  Iter= 20 NonCon=     0 RMS=4.15D-09 Max=1.75D-07 NDo=     1
 Linear equations converged to 2.367D-08 2.367D-07 after    20 iterations.
     Minimum is close to point  2 DX=  8.08D-05 DF= -2.27D-13 DXR=  8.08D-05 DFR=  7.83D-09 which will be used.
 LinEq1:  Iter=  0 NonCon=     1 RMS=7.20D-08 Max=5.82D-06 NDo=     1
 LinEq1:  Iter=  1 NonCon=     1 RMS=5.94D-08 Max=3.37D-06 NDo=     1
 LinEq1:  Iter=  2 NonCon=     1 RMS=4.18D-08 Max=1.89D-06 NDo=     1
 LinEq1:  Iter=  3 NonCon=     1 RMS=3.09D-08 Max=1.98D-06 NDo=     1
 LinEq1:  Iter=  4 NonCon=     1 RMS=2.55D-08 Max=1.98D-06 NDo=     1
 LinEq1:  Iter=  5 NonCon=     1 RMS=1.61D-08 Max=7.74D-07 NDo=     1
 LinEq1:  Iter=  6 NonCon=     1 RMS=1.12D-08 Max=7.07D-07 NDo=     1
 LinEq1:  Iter=  7 NonCon=     1 RMS=8.89D-09 Max=3.53D-07 NDo=     1
 LinEq1:  Iter=  8 NonCon=     1 RMS=7.78D-09 Max=3.72D-07 NDo=     1
 LinEq1:  Iter=  9 NonCon=     1 RMS=5.25D-09 Max=1.54D-07 NDo=     1
 LinEq1:  Iter= 10 NonCon=     1 RMS=2.29D-09 Max=9.82D-08 NDo=     1
 LinEq1:  Iter= 11 NonCon=     1 RMS=1.55D-09 Max=4.70D-08 NDo=     1
 LinEq1:  Iter= 12 NonCon=     1 RMS=9.15D-10 Max=4.31D-08 NDo=     1
 LinEq1:  Iter= 13 NonCon=     1 RMS=6.90D-10 Max=1.92D-08 NDo=     1
 LinEq1:  Iter= 14 NonCon=     1 RMS=4.40D-10 Max=1.62D-08 NDo=     1
 LinEq1:  Iter= 15 NonCon=     1 RMS=3.16D-10 Max=1.25D-08 NDo=     1
 LinEq1:  Iter= 16 NonCon=     1 RMS=1.94D-10 Max=8.12D-09 NDo=     1
 LinEq1:  Iter= 17 NonCon=     1 RMS=9.80D-11 Max=3.47D-09 NDo=     1
 LinEq1:  Iter= 18 NonCon=     1 RMS=4.26D-11 Max=1.53D-09 NDo=     1
 LinEq1:  Iter= 19 NonCon=     1 RMS=2.52D-11 Max=1.18D-09 NDo=     1
 LinEq1:  Iter= 20 NonCon=     1 RMS=1.69D-11 Max=9.37D-10 NDo=     1
 LinEq1:  Iter= 21 NonCon=     0 RMS=9.73D-12 Max=4.25D-10 NDo=     1
 Linear equations converged to 7.118D-11 7.118D-10 after    21 iterations.
 SCF Done:  E(RB3LYP) =  -1947.63775177     a.u. after    9 cycles
            Convg  =    0.2181D-09                    61 Fock formations.
              S**2 =  0.0000                  -V/T =  2.0062
 DoSCS=F DFT=T ScalE2(SS,OS)=  1.000000  1.000000
 Range of M.O.s used for correlation:     1   392
 NBasis=   392 NAE=    94 NBE=    94 NFC=     0 NFV=     0
 NROrb=    392 NOA=    94 NOB=    94 NVA=   298 NVB=   298

 **** Warning!!: The smallest alpha delta epsilon is  0.90991059D-01

 Symmetrizing basis deriv contribution to polar:
 IMax=3 JMax=2 DiffMx= 0.00D+00
 G2DrvN: will do    37 centers at a time, making    1 passes.
 Calling FoFCou, ICntrl=  3107 FMM=F I1Cent=   0 AccDes= 0.00D+00.
 End of G2Drv F.D. properties file   721 does not exist.
 End of G2Drv F.D. properties file   722 does not exist.
 End of G2Drv F.D. properties file   788 does not exist.
          IDoAtm=111111111111111111111111111111111111
          Differentiating once with respect to electric field.
                with respect to dipole field.
          Differentiating once with respect to nuclear coordinates.
 CalDSu exits because no D1Ps are significant.
          There are   111 degrees of freedom in the 1st order CPHF.  IDoFFX=6 NUNeed=     3.
    108 vectors produced by pass  0 Test12= 2.80D-14 1.00D-09 XBig12= 2.50D+02 6.22D+00.
 AX will form   108 AO Fock derivatives at one time.
    108 vectors produced by pass  1 Test12= 2.80D-14 1.00D-09 XBig12= 8.16D+01 1.67D+00.
    108 vectors produced by pass  2 Test12= 2.80D-14 1.00D-09 XBig12= 1.05D+00 1.22D-01.
    108 vectors produced by pass  3 Test12= 2.80D-14 1.00D-09 XBig12= 1.12D-02 1.56D-02.
    108 vectors produced by pass  4 Test12= 2.80D-14 1.00D-09 XBig12= 2.85D-05 6.04D-04.
    104 vectors produced by pass  5 Test12= 2.80D-14 1.00D-09 XBig12= 3.62D-08 1.86D-05.
     34 vectors produced by pass  6 Test12= 2.80D-14 1.00D-09 XBig12= 3.67D-11 3.80D-07.
      3 vectors produced by pass  7 Test12= 2.80D-14 1.00D-09 XBig12= 3.18D-14 1.48D-08.
 InvSVY:  IOpt=1 It=  1 EMax= 2.66D-14
 Solved reduced A of dimension   681 with   111 vectors.
 Isotropic polarizability for W=    0.000000      212.84 Bohr**3.
 End of Minotr F.D. properties file   721 does not exist.
 End of Minotr F.D. properties file   722 does not exist.
 End of Minotr F.D. properties file   788 does not exist.

 **********************************************************************

            Population analysis using the SCF density.

 **********************************************************************

 Orbital symmetries:
       Occupied  (A) (A) (A) (A) (A) (A) (A) (A) (A) (A) (A) (A)
                 (A) (A) (A) (A) (A) (A) (A) (A) (A) (A) (A) (A)
                 (A) (A) (A) (A) (A) (A) (A) (A) (A) (A) (A) (A)
                 (A) (A) (A) (A) (A) (A) (A) (A) (A) (A) (A) (A)
                 (A) (A) (A) (A) (A) (A) (A) (A) (A) (A) (A) (A)
                 (A) (A) (A) (A) (A) (A) (A) (A) (A) (A) (A) (A)
                 (A) (A) (A) (A) (A) (A) (A) (A) (A) (A) (A) (A)
                 (A) (A) (A) (A) (A) (A) (A) (A) (A) (A)
       Virtual   (A) (A) (A) (A) (A) (A) (A) (A) (A) (A) (A) (A)
                 (A) (A) (A) (A) (A) (A) (A) (A) (A) (A) (A) (A)
                 (A) (A) (A) (A) (A) (A) (A) (A) (A) (A) (A) (A)
                 (A) (A) (A) (A) (A) (A) (A) (A) (A) (A) (A) (A)
                 (A) (A) (A) (A) (A) (A) (A) (A) (A) (A) (A) (A)
                 (A) (A) (A) (A) (A) (A) (A) (A) (A) (A) (A) (A)
                 (A) (A) (A) (A) (A) (A) (A) (A) (A) (A) (A) (A)
                 (A) (A) (A) (A) (A) (A) (A) (A) (A) (A) (A) (A)
                 (A) (A) (A) (A) (A) (A) (A) (A) (A) (A) (A) (A)
                 (A) (A) (A) (A) (A) (A) (A) (A) (A) (A) (A) (A)
                 (A) (A) (A) (A) (A) (A) (A) (A) (A) (A) (A) (A)
                 (A) (A) (A) (A) (A) (A) (A) (A) (A) (A) (A) (A)
                 (A) (A) (A) (A) (A) (A) (A) (A) (A) (A) (A) (A)
                 (A) (A) (A) (A) (A) (A) (A) (A) (A) (A) (A) (A)
                 (A) (A) (A) (A) (A) (A) (A) (A) (A) (A) (A) (A)
                 (A) (A) (A) (A) (A) (A) (A) (A) (A) (A) (A) (A)
                 (A) (A) (A) (A) (A) (A) (A) (A) (A) (A) (A) (A)
                 (A) (A) (A) (A) (A) (A) (A) (A) (A) (A) (A) (A)
                 (A) (A) (A) (A) (A) (A) (A) (A) (A) (A) (A) (A)
                 (A) (A) (A) (A) (A) (A) (A) (A) (A) (A) (A) (A)
                 (A) (A) (A) (A) (A) (A) (A) (A) (A) (A) (A) (A)
                 (A) (A) (A) (A) (A) (A) (A) (A) (A) (A) (A) (A)
                 (A) (A) (A) (A) (A) (A) (A) (A) (A) (A) (A) (A)
                 (A) (A) (A) (A) (A) (A) (A) (A) (A) (A) (A) (A)
                 (A) (A) (A) (A) (A) (A) (A) (A) (A) (A)
 The electronic state is 1-A.
 Alpha  occ. eigenvalues -- -101.55584-101.55229 -19.21847 -19.21395 -19.17869
 Alpha  occ. eigenvalues --  -19.17660 -14.44006 -14.43797 -10.36770 -10.36713
 Alpha  occ. eigenvalues --  -10.26810 -10.26084 -10.26013 -10.25481 -10.21730
 Alpha  occ. eigenvalues --  -10.21588 -10.21287 -10.21215 -10.21180 -10.21151
 Alpha  occ. eigenvalues --  -10.21043 -10.20978 -10.20898 -10.20832  -9.47276
 Alpha  occ. eigenvalues --   -9.46923  -7.23665  -7.23309  -7.22704  -7.22662
 Alpha  occ. eigenvalues --   -7.22348  -7.22312  -1.15886  -1.13245  -1.07165
 Alpha  occ. eigenvalues --   -1.04498  -1.04425  -0.90411  -0.90059  -0.86054
 Alpha  occ. eigenvalues --   -0.85131  -0.84184  -0.77782  -0.76950  -0.76650
 Alpha  occ. eigenvalues --   -0.76350  -0.70909  -0.69905  -0.63955  -0.63251
 Alpha  occ. eigenvalues --   -0.63019  -0.60749  -0.60114  -0.57880  -0.57312
 Alpha  occ. eigenvalues --   -0.53746  -0.53097  -0.52297  -0.51437  -0.49727
 Alpha  occ. eigenvalues --   -0.49234  -0.48440  -0.47902  -0.47258  -0.47093
 Alpha  occ. eigenvalues --   -0.46924  -0.45363  -0.44534  -0.44003  -0.43767
 Alpha  occ. eigenvalues --   -0.43334  -0.41885  -0.40425  -0.40202  -0.39524
 Alpha  occ. eigenvalues --   -0.38633  -0.38208  -0.37675  -0.37234  -0.36554
 Alpha  occ. eigenvalues --   -0.36285  -0.34018  -0.33275  -0.32816  -0.32151
 Alpha  occ. eigenvalues --   -0.32040  -0.31936  -0.31867  -0.31568  -0.27805
 Alpha  occ. eigenvalues --   -0.27011  -0.26721  -0.25229  -0.24471
 Alpha virt. eigenvalues --   -0.15372  -0.02799  -0.02192  -0.02141  -0.01633
 Alpha virt. eigenvalues --    0.00221   0.03297   0.03695   0.04291   0.09469
 Alpha virt. eigenvalues --    0.10066   0.10855   0.11479   0.11491   0.11699
 Alpha virt. eigenvalues --    0.12151   0.12726   0.13328   0.15312   0.16027
 Alpha virt. eigenvalues --    0.16248   0.17219   0.17691   0.17982   0.18933
 Alpha virt. eigenvalues --    0.20984   0.21627   0.22371   0.23156   0.23911
 Alpha virt. eigenvalues --    0.26706   0.27469   0.27482   0.28069   0.29019
 Alpha virt. eigenvalues --    0.30143   0.31780   0.32649   0.33344   0.34029
 Alpha virt. eigenvalues --    0.35353   0.39020   0.39893   0.40638   0.41299
 Alpha virt. eigenvalues --    0.41588   0.41824   0.43729   0.43970   0.44056
 Alpha virt. eigenvalues --    0.44831   0.47087   0.48027   0.48226   0.49882
 Alpha virt. eigenvalues --    0.50662   0.52318   0.53189   0.53511   0.54026
 Alpha virt. eigenvalues --    0.54126   0.54987   0.55630   0.56004   0.56613
 Alpha virt. eigenvalues --    0.57223   0.57307   0.57540   0.57660   0.58005
 Alpha virt. eigenvalues --    0.58353   0.58688   0.59098   0.59715   0.59925
 Alpha virt. eigenvalues --    0.61603   0.61658   0.61965   0.62744   0.63019
 Alpha virt. eigenvalues --    0.63034   0.64880   0.65240   0.65847   0.67130
 Alpha virt. eigenvalues --    0.68106   0.69591   0.71233   0.72406   0.73154
 Alpha virt. eigenvalues --    0.74032   0.74357   0.74741   0.75478   0.76275
 Alpha virt. eigenvalues --    0.77557   0.79333   0.80009   0.80346   0.81126
 Alpha virt. eigenvalues --    0.82279   0.82660   0.83167   0.84342   0.84613
 Alpha virt. eigenvalues --    0.84849   0.85972   0.86147   0.86569   0.86822
 Alpha virt. eigenvalues --    0.87377   0.88295   0.89629   0.90102   0.90819
 Alpha virt. eigenvalues --    0.91012   0.91749   0.92380   0.92843   0.93119
 Alpha virt. eigenvalues --    0.93852   0.95084   0.97105   0.97192   0.98687
 Alpha virt. eigenvalues --    1.00036   1.00389   1.02689   1.03414   1.03755
 Alpha virt. eigenvalues --    1.05312   1.06427   1.07546   1.09323   1.10491
 Alpha virt. eigenvalues --    1.11115   1.12198   1.13546   1.13680   1.14764
 Alpha virt. eigenvalues --    1.15478   1.16103   1.16669   1.18897   1.20629
 Alpha virt. eigenvalues --    1.23207   1.23403   1.24810   1.26604   1.28788
 Alpha virt. eigenvalues --    1.30400   1.34215   1.34809   1.35797   1.36394
 Alpha virt. eigenvalues --    1.38219   1.39752   1.41072   1.41351   1.42564
 Alpha virt. eigenvalues --    1.43132   1.43621   1.43908   1.44852   1.45528
 Alpha virt. eigenvalues --    1.46083   1.47031   1.48300   1.49153   1.49643
 Alpha virt. eigenvalues --    1.54078   1.54924   1.55293   1.59677   1.61382
 Alpha virt. eigenvalues --    1.62331   1.63515   1.66138   1.68018   1.69895
 Alpha virt. eigenvalues --    1.70920   1.73153   1.75565   1.76890   1.77211
 Alpha virt. eigenvalues --    1.77782   1.78442   1.79508   1.80329   1.81213
 Alpha virt. eigenvalues --    1.82227   1.83438   1.84593   1.85066   1.86723
 Alpha virt. eigenvalues --    1.88649   1.89894   1.92597   1.93933   1.94105
 Alpha virt. eigenvalues --    1.95181   1.95616   1.96353   1.97686   2.00164
 Alpha virt. eigenvalues --    2.01056   2.02327   2.03507   2.05298   2.05511
 Alpha virt. eigenvalues --    2.06385   2.06862   2.08593   2.10877   2.11132
 Alpha virt. eigenvalues --    2.12061   2.12548   2.13567   2.14217   2.14508
 Alpha virt. eigenvalues --    2.15692   2.20317   2.22628   2.22788   2.23369
 Alpha virt. eigenvalues --    2.25696   2.26497   2.28406   2.28712   2.28984
 Alpha virt. eigenvalues --    2.31908   2.33253   2.35384   2.35860   2.37443
 Alpha virt. eigenvalues --    2.40593   2.42356   2.45603   2.50657   2.53779
 Alpha virt. eigenvalues --    2.54440   2.55592   2.56820   2.57706   2.59570
 Alpha virt. eigenvalues --    2.62305   2.62837   2.65118   2.66267   2.67571
 Alpha virt. eigenvalues --    2.67913   2.69257   2.70896   2.71647   2.73558
 Alpha virt. eigenvalues --    2.74627   2.74929   2.75803   2.76162   2.79305
 Alpha virt. eigenvalues --    2.82666   2.84946   2.86497   2.88858   2.91696
 Alpha virt. eigenvalues --    2.96118   3.03248   3.04477   3.07315   3.10312
 Alpha virt. eigenvalues --    3.17004   3.23273   3.35880   3.36285   3.78113
 Alpha virt. eigenvalues --    3.91195   3.99524   4.04104   4.04721   4.05732
 Alpha virt. eigenvalues --    4.09240   4.09520   4.10372   4.10717   4.17894
 Alpha virt. eigenvalues --    4.22491   4.23503   4.27087   4.30701   4.31001
 Alpha virt. eigenvalues --    4.32015   4.35250   4.39558   4.42208   4.44269
 Alpha virt. eigenvalues --    4.49695   4.68617   4.68996
          Condensed to atoms (all electrons):
               1          2          3          4          5          6
     1  C    4.761088   0.329247  -0.033815  -0.003630  -0.001068  -0.000464
     2  C    0.329247   4.995516   0.202608  -0.016431  -0.001792   0.004605
     3  O   -0.033815   0.202608   8.250468   0.259858  -0.081065  -0.100264
     4  C   -0.003630  -0.016431   0.259858   4.263473   0.539923   0.225681
     5  O   -0.001068  -0.001792  -0.081065   0.539923   8.027031  -0.061982
     6  N   -0.000464   0.004605  -0.100264   0.225681  -0.061982   7.016571
     7  N    0.000072   0.000514  -0.010244  -0.047136   0.000753   0.180226
     8  C    0.000001   0.000012   0.000313   0.003183  -0.000120  -0.049109
     9  O   -0.000000  -0.000000   0.000005  -0.000106   0.000000   0.001815
    10  O   -0.000000   0.000000  -0.000024   0.000340   0.000006  -0.018593
    11  C    0.000000  -0.000000   0.000001  -0.000012  -0.000000   0.000478
    12  C   -0.000000  -0.000000   0.000000   0.000000  -0.000000   0.000103
    13  C   -0.000000   0.000000  -0.000000   0.000000   0.000000  -0.000011
    14  C   -0.000000   0.000000   0.000000  -0.000000   0.000000   0.000000
    15  C   -0.000000  -0.000000   0.000000   0.000000   0.000000  -0.000000
    16  C   -0.000000   0.000000   0.000000   0.000000  -0.000000  -0.000000
    17  C    0.000000   0.000000  -0.000000  -0.000000  -0.000000   0.000004
    18  Cl   0.000000  -0.000000  -0.000000   0.000000  -0.000000   0.000000
    19  C    0.553110  -0.059722  -0.004231   0.004779   0.000784  -0.001276
    20  C   -0.019740   0.006589   0.000653  -0.000229  -0.000110  -0.000006
    21  C   -0.033058   0.000438  -0.000010  -0.000008  -0.000000   0.000000
    22  C   -0.014256   0.005134  -0.000065  -0.000013   0.000010  -0.000000
    23  C    0.513487  -0.058892   0.002293   0.000010  -0.000529  -0.000004
    24  Cl   0.000720   0.000009   0.000000  -0.000000   0.000000  -0.000000
    25  H   -0.040709   0.357152  -0.032988  -0.009688   0.016969   0.000477
    26  H   -0.038184   0.364363  -0.024625   0.003640   0.000313  -0.000105
    27  H   -0.000000   0.000000  -0.000000   0.000004  -0.000000  -0.000133
    28  H    0.000000   0.000000  -0.000000  -0.000001   0.000000   0.000075
    29  H    0.000000  -0.000000  -0.000000  -0.000000   0.000000  -0.000000
    30  H    0.000000   0.000000  -0.000000  -0.000000   0.000000   0.000000
    31  H    0.000000  -0.000000  -0.000000  -0.000000   0.000000  -0.000000
    32  H    0.000000   0.000000  -0.000000   0.000000   0.000000  -0.000003
    33  H   -0.045252  -0.014089   0.008890   0.000816  -0.002698   0.001480
    34  H    0.003782  -0.000178   0.000005   0.000011  -0.000000  -0.000001
    35  H    0.003436  -0.000144   0.000000   0.000000   0.000000   0.000000
    36  H   -0.052479  -0.006736   0.000052  -0.000005  -0.000010  -0.000000
               7          8          9         10         11         12
     1  C    0.000072   0.000001  -0.000000  -0.000000   0.000000  -0.000000
     2  C    0.000514   0.000012  -0.000000   0.000000  -0.000000  -0.000000
     3  O   -0.010244   0.000313   0.000005  -0.000024   0.000001   0.000000
     4  C   -0.047136   0.003183  -0.000106   0.000340  -0.000012   0.000000
     5  O    0.000753  -0.000120   0.000000   0.000006  -0.000000  -0.000000
     6  N    0.180226  -0.049109   0.001815  -0.018593   0.000478   0.000103
     7  N    7.034700   0.231955  -0.060873  -0.100306   0.004068  -0.000261
     8  C    0.231955   4.213760   0.548439   0.281688  -0.011723  -0.002026
     9  O   -0.060873   0.548439   8.020079  -0.077502  -0.009894  -0.000410
    10  O   -0.100306   0.281688  -0.077502   8.262897   0.186683  -0.046016
    11  C    0.004068  -0.011723  -0.009894   0.186683   5.026445   0.353035
    12  C   -0.000261  -0.002026  -0.000410  -0.046016   0.353035   4.684286
    13  C    0.000000  -0.000137  -0.000015   0.000440  -0.050346   0.539545
    14  C   -0.000000   0.000001   0.000000  -0.000024   0.005907  -0.021690
    15  C    0.000000  -0.000000   0.000000   0.000002   0.000394  -0.030902
    16  C    0.000000   0.000002   0.000006  -0.000028   0.006258  -0.023676
    17  C   -0.000057   0.001289  -0.000041  -0.000371  -0.051091   0.538768
    18  Cl  -0.000000  -0.000000   0.000000  -0.000000   0.000007   0.000588
    19  C   -0.000069   0.000003   0.000000   0.000000  -0.000000   0.000000
    20  C   -0.000000  -0.000000   0.000000   0.000000   0.000000   0.000000
    21  C    0.000000   0.000000  -0.000000  -0.000000  -0.000000   0.000000
    22  C   -0.000000   0.000000   0.000000  -0.000000   0.000000  -0.000000
    23  C    0.000000  -0.000000   0.000000   0.000000  -0.000000   0.000000
    24  Cl  -0.000000  -0.000000   0.000000   0.000000  -0.000000  -0.000000
    25  H   -0.000182   0.000002  -0.000000  -0.000000   0.000000   0.000000
    26  H    0.000072  -0.000001  -0.000000   0.000000   0.000000   0.000000
    27  H    0.000536  -0.009089   0.019677  -0.028867   0.344675  -0.028094
    28  H   -0.000169   0.002269   0.000620  -0.036289   0.362227  -0.036782
    29  H    0.000000  -0.000002   0.000000   0.000321  -0.008238  -0.042138
    30  H    0.000000  -0.000000  -0.000000   0.000001  -0.000150   0.003633
    31  H    0.000000   0.000000  -0.000000   0.000001  -0.000166   0.003650
    32  H    0.000016   0.000642   0.001021  -0.000292  -0.008031  -0.040825
    33  H    0.000295  -0.000018  -0.000000  -0.000002  -0.000000   0.000000
    34  H   -0.000000   0.000000   0.000000   0.000000   0.000000   0.000000
    35  H   -0.000000  -0.000000   0.000000   0.000000  -0.000000   0.000000
    36  H    0.000000  -0.000000   0.000000   0.000000  -0.000000   0.000000
              13         14         15         16         17         18
     1  C   -0.000000  -0.000000  -0.000000  -0.000000   0.000000   0.000000
     2  C    0.000000   0.000000  -0.000000   0.000000   0.000000  -0.000000
     3  O   -0.000000   0.000000   0.000000   0.000000  -0.000000  -0.000000
     4  C    0.000000  -0.000000   0.000000   0.000000  -0.000000   0.000000
     5  O    0.000000   0.000000   0.000000  -0.000000  -0.000000  -0.000000
     6  N   -0.000011   0.000000  -0.000000  -0.000000   0.000004   0.000000
     7  N    0.000000  -0.000000   0.000000   0.000000  -0.000057  -0.000000
     8  C   -0.000137   0.000001  -0.000000   0.000002   0.001289  -0.000000
     9  O   -0.000015   0.000000   0.000000   0.000006  -0.000041   0.000000
    10  O    0.000440  -0.000024   0.000002  -0.000028  -0.000371  -0.000000
    11  C   -0.050346   0.005907   0.000394   0.006258  -0.051091   0.000007
    12  C    0.539545  -0.021690  -0.030902  -0.023676   0.538768   0.000588
    13  C    4.951673   0.507570  -0.030527  -0.041686  -0.044298   0.004563
    14  C    0.507570   4.935933   0.531257  -0.035440  -0.042062  -0.071610
    15  C   -0.030527   0.531257   4.926621   0.531234  -0.030340   0.240600
    16  C   -0.041686  -0.035440   0.531234   4.938972   0.505890  -0.071864
    17  C   -0.044298  -0.042062  -0.030340   0.505890   4.962388   0.004601
    18  Cl   0.004563  -0.071610   0.240600  -0.071864   0.004601  16.897426
    19  C    0.000000  -0.000000   0.000000   0.000000  -0.000000   0.000000
    20  C   -0.000000   0.000000  -0.000000   0.000000   0.000000   0.000000
    21  C   -0.000000   0.000000  -0.000000  -0.000000   0.000000   0.000000
    22  C    0.000000  -0.000000   0.000000   0.000000  -0.000000   0.000000
    23  C    0.000000   0.000000  -0.000000  -0.000000  -0.000000   0.000000
    24  Cl  -0.000000   0.000000   0.000000   0.000000   0.000000   0.000000
    25  H    0.000000  -0.000000   0.000000  -0.000000  -0.000000  -0.000000
    26  H   -0.000000   0.000000  -0.000000  -0.000000   0.000000   0.000000
    27  H    0.004316  -0.000192   0.000003   0.000093  -0.006544  -0.000000
    28  H   -0.006879   0.000103   0.000001  -0.000222   0.005128  -0.000000
    29  H    0.357672  -0.041895   0.004577   0.000426   0.005332  -0.000169
    30  H   -0.034671   0.359895  -0.043206   0.004375   0.000656  -0.000454
    31  H    0.000717   0.004312  -0.043328   0.359331  -0.034334  -0.000464
    32  H    0.005123   0.000445   0.004481  -0.040698   0.357446  -0.000166
    33  H   -0.000000   0.000000  -0.000000  -0.000000   0.000000   0.000000
    34  H    0.000000  -0.000000   0.000000   0.000000  -0.000000   0.000000
    35  H    0.000000  -0.000000   0.000000   0.000000  -0.000000   0.000000
    36  H   -0.000000   0.000000  -0.000000  -0.000000   0.000000   0.000000
              19         20         21         22         23         24
     1  C    0.553110  -0.019740  -0.033058  -0.014256   0.513487   0.000720
     2  C   -0.059722   0.006589   0.000438   0.005134  -0.058892   0.000009
     3  O   -0.004231   0.000653  -0.000010  -0.000065   0.002293   0.000000
     4  C    0.004779  -0.000229  -0.000008  -0.000013   0.000010  -0.000000
     5  O    0.000784  -0.000110  -0.000000   0.000010  -0.000529   0.000000
     6  N   -0.001276  -0.000006   0.000000  -0.000000  -0.000004  -0.000000
     7  N   -0.000069  -0.000000   0.000000  -0.000000   0.000000  -0.000000
     8  C    0.000003  -0.000000   0.000000   0.000000  -0.000000  -0.000000
     9  O    0.000000   0.000000  -0.000000   0.000000   0.000000   0.000000
    10  O    0.000000   0.000000  -0.000000  -0.000000   0.000000   0.000000
    11  C   -0.000000   0.000000  -0.000000   0.000000  -0.000000  -0.000000
    12  C    0.000000   0.000000   0.000000  -0.000000   0.000000  -0.000000
    13  C    0.000000  -0.000000  -0.000000   0.000000   0.000000  -0.000000
    14  C   -0.000000   0.000000   0.000000  -0.000000   0.000000   0.000000
    15  C    0.000000  -0.000000  -0.000000   0.000000  -0.000000   0.000000
    16  C    0.000000   0.000000  -0.000000   0.000000  -0.000000   0.000000
    17  C   -0.000000   0.000000   0.000000  -0.000000  -0.000000   0.000000
    18  Cl   0.000000   0.000000   0.000000   0.000000   0.000000   0.000000
    19  C    4.927078   0.501675  -0.028769  -0.042282  -0.029702   0.004493
    20  C    0.501675   4.944977   0.530381  -0.034640  -0.042868  -0.071428
    21  C   -0.028769   0.530381   4.932674   0.532364  -0.031808   0.237035
    22  C   -0.042282  -0.034640   0.532364   4.923543   0.512222  -0.071220
    23  C   -0.029702  -0.042868  -0.031808   0.512222   4.966303   0.004614
    24  Cl   0.004493  -0.071428   0.237035  -0.071220   0.004614  16.906076
    25  H    0.001846  -0.000049   0.000020  -0.000094  -0.001984  -0.000000
    26  H    0.000796  -0.000091   0.000022  -0.000162  -0.001538  -0.000000
    27  H    0.000000  -0.000000  -0.000000   0.000000  -0.000000  -0.000000
    28  H   -0.000000  -0.000000   0.000000  -0.000000   0.000000   0.000000
    29  H   -0.000000  -0.000000  -0.000000  -0.000000  -0.000000   0.000000
    30  H   -0.000000  -0.000000  -0.000000   0.000000  -0.000000   0.000000
    31  H   -0.000000  -0.000000  -0.000000   0.000000  -0.000000   0.000000
    32  H   -0.000000  -0.000000   0.000000   0.000000  -0.000000  -0.000000
    33  H    0.352243  -0.041481   0.004739   0.000372   0.005836  -0.000170
    34  H   -0.035236   0.359573  -0.043757   0.004221   0.000848  -0.000345
    35  H    0.000698   0.004405  -0.042913   0.359750  -0.035472  -0.000326
    36  H    0.005072   0.000506   0.004702  -0.040970   0.362469  -0.000176
              25         26         27         28         29         30
     1  C   -0.040709  -0.038184  -0.000000   0.000000   0.000000   0.000000
     2  C    0.357152   0.364363   0.000000   0.000000  -0.000000   0.000000
     3  O   -0.032988  -0.024625  -0.000000  -0.000000  -0.000000  -0.000000
     4  C   -0.009688   0.003640   0.000004  -0.000001  -0.000000  -0.000000
     5  O    0.016969   0.000313  -0.000000   0.000000   0.000000   0.000000
     6  N    0.000477  -0.000105  -0.000133   0.000075  -0.000000   0.000000
     7  N   -0.000182   0.000072   0.000536  -0.000169   0.000000   0.000000
     8  C    0.000002  -0.000001  -0.009089   0.002269  -0.000002  -0.000000
     9  O   -0.000000  -0.000000   0.019677   0.000620   0.000000  -0.000000
    10  O   -0.000000   0.000000  -0.028867  -0.036289   0.000321   0.000001
    11  C    0.000000   0.000000   0.344675   0.362227  -0.008238  -0.000150
    12  C    0.000000   0.000000  -0.028094  -0.036782  -0.042138   0.003633
    13  C    0.000000  -0.000000   0.004316  -0.006879   0.357672  -0.034671
    14  C   -0.000000   0.000000  -0.000192   0.000103  -0.041895   0.359895
    15  C    0.000000  -0.000000   0.000003   0.000001   0.004577  -0.043206
    16  C   -0.000000  -0.000000   0.000093  -0.000222   0.000426   0.004375
    17  C   -0.000000   0.000000  -0.006544   0.005128   0.005332   0.000656
    18  Cl  -0.000000   0.000000  -0.000000  -0.000000  -0.000169  -0.000454
    19  C    0.001846   0.000796   0.000000  -0.000000  -0.000000  -0.000000
    20  C   -0.000049  -0.000091  -0.000000  -0.000000  -0.000000  -0.000000
    21  C    0.000020   0.000022  -0.000000   0.000000  -0.000000  -0.000000
    22  C   -0.000094  -0.000162   0.000000  -0.000000  -0.000000   0.000000
    23  C   -0.001984  -0.001538  -0.000000   0.000000  -0.000000  -0.000000
    24  Cl  -0.000000  -0.000000  -0.000000   0.000000   0.000000   0.000000
    25  H    0.556621  -0.037694   0.000000  -0.000000   0.000000  -0.000000
    26  H   -0.037694   0.545080  -0.000000   0.000000  -0.000000  -0.000000
    27  H    0.000000  -0.000000   0.543645  -0.036236   0.000078   0.000002
    28  H   -0.000000   0.000000  -0.036236   0.578700   0.005305  -0.000004
    29  H    0.000000  -0.000000   0.000078   0.005305   0.580004  -0.005636
    30  H   -0.000000  -0.000000   0.000002  -0.000004  -0.005636   0.557930
    31  H    0.000000  -0.000000  -0.000003   0.000003   0.000015  -0.000171
    32  H    0.000000  -0.000000   0.004417   0.000053  -0.000170   0.000014
    33  H    0.000520   0.000077  -0.000000   0.000000  -0.000000  -0.000000
    34  H    0.000002   0.000002   0.000000  -0.000000  -0.000000  -0.000000
    35  H    0.000001   0.000001   0.000000  -0.000000   0.000000   0.000000
    36  H    0.002056   0.002114  -0.000000   0.000000  -0.000000  -0.000000
              31         32         33         34         35         36
     1  C    0.000000   0.000000  -0.045252   0.003782   0.003436  -0.052479
     2  C   -0.000000   0.000000  -0.014089  -0.000178  -0.000144  -0.006736
     3  O   -0.000000  -0.000000   0.008890   0.000005   0.000000   0.000052
     4  C   -0.000000   0.000000   0.000816   0.000011   0.000000  -0.000005
     5  O    0.000000   0.000000  -0.002698  -0.000000   0.000000  -0.000010
     6  N   -0.000000  -0.000003   0.001480  -0.000001   0.000000  -0.000000
     7  N    0.000000   0.000016   0.000295  -0.000000  -0.000000   0.000000
     8  C    0.000000   0.000642  -0.000018   0.000000  -0.000000  -0.000000
     9  O   -0.000000   0.001021  -0.000000   0.000000   0.000000   0.000000
    10  O    0.000001  -0.000292  -0.000002   0.000000   0.000000   0.000000
    11  C   -0.000166  -0.008031  -0.000000   0.000000  -0.000000  -0.000000
    12  C    0.003650  -0.040825   0.000000   0.000000   0.000000   0.000000
    13  C    0.000717   0.005123  -0.000000   0.000000   0.000000  -0.000000
    14  C    0.004312   0.000445   0.000000  -0.000000  -0.000000   0.000000
    15  C   -0.043328   0.004481  -0.000000   0.000000   0.000000  -0.000000
    16  C    0.359331  -0.040698  -0.000000   0.000000   0.000000  -0.000000
    17  C   -0.034334   0.357446   0.000000  -0.000000  -0.000000   0.000000
    18  Cl  -0.000464  -0.000166   0.000000   0.000000   0.000000   0.000000
    19  C   -0.000000  -0.000000   0.352243  -0.035236   0.000698   0.005072
    20  C   -0.000000  -0.000000  -0.041481   0.359573   0.004405   0.000506
    21  C   -0.000000   0.000000   0.004739  -0.043757  -0.042913   0.004702
    22  C    0.000000   0.000000   0.000372   0.004221   0.359750  -0.040970
    23  C   -0.000000  -0.000000   0.005836   0.000848  -0.035472   0.362469
    24  Cl   0.000000  -0.000000  -0.000170  -0.000345  -0.000326  -0.000176
    25  H    0.000000   0.000000   0.000520   0.000002   0.000001   0.002056
    26  H   -0.000000  -0.000000   0.000077   0.000002   0.000001   0.002114
    27  H   -0.000003   0.004417  -0.000000   0.000000   0.000000  -0.000000
    28  H    0.000003   0.000053   0.000000  -0.000000  -0.000000   0.000000
    29  H    0.000015  -0.000170  -0.000000  -0.000000   0.000000  -0.000000
    30  H   -0.000171   0.000014  -0.000000  -0.000000   0.000000  -0.000000
    31  H    0.558283  -0.005522  -0.000000  -0.000000   0.000000  -0.000000
    32  H   -0.005522   0.569476   0.000000  -0.000000  -0.000000  -0.000000
    33  H   -0.000000   0.000000   0.594192  -0.005628   0.000015  -0.000162
    34  H   -0.000000  -0.000000  -0.005628   0.561219  -0.000174   0.000016
    35  H    0.000000  -0.000000   0.000015  -0.000174   0.560671  -0.005692
    36  H   -0.000000  -0.000000  -0.000162   0.000016  -0.005692   0.593683
 Mulliken charges:
               1
     1  C    0.117711
     2  C   -0.108201
     3  O   -0.437814
     4  C    0.775539
     5  O   -0.436414
     6  N   -0.199565
     7  N   -0.233909
     8  C    0.788666
     9  O   -0.442822
    10  O   -0.424066
    11  C   -0.150528
    12  C    0.149211
    13  C   -0.163051
    14  C   -0.132511
    15  C   -0.060866
    16  C   -0.132972
    17  C   -0.172364
    18  Cl  -0.003058
    19  C   -0.151291
    20  C   -0.138117
    21  C   -0.062052
    22  C   -0.133915
    23  C   -0.165287
    24  Cl  -0.009282
    25  H    0.187722
    26  H    0.185917
    27  H    0.191712
    28  H    0.162097
    29  H    0.144516
    30  H    0.157784
    31  H    0.157677
    32  H    0.152570
    33  H    0.140025
    34  H    0.155640
    35  H    0.155742
    36  H    0.135558
 Sum of Mulliken charges =  -0.00000
 Mulliken charges with hydrogens summed into heavy atoms:
               1
     1  C    0.117711
     2  C    0.265438
     3  O   -0.437814
     4  C    0.775539
     5  O   -0.436414
     6  N   -0.199565
     7  N   -0.233909
     8  C    0.788666
     9  O   -0.442822
    10  O   -0.424066
    11  C    0.203281
    12  C    0.149211
    13  C   -0.018536
    14  C    0.025273
    15  C   -0.060866
    16  C    0.024705
    17  C   -0.019794
    18  Cl  -0.003058
    19  C   -0.011266
    20  C    0.017523
    21  C   -0.062052
    22  C    0.021828
    23  C   -0.029729
    24  Cl  -0.009282
 APT charges:
               1
     1  C   -0.008039
     2  C    0.562490
     3  O   -0.887468
     4  C    1.238739
     5  O   -0.616418
     6  N   -0.200083
     7  N   -0.190680
     8  C    1.247203
     9  O   -0.629723
    10  O   -0.962968
    11  C    0.675804
    12  C   -0.081951
    13  C    0.009565
    14  C   -0.124965
    15  C    0.460294
    16  C   -0.118940
    17  C   -0.009810
    18  Cl  -0.362334
    19  C   -0.026915
    20  C   -0.083022
    21  C    0.418849
    22  C   -0.104577
    23  C   -0.005641
    24  Cl  -0.359051
    25  H   -0.037947
    26  H   -0.037943
    27  H   -0.000436
    28  H   -0.054747
    29  H    0.027695
    30  H    0.044983
    31  H    0.043645
    32  H    0.037984
    33  H    0.029176
    34  H    0.044170
    35  H    0.041805
    36  H    0.021255
 Sum of APT charges =  -0.00000
 APT charges with hydrogens summed into heavy atoms:
               1
     1  C   -0.008039
     2  C    0.486600
     3  O   -0.887468
     4  C    1.238739
     5  O   -0.616418
     6  N   -0.200083
     7  N   -0.190680
     8  C    1.247203
     9  O   -0.629723
    10  O   -0.962968
    11  C    0.620621
    12  C   -0.081951
    13  C    0.037260
    14  C   -0.079982
    15  C    0.460294
    16  C   -0.075295
    17  C    0.028174
    18  Cl  -0.362334
    19  C    0.002261
    20  C   -0.038852
    21  C    0.418849
    22  C   -0.062772
    23  C    0.015614
    24  Cl  -0.359051
 Electronic spatial extent (au):  <R**2>=          18288.4234
 Charge=             -0.0000 electrons
 Dipole moment (field-independent basis, Debye):
    X=             -0.1661    Y=              1.1229    Z=             -0.6326  Tot=              1.2995
 Quadrupole moment (field-independent basis, Debye-Ang):
   XX=           -153.2320   YY=           -154.4088   ZZ=           -144.0197
   XY=             -7.9380   XZ=            -12.9763   YZ=             10.6199
 Traceless Quadrupole moment (field-independent basis, Debye-Ang):
   XX=             -2.6785   YY=             -3.8553   ZZ=              6.5338
   XY=             -7.9380   XZ=            -12.9763   YZ=             10.6199
 Octapole moment (field-independent basis, Debye-Ang**2):
  XXX=            -39.3145  YYY=            -28.7648  ZZZ=             -5.5872  XYY=             10.0876
  XXY=             98.2475  XXZ=             52.5101  XZZ=            -12.3507  YZZ=             11.6978
  YYZ=             12.1539  XYZ=             -1.1155
 Hexadecapole moment (field-independent basis, Debye-Ang**3):
 XXXX=         -22095.6984 YYYY=          -2078.0107 ZZZZ=          -1116.3049 XXXY=              4.7333
 XXXZ=           -468.4266 YYYX=           -110.6252 YYYZ=             56.9538 ZZZX=             -7.7968
 ZZZY=             12.9473 XXYY=          -3849.1678 XXZZ=          -3645.0102 YYZZ=           -514.4877
 XXYZ=            127.3273 YYXZ=             -2.1755 ZZXY=            -18.6100
 N-N= 2.045557444979D+03 E-N=-8.670610562548D+03  KE= 1.935584959341D+03
  Exact polarizability: 279.925  13.644 197.746  13.655  13.371 160.849
 Approx polarizability: 348.408  32.720 355.238  21.514  14.050 268.286
 Calling FoFJK, ICntrl=    100127 FMM=F ISym2X=0 I1Cent= 0 IOpClX= 0 NMat=1 NMatS=1 NMatT=0.
 ***** Axes restored to original set *****
 -------------------------------------------------------------------
 Center     Atomic                   Forces (Hartrees/Bohr)
 Number     Number              X              Y              Z
 -------------------------------------------------------------------
      1        6           0.007467192    0.000409435   -0.004134984
      2        6           0.021526635   -0.004559362    0.005726999
      3        8          -0.004037673   -0.010222369   -0.000500347
      4        6           0.012879766   -0.073662105   -0.001922569
      5        8          -0.024086636    0.025923922   -0.008964296
      6        7          -0.001723340    0.029675090    0.006551146
      7        7          -0.001725199   -0.043169086    0.005205493
      8        6          -0.006644050    0.078103309   -0.000002431
      9        8           0.022829667   -0.026732765    0.001584159
     10        8          -0.018122728    0.009640804   -0.002344026
     11        6           0.004229687    0.020253147    0.003197306
     12        6          -0.003082493    0.002955032    0.001409262
     13        6          -0.002894645   -0.002041555    0.003801743
     14        6           0.004332434   -0.000697889   -0.006536253
     15        6          -0.004604284   -0.005488897   -0.012808063
     16        6          -0.007242628   -0.003159248   -0.001445797
     17        6           0.005548897    0.000141306    0.002566263
     18       17           0.005306532    0.006375210    0.014400025
     19        6          -0.000512016   -0.005419477   -0.002103762
     20        6          -0.002449891    0.004495756    0.001947474
     21        6          -0.010191110    0.003829599    0.010178204
     22        6          -0.004449871   -0.004972124    0.004838089
     23        6           0.000543648    0.004481069   -0.004130459
     24       17           0.012238514   -0.002796902   -0.012022685
     25        1          -0.001275603   -0.001092774    0.000376022
     26        1          -0.006565502    0.013456785    0.000380794
     27        1           0.001162324   -0.007700855   -0.000291253
     28        1           0.000639754   -0.004874945   -0.002113240
     29        1          -0.001374739   -0.000832568    0.000449179
     30        1          -0.001329186    0.000199006    0.001035469
     31        1           0.001515819    0.000647562   -0.000252552
     32        1           0.001351439   -0.000127787   -0.001177898
     33        1           0.000329491   -0.003718671   -0.002595501
     34        1           0.000353024   -0.001654210    0.000209912
     35        1           0.000415609    0.001514356   -0.000401245
     36        1          -0.000358838    0.000822203   -0.000110178
 -------------------------------------------------------------------
 Cartesian Forces:  Max     0.078103309 RMS     0.013763542
 FormGI is forming the generalized inverse of G from B-inverse, IUseBI=4.

 GradGradGradGradGradGradGradGradGradGradGradGradGradGradGradGradGradGrad
 Berny optimization.
 Internal  Forces:  Max     0.063293814 RMS     0.010598125
 Search for a local minimum.
 Step number   1 out of a maximum of  180
 All quantities printed in internal units (Hartrees-Bohrs-Radians)
 Mixed Optimization -- RFO/linear search
 Second derivative matrix not updated -- analytic derivatives used.
 ITU=  0
     Eigenvalues ---   -0.02209  -0.00724  -0.00342  -0.00130   0.00032
     Eigenvalues ---    0.01201   0.01492   0.01596   0.01717   0.01720
     Eigenvalues ---    0.01769   0.01779   0.01791   0.02025   0.02045
     Eigenvalues ---    0.02236   0.02239   0.02256   0.02520   0.02521
     Eigenvalues ---    0.02669   0.02680   0.02755   0.02762   0.03026
     Eigenvalues ---    0.03115   0.06053   0.06073   0.06806   0.07317
     Eigenvalues ---    0.07476   0.10167   0.10393   0.10615   0.11389
     Eigenvalues ---    0.11409   0.11639   0.11678   0.11961   0.11972
     Eigenvalues ---    0.12130   0.12840   0.12884   0.13718   0.14217
     Eigenvalues ---    0.17394   0.17451   0.17555   0.18061   0.18977
     Eigenvalues ---    0.19010   0.19181   0.19664   0.20270   0.20541
     Eigenvalues ---    0.20981   0.21163   0.21802   0.23535   0.24571
     Eigenvalues ---    0.26851   0.28933   0.29041   0.29390   0.29480
     Eigenvalues ---    0.29577   0.30556   0.30990   0.31682   0.32965
     Eigenvalues ---    0.33076   0.33522   0.33545   0.34457   0.35559
[...]
   140    O   10  px     Val( 2p)     1.54229
   141    O   10  px     Ryd( 3p)     0.00116
   142    O   10  py     Val( 2p)     1.73340
   143    O   10  py     Ryd( 3p)     0.00179
   144    O   10  pz     Val( 2p)     1.60577
   145    O   10  pz     Ryd( 3p)     0.00132
   146    O   10  dxy    Ryd( 3d)     0.00076
   147    O   10  dxz    Ryd( 3d)     0.00127
   148    O   10  dyz    Ryd( 3d)     0.00117
   149    O   10  dx2y2  Ryd( 3d)     0.00111
   150    O   10  dz2    Ryd( 3d)     0.00158
 
   151    C   11  S      Cor( 1S)     1.99912
   152    C   11  S      Val( 2S)     1.03203
   153    C   11  S      Ryd( 3S)     0.00121
   154    C   11  S      Ryd( 4S)     0.00005
   155    C   11  px     Val( 2p)     0.73988
   156    C   11  px     Ryd( 3p)     0.00341
   157    C   11  py     Val( 2p)     1.12952
   158    C   11  py     Ryd( 3p)     0.00231
   159    C   11  pz     Val( 2p)     1.20472
   160    C   11  pz     Ryd( 3p)     0.00620
   161    C   11  dxy    Ryd( 3d)     0.00146
   162    C   11  dxz    Ryd( 3d)     0.00094
   163    C   11  dyz    Ryd( 3d)     0.00060
   164    C   11  dx2y2  Ryd( 3d)     0.00157
   165    C   11  dz2    Ryd( 3d)     0.00153
 
   166    C   12  S      Cor( 1S)     1.99901
   167    C   12  S      Val( 2S)     0.88840
   168    C   12  S      Ryd( 3S)     0.00069
   169    C   12  S      Ryd( 4S)     0.00006
   170    C   12  px     Val( 2p)     1.03917
   171    C   12  px     Ryd( 3p)     0.00232
   172    C   12  py     Val( 2p)     1.06943
   173    C   12  py     Ryd( 3p)     0.00440
   174    C   12  pz     Val( 2p)     1.08384
   175    C   12  pz     Ryd( 3p)     0.00408
   176    C   12  dxy    Ryd( 3d)     0.00046
   177    C   12  dxz    Ryd( 3d)     0.00048
   178    C   12  dyz    Ryd( 3d)     0.00068
   179    C   12  dx2y2  Ryd( 3d)     0.00055
   180    C   12  dz2    Ryd( 3d)     0.00063
 
   181    C   13  S      Cor( 1S)     1.99903
   182    C   13  S      Val( 2S)     0.95302
   183    C   13  S      Ryd( 3S)     0.00058
   184    C   13  S      Ryd( 4S)     0.00005
   185    C   13  px     Val( 2p)     1.01133
   186    C   13  px     Ryd( 3p)     0.00133
   187    C   13  py     Val( 2p)     1.05419
   188    C   13  py     Ryd( 3p)     0.00367
   189    C   13  pz     Val( 2p)     1.16955
   190    C   13  pz     Ryd( 3p)     0.00463
   191    C   13  dxy    Ryd( 3d)     0.00057
   192    C   13  dxz    Ryd( 3d)     0.00050
   193    C   13  dyz    Ryd( 3d)     0.00060
   194    C   13  dx2y2  Ryd( 3d)     0.00044
   195    C   13  dz2    Ryd( 3d)     0.00072
 
   196    C   14  S      Cor( 1S)     1.99893
   197    C   14  S      Val( 2S)     0.95891
   198    C   14  S      Ryd( 3S)     0.00097
   199    C   14  S      Ryd( 4S)     0.00005
   200    C   14  px     Val( 2p)     1.01075
   201    C   14  px     Ryd( 3p)     0.00145
   202    C   14  py     Val( 2p)     1.15979
   203    C   14  py     Ryd( 3p)     0.00553
   204    C   14  pz     Val( 2p)     1.10034
   205    C   14  pz     Ryd( 3p)     0.00421
   206    C   14  dxy    Ryd( 3d)     0.00042
   207    C   14  dxz    Ryd( 3d)     0.00043
   208    C   14  dyz    Ryd( 3d)     0.00069
   209    C   14  dx2y2  Ryd( 3d)     0.00060
   210    C   14  dz2    Ryd( 3d)     0.00056
 
   211    C   15  S      Cor( 1S)     1.99856
   212    C   15  S      Val( 2S)     0.93303
   213    C   15  S      Ryd( 3S)     0.00060
   214    C   15  S      Ryd( 4S)     0.00009
   215    C   15  px     Val( 2p)     1.04365
   216    C   15  px     Ryd( 3p)     0.00205
   217    C   15  py     Val( 2p)     0.96121
   218    C   15  py     Ryd( 3p)     0.00712
   219    C   15  pz     Val( 2p)     1.07783
   220    C   15  pz     Ryd( 3p)     0.00675
   221    C   15  dxy    Ryd( 3d)     0.00121
   222    C   15  dxz    Ryd( 3d)     0.00067
   223    C   15  dyz    Ryd( 3d)     0.00124
   224    C   15  dx2y2  Ryd( 3d)     0.00112
   225    C   15  dz2    Ryd( 3d)     0.00091
 
   226    C   16  S      Cor( 1S)     1.99894
   227    C   16  S      Val( 2S)     0.95992
   228    C   16  S      Ryd( 3S)     0.00098
   229    C   16  S      Ryd( 4S)     0.00005
   230    C   16  px     Val( 2p)     1.03071
   231    C   16  px     Ryd( 3p)     0.00159
   232    C   16  py     Val( 2p)     1.05713
   233    C   16  py     Ryd( 3p)     0.00495
   234    C   16  pz     Val( 2p)     1.17983
   235    C   16  pz     Ryd( 3p)     0.00465
   236    C   16  dxy    Ryd( 3d)     0.00047
   237    C   16  dxz    Ryd( 3d)     0.00055
   238    C   16  dyz    Ryd( 3d)     0.00065
   239    C   16  dx2y2  Ryd( 3d)     0.00040
   240    C   16  dz2    Ryd( 3d)     0.00063
 
   241    C   17  S      Cor( 1S)     1.99903
   242    C   17  S      Val( 2S)     0.95653
   243    C   17  S      Ryd( 3S)     0.00059
   244    C   17  S      Ryd( 4S)     0.00004
   245    C   17  px     Val( 2p)     0.98247
   246    C   17  px     Ryd( 3p)     0.00117
   247    C   17  py     Val( 2p)     1.15260
   248    C   17  py     Ryd( 3p)     0.00476
   249    C   17  pz     Val( 2p)     1.09507
   250    C   17  pz     Ryd( 3p)     0.00392
   251    C   17  dxy    Ryd( 3d)     0.00044
   252    C   17  dxz    Ryd( 3d)     0.00043
   253    C   17  dyz    Ryd( 3d)     0.00082
   254    C   17  dx2y2  Ryd( 3d)     0.00060
   255    C   17  dz2    Ryd( 3d)     0.00054
 
   256   Cl   18  S      Cor( 1S)     2.00000
   257   Cl   18  S      Cor( 2S)     1.99979
   258   Cl   18  S      Val( 3S)     1.83533
   259   Cl   18  S      Ryd( 4S)     0.00331
   260   Cl   18  S      Ryd( 5S)     0.00000
   261   Cl   18  px     Cor( 2p)     1.99998
   262   Cl   18  px     Val( 3p)     1.85396
   263   Cl   18  px     Ryd( 4p)     0.00188
   264   Cl   18  py     Cor( 2p)     1.99992
   265   Cl   18  py     Val( 3p)     1.40565
   266   Cl   18  py     Ryd( 4p)     0.00342
   267   Cl   18  pz     Cor( 2p)     1.99998
   268   Cl   18  pz     Val( 3p)     1.88381
   269   Cl   18  pz     Ryd( 4p)     0.00181
   270   Cl   18  dxy    Ryd( 3d)     0.00263
   271   Cl   18  dxz    Ryd( 3d)     0.00045
   272   Cl   18  dyz    Ryd( 3d)     0.00225
   273   Cl   18  dx2y2  Ryd( 3d)     0.00252
   274   Cl   18  dz2    Ryd( 3d)     0.00103
 
   275    C   19  S      Cor( 1S)     1.99903
   276    C   19  S      Val( 2S)     0.95330
   277    C   19  S      Ryd( 3S)     0.00058
   278    C   19  S      Ryd( 4S)     0.00005
   279    C   19  px     Val( 2p)     0.99821
   280    C   19  px     Ryd( 3p)     0.00124
   281    C   19  py     Val( 2p)     1.06205
   282    C   19  py     Ryd( 3p)     0.00342
   283    C   19  pz     Val( 2p)     1.17358
   284    C   19  pz     Ryd( 3p)     0.00498
   285    C   19  dxy    Ryd( 3d)     0.00047
   286    C   19  dxz    Ryd( 3d)     0.00043
   287    C   19  dyz    Ryd( 3d)     0.00069
   288    C   19  dx2y2  Ryd( 3d)     0.00049
   289    C   19  dz2    Ryd( 3d)     0.00074
 
   290    C   20  S      Cor( 1S)     1.99893
   291    C   20  S      Val( 2S)     0.95917
   292    C   20  S      Ryd( 3S)     0.00097
   293    C   20  S      Ryd( 4S)     0.00005
   294    C   20  px     Val( 2p)     1.01995
   295    C   20  px     Ryd( 3p)     0.00165
   296    C   20  py     Val( 2p)     1.08998
   297    C   20  py     Ryd( 3p)     0.00471
   298    C   20  pz     Val( 2p)     1.16040
   299    C   20  pz     Ryd( 3p)     0.00483
   300    C   20  dxy    Ryd( 3d)     0.00044
   301    C   20  dxz    Ryd( 3d)     0.00048
   302    C   20  dyz    Ryd( 3d)     0.00073
   303    C   20  dx2y2  Ryd( 3d)     0.00045
   304    C   20  dz2    Ryd( 3d)     0.00061
 
   305    C   21  S      Cor( 1S)     1.99856
   306    C   21  S      Val( 2S)     0.93328
   307    C   21  S      Ryd( 3S)     0.00060
   308    C   21  S      Ryd( 4S)     0.00009
   309    C   21  px     Val( 2p)     1.02875
   310    C   21  px     Ryd( 3p)     0.00213
   311    C   21  py     Val( 2p)     0.94802
   312    C   21  py     Ryd( 3p)     0.00610
   313    C   21  pz     Val( 2p)     1.10467
   314    C   21  pz     Ryd( 3p)     0.00771
   315    C   21  dxy    Ryd( 3d)     0.00129
   316    C   21  dxz    Ryd( 3d)     0.00073
   317    C   21  dyz    Ryd( 3d)     0.00095
   318    C   21  dx2y2  Ryd( 3d)     0.00120
   319    C   21  dz2    Ryd( 3d)     0.00099
 
   320    C   22  S      Cor( 1S)     1.99894
   321    C   22  S      Val( 2S)     0.96004
   322    C   22  S      Ryd( 3S)     0.00098
   323    C   22  S      Ryd( 4S)     0.00005
   324    C   22  px     Val( 2p)     1.01518
   325    C   22  px     Ryd( 3p)     0.00163
   326    C   22  py     Val( 2p)     1.07204
   327    C   22  py     Ryd( 3p)     0.00464
   328    C   22  pz     Val( 2p)     1.18053
   329    C   22  pz     Ryd( 3p)     0.00496
   330    C   22  dxy    Ryd( 3d)     0.00042
   331    C   22  dxz    Ryd( 3d)     0.00048
   332    C   22  dyz    Ryd( 3d)     0.00073
   333    C   22  dx2y2  Ryd( 3d)     0.00043
   334    C   22  dz2    Ryd( 3d)     0.00064
 
   335    C   23  S      Cor( 1S)     1.99903
   336    C   23  S      Val( 2S)     0.95672
   337    C   23  S      Ryd( 3S)     0.00059
   338    C   23  S      Ryd( 4S)     0.00004
   339    C   23  px     Val( 2p)     0.99071
   340    C   23  px     Ryd( 3p)     0.00136
   341    C   23  py     Val( 2p)     1.07776
   342    C   23  py     Ryd( 3p)     0.00365
   343    C   23  pz     Val( 2p)     1.16117
   344    C   23  pz     Ryd( 3p)     0.00487
   345    C   23  dxy    Ryd( 3d)     0.00047
   346    C   23  dxz    Ryd( 3d)     0.00047
   347    C   23  dyz    Ryd( 3d)     0.00076
   348    C   23  dx2y2  Ryd( 3d)     0.00049
   349    C   23  dz2    Ryd( 3d)     0.00065
 
   350   Cl   24  S      Cor( 1S)     2.00000
   351   Cl   24  S      Cor( 2S)     1.99979
   352   Cl   24  S      Val( 3S)     1.83543
   353   Cl   24  S      Ryd( 4S)     0.00331
   354   Cl   24  S      Ryd( 5S)     0.00000
   355   Cl   24  px     Cor( 2p)     1.99997
   356   Cl   24  px     Val( 3p)     1.79647
   357   Cl   24  px     Ryd( 4p)     0.00207
   358   Cl   24  py     Cor( 2p)     1.99992
   359   Cl   24  py     Val( 3p)     1.37700
   360   Cl   24  py     Ryd( 4p)     0.00351
   361   Cl   24  pz     Cor( 2p)     1.99999
   362   Cl   24  pz     Val( 3p)     1.96815
   363   Cl   24  pz     Ryd( 4p)     0.00154
   364   Cl   24  dxy    Ryd( 3d)     0.00329
   365   Cl   24  dxz    Ryd( 3d)     0.00026
   366   Cl   24  dyz    Ryd( 3d)     0.00101
   367   Cl   24  dx2y2  Ryd( 3d)     0.00293
   368   Cl   24  dz2    Ryd( 3d)     0.00139
 
   369    H   25  S      Val( 1S)     0.75327
   370    H   25  S      Ryd( 2S)     0.00210
 
   371    H   26  S      Val( 1S)     0.75600
   372    H   26  S      Ryd( 2S)     0.00115
 
   373    H   27  S      Val( 1S)     0.75415
   374    H   27  S      Ryd( 2S)     0.00217
 
   375    H   28  S      Val( 1S)     0.75640
   376    H   28  S      Ryd( 2S)     0.00112
 
   377    H   29  S      Val( 1S)     0.75629
   378    H   29  S      Ryd( 2S)     0.00101
 
   379    H   30  S      Val( 1S)     0.74290
   380    H   30  S      Ryd( 2S)     0.00102
 
   381    H   31  S      Val( 1S)     0.74150
   382    H   31  S      Ryd( 2S)     0.00100
 
   383    H   32  S      Val( 1S)     0.73971
   384    H   32  S      Ryd( 2S)     0.00132
 
   385    H   33  S      Val( 1S)     0.75547
   386    H   33  S      Ryd( 2S)     0.00101
 
   387    H   34  S      Val( 1S)     0.74243
   388    H   34  S      Ryd( 2S)     0.00102
 
   389    H   35  S      Val( 1S)     0.74097
   390    H   35  S      Ryd( 2S)     0.00100
 
   391    H   36  S      Val( 1S)     0.74004
   392    H   36  S      Ryd( 2S)     0.00137

 WARNING:  1 low occupancy (<1.9990e) core orbital  found on  C   14
           1 low occupancy (<1.9990e) core orbital  found on  C   15
           1 low occupancy (<1.9990e) core orbital  found on  C   16
           1 low occupancy (<1.9990e) core orbital  found on  C   20
           1 low occupancy (<1.9990e) core orbital  found on  C   21
           1 low occupancy (<1.9990e) core orbital  found on  C   22


 Summary of Natural Population Analysis:                  
                                                          
                                       Natural Population 
                Natural  -----------------------------------------------
    Atom  No    Charge         Core      Valence    Rydberg      Total
 -----------------------------------------------------------------------
      C    1   -0.09434      1.99901     4.08094    0.01439     6.09434
      C    2   -0.12665      1.99913     4.10836    0.01917     6.12665
      O    3   -0.52171      1.99973     6.50966    0.01231     8.52171
      C    4    0.92494      1.99951     3.02508    0.05047     5.07506
      O    5   -0.54411      1.99977     6.52359    0.02075     8.54411
      N    6   -0.21695      1.99938     5.19126    0.02631     7.21695
      N    7   -0.22055      1.99938     5.19464    0.02653     7.22055
      C    8    0.92077      1.99950     3.02945    0.05028     5.07923
      O    9   -0.55214      1.99977     6.53160    0.02077     8.55214
      O   10   -0.52394      1.99973     6.51197    0.01225     8.52394
      C   11   -0.12455      1.99912     4.10615    0.01928     6.12455
      C   12   -0.09419      1.99901     4.08083    0.01435     6.09419
      C   13   -0.20019      1.99903     4.18809    0.01307     6.20019
      C   14   -0.24364      1.99893     4.22980    0.01491     6.24364
      C   15   -0.03604      1.99856     4.01572    0.02176     6.03604
      C   16   -0.24146      1.99894     4.22760    0.01493     6.24146
      C   17   -0.19901      1.99903     4.18666    0.01331     6.19901
     Cl   18    0.00227      9.99967     6.97876    0.01930    16.99773
      C   19   -0.19926      1.99903     4.18714    0.01309     6.19926
      C   20   -0.24335      1.99893     4.22950    0.01492     6.24335
      C   21   -0.03506      1.99856     4.01471    0.02179     6.03506
      C   22   -0.24167      1.99894     4.22778    0.01495     6.24167
      C   23   -0.19874      1.99903     4.18637    0.01334     6.19874
     Cl   24    0.00397      9.99967     6.97706    0.01931    16.99603
      H   25    0.24463      0.00000     0.75327    0.00210     0.75537
      H   26    0.24285      0.00000     0.75600    0.00115     0.75715
      H   27    0.24368      0.00000     0.75415    0.00217     0.75632
      H   28    0.24249      0.00000     0.75640    0.00112     0.75751
      H   29    0.24270      0.00000     0.75629    0.00101     0.75730
      H   30    0.25609      0.00000     0.74290    0.00102     0.74391
      H   31    0.25750      0.00000     0.74150    0.00100     0.74250
      H   32    0.25897      0.00000     0.73971    0.00132     0.74103
      H   33    0.24352      0.00000     0.75547    0.00101     0.75648
      H   34    0.25655      0.00000     0.74243    0.00102     0.74345
      H   35    0.25804      0.00000     0.74097    0.00100     0.74196
      H   36    0.25859      0.00000     0.74004    0.00137     0.74141
 =======================================================================
   * Total *    0.00000     63.98135   123.52184    0.49681   188.00000

                                 Natural Population      
 --------------------------------------------------------
   Core                      63.98135 ( 99.9709% of  64)
   Valence                  123.52184 ( 99.6144% of 124)
   Natural Minimal Basis    187.50319 ( 99.7357% of 188)
   Natural Rydberg Basis      0.49681 (  0.2643% of 188)
 --------------------------------------------------------

    Atom  No          Natural Electron Configuration
 ----------------------------------------------------------------------------
      C    1      [core]2S( 0.89)2p( 3.19)3p( 0.01)
      C    2      [core]2S( 1.03)2p( 3.08)3p( 0.01)3d( 0.01)
      O    3      [core]2S( 1.63)2p( 4.88)3d( 0.01)
      C    4      [core]2S( 0.73)2p( 2.29)3p( 0.03)3d( 0.01)
      O    5      [core]2S( 1.71)2p( 4.82)3d( 0.02)
      N    6      [core]2S( 1.39)2p( 3.80)3S( 0.01)3p( 0.01)3d( 0.01)
      N    7      [core]2S( 1.39)2p( 3.80)3S( 0.01)3p( 0.01)3d( 0.01)
      C    8      [core]2S( 0.73)2p( 2.30)3p( 0.03)3d( 0.01)
      O    9      [core]2S( 1.71)2p( 4.82)3d( 0.02)
      O   10      [core]2S( 1.63)2p( 4.88)3d( 0.01)
      C   11      [core]2S( 1.03)2p( 3.07)3p( 0.01)3d( 0.01)
      C   12      [core]2S( 0.89)2p( 3.19)3p( 0.01)
      C   13      [core]2S( 0.95)2p( 3.24)3p( 0.01)
      C   14      [core]2S( 0.96)2p( 3.27)3p( 0.01)
      C   15      [core]2S( 0.93)2p( 3.08)3p( 0.02)3d( 0.01)
      C   16      [core]2S( 0.96)2p( 3.27)3p( 0.01)
      C   17      [core]2S( 0.96)2p( 3.23)3p( 0.01)
     Cl   18      [core]3S( 1.84)3p( 5.14)3d( 0.01)4p( 0.01)
      C   19      [core]2S( 0.95)2p( 3.23)3p( 0.01)
      C   20      [core]2S( 0.96)2p( 3.27)3p( 0.01)
      C   21      [core]2S( 0.93)2p( 3.08)3p( 0.02)3d( 0.01)
      C   22      [core]2S( 0.96)2p( 3.27)3p( 0.01)
      C   23      [core]2S( 0.96)2p( 3.23)3p( 0.01)
     Cl   24      [core]3S( 1.84)3p( 5.14)3d( 0.01)4p( 0.01)
      H   25            1S( 0.75)
      H   26            1S( 0.76)
      H   27            1S( 0.75)
      H   28            1S( 0.76)
      H   29            1S( 0.76)
      H   30            1S( 0.74)
      H   31            1S( 0.74)
      H   32            1S( 0.74)
      H   33            1S( 0.76)
      H   34            1S( 0.74)
      H   35            1S( 0.74)
      H   36            1S( 0.74)


 NBO analysis skipped by request.
 1\1\GINC-DELLA-R1C3N15\SP\RB3LYP TD-FC\6-31G(d)\C16H12Cl2N2O4\BJS4\22-
 Aug-2020\0\\# TD(NStates=10, Root=1) B3LYP/6-31G* scf=qc volume pop=NP
 A density=current Geom=AllCheck Guess=Read\\Title Card Required\\0,1\C
 ,0,-4.3728958194,-0.4849070823,-2.8354372056\C,0,-5.8366665773,-0.1419
 475229,-2.7670829807\O,0,-6.0677173449,1.1045838856,-2.0280552419\C,0,
 -6.2358626674,0.9851748423,-0.7127626769\O,0,-6.2388336958,-0.01990184
 41,-0.0473357502\N,0,-6.306387056,2.299251367,-0.1071247592\N,0,-7.452
 8302267,2.7837105335,-0.1266780228\C,0,-7.5429802469,4.0494804137,0.57
 37970984\O,0,-8.1124088764,4.1378532274,1.632850775\O,0,-7.0316491878,
 5.0268888823,-0.1715410546\C,0,-7.1779443174,6.3872032795,0.3577715376
 \C,0,-6.0141677373,6.7748362806,1.2298105888\C,0,-4.8814235551,7.37721
 49742,0.6693678852\C,0,-3.7928977923,7.7367274464,1.4620209769\C,0,-3.
 8451239972,7.4870855166,2.8330029993\C,0,-4.9607661949,6.8869718425,3.
 416572746\C,0,-6.0409041383,6.5333143994,2.609875534\Cl,0,-2.481492142
 4,7.9412526712,3.8438168117\C,0,-3.57786764,0.0139093278,-3.8745168056
 \C,0,-2.2190581437,-0.2871018834,-3.9471356234\C,0,-1.6542470934,-1.09
 85824324,-2.9635322792\C,0,-2.423089711,-1.6077734392,-1.9172300807\C,
 0,-3.7806714262,-1.2971021515,-1.8589781235\Cl,0,0.0567121677,-1.48969
 50731,-3.0475225079\H,0,-6.4188406269,-0.9318129915,-2.2899250881\H,0,
 -6.2460517869,0.0726933332,-3.7552946639\H,0,-8.125394119,6.4386842101
 ,0.897393761\H,0,-7.2290801023,7.0041376777,-0.5406879743\H,0,-4.84645
 52419,7.5709200152,-0.3999464291\H,0,-2.9174037138,8.2057904606,1.0262
 509914\H,0,-4.9824226805,6.7011527663,4.4849611917\H,0,-6.9090771591,6
 .0551214914,3.0530084437\H,0,-4.0236426518,0.6446101234,-4.6398322741\
 H,0,-1.6057230381,0.0976381438,-4.7547467908\H,0,-1.9655965171,-2.2377
 673232,-1.1620661112\H,0,-4.3850189424,-1.6795953682,-1.0420988969\\Ve
 rsion=ES64L-G16RevA.03\State=1-A\HF=-1947.6734141\RMSD=1.554e-09\Dipol
 e=-0.2952433,0.5284971,-1.4633017\Quadrupole=-8.3889074,5.4859306,2.90
 29767,-2.7698533,3.6733341,0.1985785\PG=C01 [X(C16H12Cl2N2O4)]\\@


 LIFE IS SO UNCERTAIN - EAT DESSERT FIRST.
 Job cpu time:       0 days  1 hours  4 minutes 38.7 seconds.
 Elapsed time:       0 days  0 hours 12 minutes 56.4 seconds.
 File lengths (MBytes):  RWF=   1224 Int=      0 D2E=      0 Chk=    268 Scr=      1
 Normal termination of Gaussian 16 at Sat Aug 22 17:13:01 2020.
