 Entering Gaussian System, Link 0=g16
 Input=azadicarboxylate_5_conf21123.com
 Output=azadicarboxylate_5_conf21123.log
 Initial command:
 /opt/export//g16/l1.exe "/scratch/bjs4/job.70700/Gau-70702.inp" -scrdir="/scratch/bjs4/job.70700/"
 Entering Link 1 = /opt/export//g16/l1.exe PID=     70703.
  
 Copyright (c) 1988,1990,1992,1993,1995,1998,2003,2009,2016,
            Gaussian, Inc.  All Rights Reserved.
  
 This is part of the Gaussian(R) 16 program.  It is based on
 the Gaussian(R) 09 system (copyright 2009, Gaussian, Inc.),
 the Gaussian(R) 03 system (copyright 2003, Gaussian, Inc.),
 the Gaussian(R) 98 system (copyright 1998, Gaussian, Inc.),
 the Gaussian(R) 94 system (copyright 1995, Gaussian, Inc.),
 the Gaussian 92(TM) system (copyright 1992, Gaussian, Inc.),
 the Gaussian 90(TM) system (copyright 1990, Gaussian, Inc.),
 the Gaussian 88(TM) system (copyright 1988, Gaussian, Inc.),
 the Gaussian 86(TM) system (copyright 1986, Carnegie Mellon
 University), and the Gaussian 82(TM) system (copyright 1983,
 Carnegie Mellon University). Gaussian is a federally registered
 trademark of Gaussian, Inc.
  
 This software contains proprietary and confidential information,
 including trade secrets, belonging to Gaussian, Inc.
  
 This software is provided under written license and may be
 used, copied, transmitted, or stored only in accord with that
 written license.
  
 The following legend is applicable only to US Government
 contracts under FAR:
  
                    RESTRICTED RIGHTS LEGEND
  
 Use, reproduction and disclosure by the US Government is
 subject to restrictions as set forth in subparagraphs (a)
 and (c) of the Commercial Computer Software - Restricted
 Rights clause in FAR 52.227-19.
  
 Gaussian, Inc.
 340 Quinnipiac St., Bldg. 40, Wallingford CT 06492
  
  
 ---------------------------------------------------------------
 Warning -- This program may not be used in any manner that
 competes with the business of Gaussian, Inc. or will provide
 assistance to any competitor of Gaussian, Inc.  The licensee
 of this program is prohibited from giving any competitor of
 Gaussian, Inc. access to this program.  By using this program,
 the user acknowledges that Gaussian, Inc. is engaged in the
 business of creating and licensing software in the field of
 computational chemistry and represents and warrants to the
 licensee that it is not a competitor of Gaussian, Inc. and that
 it will not use this program in any manner prohibited above.
 ---------------------------------------------------------------
  

 Cite this work as:
 Gaussian 16, Revision A.03,
 M. J. Frisch, G. W. Trucks, H. B. Schlegel, G. E. Scuseria, 
 M. A. Robb, J. R. Cheeseman, G. Scalmani, V. Barone, 
 G. A. Petersson, H. Nakatsuji, X. Li, M. Caricato, A. V. Marenich, 
 J. Bloino, B. G. Janesko, R. Gomperts, B. Mennucci, H. P. Hratchian, 
 J. V. Ortiz, A. F. Izmaylov, J. L. Sonnenberg, D. Williams-Young, 
 F. Ding, F. Lipparini, F. Egidi, J. Goings, B. Peng, A. Petrone, 
 T. Henderson, D. Ranasinghe, V. G. Zakrzewski, J. Gao, N. Rega, 
 G. Zheng, W. Liang, M. Hada, M. Ehara, K. Toyota, R. Fukuda, 
 J. Hasegawa, M. Ishida, T. Nakajima, Y. Honda, O. Kitao, H. Nakai, 
 T. Vreven, K. Throssell, J. A. Montgomery, Jr., J. E. Peralta, 
 F. Ogliaro, M. J. Bearpark, J. J. Heyd, E. N. Brothers, K. N. Kudin, 
 V. N. Staroverov, T. A. Keith, R. Kobayashi, J. Normand, 
 K. Raghavachari, A. P. Rendell, J. C. Burant, S. S. Iyengar, 
 J. Tomasi, M. Cossi, J. M. Millam, M. Klene, C. Adamo, R. Cammi, 
 J. W. Ochterski, R. L. Martin, K. Morokuma, O. Farkas, 
 J. B. Foresman, and D. J. Fox, Gaussian, Inc., Wallingford CT, 2016.
 
 ******************************************
 Gaussian 16:  ES64L-G16RevA.03 25-Dec-2016
                22-Aug-2020 
 ******************************************
 %nprocshared=5
 Will use up to    5 processors via shared memory.
 %Mem=10GB
 %Chk=azadicarboxylate_5_conf211.chk
 ---------------------------------
 # opt=CalcAll B3LYP/6-31G* scf=qc
 ---------------------------------
 1/10=4,18=20,19=15,26=3,38=1/1,3;
 2/9=110,12=2,17=6,18=5,40=1/2;
 3/5=1,6=6,7=1,11=2,25=1,30=1,71=2,74=-5,140=1/1,2,3;
 4//1;
 5/5=2,8=3,38=5/8;
 8/6=4,10=90,11=11/1;
 11/6=1,8=1,9=11,15=111,16=1/1,2,10;
 10/6=1/2;
 6/7=2,8=2,9=2,10=2,18=1,28=1/1;
 7/10=1,25=1/1,2,3,16;
 1/10=4,18=20,19=15,26=3/3(3);
 2/9=110/2;
 7/8=1,9=1,25=1,44=-1/16;
 99//99;
 2/9=110/2;
 3/5=1,6=6,7=1,11=2,25=1,30=1,71=2,74=-5,140=1/1,2,3;
 4/5=5,16=3,69=1/1;
 5/5=2,8=3,38=5/8;
 8/6=4,10=90,11=11/1;
 11/6=1,8=1,9=11,15=111,16=1/1,2,10;
 10/6=1/2;
 7/10=1,25=1/1,2,3,16;
 1/10=4,18=20,19=15,26=3/3(-8);
 2/9=110/2;
 6/7=2,8=2,9=2,10=2,18=1,19=2,28=1/1;
 7/8=1,9=1,25=1,44=-1/16;
 99//99;
 -------------------
 Title Card Required
 -------------------
 Symbolic Z-matrix:
 Charge =  0 Multiplicity = 1
 C2                    0.8141    0.1461    0.0473 
 O3                    1.90895  -0.07688  -0.47327 
 N4                    0.2028    1.3863    0.0651 
 N5                   -1.0496    1.3066    0.0658 
 C6                   -1.6625    2.5457    0.0392 
 O7                   -1.17372   3.56858   0.52315 
 N8                   -2.90471   2.5878   -0.59831 
 C                    -3.48033   1.36876  -1.15358 
 C                    -4.94931   1.23003  -0.76043 
 C                    -5.74377   2.48144  -1.12898 
 C                    -5.08732   3.73677  -0.5544 
 C                    -3.60824   3.82755  -0.93071 
 N1                    0.10816  -0.8807    0.68426 
 C                     0.67015  -2.22588   0.73384 
 C                     0.56854  -2.80731   2.14188 
 C                    -0.86389  -2.74177   2.66815 
 C                    -1.42113  -1.32185   2.56637 
 C                    -1.26904  -0.75195   1.15587 
 H                    -2.92997   0.48265  -0.82546 
 H                    -3.38344   1.42757  -2.24479 
 H                    -5.02088   1.06595   0.32208 
 H                    -5.38668   0.3527   -1.25019 
 H                    -6.76928   2.39344  -0.7522 
 H                    -5.80877   2.56638  -2.22043 
 H                    -5.18019   3.718     0.53857 
 H                    -5.61826   4.62732  -0.90891 
 H                    -3.15687   4.69365  -0.43964 
 H                    -3.50501   3.97657  -2.01284 
 H                     1.71535  -2.2346    0.41045 
 H                     0.10421  -2.84347   0.02563 
 H                     1.22388  -2.24142   2.81598 
 H                     0.91991  -3.84501   2.14447 
 H                    -0.89086  -3.07721   3.71136 
 H                    -1.49753  -3.42823   2.09358 
 H                    -0.88527  -0.67791   3.27462 
 H                    -2.47685  -1.31681   2.85974 
 H                    -1.60748   0.28723   1.14092 
 H                    -1.9029   -1.31036   0.4558 
 

 GradGradGradGradGradGradGradGradGradGradGradGradGradGradGradGradGradGrad
 Berny optimization.
 Initialization pass.
                           ----------------------------
                           !    Initial Parameters    !
                           ! (Angstroms and Degrees)  !
 --------------------------                            --------------------------
 ! Name  Definition              Value          Derivative Info.                !
 --------------------------------------------------------------------------------
 ! R1    R(1,2)                  1.2326         calculate D2E/DX2 analytically  !
 ! R2    R(1,3)                  1.3828         calculate D2E/DX2 analytically  !
 ! R3    R(1,13)                 1.3994         calculate D2E/DX2 analytically  !
 ! R4    R(3,4)                  1.2549         calculate D2E/DX2 analytically  !
 ! R5    R(4,5)                  1.3827         calculate D2E/DX2 analytically  !
 ! R6    R(5,6)                  1.2326         calculate D2E/DX2 analytically  !
 ! R7    R(5,7)                  1.3969         calculate D2E/DX2 analytically  !
 ! R8    R(7,8)                  1.458          calculate D2E/DX2 analytically  !
 ! R9    R(7,12)                 1.4637         calculate D2E/DX2 analytically  !
 ! R10   R(8,9)                  1.527          calculate D2E/DX2 analytically  !
 ! R11   R(8,19)                 1.0935         calculate D2E/DX2 analytically  !
 ! R12   R(8,20)                 1.0971         calculate D2E/DX2 analytically  !
 ! R13   R(9,10)                 1.5274         calculate D2E/DX2 analytically  !
 ! R14   R(9,21)                 1.0972         calculate D2E/DX2 analytically  !
 ! R15   R(9,22)                 1.0958         calculate D2E/DX2 analytically  !
 ! R16   R(10,11)                1.5287         calculate D2E/DX2 analytically  !
 ! R17   R(10,23)                1.0961         calculate D2E/DX2 analytically  !
 ! R18   R(10,24)                1.0967         calculate D2E/DX2 analytically  !
 ! R19   R(11,12)                1.5289         calculate D2E/DX2 analytically  !
 ! R20   R(11,25)                1.0971         calculate D2E/DX2 analytically  !
 ! R21   R(11,26)                1.0957         calculate D2E/DX2 analytically  !
 ! R22   R(12,27)                1.0932         calculate D2E/DX2 analytically  !
 ! R23   R(12,28)                1.0972         calculate D2E/DX2 analytically  !
 ! R24   R(13,14)                1.4587         calculate D2E/DX2 analytically  !
 ! R25   R(13,18)                1.4614         calculate D2E/DX2 analytically  !
 ! R26   R(14,15)                1.5267         calculate D2E/DX2 analytically  !
 ! R27   R(14,29)                1.0941         calculate D2E/DX2 analytically  !
 ! R28   R(14,30)                1.0969         calculate D2E/DX2 analytically  !
 ! R29   R(15,16)                1.5275         calculate D2E/DX2 analytically  !
 ! R30   R(15,31)                1.0973         calculate D2E/DX2 analytically  !
 ! R31   R(15,32)                1.0956         calculate D2E/DX2 analytically  !
 ! R32   R(16,17)                1.5287         calculate D2E/DX2 analytically  !
 ! R33   R(16,33)                1.0961         calculate D2E/DX2 analytically  !
 ! R34   R(16,34)                1.0967         calculate D2E/DX2 analytically  !
 ! R35   R(17,18)                1.5289         calculate D2E/DX2 analytically  !
 ! R36   R(17,35)                1.097          calculate D2E/DX2 analytically  !
 ! R37   R(17,36)                1.0957         calculate D2E/DX2 analytically  !
 ! R38   R(18,37)                1.093          calculate D2E/DX2 analytically  !
 ! R39   R(18,38)                1.0971         calculate D2E/DX2 analytically  !
 ! A1    A(2,1,3)              124.0792         calculate D2E/DX2 analytically  !
 ! A2    A(2,1,13)             120.501          calculate D2E/DX2 analytically  !
 ! A3    A(3,1,13)             115.4172         calculate D2E/DX2 analytically  !
 ! A4    A(1,3,4)              112.5961         calculate D2E/DX2 analytically  !
 ! A5    A(3,4,5)              112.6722         calculate D2E/DX2 analytically  !
 ! A6    A(4,5,6)              124.0798         calculate D2E/DX2 analytically  !
 ! A7    A(4,5,7)              115.4667         calculate D2E/DX2 analytically  !
 ! A8    A(6,5,7)              120.4507         calculate D2E/DX2 analytically  !
 ! A9    A(5,7,8)              119.9803         calculate D2E/DX2 analytically  !
 ! A10   A(5,7,12)             123.821          calculate D2E/DX2 analytically  !
 ! A11   A(8,7,12)             115.5902         calculate D2E/DX2 analytically  !
 ! A12   A(7,8,9)              110.9597         calculate D2E/DX2 analytically  !
 ! A13   A(7,8,19)             111.38           calculate D2E/DX2 analytically  !
 ! A14   A(7,8,20)             107.4048         calculate D2E/DX2 analytically  !
 ! A15   A(9,8,19)             109.4692         calculate D2E/DX2 analytically  !
 ! A16   A(9,8,20)             110.2379         calculate D2E/DX2 analytically  !
 ! A17   A(19,8,20)            107.3043         calculate D2E/DX2 analytically  !
 ! A18   A(8,9,10)             111.3345         calculate D2E/DX2 analytically  !
 ! A19   A(8,9,21)             109.2902         calculate D2E/DX2 analytically  !
 ! A20   A(8,9,22)             109.9757         calculate D2E/DX2 analytically  !
 ! A21   A(10,9,21)            109.0654         calculate D2E/DX2 analytically  !
 ! A22   A(10,9,22)            109.9071         calculate D2E/DX2 analytically  !
 ! A23   A(21,9,22)            107.1683         calculate D2E/DX2 analytically  !
 ! A24   A(9,10,11)            111.0228         calculate D2E/DX2 analytically  !
 ! A25   A(9,10,23)            109.7504         calculate D2E/DX2 analytically  !
 ! A26   A(9,10,24)            109.5374         calculate D2E/DX2 analytically  !
 ! A27   A(11,10,23)           109.7853         calculate D2E/DX2 analytically  !
 ! A28   A(11,10,24)           109.6285         calculate D2E/DX2 analytically  !
 ! A29   A(23,10,24)           107.0304         calculate D2E/DX2 analytically  !
 ! A30   A(10,11,12)           111.8188         calculate D2E/DX2 analytically  !
 ! A31   A(10,11,25)           108.9084         calculate D2E/DX2 analytically  !
 ! A32   A(10,11,26)           109.7381         calculate D2E/DX2 analytically  !
 ! A33   A(12,11,25)           109.1548         calculate D2E/DX2 analytically  !
 ! A34   A(12,11,26)           109.9299         calculate D2E/DX2 analytically  !
 ! A35   A(25,11,26)           107.1702         calculate D2E/DX2 analytically  !
 ! A36   A(7,12,11)            111.0267         calculate D2E/DX2 analytically  !
 ! A37   A(7,12,27)            111.7517         calculate D2E/DX2 analytically  !
 ! A38   A(7,12,28)            107.085          calculate D2E/DX2 analytically  !
 ! A39   A(11,12,27)           109.6287         calculate D2E/DX2 analytically  !
 ! A40   A(11,12,28)           109.9885         calculate D2E/DX2 analytically  !
 ! A41   A(27,12,28)           107.2529         calculate D2E/DX2 analytically  !
 ! A42   A(1,13,14)            119.8514         calculate D2E/DX2 analytically  !
 ! A43   A(1,13,18)            123.8921         calculate D2E/DX2 analytically  !
 ! A44   A(14,13,18)           115.6802         calculate D2E/DX2 analytically  !
 ! A45   A(13,14,15)           110.9098         calculate D2E/DX2 analytically  !
 ! A46   A(13,14,29)           111.4288         calculate D2E/DX2 analytically  !
 ! A47   A(13,14,30)           107.3666         calculate D2E/DX2 analytically  !
 ! A48   A(15,14,29)           109.459          calculate D2E/DX2 analytically  !
 ! A49   A(15,14,30)           110.2843         calculate D2E/DX2 analytically  !
 ! A50   A(29,14,30)           107.3102         calculate D2E/DX2 analytically  !
 ! A51   A(14,15,16)           111.3352         calculate D2E/DX2 analytically  !
 ! A52   A(14,15,31)           109.2936         calculate D2E/DX2 analytically  !
 ! A53   A(14,15,32)           109.9711         calculate D2E/DX2 analytically  !
 ! A54   A(16,15,31)           109.0432         calculate D2E/DX2 analytically  !
 ! A55   A(16,15,32)           109.9129         calculate D2E/DX2 analytically  !
 ! A56   A(31,15,32)           107.1856         calculate D2E/DX2 analytically  !
 ! A57   A(15,16,17)           111.0233         calculate D2E/DX2 analytically  !
 ! A58   A(15,16,33)           109.7457         calculate D2E/DX2 analytically  !
 ! A59   A(15,16,34)           109.5389         calculate D2E/DX2 analytically  !
 ! A60   A(17,16,33)           109.7933         calculate D2E/DX2 analytically  !
 ! A61   A(17,16,34)           109.626          calculate D2E/DX2 analytically  !
 ! A62   A(33,16,34)           107.0276         calculate D2E/DX2 analytically  !
 ! A63   A(16,17,18)           111.8013         calculate D2E/DX2 analytically  !
 ! A64   A(16,17,35)           108.9156         calculate D2E/DX2 analytically  !
 ! A65   A(16,17,36)           109.7334         calculate D2E/DX2 analytically  !
 ! A66   A(18,17,35)           109.1616         calculate D2E/DX2 analytically  !
 ! A67   A(18,17,36)           109.9464         calculate D2E/DX2 analytically  !
 ! A68   A(35,17,36)           107.1623         calculate D2E/DX2 analytically  !
 ! A69   A(13,18,17)           111.0164         calculate D2E/DX2 analytically  !
 ! A70   A(13,18,37)           111.7866         calculate D2E/DX2 analytically  !
 ! A71   A(13,18,38)           107.0794         calculate D2E/DX2 analytically  !
 ! A72   A(17,18,37)           109.6467         calculate D2E/DX2 analytically  !
 ! A73   A(17,18,38)           109.9678         calculate D2E/DX2 analytically  !
 ! A74   A(37,18,38)           107.2347         calculate D2E/DX2 analytically  !
 ! D1    D(2,1,3,4)            149.647          calculate D2E/DX2 analytically  !
 ! D2    D(13,1,3,4)           -30.9426         calculate D2E/DX2 analytically  !
 ! D3    D(2,1,13,14)            0.0001         calculate D2E/DX2 analytically  !
 ! D4    D(2,1,13,18)         -170.9097         calculate D2E/DX2 analytically  !
 ! D5    D(3,1,13,14)         -179.4332         calculate D2E/DX2 analytically  !
 ! D6    D(3,1,13,18)            9.657          calculate D2E/DX2 analytically  !
 ! D7    D(1,3,4,5)           -178.0064         calculate D2E/DX2 analytically  !
 ! D8    D(3,4,5,6)            -29.6472         calculate D2E/DX2 analytically  !
 ! D9    D(3,4,5,7)            149.7409         calculate D2E/DX2 analytically  !
 ! D10   D(4,5,7,8)              1.2942         calculate D2E/DX2 analytically  !
 ! D11   D(4,5,7,12)          -169.3589         calculate D2E/DX2 analytically  !
 ! D12   D(6,5,7,8)           -179.2937         calculate D2E/DX2 analytically  !
 ! D13   D(6,5,7,12)            10.0532         calculate D2E/DX2 analytically  !
 ! D14   D(5,7,8,9)            133.4706         calculate D2E/DX2 analytically  !
 ! D15   D(5,7,8,19)            11.2447         calculate D2E/DX2 analytically  !
 ! D16   D(5,7,8,20)          -105.9799         calculate D2E/DX2 analytically  !
 ! D17   D(12,7,8,9)           -55.1333         calculate D2E/DX2 analytically  !
 ! D18   D(12,7,8,19)         -177.3592         calculate D2E/DX2 analytically  !
 ! D19   D(12,7,8,20)           65.4162         calculate D2E/DX2 analytically  !
 ! D20   D(5,7,12,11)         -134.8054         calculate D2E/DX2 analytically  !
 ! D21   D(5,7,12,27)          -12.0639         calculate D2E/DX2 analytically  !
 ! D22   D(5,7,12,28)          105.1105         calculate D2E/DX2 analytically  !
 ! D23   D(8,7,12,11)           54.1683         calculate D2E/DX2 analytically  !
 ! D24   D(8,7,12,27)          176.9097         calculate D2E/DX2 analytically  !
 ! D25   D(8,7,12,28)          -65.9158         calculate D2E/DX2 analytically  !
 ! D26   D(7,8,9,10)            53.4576         calculate D2E/DX2 analytically  !
 ! D27   D(7,8,9,21)           -67.0892         calculate D2E/DX2 analytically  !
 ! D28   D(7,8,9,22)           175.5249         calculate D2E/DX2 analytically  !
 ! D29   D(19,8,9,10)          176.7886         calculate D2E/DX2 analytically  !
 ! D30   D(19,8,9,21)           56.2418         calculate D2E/DX2 analytically  !
 ! D31   D(19,8,9,22)          -61.144          calculate D2E/DX2 analytically  !
 ! D32   D(20,8,9,10)          -65.399          calculate D2E/DX2 analytically  !
 ! D33   D(20,8,9,21)          174.0543         calculate D2E/DX2 analytically  !
 ! D34   D(20,8,9,22)           56.6684         calculate D2E/DX2 analytically  !
 ! D35   D(8,9,10,11)          -53.1493         calculate D2E/DX2 analytically  !
 ! D36   D(8,9,10,23)         -174.7025         calculate D2E/DX2 analytically  !
 ! D37   D(8,9,10,24)           68.0648         calculate D2E/DX2 analytically  !
 ! D38   D(21,9,10,11)          67.5296         calculate D2E/DX2 analytically  !
 ! D39   D(21,9,10,23)         -54.0236         calculate D2E/DX2 analytically  !
 ! D40   D(21,9,10,24)        -171.2563         calculate D2E/DX2 analytically  !
 ! D41   D(22,9,10,11)        -175.2565         calculate D2E/DX2 analytically  !
 ! D42   D(22,9,10,23)          63.1904         calculate D2E/DX2 analytically  !
 ! D43   D(22,9,10,24)         -54.0423         calculate D2E/DX2 analytically  !
 ! D44   D(9,10,11,12)          52.4211         calculate D2E/DX2 analytically  !
 ! D45   D(9,10,11,25)         -68.292          calculate D2E/DX2 analytically  !
 ! D46   D(9,10,11,26)         174.6795         calculate D2E/DX2 analytically  !
 ! D47   D(23,10,11,12)        173.9537         calculate D2E/DX2 analytically  !
 ! D48   D(23,10,11,25)         53.2407         calculate D2E/DX2 analytically  !
 ! D49   D(23,10,11,26)        -63.7878         calculate D2E/DX2 analytically  !
 ! D50   D(24,10,11,12)        -68.7396         calculate D2E/DX2 analytically  !
 ! D51   D(24,10,11,25)        170.5474         calculate D2E/DX2 analytically  !
 ! D52   D(24,10,11,26)         53.5189         calculate D2E/DX2 analytically  !
 ! D53   D(10,11,12,7)         -51.6946         calculate D2E/DX2 analytically  !
 ! D54   D(10,11,12,27)       -175.6544         calculate D2E/DX2 analytically  !
 ! D55   D(10,11,12,28)         66.6482         calculate D2E/DX2 analytically  !
 ! D56   D(25,11,12,7)          68.875          calculate D2E/DX2 analytically  !
 ! D57   D(25,11,12,27)        -55.0849         calculate D2E/DX2 analytically  !
 ! D58   D(25,11,12,28)       -172.7823         calculate D2E/DX2 analytically  !
 ! D59   D(26,11,12,7)        -173.8432         calculate D2E/DX2 analytically  !
 ! D60   D(26,11,12,27)         62.197          calculate D2E/DX2 analytically  !
 ! D61   D(26,11,12,28)        -55.5004         calculate D2E/DX2 analytically  !
 ! D62   D(1,13,14,15)         133.2485         calculate D2E/DX2 analytically  !
 ! D63   D(1,13,14,29)          11.0368         calculate D2E/DX2 analytically  !
 ! D64   D(1,13,14,30)        -106.1988         calculate D2E/DX2 analytically  !
 ! D65   D(18,13,14,15)        -55.1188         calculate D2E/DX2 analytically  !
 ! D66   D(18,13,14,29)       -177.3305         calculate D2E/DX2 analytically  !
 ! D67   D(18,13,14,30)         65.4339         calculate D2E/DX2 analytically  !
 ! D68   D(1,13,18,17)        -134.5528         calculate D2E/DX2 analytically  !
 ! D69   D(1,13,18,37)         -11.7705         calculate D2E/DX2 analytically  !
 ! D70   D(1,13,18,38)         105.3978         calculate D2E/DX2 analytically  !
 ! D71   D(14,13,18,17)         54.1927         calculate D2E/DX2 analytically  !
 ! D72   D(14,13,18,37)        176.9749         calculate D2E/DX2 analytically  !
 ! D73   D(14,13,18,38)        -65.8568         calculate D2E/DX2 analytically  !
 ! D74   D(13,14,15,16)         53.3822         calculate D2E/DX2 analytically  !
 ! D75   D(13,14,15,31)        -67.1396         calculate D2E/DX2 analytically  !
 ! D76   D(13,14,15,32)        175.4543         calculate D2E/DX2 analytically  !
 ! D77   D(29,14,15,16)        176.7342         calculate D2E/DX2 analytically  !
 ! D78   D(29,14,15,31)         56.2124         calculate D2E/DX2 analytically  !
 ! D79   D(29,14,15,32)        -61.1937         calculate D2E/DX2 analytically  !
 ! D80   D(30,14,15,16)        -65.4249         calculate D2E/DX2 analytically  !
 ! D81   D(30,14,15,31)        174.0534         calculate D2E/DX2 analytically  !
 ! D82   D(30,14,15,32)         56.6473         calculate D2E/DX2 analytically  !
 ! D83   D(14,15,16,17)        -53.1544         calculate D2E/DX2 analytically  !
 ! D84   D(14,15,16,33)       -174.7148         calculate D2E/DX2 analytically  !
 ! D85   D(14,15,16,34)         68.0579         calculate D2E/DX2 analytically  !
 ! D86   D(31,15,16,17)         67.5145         calculate D2E/DX2 analytically  !
 ! D87   D(31,15,16,33)        -54.0458         calculate D2E/DX2 analytically  !
 ! D88   D(31,15,16,34)       -171.2732         calculate D2E/DX2 analytically  !
 ! D89   D(32,15,16,17)       -175.2602         calculate D2E/DX2 analytically  !
 ! D90   D(32,15,16,33)         63.1794         calculate D2E/DX2 analytically  !
 ! D91   D(32,15,16,34)        -54.0479         calculate D2E/DX2 analytically  !
 ! D92   D(15,16,17,18)         52.4333         calculate D2E/DX2 analytically  !
 ! D93   D(15,16,17,35)        -68.2819         calculate D2E/DX2 analytically  !
 ! D94   D(15,16,17,36)        174.6976         calculate D2E/DX2 analytically  !
 ! D95   D(33,16,17,18)        173.9657         calculate D2E/DX2 analytically  !
 ! D96   D(33,16,17,35)         53.2505         calculate D2E/DX2 analytically  !
 ! D97   D(33,16,17,36)        -63.7699         calculate D2E/DX2 analytically  !
 ! D98   D(34,16,17,18)        -68.7278         calculate D2E/DX2 analytically  !
 ! D99   D(34,16,17,35)        170.5569         calculate D2E/DX2 analytically  !
 ! D100  D(34,16,17,36)         53.5365         calculate D2E/DX2 analytically  !
 ! D101  D(16,17,18,13)        -51.7105         calculate D2E/DX2 analytically  !
 ! D102  D(16,17,18,37)       -175.7204         calculate D2E/DX2 analytically  !
 ! D103  D(16,17,18,38)         66.6059         calculate D2E/DX2 analytically  !
 ! D104  D(35,17,18,13)         68.8614         calculate D2E/DX2 analytically  !
 ! D105  D(35,17,18,37)        -55.1485         calculate D2E/DX2 analytically  !
 ! D106  D(35,17,18,38)       -172.8222         calculate D2E/DX2 analytically  !
 ! D107  D(36,17,18,13)       -173.8528         calculate D2E/DX2 analytically  !
 ! D108  D(36,17,18,37)         62.1373         calculate D2E/DX2 analytically  !
 ! D109  D(36,17,18,38)        -55.5364         calculate D2E/DX2 analytically  !
 --------------------------------------------------------------------------------
 Trust Radius=3.00D-01 FncErr=1.00D-07 GrdErr=1.00D-06 EigMax=2.50D+02 EigMin=1.00D-04
 Number of steps in this run=    228 maximum allowed number of steps=    228.
 GradGradGradGradGradGradGradGradGradGradGradGradGradGradGradGradGradGrad

                          Input orientation:                          
 ---------------------------------------------------------------------
 Center     Atomic      Atomic             Coordinates (Angstroms)
 Number     Number       Type             X           Y           Z
 ---------------------------------------------------------------------
      1          6           0        0.814100    0.146100    0.047300
      2          8           0        1.908950   -0.076880   -0.473270
      3          7           0        0.202800    1.386300    0.065100
      4          7           0       -1.049600    1.306600    0.065800
      5          6           0       -1.662500    2.545700    0.039200
      6          8           0       -1.173720    3.568580    0.523150
      7          7           0       -2.904710    2.587800   -0.598310
      8          6           0       -3.480330    1.368760   -1.153580
      9          6           0       -4.949310    1.230030   -0.760430
     10          6           0       -5.743770    2.481440   -1.128980
     11          6           0       -5.087320    3.736770   -0.554400
     12          6           0       -3.608240    3.827550   -0.930710
     13          7           0        0.108160   -0.880700    0.684260
     14          6           0        0.670150   -2.225880    0.733840
     15          6           0        0.568540   -2.807310    2.141880
     16          6           0       -0.863890   -2.741770    2.668150
     17          6           0       -1.421130   -1.321850    2.566370
     18          6           0       -1.269040   -0.751950    1.155870
     19          1           0       -2.929970    0.482650   -0.825460
     20          1           0       -3.383440    1.427570   -2.244790
     21          1           0       -5.020880    1.065950    0.322080
     22          1           0       -5.386680    0.352700   -1.250190
     23          1           0       -6.769280    2.393440   -0.752200
     24          1           0       -5.808770    2.566380   -2.220430
     25          1           0       -5.180190    3.718000    0.538570
     26          1           0       -5.618260    4.627320   -0.908910
     27          1           0       -3.156870    4.693650   -0.439640
     28          1           0       -3.505010    3.976570   -2.012840
     29          1           0        1.715350   -2.234600    0.410450
     30          1           0        0.104210   -2.843470    0.025630
     31          1           0        1.223880   -2.241420    2.815980
     32          1           0        0.919910   -3.845010    2.144470
     33          1           0       -0.890860   -3.077210    3.711360
     34          1           0       -1.497530   -3.428230    2.093580
     35          1           0       -0.885270   -0.677910    3.274620
     36          1           0       -2.476850   -1.316810    2.859740
     37          1           0       -1.607480    0.287230    1.140920
     38          1           0       -1.902900   -1.310360    0.455800
 ---------------------------------------------------------------------
                    Distance matrix (angstroms):
                    1          2          3          4          5
     1  C    0.000000
     2  O    1.232643   0.000000
     3  N    1.382787   2.311209   0.000000
     4  N    2.195559   3.310231   1.254934   0.000000
     5  C    3.448433   4.460472   2.196411   1.382651   0.000000
     6  O    3.986381   4.876996   2.620489   2.311088   1.232638
     7  N    4.495360   5.503406   3.397107   2.350308   1.396881
     8  C    4.623758   5.621124   3.879553   2.720147   2.472330
     9  C    5.919816   6.987575   5.220168   3.987011   3.629534
    10  C    7.059965   8.095621   6.163348   4.984273   4.245649
    11  C    6.934098   7.968582   5.821843   4.753268   3.674289
    12  C    5.836666   6.774453   4.634152   3.727581   2.523840
    13  N    1.399424   2.286667   2.351936   2.550918   3.910442
    14  C    2.473529   2.758612   3.703171   3.985252   5.356469
    15  C    3.629076   4.011353   4.693948   4.883927   6.168753
    16  C    4.245503   4.965763   4.995464   4.816224   5.958733
    17  C    3.673805   4.677477   4.028347   3.646866   4.626315
    18  C    2.524855   3.634479   2.815707   2.339665   3.503749
    19  H    3.859150   4.883877   3.379930   2.238086   2.571049
    20  H    4.951281   5.780229   4.265960   3.286376   3.070580
    21  H    5.913427   7.068323   5.239799   3.986810   3.680815
    22  H    6.338441   7.349446   5.834433   4.631632   4.510132
    23  H    7.949679   9.027290   7.091700   5.879208   5.169981
    24  H    7.406940   8.342817   6.538747   5.428038   4.722066
    25  H    6.995093   8.104372   5.885370   4.806260   3.741363
    26  H    7.897527   8.886966   6.733324   5.731483   4.569474
    27  H    6.056891   6.958564   4.741383   4.020966   2.660097
    28  H    6.129550   6.936259   4.977468   4.180732   3.106944
    29  H    2.571354   2.339700   3.939288   4.505977   5.865063
    30  H    3.072774   3.340660   4.231103   4.307664   5.671384
    31  H    3.678826   3.996714   4.665865   5.031963   6.241652
    32  H    4.509798   4.693567   5.674912   5.893974   7.207092
    33  H    5.169328   5.861062   5.866364   5.703779   6.759978
    34  H    4.723000   5.424424   5.494138   5.170217   6.319457
    35  H    3.739311   4.713341   3.968108   3.776481   4.632892
    36  H    4.569494   5.646381   4.722006   4.089673   4.851556
    37  H    2.660822   3.886318   2.375386   1.583107   2.513464
    38  H    3.109700   4.112766   3.443631   2.780054   3.885942
                    6          7          8          9         10
     6  O    0.000000
     7  N    2.283841   0.000000
     8  C    3.601539   1.457985   0.000000
     9  C    4.622929   2.459718   1.526995   0.000000
    10  C    4.979635   2.890188   2.522265   1.527424   0.000000
    11  C    4.062717   2.466951   2.923851   2.518976   1.528700
    12  C    2.847396   1.463702   2.472181   2.928237   2.532156
    13  N    4.633062   4.769996   4.616816   5.667479   6.988341
    14  C    6.084407   6.142130   5.806055   6.764206   8.171128
    15  C    6.804978   6.977057   6.685280   7.427664   8.860850
    16  C    6.672146   6.575639   6.192563   6.649888   8.094032
    17  C    5.305871   5.244194   5.031671   5.479758   6.841480
    18  C    4.367654   4.111751   3.836766   4.598352   5.974827
    19  H    3.798174   2.117520   1.093503   2.154191   3.464788
    20  H    4.138632   2.070317   1.097080   2.166632   2.815463
    21  H    4.593934   2.764294   2.154660   1.097211   2.152152
    22  H    5.588886   3.403057   2.162379   1.095840   2.161883
    23  H    5.858137   3.872513   3.468179   2.160065   1.096074
    24  H    5.478624   3.326454   2.827383   2.157800   1.096678
    25  H    4.009285   2.783461   3.357354   2.816150   2.151145
    26  H    4.788075   3.408734   3.904974   3.465706   2.160783
    27  H    2.475001   2.126820   3.416025   3.913108   3.472912
    28  H    3.468806   2.071216   2.745835   3.346344   2.833491
    29  H    6.483543   6.754117   6.513485   7.602126   8.958200
    30  H    6.557059   6.240320   5.655294   6.538299   7.992913
    31  H    6.690415   7.212766   7.135853   7.934100   9.296035
    32  H    7.872311   7.970672   7.577773   8.285060   9.754182
    33  H    7.376396   7.397377   7.080935   7.417563   8.824864
    34  H    7.178193   6.739365   6.122635   6.462163   7.958621
    35  H    5.068182   5.453676   5.525590   6.036413   7.278613
    36  H    5.569994   5.233274   4.932139   5.070018   6.403855
    37  H    3.367053   3.162333   3.153094   3.958766   5.203451
    38  H    4.933588   4.160580   3.500868   4.148905   5.625083
                   11         12         13         14         15
    11  C    0.000000
    12  C    1.528898   0.000000
    13  N    7.060334   6.211874   0.000000
    14  C    8.388159   7.597326   1.458698   0.000000
    15  C    9.060003   8.420669   2.459356   1.526749   0.000000
    16  C    8.378166   7.977419   2.888647   2.522098   1.527453
    17  C    6.983537   6.597677   2.464889   2.923848   2.519041
    18  C    6.136195   5.549549   1.461394   2.472051   2.928040
    19  H    3.913685   3.414599   3.656257   4.767433   5.645221
    20  H    3.330620   2.745404   5.108690   6.217035   7.266032
    21  H    2.811745   3.345365   5.497970   6.587375   7.039562
    22  H    3.467805   3.916567   5.954548   6.875365   7.546950
    23  H    2.161631   3.475732   7.751296   8.882092   9.448127
    24  H    2.160083   2.845393   7.438390   8.583115   9.411502
    25  H    1.097069   2.154486   7.009701   8.342321   8.842973
    26  H    1.095744   2.163397   8.103602   9.445056  10.141870
    27  H    2.157644   1.093167   6.557206   7.993937   8.763979
    28  H    2.165238   1.097210   6.627399   7.965337   8.937367
    29  H    9.102995   8.178569   2.119216   1.094121   2.154303
    30  H    8.401665   7.694113   2.070332   1.096935   2.166893
    31  H    9.323597   8.615072   2.764167   2.154568   1.097321
    32  H   10.042614   9.424917   3.402688   2.161906   1.095577
    33  H    9.068479   8.752638   3.871180   3.468017   2.160084
    34  H    8.440119   8.139273   3.324806   2.827256   2.157897
    35  H    7.197779   6.737844   2.781725   3.357247   2.816204
    36  H    6.633971   6.489375   3.406638   3.905057   3.465734
    37  H    5.184855   4.563831   2.125093   3.415997   3.913204
    38  H    6.052649   5.588266   2.069097   2.745190   3.345406
                   16         17         18         19         20
    16  C    0.000000
    17  C    1.528741   0.000000
    18  C    2.531901   1.528865   0.000000
    19  H    5.183713   4.127630   2.865064   0.000000
    20  H    6.918707   5.878540   4.559110   1.764371   0.000000
    21  H    6.106009   4.867918   4.251620   2.455400   3.066072
    22  H    6.736821   5.752898   4.895338   2.496539   2.481440
    23  H    8.540656   7.308830   6.617163   4.289148   3.824218
    24  H    8.747943   7.568565   6.558953   3.817769   2.679498
    25  H    8.055693   6.606254   5.971483   4.170319   4.027589
    26  H    9.471160   8.067595   7.219112   4.940866   4.125215
    27  H    8.378639   6.945152   5.980310   4.234721   3.738607
    28  H    8.603678   7.306502   6.115487   3.734705   2.562417
    29  H    3.465099   3.913900   3.414745   5.521768   6.816117
    30  H    2.816109   3.331268   2.745490   4.581886   5.963245
    31  H    2.151973   2.811404   3.345017   6.159149   7.765325
    32  H    2.161787   3.467680   3.916102   6.509278   8.098427
    33  H    1.096145   2.161823   3.475685   6.116642   7.872847
    34  H    1.096749   2.160140   2.844993   5.086026   6.779152
    35  H    2.151228   1.097006   2.154498   4.726347   6.413875
    36  H    2.160754   1.095735   2.163572   4.126024   5.865983
    37  H    3.472780   2.157724   1.093005   2.377776   3.989667
    38  H    2.832485   2.164888   1.097132   2.431334   4.120855
                   21         22         23         24         25
    21  H    0.000000
    22  H    1.764814   0.000000
    23  H    2.444015   2.514796   0.000000
    24  H    3.055555   2.453549   1.763005   0.000000
    25  H    2.665636   3.816745   2.438392   3.055065   0.000000
    26  H    3.815174   4.294471   2.517861   2.450276   1.764643
    27  H    4.149091   4.947008   4.293969   3.837846   2.450023
    28  H    4.027583   4.153884   3.840699   2.709066   3.063132
    29  H    7.501882   7.738907   9.734447   9.305016   9.110342
    30  H    6.452751   6.480208   8.676123   8.323136   8.440431
    31  H    7.493681   8.183074   9.904769   9.896390   9.039546
    32  H    7.920329   8.301660  10.316618  10.268077   9.848312
    33  H    6.760921   7.522876   9.187339   9.551025   8.639434
    34  H    5.979119   6.371948   8.353541   8.551773   8.188324
    35  H    5.372319   6.465196   7.763378   8.059891   6.727283
    36  H    4.311537   5.305271   6.725847   7.210339   6.168078
    37  H    3.595581   4.472588   5.887631   5.843290   4.989716
    38  H    3.922567   4.220532   6.233703   6.119407   6.002656
                   26         27         28         29         30
    26  H    0.000000
    27  H    2.506602   0.000000
    28  H    2.471429   1.763622   0.000000
    29  H   10.129585   8.512451   8.467770   0.000000
    30  H    9.456888   8.225527   7.980901   1.764818   0.000000
    31  H   10.386013   8.825261   9.183861   2.455232   3.066297
    32  H   11.128844   9.808490   9.901528   2.496592   2.481518
    33  H   10.151600   9.096805   9.452833   4.289327   3.824840
    34  H    9.533480   8.668076   8.701938   3.818413   2.680286
    35  H    8.249156   6.914445   7.515614   4.170129   4.027984
    36  H    7.707390   6.890135   7.267670   4.941245   4.126105
    37  H    6.254961   4.931056   5.211339   4.234904   3.738320
    38  H    7.135992   6.198580   6.050832   3.734703   2.562023
                   31         32         33         34         35
    31  H    0.000000
    32  H    1.764886   0.000000
    33  H    2.443844   2.514667   0.000000
    34  H    3.055561   2.453632   1.763087   0.000000
    35  H    2.665226   3.816600   2.438732   3.055156   0.000000
    36  H    3.814737   4.294343   2.517862   2.450339   1.764496
    37  H    4.149277   4.946738   4.294201   3.837225   2.450665
    38  H    4.026671   4.152627   3.839877   2.707771   3.062892
                   36         37         38
    36  H    0.000000
    37  H    2.506609   0.000000
    38  H    2.471515   1.763223   0.000000
 Stoichiometry    C12H20N4O2
 Framework group  C1[X(C12H20N4O2)]
 Deg. of freedom   108
 Full point group                 C1      NOp   1
 Largest Abelian subgroup         C1      NOp   1
 Largest concise Abelian subgroup C1      NOp   1
                         Standard orientation:                         
 ---------------------------------------------------------------------
 Center     Atomic      Atomic             Coordinates (Angstroms)
 Number     Number       Type             X           Y           Z
 ---------------------------------------------------------------------
      1          6           0        1.956677    1.602982   -0.420460
      2          8           0        2.670864    2.447054   -0.965336
      3          7           0        0.715767    1.874210    0.126055
      4          7           0       -0.061939    0.891010    0.068178
      5          6           0       -1.317171    1.173853    0.574256
      6          8           0       -1.533017    1.997286    1.465752
      7          7           0       -2.371959    0.463768   -0.004087
      8          6           0       -2.103363   -0.518939   -1.047094
      9          6           0       -2.861145   -1.817857   -0.781964
     10          6           0       -4.353185   -1.559744   -0.581428
     11          6           0       -4.586590   -0.501030    0.496333
     12          6           0       -3.784293    0.771974    0.225579
     13          7           0        2.384491    0.275156   -0.309823
     14          6           0        3.685041   -0.115428   -0.842564
     15          6           0        4.455700   -0.962041    0.167531
     16          6           0        3.625759   -2.153203    0.642338
     17          6           0        2.261249   -1.699047    1.160897
     18          6           0        1.531160   -0.820785    0.144504
     19          1           0       -1.033779   -0.731172   -1.128936
     20          1           0       -2.423054   -0.080962   -2.000802
     21          1           0       -2.456040   -2.296531    0.118388
     22          1           0       -2.711617   -2.515040   -1.614097
     23          1           0       -4.855923   -2.492317   -0.300463
     24          1           0       -4.798199   -1.227214   -1.526991
     25          1           0       -4.290808   -0.912858    1.469200
     26          1           0       -5.654607   -0.263660    0.556752
     27          1           0       -3.916497    1.472580    1.054245
     28          1           0       -4.158041    1.265284   -0.680416
     29          1           0        4.283244    0.758475   -1.117421
     30          1           0        3.504238   -0.688859   -1.760036
     31          1           0        4.720167   -0.342040    1.033423
     32          1           0        5.393148   -1.313931   -0.277053
     33          1           0        4.164221   -2.687973    1.433296
     34          1           0        3.488809   -2.858463   -0.186342
     35          1           0        2.404227   -1.132522    2.089353
     36          1           0        1.649083   -2.573887    1.406952
     37          1           0        0.597400   -0.454611    0.578865
     38          1           0        1.267702   -1.412439   -0.741065
 ---------------------------------------------------------------------
 Rotational constants (GHZ):           0.7663536           0.2241859           0.1925633
 Standard basis: 6-31G(d) (6D, 7F)
 There are   310 symmetry adapted cartesian basis functions of A   symmetry.
 There are   310 symmetry adapted basis functions of A   symmetry.
   310 basis functions,   584 primitive gaussians,   310 cartesian basis functions
    68 alpha electrons       68 beta electrons
       nuclear repulsion energy      1395.5708276003 Hartrees.
 NAtoms=   38 NActive=   38 NUniq=   38 SFac= 1.00D+00 NAtFMM=   60 NAOKFM=F Big=F
 Integral buffers will be    131072 words long.
 Raffenetti 2 integral format.
 Two-electron integral symmetry is turned on.
 One-electron integrals computed using PRISM.
 NBasis=   310 RedAO= T EigKep=  1.94D-03  NBF=   310
 NBsUse=   310 1.00D-06 EigRej= -1.00D+00 NBFU=   310
 ExpMin= 1.61D-01 ExpMax= 5.48D+03 ExpMxC= 8.25D+02 IAcc=3 IRadAn=         5 AccDes= 0.00D+00
 Harris functional with IExCor=  402 and IRadAn=       5 diagonalized for initial guess.
 HarFok:  IExCor=  402 AccDes= 0.00D+00 IRadAn=         5 IDoV= 1 UseB2=F ITyADJ=14
 ICtDFT=  3500011 ScaDFX=  1.000000  1.000000  1.000000  1.000000
 FoFCou: FMM=F IPFlag=           0 FMFlag=      100000 FMFlg1=           0
         NFxFlg=           0 DoJE=T BraDBF=F KetDBF=T FulRan=T
         wScrn=  0.000000 ICntrl=       500 IOpCl=  0 I1Cent=   200000004 NGrid=           0
         NMat0=    1 NMatS0=      1 NMatT0=    0 NMatD0=    1 NMtDS0=    0 NMtDT0=    0
 Petite list used in FoFCou.
 Gradient too large for Newton-Raphson -- use scaled steepest descent instead.
     Minimum is close to point  2 DX=  3.32D-02 DF= -4.58D-03 DXR=  9.97D-02 DFR=  1.00D-02 which will be used.
 Gradient too large for Newton-Raphson -- use scaled steepest descent instead.
     Accept linear search using points  2 and  3.
 Gradient too large for Newton-Raphson -- use scaled steepest descent instead.
 Gradient too large for Newton-Raphson -- use scaled steepest descent instead.
     Accept linear search using points  1 and  2.
 Gradient too large for Newton-Raphson -- use scaled steepest descent instead.
     Minimum is close to point  3 DX=  1.48D-02 DF= -3.14D-07 DXR=  1.62D-02 DFR=  2.62D-04 which will be used.
 Gradient too large for Newton-Raphson -- use scaled steepest descent instead.
     Accept linear search using points  1 and  2.
 LinEq1:  Iter=  0 NonCon=     1 RMS=4.19D-05 Max=2.77D-03 NDo=     1
 AX will form     1 AO Fock derivatives at one time.
 LinEq1:  Iter=  1 NonCon=     1 RMS=1.26D-05 Max=3.56D-04 NDo=     1
 LinEq1:  Iter=  2 NonCon=     1 RMS=1.31D-05 Max=6.86D-04 NDo=     1
 LinEq1:  Iter=  3 NonCon=     1 RMS=1.01D-05 Max=5.40D-04 NDo=     1
 LinEq1:  Iter=  4 NonCon=     1 RMS=8.72D-06 Max=2.94D-04 NDo=     1
 LinEq1:  Iter=  5 NonCon=     1 RMS=3.01D-06 Max=1.99D-04 NDo=     1
 LinEq1:  Iter=  6 NonCon=     1 RMS=2.97D-06 Max=1.55D-04 NDo=     1
 LinEq1:  Iter=  7 NonCon=     1 RMS=2.59D-06 Max=1.43D-04 NDo=     1
 LinEq1:  Iter=  8 NonCon=     1 RMS=1.59D-06 Max=7.40D-05 NDo=     1
 LinEq1:  Iter=  9 NonCon=     1 RMS=7.90D-07 Max=2.53D-05 NDo=     1
 LinEq1:  Iter= 10 NonCon=     1 RMS=6.10D-07 Max=1.77D-05 NDo=     1
 LinEq1:  Iter= 11 NonCon=     1 RMS=4.95D-07 Max=1.59D-05 NDo=     1
 LinEq1:  Iter= 12 NonCon=     1 RMS=2.59D-07 Max=7.55D-06 NDo=     1
 LinEq1:  Iter= 13 NonCon=     1 RMS=1.80D-07 Max=8.21D-06 NDo=     1
 LinEq1:  Iter= 14 NonCon=     1 RMS=6.16D-08 Max=1.68D-06 NDo=     1
 LinEq1:  Iter= 15 NonCon=     1 RMS=3.04D-08 Max=1.06D-06 NDo=     1
 LinEq1:  Iter= 16 NonCon=     1 RMS=1.37D-08 Max=4.16D-07 NDo=     1
 LinEq1:  Iter= 17 NonCon=     0 RMS=4.84D-09 Max=1.13D-07 NDo=     1
 Linear equations converged to 1.814D-08 1.814D-07 after    17 iterations.
     Accept linear search using points  1 and  2.
     Minimum is close to point  2 DX= -5.74D-04 DF= -8.07D-12 DXR=  5.74D-04 DFR=  3.28D-07 which will be used.
 LinEq1:  Iter=  0 NonCon=     1 RMS=1.88D-07 Max=9.22D-06 NDo=     1
 LinEq1:  Iter=  1 NonCon=     1 RMS=1.50D-07 Max=1.12D-05 NDo=     1
 LinEq1:  Iter=  2 NonCon=     1 RMS=1.68D-07 Max=1.27D-05 NDo=     1
 LinEq1:  Iter=  3 NonCon=     1 RMS=7.17D-08 Max=1.69D-06 NDo=     1
 LinEq1:  Iter=  4 NonCon=     1 RMS=4.87D-08 Max=1.78D-06 NDo=     1
 LinEq1:  Iter=  5 NonCon=     1 RMS=4.13D-08 Max=1.87D-06 NDo=     1
 LinEq1:  Iter=  6 NonCon=     1 RMS=2.95D-08 Max=1.57D-06 NDo=     1
 LinEq1:  Iter=  7 NonCon=     1 RMS=1.75D-08 Max=8.51D-07 NDo=     1
 LinEq1:  Iter=  8 NonCon=     1 RMS=1.92D-08 Max=9.78D-07 NDo=     1
 LinEq1:  Iter=  9 NonCon=     1 RMS=1.18D-08 Max=5.46D-07 NDo=     1
 LinEq1:  Iter= 10 NonCon=     1 RMS=4.83D-09 Max=1.19D-07 NDo=     1
 LinEq1:  Iter= 11 NonCon=     1 RMS=2.53D-09 Max=7.76D-08 NDo=     1
 LinEq1:  Iter= 12 NonCon=     1 RMS=1.23D-09 Max=3.15D-08 NDo=     1
 LinEq1:  Iter= 13 NonCon=     1 RMS=7.27D-10 Max=2.27D-08 NDo=     1
 LinEq1:  Iter= 14 NonCon=     1 RMS=3.42D-10 Max=9.09D-09 NDo=     1
 LinEq1:  Iter= 15 NonCon=     1 RMS=1.26D-10 Max=3.63D-09 NDo=     1
 LinEq1:  Iter= 16 NonCon=     0 RMS=5.46D-11 Max=1.51D-09 NDo=     1
 Linear equations converged to 1.851D-10 1.851D-09 after    16 iterations.
 SCF Done:  E(RB3LYP) =  -838.698685196     a.u. after    9 cycles
            Convg  =    0.1709D-09                    51 Fock formations.
              S**2 =  0.0000                  -V/T =  2.0089
 DoSCS=F DFT=T ScalE2(SS,OS)=  1.000000  1.000000
 Range of M.O.s used for correlation:     1   310
 NBasis=   310 NAE=    68 NBE=    68 NFC=     0 NFV=     0
 NROrb=    310 NOA=    68 NOB=    68 NVA=   242 NVB=   242
 Symmetrizing basis deriv contribution to polar:
 IMax=3 JMax=2 DiffMx= 0.00D+00
 G2DrvN: will do    39 centers at a time, making    1 passes.
 Calling FoFCou, ICntrl=  3107 FMM=F I1Cent=   0 AccDes= 0.00D+00.
 End of G2Drv F.D. properties file   721 does not exist.
 End of G2Drv F.D. properties file   722 does not exist.
 End of G2Drv F.D. properties file   788 does not exist.
          IDoAtm=11111111111111111111111111111111111111
          Differentiating once with respect to electric field.
                with respect to dipole field.
          Differentiating once with respect to nuclear coordinates.
 Keep R1 ints in memory in canonical form, NReq=1176942812.
          There are   117 degrees of freedom in the 1st order CPHF.  IDoFFX=6 NUNeed=     3.
    114 vectors produced by pass  0 Test12= 1.65D-14 1.00D-09 XBig12= 1.72D+02 5.14D+00.
 AX will form   114 AO Fock derivatives at one time.
    114 vectors produced by pass  1 Test12= 1.65D-14 1.00D-09 XBig12= 2.95D+01 1.12D+00.
    114 vectors produced by pass  2 Test12= 1.65D-14 1.00D-09 XBig12= 4.06D-01 1.14D-01.
    114 vectors produced by pass  3 Test12= 1.65D-14 1.00D-09 XBig12= 2.11D-03 4.70D-03.
    114 vectors produced by pass  4 Test12= 1.65D-14 1.00D-09 XBig12= 2.83D-06 1.29D-04.
     68 vectors produced by pass  5 Test12= 1.65D-14 1.00D-09 XBig12= 2.13D-09 3.60D-06.
     12 vectors produced by pass  6 Test12= 1.65D-14 1.00D-09 XBig12= 1.52D-12 1.21D-07.
      3 vectors produced by pass  7 Test12= 1.65D-14 1.00D-09 XBig12= 1.01D-15 2.54D-09.
 InvSVY:  IOpt=1 It=  1 EMax= 7.11D-15
 Solved reduced A of dimension   653 with   117 vectors.
 Isotropic polarizability for W=    0.000000      164.82 Bohr**3.
 End of Minotr F.D. properties file   721 does not exist.
 End of Minotr F.D. properties file   722 does not exist.
 End of Minotr F.D. properties file   788 does not exist.

 **********************************************************************

            Population analysis using the SCF density.

 **********************************************************************

 Orbital symmetries:
       Occupied  (A) (A) (A) (A) (A) (A) (A) (A) (A) (A) (A) (A)
                 (A) (A) (A) (A) (A) (A) (A) (A) (A) (A) (A) (A)
                 (A) (A) (A) (A) (A) (A) (A) (A) (A) (A) (A) (A)
                 (A) (A) (A) (A) (A) (A) (A) (A) (A) (A) (A) (A)
                 (A) (A) (A) (A) (A) (A) (A) (A) (A) (A) (A) (A)
                 (A) (A) (A) (A) (A) (A) (A) (A)
       Virtual   (A) (A) (A) (A) (A) (A) (A) (A) (A) (A) (A) (A)
                 (A) (A) (A) (A) (A) (A) (A) (A) (A) (A) (A) (A)
                 (A) (A) (A) (A) (A) (A) (A) (A) (A) (A) (A) (A)
                 (A) (A) (A) (A) (A) (A) (A) (A) (A) (A) (A) (A)
                 (A) (A) (A) (A) (A) (A) (A) (A) (A) (A) (A) (A)
                 (A) (A) (A) (A) (A) (A) (A) (A) (A) (A) (A) (A)
                 (A) (A) (A) (A) (A) (A) (A) (A) (A) (A) (A) (A)
                 (A) (A) (A) (A) (A) (A) (A) (A) (A) (A) (A) (A)
                 (A) (A) (A) (A) (A) (A) (A) (A) (A) (A) (A) (A)
                 (A) (A) (A) (A) (A) (A) (A) (A) (A) (A) (A) (A)
                 (A) (A) (A) (A) (A) (A) (A) (A) (A) (A) (A) (A)
                 (A) (A) (A) (A) (A) (A) (A) (A) (A) (A) (A) (A)
                 (A) (A) (A) (A) (A) (A) (A) (A) (A) (A) (A) (A)
                 (A) (A) (A) (A) (A) (A) (A) (A) (A) (A) (A) (A)
                 (A) (A) (A) (A) (A) (A) (A) (A) (A) (A) (A) (A)
                 (A) (A) (A) (A) (A) (A) (A) (A) (A) (A) (A) (A)
                 (A) (A) (A) (A) (A) (A) (A) (A) (A) (A) (A) (A)
                 (A) (A) (A) (A) (A) (A) (A) (A) (A) (A) (A) (A)
                 (A) (A) (A) (A) (A) (A) (A) (A) (A) (A) (A) (A)
                 (A) (A) (A) (A) (A) (A) (A) (A) (A) (A) (A) (A)
                 (A) (A)
 The electronic state is 1-A.
 Alpha  occ. eigenvalues --  -19.12061 -19.11864 -14.40963 -14.40808 -14.38077
 Alpha  occ. eigenvalues --  -14.37039 -10.31384 -10.31125 -10.23124 -10.23057
 Alpha  occ. eigenvalues --  -10.22059 -10.21761 -10.19828 -10.19766 -10.19545
 Alpha  occ. eigenvalues --  -10.18877 -10.18813 -10.18734  -1.10148  -1.04273
 Alpha  occ. eigenvalues --   -1.01048  -0.94932  -0.93919  -0.82892  -0.80811
 Alpha  occ. eigenvalues --   -0.79188  -0.77390  -0.76965  -0.69298  -0.66770
 Alpha  occ. eigenvalues --   -0.65002  -0.64347  -0.61344  -0.58969  -0.57271
 Alpha  occ. eigenvalues --   -0.56080  -0.54377  -0.50368  -0.48628  -0.47713
 Alpha  occ. eigenvalues --   -0.47186  -0.46805  -0.46401  -0.45813  -0.44511
 Alpha  occ. eigenvalues --   -0.44256  -0.43529  -0.43244  -0.42892  -0.41336
 Alpha  occ. eigenvalues --   -0.40861  -0.40192  -0.39236  -0.37163  -0.36927
 Alpha  occ. eigenvalues --   -0.36319  -0.35663  -0.34679  -0.33843  -0.33749
 Alpha  occ. eigenvalues --   -0.33586  -0.33134  -0.32599  -0.27782  -0.26866
 Alpha  occ. eigenvalues --   -0.24715  -0.24029  -0.22791
 Alpha virt. eigenvalues --   -0.11593   0.03587   0.05201   0.07437   0.08738
 Alpha virt. eigenvalues --    0.10031   0.10375   0.11249   0.12592   0.13105
 Alpha virt. eigenvalues --    0.13222   0.14264   0.14316   0.15465   0.15490
 Alpha virt. eigenvalues --    0.15866   0.16018   0.16249   0.16557   0.16828
 Alpha virt. eigenvalues --    0.17011   0.17952   0.18640   0.19593   0.20379
 Alpha virt. eigenvalues --    0.21067   0.21951   0.22447   0.23260   0.24344
 Alpha virt. eigenvalues --    0.24887   0.25276   0.25654   0.26548   0.27074
 Alpha virt. eigenvalues --    0.27385   0.28862   0.31986   0.34442   0.38335
 Alpha virt. eigenvalues --    0.40092   0.44007   0.48546   0.49394   0.50216
 Alpha virt. eigenvalues --    0.50408   0.51057   0.52274   0.53121   0.53171
 Alpha virt. eigenvalues --    0.54406   0.54817   0.55113   0.56699   0.57133
 Alpha virt. eigenvalues --    0.59772   0.60116   0.60658   0.61564   0.62011
 Alpha virt. eigenvalues --    0.63089   0.63466   0.64261   0.64633   0.65102
 Alpha virt. eigenvalues --    0.66983   0.67064   0.69275   0.70617   0.71239
 Alpha virt. eigenvalues --    0.73124   0.73980   0.75073   0.77222   0.78107
 Alpha virt. eigenvalues --    0.78875   0.79871   0.80260   0.81723   0.82286
 Alpha virt. eigenvalues --    0.82902   0.83403   0.83743   0.85263   0.85751
 Alpha virt. eigenvalues --    0.86392   0.86598   0.86847   0.87075   0.87517
 Alpha virt. eigenvalues --    0.88738   0.89486   0.90203   0.91230   0.91686
 Alpha virt. eigenvalues --    0.92623   0.93244   0.93898   0.94320   0.95035
 Alpha virt. eigenvalues --    0.95824   0.96885   0.98827   1.00134   1.00604
 Alpha virt. eigenvalues --    1.02490   1.03342   1.06462   1.09228   1.09780
 Alpha virt. eigenvalues --    1.10860   1.13421   1.13712   1.17125   1.17405
 Alpha virt. eigenvalues --    1.20587   1.22013   1.25328   1.27706   1.29156
 Alpha virt. eigenvalues --    1.32618   1.34261   1.34851   1.36802   1.37743
 Alpha virt. eigenvalues --    1.38999   1.40400   1.42125   1.42415   1.45342
 Alpha virt. eigenvalues --    1.47094   1.52646   1.54183   1.54654   1.57207
 Alpha virt. eigenvalues --    1.57652   1.58582   1.59345   1.61872   1.65156
 Alpha virt. eigenvalues --    1.66597   1.68128   1.70283   1.72876   1.73312
 Alpha virt. eigenvalues --    1.75135   1.78387   1.78518   1.80828   1.82167
 Alpha virt. eigenvalues --    1.82597   1.84545   1.85318   1.85854   1.87454
 Alpha virt. eigenvalues --    1.88474   1.89743   1.90990   1.92109   1.92561
 Alpha virt. eigenvalues --    1.93681   1.94440   1.96478   1.97594   1.98139
 Alpha virt. eigenvalues --    1.99149   1.99730   2.00381   2.00659   2.01548
 Alpha virt. eigenvalues --    2.02294   2.04024   2.07286   2.09712   2.10780
 Alpha virt. eigenvalues --    2.13323   2.15226   2.15749   2.16229   2.16791
 Alpha virt. eigenvalues --    2.20306   2.26279   2.27725   2.28461   2.29355
 Alpha virt. eigenvalues --    2.30744   2.32372   2.33577   2.33914   2.35366
 Alpha virt. eigenvalues --    2.35608   2.36462   2.38692   2.39707   2.40412
 Alpha virt. eigenvalues --    2.40765   2.43376   2.45445   2.47424   2.51552
 Alpha virt. eigenvalues --    2.55437   2.58292   2.59296   2.60011   2.61499
 Alpha virt. eigenvalues --    2.62175   2.64230   2.65208   2.68037   2.70011
 Alpha virt. eigenvalues --    2.70855   2.72308   2.73732   2.74310   2.75514
 Alpha virt. eigenvalues --    2.79179   2.82031   2.85425   2.94214   2.95113
 Alpha virt. eigenvalues --    3.08835   3.13660   3.21722   3.25395   3.84317
 Alpha virt. eigenvalues --    3.98397   4.00928   4.07925   4.14014   4.16600
 Alpha virt. eigenvalues --    4.17088   4.17593   4.25292   4.25629   4.39615
 Alpha virt. eigenvalues --    4.41427   4.50400   4.53990   4.54807   4.56177
 Alpha virt. eigenvalues --    4.58191   4.61153
          Condensed to atoms (all electrons):
               1          2          3          4          5          6
     1  C    4.280561   0.588324   0.230377  -0.039306   0.004689   0.000749
     2  O    0.588324   8.066838  -0.068812   0.001675  -0.000184   0.000001
     3  N    0.230377  -0.068812   6.972037   0.205938  -0.055501   0.000912
     4  N   -0.039306   0.001675   0.205938   7.349589   0.173496  -0.086904
     5  C    0.004689  -0.000184  -0.055501   0.173496   4.313044   0.585827
     6  O    0.000749   0.000001   0.000912  -0.086904   0.585827   8.069505
     7  N   -0.000209   0.000001   0.001764  -0.107281   0.308727  -0.102442
     8  C   -0.000023  -0.000000   0.000751  -0.006124  -0.032656   0.002691
     9  C   -0.000001   0.000000  -0.000032   0.000394   0.000931  -0.000044
    10  C   -0.000000   0.000000   0.000000  -0.000024  -0.000190  -0.000009
    11  C    0.000000   0.000000  -0.000001  -0.000103   0.001183   0.000090
    12  C    0.000002  -0.000000  -0.000098   0.003809  -0.023270  -0.001687
    13  N    0.279439  -0.111347  -0.111148  -0.005373   0.000160  -0.000010
    14  C   -0.021949  -0.003455   0.004835  -0.000924   0.000024  -0.000000
    15  C    0.001599   0.000296  -0.000130   0.000007   0.000000  -0.000000
    16  C   -0.000106  -0.000015  -0.000016  -0.000111   0.000002  -0.000000
    17  C    0.000588  -0.000074  -0.000963   0.005397   0.000020   0.000002
    18  C   -0.025657   0.002500  -0.001786  -0.115960   0.003876  -0.000086
    19  H   -0.000064   0.000002   0.000189   0.009778  -0.011977   0.000182
    20  H    0.000011  -0.000000   0.000127  -0.000281   0.001562  -0.000045
    21  H   -0.000000  -0.000000  -0.000001  -0.000069   0.000628  -0.000025
    22  H    0.000000  -0.000000   0.000001   0.000006  -0.000040   0.000001
    23  H   -0.000000   0.000000  -0.000000   0.000000   0.000011   0.000000
    24  H   -0.000000  -0.000000   0.000000  -0.000001  -0.000011   0.000000
    25  H   -0.000000  -0.000000   0.000000  -0.000006   0.000677   0.000039
    26  H    0.000000  -0.000000   0.000000   0.000001  -0.000049  -0.000006
    27  H   -0.000000  -0.000000  -0.000012   0.000526  -0.000917   0.014102
    28  H   -0.000000  -0.000000   0.000026  -0.000146   0.001549   0.000766
    29  H   -0.002672   0.016837   0.000608  -0.000022   0.000001  -0.000000
    30  H    0.000045   0.001024  -0.000122  -0.000019  -0.000002   0.000000
    31  H    0.000671   0.000033  -0.000010  -0.000007  -0.000000   0.000000
    32  H   -0.000057  -0.000007   0.000002  -0.000000  -0.000000   0.000000
    33  H    0.000011   0.000000   0.000000   0.000002  -0.000000   0.000000
    34  H   -0.000019   0.000000   0.000000  -0.000002  -0.000000   0.000000
    35  H    0.000429  -0.000012   0.000199  -0.000008  -0.000039   0.000000
    36  H   -0.000038   0.000001   0.000007  -0.000034   0.000004   0.000000
    37  H   -0.010506  -0.000126  -0.003294  -0.049733   0.006382  -0.000674
    38  H    0.000859   0.000045   0.000859   0.000671  -0.000500   0.000002
               7          8          9         10         11         12
     1  C   -0.000209  -0.000023  -0.000001  -0.000000   0.000000   0.000002
     2  O    0.000001  -0.000000   0.000000   0.000000   0.000000  -0.000000
     3  N    0.001764   0.000751  -0.000032   0.000000  -0.000001  -0.000098
     4  N   -0.107281  -0.006124   0.000394  -0.000024  -0.000103   0.003809
     5  C    0.308727  -0.032656   0.000931  -0.000190   0.001183  -0.023270
     6  O   -0.102442   0.002691  -0.000044  -0.000009   0.000090  -0.001687
     7  N    7.036500   0.288911  -0.056714  -0.013781  -0.043777   0.284762
     8  C    0.288911   4.961844   0.364385  -0.041088  -0.013342  -0.042149
     9  C   -0.056714   0.364385   5.053024   0.384941  -0.045706  -0.013606
    10  C   -0.013781  -0.041088   0.384941   5.009970   0.380919  -0.040160
    11  C   -0.043777  -0.013342  -0.045706   0.380919   5.025142   0.374624
    12  C    0.284762  -0.042149  -0.013606  -0.040160   0.374624   4.915307
    13  N   -0.000002   0.000137  -0.000001  -0.000000  -0.000000   0.000000
    14  C    0.000000   0.000002  -0.000000   0.000000   0.000000   0.000000
    15  C   -0.000000  -0.000000  -0.000000   0.000000  -0.000000   0.000000
    16  C   -0.000000   0.000001  -0.000000   0.000000   0.000000   0.000000
    17  C   -0.000004   0.000045  -0.000002  -0.000000  -0.000000   0.000000
    18  C   -0.000257  -0.000586  -0.000023   0.000002   0.000000  -0.000003
    19  H   -0.028842   0.374056  -0.029350   0.004265   0.000083   0.003580
    20  H   -0.055971   0.368303  -0.051837  -0.007125  -0.001092  -0.002523
    21  H    0.001107  -0.038572   0.367761  -0.042698  -0.003937  -0.000699
    22  H    0.004261  -0.029780   0.362823  -0.033165   0.005174   0.000052
    23  H   -0.000098   0.004893  -0.033303   0.374611  -0.033015   0.004874
    24  H   -0.000878  -0.003662  -0.042453   0.371639  -0.041787  -0.003169
    25  H   -0.000637  -0.000375  -0.004459  -0.042618   0.371875  -0.038127
    26  H    0.004063   0.000033   0.005105  -0.034011   0.367735  -0.032104
    27  H   -0.031354   0.003865  -0.000005   0.003963  -0.028190   0.372275
    28  H   -0.055689  -0.003214  -0.001742  -0.006351  -0.047938   0.375571
    29  H   -0.000000   0.000000  -0.000000  -0.000000  -0.000000   0.000000
    30  H   -0.000000  -0.000001  -0.000000  -0.000000  -0.000000  -0.000000
    31  H   -0.000000   0.000000  -0.000000  -0.000000  -0.000000  -0.000000
    32  H    0.000000  -0.000000  -0.000000   0.000000   0.000000  -0.000000
    33  H   -0.000000   0.000000   0.000000  -0.000000   0.000000   0.000000
    34  H    0.000000  -0.000000   0.000000  -0.000000  -0.000000  -0.000000
    35  H    0.000001  -0.000005   0.000000  -0.000000   0.000000  -0.000000
    36  H    0.000000   0.000003  -0.000000  -0.000000  -0.000000   0.000000
    37  H    0.000493  -0.000206  -0.000100  -0.000003  -0.000005   0.000001
    38  H    0.000047  -0.001373   0.000047   0.000000  -0.000000  -0.000001
              13         14         15         16         17         18
     1  C    0.279439  -0.021949   0.001599  -0.000106   0.000588  -0.025657
     2  O   -0.111347  -0.003455   0.000296  -0.000015  -0.000074   0.002500
     3  N   -0.111148   0.004835  -0.000130  -0.000016  -0.000963  -0.001786
     4  N   -0.005373  -0.000924   0.000007  -0.000111   0.005397  -0.115960
     5  C    0.000160   0.000024   0.000000   0.000002   0.000020   0.003876
     6  O   -0.000010  -0.000000  -0.000000  -0.000000   0.000002  -0.000086
     7  N   -0.000002   0.000000  -0.000000  -0.000000  -0.000004  -0.000257
     8  C    0.000137   0.000002  -0.000000   0.000001   0.000045  -0.000586
     9  C   -0.000001  -0.000000  -0.000000  -0.000000  -0.000002  -0.000023
    10  C   -0.000000   0.000000   0.000000   0.000000  -0.000000   0.000002
    11  C   -0.000000   0.000000  -0.000000   0.000000  -0.000000   0.000000
    12  C    0.000000   0.000000   0.000000   0.000000   0.000000  -0.000003
    13  N    7.091246   0.279643  -0.047256  -0.012300  -0.056102   0.293018
    14  C    0.279643   4.928558   0.371567  -0.039331  -0.016030  -0.043961
    15  C   -0.047256   0.371567   5.028318   0.380827  -0.045576  -0.013253
    16  C   -0.012300  -0.039331   0.380827   5.021344   0.372106  -0.036824
    17  C   -0.056102  -0.016030  -0.045576   0.372106   5.077232   0.344450
    18  C    0.293018  -0.043961  -0.013253  -0.036824   0.344450   5.021261
    19  H   -0.000090  -0.000023   0.000001  -0.000003  -0.000087   0.001834
    20  H   -0.000005  -0.000000   0.000000  -0.000000  -0.000000  -0.000020
    21  H    0.000000  -0.000000   0.000000  -0.000000  -0.000006  -0.000016
    22  H   -0.000000  -0.000000   0.000000   0.000000  -0.000000   0.000001
    23  H   -0.000000   0.000000  -0.000000  -0.000000   0.000000  -0.000000
    24  H    0.000000  -0.000000  -0.000000  -0.000000  -0.000000  -0.000000
    25  H    0.000000  -0.000000   0.000000   0.000000  -0.000000  -0.000000
    26  H   -0.000000   0.000000   0.000000  -0.000000   0.000000  -0.000000
    27  H    0.000000   0.000000   0.000000   0.000000  -0.000000   0.000000
    28  H    0.000000  -0.000000  -0.000000   0.000000  -0.000000  -0.000000
    29  H   -0.032421   0.374157  -0.028072   0.004062   0.000025   0.003689
    30  H   -0.054631   0.374245  -0.047502  -0.006795  -0.001122  -0.002856
    31  H   -0.000597  -0.038477   0.372775  -0.042760  -0.004070  -0.000494
    32  H    0.004291  -0.032256   0.365585  -0.034033   0.005084   0.000066
    33  H   -0.000148   0.004923  -0.033669   0.372132  -0.032661   0.004732
    34  H   -0.000965  -0.003737  -0.042104   0.369837  -0.041665  -0.004033
    35  H   -0.000116  -0.000814  -0.003809  -0.042890   0.371966  -0.038131
    36  H    0.004250   0.000046   0.005259  -0.033675   0.361879  -0.029683
    37  H   -0.026339   0.003719   0.000152   0.003803  -0.028040   0.388773
    38  H   -0.057745  -0.002465  -0.001109  -0.006359  -0.050436   0.372365
              19         20         21         22         23         24
     1  C   -0.000064   0.000011  -0.000000   0.000000  -0.000000  -0.000000
     2  O    0.000002  -0.000000  -0.000000  -0.000000   0.000000  -0.000000
     3  N    0.000189   0.000127  -0.000001   0.000001  -0.000000   0.000000
     4  N    0.009778  -0.000281  -0.000069   0.000006   0.000000  -0.000001
     5  C   -0.011977   0.001562   0.000628  -0.000040   0.000011  -0.000011
     6  O    0.000182  -0.000045  -0.000025   0.000001   0.000000   0.000000
     7  N   -0.028842  -0.055971   0.001107   0.004261  -0.000098  -0.000878
     8  C    0.374056   0.368303  -0.038572  -0.029780   0.004893  -0.003662
     9  C   -0.029350  -0.051837   0.367761   0.362823  -0.033303  -0.042453
    10  C    0.004265  -0.007125  -0.042698  -0.033165   0.374611   0.371639
    11  C    0.000083  -0.001092  -0.003937   0.005174  -0.033015  -0.041787
    12  C    0.003580  -0.002523  -0.000699   0.000052   0.004874  -0.003169
    13  N   -0.000090  -0.000005   0.000000  -0.000000  -0.000000   0.000000
    14  C   -0.000023  -0.000000  -0.000000  -0.000000   0.000000  -0.000000
    15  C    0.000001   0.000000   0.000000   0.000000  -0.000000  -0.000000
    16  C   -0.000003  -0.000000  -0.000000   0.000000  -0.000000  -0.000000
    17  C   -0.000087  -0.000000  -0.000006  -0.000000   0.000000  -0.000000
    18  C    0.001834  -0.000020  -0.000016   0.000001  -0.000000  -0.000000
    19  H    0.524935  -0.033324  -0.004757  -0.001653  -0.000144  -0.000052
    20  H   -0.033324   0.618675   0.006355  -0.001172  -0.000104   0.005415
    21  H   -0.004757   0.006355   0.601277  -0.032363  -0.005207   0.006189
    22  H   -0.001653  -0.001172  -0.032363   0.591111  -0.002520  -0.004324
    23  H   -0.000144  -0.000104  -0.005207  -0.002520   0.590549  -0.035198
    24  H   -0.000052   0.005415   0.006189  -0.004324  -0.035198   0.606798
    25  H   -0.000029   0.000230   0.005093  -0.000011  -0.005160   0.006061
    26  H    0.000009   0.000058   0.000000  -0.000148  -0.002441  -0.004422
    27  H   -0.000141  -0.000169  -0.000034   0.000010  -0.000137  -0.000055
    28  H   -0.000123   0.008305   0.000244   0.000039  -0.000103   0.005007
    29  H   -0.000000  -0.000000  -0.000000   0.000000  -0.000000  -0.000000
    30  H    0.000001   0.000000   0.000000   0.000000   0.000000   0.000000
    31  H   -0.000000   0.000000   0.000000   0.000000   0.000000   0.000000
    32  H    0.000000   0.000000  -0.000000   0.000000  -0.000000  -0.000000
    33  H    0.000000  -0.000000  -0.000000  -0.000000   0.000000   0.000000
    34  H   -0.000001   0.000000  -0.000000   0.000000   0.000000   0.000000
    35  H    0.000012   0.000000  -0.000000   0.000000   0.000000  -0.000000
    36  H    0.000009   0.000000   0.000028  -0.000000  -0.000000   0.000000
    37  H   -0.002419   0.000132   0.000287  -0.000001  -0.000000   0.000000
    38  H    0.005031   0.000022   0.000025   0.000014   0.000000   0.000000
              25         26         27         28         29         30
     1  C   -0.000000   0.000000  -0.000000  -0.000000  -0.002672   0.000045
     2  O   -0.000000  -0.000000  -0.000000  -0.000000   0.016837   0.001024
     3  N    0.000000   0.000000  -0.000012   0.000026   0.000608  -0.000122
     4  N   -0.000006   0.000001   0.000526  -0.000146  -0.000022  -0.000019
     5  C    0.000677  -0.000049  -0.000917   0.001549   0.000001  -0.000002
     6  O    0.000039  -0.000006   0.014102   0.000766  -0.000000   0.000000
     7  N   -0.000637   0.004063  -0.031354  -0.055689  -0.000000  -0.000000
     8  C   -0.000375   0.000033   0.003865  -0.003214   0.000000  -0.000001
     9  C   -0.004459   0.005105  -0.000005  -0.001742  -0.000000  -0.000000
    10  C   -0.042618  -0.034011   0.003963  -0.006351  -0.000000  -0.000000
    11  C    0.371875   0.367735  -0.028190  -0.047938  -0.000000  -0.000000
    12  C   -0.038127  -0.032104   0.372275   0.375571   0.000000  -0.000000
    13  N    0.000000  -0.000000   0.000000   0.000000  -0.032421  -0.054631
    14  C   -0.000000   0.000000   0.000000  -0.000000   0.374157   0.374245
    15  C    0.000000   0.000000   0.000000  -0.000000  -0.028072  -0.047502
    16  C    0.000000  -0.000000   0.000000   0.000000   0.004062  -0.006795
    17  C   -0.000000   0.000000  -0.000000  -0.000000   0.000025  -0.001122
    18  C   -0.000000  -0.000000   0.000000  -0.000000   0.003689  -0.002856
    19  H   -0.000029   0.000009  -0.000141  -0.000123  -0.000000   0.000001
    20  H    0.000230   0.000058  -0.000169   0.008305  -0.000000   0.000000
    21  H    0.005093   0.000000  -0.000034   0.000244  -0.000000   0.000000
    22  H   -0.000011  -0.000148   0.000010   0.000039   0.000000   0.000000
    23  H   -0.005160  -0.002441  -0.000137  -0.000103  -0.000000   0.000000
    24  H    0.006061  -0.004422  -0.000055   0.005007  -0.000000   0.000000
    25  H    0.588872  -0.031623  -0.004475   0.005996  -0.000000   0.000000
    26  H   -0.031623   0.584665  -0.001210  -0.001648   0.000000   0.000000
    27  H   -0.004475  -0.001210   0.507250  -0.031521   0.000000  -0.000000
    28  H    0.005996  -0.001648  -0.031521   0.600916  -0.000000   0.000000
    29  H   -0.000000   0.000000   0.000000  -0.000000   0.506800  -0.032647
    30  H    0.000000   0.000000  -0.000000   0.000000  -0.032647   0.610285
    31  H    0.000000   0.000000  -0.000000   0.000000  -0.004430   0.006028
    32  H   -0.000000   0.000000  -0.000000   0.000000  -0.001377  -0.001371
    33  H   -0.000000  -0.000000  -0.000000  -0.000000  -0.000141  -0.000108
    34  H    0.000000   0.000000   0.000000   0.000000  -0.000050   0.005335
    35  H   -0.000000  -0.000000   0.000000  -0.000000  -0.000030   0.000224
    36  H    0.000000   0.000000  -0.000000   0.000000   0.000009   0.000042
    37  H    0.000005   0.000000   0.000001   0.000004  -0.000144  -0.000093
    38  H    0.000000   0.000000  -0.000000   0.000000  -0.000178   0.007829
              31         32         33         34         35         36
     1  C    0.000671  -0.000057   0.000011  -0.000019   0.000429  -0.000038
     2  O    0.000033  -0.000007   0.000000   0.000000  -0.000012   0.000001
     3  N   -0.000010   0.000002   0.000000   0.000000   0.000199   0.000007
     4  N   -0.000007  -0.000000   0.000002  -0.000002  -0.000008  -0.000034
     5  C   -0.000000  -0.000000  -0.000000  -0.000000  -0.000039   0.000004
     6  O    0.000000   0.000000   0.000000   0.000000   0.000000   0.000000
     7  N   -0.000000   0.000000  -0.000000   0.000000   0.000001   0.000000
     8  C    0.000000  -0.000000   0.000000  -0.000000  -0.000005   0.000003
     9  C   -0.000000  -0.000000   0.000000   0.000000   0.000000  -0.000000
    10  C   -0.000000   0.000000  -0.000000  -0.000000  -0.000000  -0.000000
    11  C   -0.000000   0.000000   0.000000  -0.000000   0.000000  -0.000000
    12  C   -0.000000  -0.000000   0.000000  -0.000000  -0.000000   0.000000
    13  N   -0.000597   0.004291  -0.000148  -0.000965  -0.000116   0.004250
    14  C   -0.038477  -0.032256   0.004923  -0.003737  -0.000814   0.000046
    15  C    0.372775   0.365585  -0.033669  -0.042104  -0.003809   0.005259
    16  C   -0.042760  -0.034033   0.372132   0.369837  -0.042890  -0.033675
    17  C   -0.004070   0.005084  -0.032661  -0.041665   0.371966   0.361879
    18  C   -0.000494   0.000066   0.004732  -0.004033  -0.038131  -0.029683
    19  H   -0.000000   0.000000   0.000000  -0.000001   0.000012   0.000009
    20  H    0.000000   0.000000  -0.000000   0.000000   0.000000   0.000000
    21  H    0.000000  -0.000000  -0.000000  -0.000000  -0.000000   0.000028
    22  H    0.000000   0.000000  -0.000000   0.000000   0.000000  -0.000000
    23  H    0.000000  -0.000000   0.000000   0.000000   0.000000  -0.000000
    24  H    0.000000  -0.000000   0.000000   0.000000  -0.000000   0.000000
    25  H    0.000000  -0.000000  -0.000000   0.000000  -0.000000   0.000000
    26  H    0.000000   0.000000  -0.000000   0.000000  -0.000000   0.000000
    27  H   -0.000000  -0.000000  -0.000000   0.000000   0.000000  -0.000000
    28  H    0.000000   0.000000  -0.000000   0.000000  -0.000000   0.000000
    29  H   -0.004430  -0.001377  -0.000141  -0.000050  -0.000030   0.000009
    30  H    0.006028  -0.001371  -0.000108   0.005335   0.000224   0.000042
    31  H    0.590005  -0.032094  -0.005025   0.006148   0.004958  -0.000008
    32  H   -0.032094   0.592953  -0.002695  -0.004352  -0.000002  -0.000151
    33  H   -0.005025  -0.002695   0.598357  -0.035990  -0.005231  -0.002460
    34  H    0.006148  -0.004352  -0.035990   0.616416   0.006194  -0.004546
    35  H    0.004958  -0.000002  -0.005231   0.006194   0.595972  -0.032875
    36  H   -0.000008  -0.000151  -0.002460  -0.004546  -0.032875   0.601262
    37  H   -0.000023   0.000007  -0.000130  -0.000010  -0.004899  -0.002162
    38  H    0.000225   0.000059  -0.000121   0.005218   0.006232  -0.001369
              37         38
     1  C   -0.010506   0.000859
     2  O   -0.000126   0.000045
     3  N   -0.003294   0.000859
     4  N   -0.049733   0.000671
     5  C    0.006382  -0.000500
     6  O   -0.000674   0.000002
     7  N    0.000493   0.000047
     8  C   -0.000206  -0.001373
     9  C   -0.000100   0.000047
    10  C   -0.000003   0.000000
    11  C   -0.000005  -0.000000
    12  C    0.000001  -0.000001
    13  N   -0.026339  -0.057745
    14  C    0.003719  -0.002465
    15  C    0.000152  -0.001109
    16  C    0.003803  -0.006359
    17  C   -0.028040  -0.050436
    18  C    0.388773   0.372365
    19  H   -0.002419   0.005031
    20  H    0.000132   0.000022
    21  H    0.000287   0.000025
    22  H   -0.000001   0.000014
    23  H   -0.000000   0.000000
    24  H    0.000000   0.000000
    25  H    0.000005   0.000000
    26  H    0.000000   0.000000
    27  H    0.000001  -0.000000
    28  H    0.000004   0.000000
    29  H   -0.000144  -0.000178
    30  H   -0.000093   0.007829
    31  H   -0.000023   0.000225
    32  H    0.000007   0.000059
    33  H   -0.000130  -0.000121
    34  H   -0.000010   0.005218
    35  H   -0.004899   0.006232
    36  H   -0.002162  -0.001369
    37  H    0.530998  -0.036923
    38  H   -0.036923   0.619627
 Mulliken charges:
               1
     1  C    0.712258
     2  O   -0.493545
     3  N   -0.176708
     4  N   -0.338851
     5  C    0.722544
     6  O   -0.482937
     7  N   -0.432702
     8  C   -0.156764
     9  C   -0.260032
    10  C   -0.269087
    11  C   -0.267933
    12  C   -0.137262
    13  N   -0.435586
    14  C   -0.138299
    15  C   -0.263907
    16  C   -0.268897
    17  C   -0.261956
    18  C   -0.122941
    19  H    0.189112
    20  H    0.144474
    21  H    0.139390
    22  H    0.141685
    23  H    0.142492
    24  H    0.134903
    25  H    0.148669
    26  H    0.145994
    27  H    0.196226
    28  H    0.150052
    29  H    0.195996
    30  H    0.142211
    31  H    0.147153
    32  H    0.140348
    33  H    0.138222
    34  H    0.128325
    35  H    0.142678
    36  H    0.134199
    37  H    0.231074
    38  H    0.139402
 Sum of Mulliken charges =  -0.00000
 Mulliken charges with hydrogens summed into heavy atoms:
               1
     1  C    0.712258
     2  O   -0.493545
     3  N   -0.176708
     4  N   -0.338851
     5  C    0.722544
     6  O   -0.482937
     7  N   -0.432702
     8  C    0.176823
     9  C    0.021043
    10  C    0.008308
    11  C    0.026730
    12  C    0.209016
    13  N   -0.435586
    14  C    0.199908
    15  C    0.023595
    16  C   -0.002351
    17  C    0.014921
    18  C    0.247535
 APT charges:
               1
     1  C    0.972771
     2  O   -0.708304
     3  N   -0.142638
     4  N   -0.110104
     5  C    1.085862
     6  O   -0.737197
     7  N   -0.729498
     8  C    0.314417
     9  C    0.098152
    10  C    0.119355
    11  C    0.103949
    12  C    0.337959
    13  N   -0.731529
    14  C    0.366609
    15  C    0.100999
    16  C    0.117607
    17  C    0.082447
    18  C    0.271537
    19  H    0.002081
    20  H   -0.077125
    21  H   -0.040769
    22  H   -0.050958
    23  H   -0.053082
    24  H   -0.046041
    25  H   -0.033744
    26  H   -0.054269
    27  H    0.025266
    28  H   -0.075572
    29  H    0.030135
    30  H   -0.083565
    31  H   -0.034249
    32  H   -0.053218
    33  H   -0.061411
    34  H   -0.048762
    35  H   -0.042080
    36  H   -0.049494
    37  H    0.025494
    38  H   -0.091029
 Sum of APT charges =  -0.00000
 APT charges with hydrogens summed into heavy atoms:
               1
     1  C    0.972771
     2  O   -0.708304
     3  N   -0.142638
     4  N   -0.110104
     5  C    1.085862
     6  O   -0.737197
     7  N   -0.729498
     8  C    0.239372
     9  C    0.006424
    10  C    0.020232
    11  C    0.015936
    12  C    0.287652
    13  N   -0.731529
    14  C    0.313179
    15  C    0.013532
    16  C    0.007435
    17  C   -0.009128
    18  C    0.206002
 Electronic spatial extent (au):  <R**2>=           5816.7367
 Charge=             -0.0000 electrons
 Dipole moment (field-independent basis, Debye):
    X=             -2.2301    Y=             -6.3810    Z=             -1.2940  Tot=              6.8822
 Quadrupole moment (field-independent basis, Debye-Ang):
   XX=            -93.9107   YY=           -121.8971   ZZ=           -109.7295
   XY=             -6.4466   XZ=              5.9970   YZ=             -1.4897
 Traceless Quadrupole moment (field-independent basis, Debye-Ang):
   XX=             14.6017   YY=            -13.3847   ZZ=             -1.2171
   XY=             -6.4466   XZ=              5.9970   YZ=             -1.4897
 Octapole moment (field-independent basis, Debye-Ang**2):
[...]
    53    N    4  py     Ryd( 3p)     0.00395
    54    N    4  pz     Val( 2p)     1.28903
    55    N    4  pz     Ryd( 3p)     0.00441
    56    N    4  dxy    Ryd( 3d)     0.00144
    57    N    4  dxz    Ryd( 3d)     0.00129
    58    N    4  dyz    Ryd( 3d)     0.00162
    59    N    4  dx2y2  Ryd( 3d)     0.00087
    60    N    4  dz2    Ryd( 3d)     0.00227
 
    61    C    5  S      Cor( 1S)     1.99934
    62    C    5  S      Val( 2S)     0.73329
    63    C    5  S      Ryd( 3S)     0.00442
    64    C    5  S      Ryd( 4S)     0.00039
    65    C    5  px     Val( 2p)     0.83335
    66    C    5  px     Ryd( 3p)     0.00872
    67    C    5  py     Val( 2p)     0.76672
    68    C    5  py     Ryd( 3p)     0.01952
    69    C    5  pz     Val( 2p)     0.82486
    70    C    5  pz     Ryd( 3p)     0.00378
    71    C    5  dxy    Ryd( 3d)     0.00313
    72    C    5  dxz    Ryd( 3d)     0.00169
    73    C    5  dyz    Ryd( 3d)     0.00229
    74    C    5  dx2y2  Ryd( 3d)     0.00208
    75    C    5  dz2    Ryd( 3d)     0.00076
 
    76    O    6  S      Cor( 1S)     1.99979
    77    O    6  S      Val( 2S)     1.70344
    78    O    6  S      Ryd( 3S)     0.00078
    79    O    6  S      Ryd( 4S)     0.00008
    80    O    6  px     Val( 2p)     1.71429
    81    O    6  px     Ryd( 3p)     0.00152
    82    O    6  py     Val( 2p)     1.58051
    83    O    6  py     Ryd( 3p)     0.00040
    84    O    6  pz     Val( 2p)     1.55529
    85    O    6  pz     Ryd( 3p)     0.00085
    86    O    6  dxy    Ryd( 3d)     0.00431
    87    O    6  dxz    Ryd( 3d)     0.00034
    88    O    6  dyz    Ryd( 3d)     0.00455
    89    O    6  dx2y2  Ryd( 3d)     0.00429
    90    O    6  dz2    Ryd( 3d)     0.00144
 
    91    N    7  S      Cor( 1S)     1.99928
    92    N    7  S      Val( 2S)     1.20582
    93    N    7  S      Ryd( 3S)     0.00167
    94    N    7  S      Ryd( 4S)     0.00006
    95    N    7  px     Val( 2p)     1.31712
    96    N    7  px     Ryd( 3p)     0.00191
    97    N    7  py     Val( 2p)     1.30268
    98    N    7  py     Ryd( 3p)     0.00163
    99    N    7  pz     Val( 2p)     1.63338
   100    N    7  pz     Ryd( 3p)     0.00452
   101    N    7  dxy    Ryd( 3d)     0.00071
   102    N    7  dxz    Ryd( 3d)     0.00063
   103    N    7  dyz    Ryd( 3d)     0.00043
   104    N    7  dx2y2  Ryd( 3d)     0.00068
   105    N    7  dz2    Ryd( 3d)     0.00062
 
   106    C    8  S      Cor( 1S)     1.99930
   107    C    8  S      Val( 2S)     1.01819
   108    C    8  S      Ryd( 3S)     0.00132
   109    C    8  S      Ryd( 4S)     0.00003
   110    C    8  px     Val( 2p)     1.18074
   111    C    8  px     Ryd( 3p)     0.00496
   112    C    8  py     Val( 2p)     0.86125
   113    C    8  py     Ryd( 3p)     0.00260
   114    C    8  pz     Val( 2p)     1.18587
   115    C    8  pz     Ryd( 3p)     0.00232
   116    C    8  dxy    Ryd( 3d)     0.00081
   117    C    8  dxz    Ryd( 3d)     0.00053
   118    C    8  dyz    Ryd( 3d)     0.00083
   119    C    8  dx2y2  Ryd( 3d)     0.00122
   120    C    8  dz2    Ryd( 3d)     0.00143
 
   121    C    9  S      Cor( 1S)     1.99932
   122    C    9  S      Val( 2S)     1.04080
   123    C    9  S      Ryd( 3S)     0.00066
   124    C    9  S      Ryd( 4S)     0.00002
   125    C    9  px     Val( 2p)     1.04136
   126    C    9  px     Ryd( 3p)     0.00180
   127    C    9  py     Val( 2p)     1.18651
   128    C    9  py     Ryd( 3p)     0.00325
   129    C    9  pz     Val( 2p)     1.19116
   130    C    9  pz     Ryd( 3p)     0.00228
   131    C    9  dxy    Ryd( 3d)     0.00051
   132    C    9  dxz    Ryd( 3d)     0.00065
   133    C    9  dyz    Ryd( 3d)     0.00029
   134    C    9  dx2y2  Ryd( 3d)     0.00092
   135    C    9  dz2    Ryd( 3d)     0.00112
 
   136    C   10  S      Cor( 1S)     1.99933
   137    C   10  S      Val( 2S)     1.03649
   138    C   10  S      Ryd( 3S)     0.00060
   139    C   10  S      Ryd( 4S)     0.00002
   140    C   10  px     Val( 2p)     1.13702
   141    C   10  px     Ryd( 3p)     0.00242
   142    C   10  py     Val( 2p)     1.04751
   143    C   10  py     Ryd( 3p)     0.00172
   144    C   10  pz     Val( 2p)     1.23331
   145    C   10  pz     Ryd( 3p)     0.00323
   146    C   10  dxy    Ryd( 3d)     0.00068
   147    C   10  dxz    Ryd( 3d)     0.00085
   148    C   10  dyz    Ryd( 3d)     0.00039
   149    C   10  dx2y2  Ryd( 3d)     0.00069
   150    C   10  dz2    Ryd( 3d)     0.00094
 
   151    C   11  S      Cor( 1S)     1.99932
   152    C   11  S      Val( 2S)     1.04092
   153    C   11  S      Ryd( 3S)     0.00063
   154    C   11  S      Ryd( 4S)     0.00002
   155    C   11  px     Val( 2p)     1.13934
   156    C   11  px     Ryd( 3p)     0.00307
   157    C   11  py     Val( 2p)     1.08863
   158    C   11  py     Ryd( 3p)     0.00189
   159    C   11  pz     Val( 2p)     1.19178
   160    C   11  pz     Ryd( 3p)     0.00231
   161    C   11  dxy    Ryd( 3d)     0.00089
   162    C   11  dxz    Ryd( 3d)     0.00056
   163    C   11  dyz    Ryd( 3d)     0.00039
   164    C   11  dx2y2  Ryd( 3d)     0.00053
   165    C   11  dz2    Ryd( 3d)     0.00111
 
   166    C   12  S      Cor( 1S)     1.99932
   167    C   12  S      Val( 2S)     1.01783
   168    C   12  S      Ryd( 3S)     0.00123
   169    C   12  S      Ryd( 4S)     0.00003
   170    C   12  px     Val( 2p)     0.91419
   171    C   12  px     Ryd( 3p)     0.00343
   172    C   12  py     Val( 2p)     1.12776
   173    C   12  py     Ryd( 3p)     0.00423
   174    C   12  pz     Val( 2p)     1.18394
   175    C   12  pz     Ryd( 3p)     0.00240
   176    C   12  dxy    Ryd( 3d)     0.00120
   177    C   12  dxz    Ryd( 3d)     0.00091
   178    C   12  dyz    Ryd( 3d)     0.00046
   179    C   12  dx2y2  Ryd( 3d)     0.00087
   180    C   12  dz2    Ryd( 3d)     0.00143
 
   181    N   13  S      Cor( 1S)     1.99928
   182    N   13  S      Val( 2S)     1.20582
   183    N   13  S      Ryd( 3S)     0.00167
   184    N   13  S      Ryd( 4S)     0.00006
   185    N   13  px     Val( 2p)     1.31714
   186    N   13  px     Ryd( 3p)     0.00191
   187    N   13  py     Val( 2p)     1.30268
   188    N   13  py     Ryd( 3p)     0.00163
   189    N   13  pz     Val( 2p)     1.63336
   190    N   13  pz     Ryd( 3p)     0.00452
   191    N   13  dxy    Ryd( 3d)     0.00071
   192    N   13  dxz    Ryd( 3d)     0.00063
   193    N   13  dyz    Ryd( 3d)     0.00043
   194    N   13  dx2y2  Ryd( 3d)     0.00068
   195    N   13  dz2    Ryd( 3d)     0.00062
 
   196    C   14  S      Cor( 1S)     1.99932
   197    C   14  S      Val( 2S)     1.01783
   198    C   14  S      Ryd( 3S)     0.00123
   199    C   14  S      Ryd( 4S)     0.00003
   200    C   14  px     Val( 2p)     0.91417
   201    C   14  px     Ryd( 3p)     0.00343
   202    C   14  py     Val( 2p)     1.12776
   203    C   14  py     Ryd( 3p)     0.00423
   204    C   14  pz     Val( 2p)     1.18396
   205    C   14  pz     Ryd( 3p)     0.00240
   206    C   14  dxy    Ryd( 3d)     0.00120
   207    C   14  dxz    Ryd( 3d)     0.00091
   208    C   14  dyz    Ryd( 3d)     0.00046
   209    C   14  dx2y2  Ryd( 3d)     0.00087
   210    C   14  dz2    Ryd( 3d)     0.00144
 
   211    C   15  S      Cor( 1S)     1.99932
   212    C   15  S      Val( 2S)     1.04092
   213    C   15  S      Ryd( 3S)     0.00063
   214    C   15  S      Ryd( 4S)     0.00002
   215    C   15  px     Val( 2p)     1.13934
   216    C   15  px     Ryd( 3p)     0.00307
   217    C   15  py     Val( 2p)     1.08863
   218    C   15  py     Ryd( 3p)     0.00189
   219    C   15  pz     Val( 2p)     1.19179
   220    C   15  pz     Ryd( 3p)     0.00231
   221    C   15  dxy    Ryd( 3d)     0.00089
   222    C   15  dxz    Ryd( 3d)     0.00056
   223    C   15  dyz    Ryd( 3d)     0.00039
   224    C   15  dx2y2  Ryd( 3d)     0.00053
   225    C   15  dz2    Ryd( 3d)     0.00111
 
   226    C   16  S      Cor( 1S)     1.99933
   227    C   16  S      Val( 2S)     1.03649
   228    C   16  S      Ryd( 3S)     0.00060
   229    C   16  S      Ryd( 4S)     0.00002
   230    C   16  px     Val( 2p)     1.13702
   231    C   16  px     Ryd( 3p)     0.00242
   232    C   16  py     Val( 2p)     1.04751
   233    C   16  py     Ryd( 3p)     0.00172
   234    C   16  pz     Val( 2p)     1.23331
   235    C   16  pz     Ryd( 3p)     0.00323
   236    C   16  dxy    Ryd( 3d)     0.00068
   237    C   16  dxz    Ryd( 3d)     0.00085
   238    C   16  dyz    Ryd( 3d)     0.00039
   239    C   16  dx2y2  Ryd( 3d)     0.00069
   240    C   16  dz2    Ryd( 3d)     0.00094
 
   241    C   17  S      Cor( 1S)     1.99932
   242    C   17  S      Val( 2S)     1.04080
   243    C   17  S      Ryd( 3S)     0.00066
   244    C   17  S      Ryd( 4S)     0.00002
   245    C   17  px     Val( 2p)     1.04135
   246    C   17  px     Ryd( 3p)     0.00180
   247    C   17  py     Val( 2p)     1.18650
   248    C   17  py     Ryd( 3p)     0.00325
   249    C   17  pz     Val( 2p)     1.19117
   250    C   17  pz     Ryd( 3p)     0.00228
   251    C   17  dxy    Ryd( 3d)     0.00051
   252    C   17  dxz    Ryd( 3d)     0.00065
   253    C   17  dyz    Ryd( 3d)     0.00029
   254    C   17  dx2y2  Ryd( 3d)     0.00092
   255    C   17  dz2    Ryd( 3d)     0.00112
 
   256    C   18  S      Cor( 1S)     1.99930
   257    C   18  S      Val( 2S)     1.01819
   258    C   18  S      Ryd( 3S)     0.00132
   259    C   18  S      Ryd( 4S)     0.00003
   260    C   18  px     Val( 2p)     1.18074
   261    C   18  px     Ryd( 3p)     0.00496
   262    C   18  py     Val( 2p)     0.86124
   263    C   18  py     Ryd( 3p)     0.00260
   264    C   18  pz     Val( 2p)     1.18587
   265    C   18  pz     Ryd( 3p)     0.00232
   266    C   18  dxy    Ryd( 3d)     0.00081
   267    C   18  dxz    Ryd( 3d)     0.00053
   268    C   18  dyz    Ryd( 3d)     0.00083
   269    C   18  dx2y2  Ryd( 3d)     0.00122
   270    C   18  dz2    Ryd( 3d)     0.00143
 
   271    H   19  S      Val( 1S)     0.72383
   272    H   19  S      Ryd( 2S)     0.00236
 
   273    H   20  S      Val( 1S)     0.77408
   274    H   20  S      Ryd( 2S)     0.00229
 
   275    H   21  S      Val( 1S)     0.76196
   276    H   21  S      Ryd( 2S)     0.00206
 
   277    H   22  S      Val( 1S)     0.75256
   278    H   22  S      Ryd( 2S)     0.00110
 
   279    H   23  S      Val( 1S)     0.75455
   280    H   23  S      Ryd( 2S)     0.00111
 
   281    H   24  S      Val( 1S)     0.77147
   282    H   24  S      Ryd( 2S)     0.00195
 
   283    H   25  S      Val( 1S)     0.76172
   284    H   25  S      Ryd( 2S)     0.00188
 
   285    H   26  S      Val( 1S)     0.75340
   286    H   26  S      Ryd( 2S)     0.00113
 
   287    H   27  S      Val( 1S)     0.73035
   288    H   27  S      Ryd( 2S)     0.00202
 
   289    H   28  S      Val( 1S)     0.77336
   290    H   28  S      Ryd( 2S)     0.00202
 
   291    H   29  S      Val( 1S)     0.73035
   292    H   29  S      Ryd( 2S)     0.00202
 
   293    H   30  S      Val( 1S)     0.77335
   294    H   30  S      Ryd( 2S)     0.00202
 
   295    H   31  S      Val( 1S)     0.76172
   296    H   31  S      Ryd( 2S)     0.00188
 
   297    H   32  S      Val( 1S)     0.75340
   298    H   32  S      Ryd( 2S)     0.00113
 
   299    H   33  S      Val( 1S)     0.75455
   300    H   33  S      Ryd( 2S)     0.00111
 
   301    H   34  S      Val( 1S)     0.77147
   302    H   34  S      Ryd( 2S)     0.00195
 
   303    H   35  S      Val( 1S)     0.76196
   304    H   35  S      Ryd( 2S)     0.00206
 
   305    H   36  S      Val( 1S)     0.75256
   306    H   36  S      Ryd( 2S)     0.00110
 
   307    H   37  S      Val( 1S)     0.72383
   308    H   37  S      Ryd( 2S)     0.00236
 
   309    H   38  S      Val( 1S)     0.77408
   310    H   38  S      Ryd( 2S)     0.00229


 Summary of Natural Population Analysis:                  
                                                          
                                       Natural Population 
                Natural  -----------------------------------------------
    Atom  No    Charge         Core      Valence    Rydberg      Total
 -----------------------------------------------------------------------
      C    1    0.79567      1.99934     3.15823    0.04676     5.20433
      O    2   -0.57188      1.99979     6.55353    0.01856     8.57188
      N    3   -0.24952      1.99941     5.22389    0.02622     7.24952
      N    4   -0.24953      1.99941     5.22390    0.02622     7.24953
      C    5    0.79566      1.99934     3.15823    0.04676     5.20434
      O    6   -0.57188      1.99979     6.55353    0.01856     8.57188
      N    7   -0.47116      1.99928     5.45900    0.01288     7.47116
      C    8   -0.26142      1.99930     4.24605    0.01606     6.26142
      C    9   -0.47064      1.99932     4.45982    0.01150     6.47064
      C   10   -0.46519      1.99933     4.45433    0.01154     6.46519
      C   11   -0.47141      1.99932     4.46068    0.01141     6.47141
      C   12   -0.25924      1.99932     4.24372    0.01620     6.25924
      N   13   -0.47116      1.99928     5.45900    0.01288     7.47116
      C   14   -0.25924      1.99932     4.24372    0.01620     6.25924
      C   15   -0.47141      1.99932     4.46068    0.01141     6.47141
      C   16   -0.46519      1.99933     4.45433    0.01154     6.46519
      C   17   -0.47064      1.99932     4.45982    0.01150     6.47064
      C   18   -0.26142      1.99930     4.24606    0.01606     6.26142
      H   19    0.27381      0.00000     0.72383    0.00236     0.72619
      H   20    0.22363      0.00000     0.77408    0.00229     0.77637
      H   21    0.23597      0.00000     0.76196    0.00206     0.76403
      H   22    0.24634      0.00000     0.75256    0.00110     0.75366
      H   23    0.24433      0.00000     0.75455    0.00111     0.75567
      H   24    0.22658      0.00000     0.77147    0.00195     0.77342
      H   25    0.23641      0.00000     0.76172    0.00188     0.76359
      H   26    0.24547      0.00000     0.75340    0.00113     0.75453
      H   27    0.26763      0.00000     0.73035    0.00202     0.73237
      H   28    0.22462      0.00000     0.77336    0.00202     0.77538
      H   29    0.26763      0.00000     0.73035    0.00202     0.73237
      H   30    0.22462      0.00000     0.77335    0.00202     0.77538
      H   31    0.23641      0.00000     0.76172    0.00188     0.76359
      H   32    0.24547      0.00000     0.75340    0.00113     0.75453
      H   33    0.24433      0.00000     0.75455    0.00111     0.75567
      H   34    0.22658      0.00000     0.77147    0.00195     0.77342
      H   35    0.23597      0.00000     0.76196    0.00206     0.76403
      H   36    0.24634      0.00000     0.75256    0.00110     0.75366
      H   37    0.27381      0.00000     0.72383    0.00236     0.72619
      H   38    0.22363      0.00000     0.77408    0.00229     0.77637
 =======================================================================
   * Total *   -0.00000     35.98882    99.63306    0.37812   136.00000

                                 Natural Population      
 --------------------------------------------------------
   Core                      35.98882 ( 99.9690% of  36)
   Valence                   99.63306 ( 99.6331% of 100)
   Natural Minimal Basis    135.62188 ( 99.7220% of 136)
   Natural Rydberg Basis      0.37812 (  0.2780% of 136)
 --------------------------------------------------------

    Atom  No          Natural Electron Configuration
 ----------------------------------------------------------------------------
      C    1      [core]2S( 0.73)2p( 2.42)3p( 0.03)3d( 0.01)
      O    2      [core]2S( 1.70)2p( 4.85)3d( 0.01)
      N    3      [core]2S( 1.40)2p( 3.82)3S( 0.01)3p( 0.01)3d( 0.01)
      N    4      [core]2S( 1.40)2p( 3.82)3S( 0.01)3p( 0.01)3d( 0.01)
      C    5      [core]2S( 0.73)2p( 2.42)3p( 0.03)3d( 0.01)
      O    6      [core]2S( 1.70)2p( 4.85)3d( 0.01)
      N    7      [core]2S( 1.21)2p( 4.25)3p( 0.01)
      C    8      [core]2S( 1.02)2p( 3.23)3p( 0.01)
      C    9      [core]2S( 1.04)2p( 3.42)3p( 0.01)
      C   10      [core]2S( 1.04)2p( 3.42)3p( 0.01)
      C   11      [core]2S( 1.04)2p( 3.42)3p( 0.01)
      C   12      [core]2S( 1.02)2p( 3.23)3p( 0.01)
      N   13      [core]2S( 1.21)2p( 4.25)3p( 0.01)
      C   14      [core]2S( 1.02)2p( 3.23)3p( 0.01)
      C   15      [core]2S( 1.04)2p( 3.42)3p( 0.01)
      C   16      [core]2S( 1.04)2p( 3.42)3p( 0.01)
      C   17      [core]2S( 1.04)2p( 3.42)3p( 0.01)
      C   18      [core]2S( 1.02)2p( 3.23)3p( 0.01)
      H   19            1S( 0.72)
      H   20            1S( 0.77)
      H   21            1S( 0.76)
      H   22            1S( 0.75)
      H   23            1S( 0.75)
      H   24            1S( 0.77)
      H   25            1S( 0.76)
      H   26            1S( 0.75)
      H   27            1S( 0.73)
      H   28            1S( 0.77)
      H   29            1S( 0.73)
      H   30            1S( 0.77)
      H   31            1S( 0.76)
      H   32            1S( 0.75)
      H   33            1S( 0.75)
      H   34            1S( 0.77)
      H   35            1S( 0.76)
      H   36            1S( 0.75)
      H   37            1S( 0.72)
      H   38            1S( 0.77)


 NBO analysis skipped by request.
 1\1\GINC-DELLA-R2C3N8\SP\RB3LYP TD-FC\6-31G(d)\C12H20N4O2\BJS4\22-Aug-
 2020\0\\# TD(NStates=10, Root=1) B3LYP/6-31G* scf=qc volume pop=NPA de
 nsity=current Geom=AllCheck Guess=Read\\Title Card Required\\0,1\C,0,-
 1.0394880788,-0.9339156949,0.1596979418\O,0,-0.9170462063,-1.244402679
 ,-1.0145484523\N,0,-1.5250895517,0.4055223276,0.4948306276\N,0,-2.7377
 041415,0.541696219,0.2540063759\C,0,-3.2232991765,1.8811375702,0.58915
 02907\O,0,-3.3455937504,2.19167734,1.7633983968\N,0,-3.6047808214,2.60
 78437985,-0.4888898707\C,0,-3.3953647434,2.191336686,-1.8805081801\C,0
 ,-4.7116770598,2.2571434578,-2.6660291042\C,0,-5.3721937012,3.63746489
 13,-2.530176362\C,0,-5.5505199178,4.0143937019,-1.0512951253\C,0,-4.22
 00901996,3.9233066827,-0.2936855665\N,0,-0.6581729581,-1.6606779198,1.
 2377574756\C,0,-0.0428502756,-2.9761389095,1.0425851698\C,0,1.28748956
 63,-3.0672588007,1.8003487266\C,0,1.1089917296,-2.6903715441,3.2792200
 242\C,0,0.4484721405,-1.3100475723,3.4150359507\C,0,-0.8677472634,-1.2
 442055027,2.6293622328\H,0,-2.9782452577,1.1833248643,-1.8942708728\H,
 0,-2.6521408518,2.8626215821,-2.3375851334\H,0,-5.3890413475,1.4817552
 707,-2.2847113665\H,0,-4.5112808923,2.0236460599,-3.7187570802\H,0,-6.
 339102288,3.6496885006,-3.0471347322\H,0,-4.7418261985,4.3919889613,-3
 .0239803785\H,0,-6.2746304165,3.3364440851,-0.5804525359\H,0,-5.949786
 8693,5.0316550611,-0.9553393435\H,0,-4.3485987505,4.068357723,0.779637
 1695\H,0,-3.525548759,4.6939715795,-0.661570606\H,0,0.0857834406,-3.12
 11576586,-0.0307271421\H,0,-0.7374410404,-3.7468092836,1.4103649913\H,
 0,2.0116609712,-2.3893011471,1.3296114158\H,0,1.6867599963,-4.08452049
 3,1.7044106781\H,0,2.0758391679,-2.7026190764,3.7962921724\H,0,0.47855
 92359,-3.4449044693,3.7729276271\H,0,1.1258882768,-0.5346548137,3.0338
 197995\H,0,0.2479550651,-1.0765788481,4.4677472347\H,0,-1.2848559931,-
 0.2361882483,2.6431041758\H,0,-1.6110330799,-1.9154937015,3.0863333753
 \\Version=ES64L-G16RevA.03\State=1-A\HF=-838.7633037\RMSD=1.564e-09\Di
 pole=-0.0001948,-0.0000666,0.0000358\Quadrupole=0.1608467,4.0550619,-4
 .2159086,-7.0182792,8.5409018,-11.1711445\PG=C01 [X(C12H20N4O2)]\\@


 NEVER TEACH A PIG TO SING.
 IT WASTES YOUR TIME AND ANNOYS THE PIG.
     -- SEEN ON A GREETING CARD
 Job cpu time:       0 days  0 hours 43 minutes 38.9 seconds.
 Elapsed time:       0 days  0 hours  8 minutes 45.4 seconds.
 File lengths (MBytes):  RWF=    821 Int=      0 D2E=      0 Chk=    268 Scr=      1
 Normal termination of Gaussian 16 at Sat Aug 22 16:40:41 2020.
