 Entering Gaussian System, Link 0=g16
 Input=azadicarboxylate_5_conf24123.com
 Output=azadicarboxylate_5_conf24123.log
 Initial command:
 /opt/export//g16/l1.exe "/scratch/bjs4/job.6469/Gau-6471.inp" -scrdir="/scratch/bjs4/job.6469/"
 Entering Link 1 = /opt/export//g16/l1.exe PID=      6472.
  
 Copyright (c) 1988,1990,1992,1993,1995,1998,2003,2009,2016,
            Gaussian, Inc.  All Rights Reserved.
  
 This is part of the Gaussian(R) 16 program.  It is based on
 the Gaussian(R) 09 system (copyright 2009, Gaussian, Inc.),
 the Gaussian(R) 03 system (copyright 2003, Gaussian, Inc.),
 the Gaussian(R) 98 system (copyright 1998, Gaussian, Inc.),
 the Gaussian(R) 94 system (copyright 1995, Gaussian, Inc.),
 the Gaussian 92(TM) system (copyright 1992, Gaussian, Inc.),
 the Gaussian 90(TM) system (copyright 1990, Gaussian, Inc.),
 the Gaussian 88(TM) system (copyright 1988, Gaussian, Inc.),
 the Gaussian 86(TM) system (copyright 1986, Carnegie Mellon
 University), and the Gaussian 82(TM) system (copyright 1983,
 Carnegie Mellon University). Gaussian is a federally registered
 trademark of Gaussian, Inc.
  
 This software contains proprietary and confidential information,
 including trade secrets, belonging to Gaussian, Inc.
  
 This software is provided under written license and may be
 used, copied, transmitted, or stored only in accord with that
 written license.
  
 The following legend is applicable only to US Government
 contracts under FAR:
  
                    RESTRICTED RIGHTS LEGEND
  
 Use, reproduction and disclosure by the US Government is
 subject to restrictions as set forth in subparagraphs (a)
 and (c) of the Commercial Computer Software - Restricted
 Rights clause in FAR 52.227-19.
  
 Gaussian, Inc.
 340 Quinnipiac St., Bldg. 40, Wallingford CT 06492
  
  
 ---------------------------------------------------------------
 Warning -- This program may not be used in any manner that
 competes with the business of Gaussian, Inc. or will provide
 assistance to any competitor of Gaussian, Inc.  The licensee
 of this program is prohibited from giving any competitor of
 Gaussian, Inc. access to this program.  By using this program,
 the user acknowledges that Gaussian, Inc. is engaged in the
 business of creating and licensing software in the field of
 computational chemistry and represents and warrants to the
 licensee that it is not a competitor of Gaussian, Inc. and that
 it will not use this program in any manner prohibited above.
 ---------------------------------------------------------------
  

 Cite this work as:
 Gaussian 16, Revision A.03,
 M. J. Frisch, G. W. Trucks, H. B. Schlegel, G. E. Scuseria, 
 M. A. Robb, J. R. Cheeseman, G. Scalmani, V. Barone, 
 G. A. Petersson, H. Nakatsuji, X. Li, M. Caricato, A. V. Marenich, 
 J. Bloino, B. G. Janesko, R. Gomperts, B. Mennucci, H. P. Hratchian, 
 J. V. Ortiz, A. F. Izmaylov, J. L. Sonnenberg, D. Williams-Young, 
 F. Ding, F. Lipparini, F. Egidi, J. Goings, B. Peng, A. Petrone, 
 T. Henderson, D. Ranasinghe, V. G. Zakrzewski, J. Gao, N. Rega, 
 G. Zheng, W. Liang, M. Hada, M. Ehara, K. Toyota, R. Fukuda, 
 J. Hasegawa, M. Ishida, T. Nakajima, Y. Honda, O. Kitao, H. Nakai, 
 T. Vreven, K. Throssell, J. A. Montgomery, Jr., J. E. Peralta, 
 F. Ogliaro, M. J. Bearpark, J. J. Heyd, E. N. Brothers, K. N. Kudin, 
 V. N. Staroverov, T. A. Keith, R. Kobayashi, J. Normand, 
 K. Raghavachari, A. P. Rendell, J. C. Burant, S. S. Iyengar, 
 J. Tomasi, M. Cossi, J. M. Millam, M. Klene, C. Adamo, R. Cammi, 
 J. W. Ochterski, R. L. Martin, K. Morokuma, O. Farkas, 
 J. B. Foresman, and D. J. Fox, Gaussian, Inc., Wallingford CT, 2016.
 
 ******************************************
 Gaussian 16:  ES64L-G16RevA.03 25-Dec-2016
                22-Aug-2020 
 ******************************************
 %nprocshared=5
 Will use up to    5 processors via shared memory.
 %Mem=10GB
 %Chk=azadicarboxylate_5_conf241.chk
 ---------------------------------
 # opt=CalcAll B3LYP/6-31G* scf=qc
 ---------------------------------
 1/10=4,18=20,19=15,26=3,38=1/1,3;
 2/9=110,12=2,17=6,18=5,40=1/2;
 3/5=1,6=6,7=1,11=2,25=1,30=1,71=2,74=-5,140=1/1,2,3;
 4//1;
 5/5=2,8=3,38=5/8;
 8/6=4,10=90,11=11/1;
 11/6=1,8=1,9=11,15=111,16=1/1,2,10;
 10/6=1/2;
 6/7=2,8=2,9=2,10=2,18=1,28=1/1;
 7/10=1,25=1/1,2,3,16;
 1/10=4,18=20,19=15,26=3/3(3);
 2/9=110/2;
 7/8=1,9=1,25=1,44=-1/16;
 99//99;
 2/9=110/2;
 3/5=1,6=6,7=1,11=2,25=1,30=1,71=2,74=-5,140=1/1,2,3;
 4/5=5,16=3,69=1/1;
 5/5=2,8=3,38=5/8;
 8/6=4,10=90,11=11/1;
 11/6=1,8=1,9=11,15=111,16=1/1,2,10;
 10/6=1/2;
 7/10=1,25=1/1,2,3,16;
 1/10=4,18=20,19=15,26=3/3(-8);
 2/9=110/2;
 6/7=2,8=2,9=2,10=2,18=1,19=2,28=1/1;
 7/8=1,9=1,25=1,44=-1/16;
 99//99;
 -------------------
 Title Card Required
 -------------------
 Symbolic Z-matrix:
 Charge =  0 Multiplicity = 1
 C2                    0.8141    0.1461    0.0473 
 O3                    1.91042  -0.09096   0.55846 
 N4                    0.2028    1.3863    0.0651 
 N5                   -1.0496    1.3066    0.0658 
 C6                   -1.6625    2.5457    0.0392 
 O7                   -1.17293   3.54729  -0.48666 
 N8                   -2.91763   2.60819   0.64913 
 C                    -3.48027   1.42107   1.28152 
 C                    -4.04237   1.75211   2.66216 
 C                    -5.03254   2.91318   2.59524 
 C                    -4.41236   4.12325   1.89663 
 C                    -3.82254   3.75302   0.53553 
 N1                    0.09454  -0.86908  -0.59304 
 C                     0.64397  -2.21881  -0.65739 
 C                    -0.41012  -3.25501  -0.27511 
 C                    -1.67968  -3.08967  -1.10818 
 C                    -2.19962  -1.65387  -1.03642 
 C                    -1.11165  -0.6379   -1.38508 
 H                    -2.7345    0.62652   1.37256 
 H                    -4.2773    1.04709   0.62696 
 H                    -3.21799   2.02237   3.33389 
 H                    -4.53114   0.86903   3.08895 
 H                    -5.34727   3.19041   3.60789 
 H                    -5.93264   2.59688   2.05443 
 H                    -3.61864   4.53321   2.53341 
 H                    -5.16757   4.90787   1.77549 
 H                    -3.32227   4.62348   0.10305 
 H                    -4.62474   3.46261  -0.1544 
 H                     1.51527  -2.32726  -0.00456 
 H                     0.98472  -2.38489  -1.68675 
 H                    -0.66153  -3.14162   0.78699 
 H                    -0.00669  -4.26513  -0.40622 
 H                    -2.45043  -3.7819   -0.74998 
 H                    -1.47056  -3.35401  -2.15185 
 H                    -2.56316  -1.45766  -0.02016 
 H                    -3.05284  -1.53507  -1.71358 
 H                    -1.49804   0.37547  -1.24936 
 H                    -0.82864  -0.73929  -2.44022 
 

 GradGradGradGradGradGradGradGradGradGradGradGradGradGradGradGradGradGrad
 Berny optimization.
 Initialization pass.
                           ----------------------------
                           !    Initial Parameters    !
                           ! (Angstroms and Degrees)  !
 --------------------------                            --------------------------
 ! Name  Definition              Value          Derivative Info.                !
 --------------------------------------------------------------------------------
 ! R1    R(1,2)                  1.2326         calculate D2E/DX2 analytically  !
 ! R2    R(1,3)                  1.3828         calculate D2E/DX2 analytically  !
 ! R3    R(1,13)                 1.3994         calculate D2E/DX2 analytically  !
 ! R4    R(3,4)                  1.2549         calculate D2E/DX2 analytically  !
 ! R5    R(4,5)                  1.3827         calculate D2E/DX2 analytically  !
 ! R6    R(5,6)                  1.2326         calculate D2E/DX2 analytically  !
 ! R7    R(5,7)                  1.3969         calculate D2E/DX2 analytically  !
 ! R8    R(7,8)                  1.458          calculate D2E/DX2 analytically  !
 ! R9    R(7,12)                 1.4637         calculate D2E/DX2 analytically  !
 ! R10   R(8,9)                  1.527          calculate D2E/DX2 analytically  !
 ! R11   R(8,19)                 1.0935         calculate D2E/DX2 analytically  !
 ! R12   R(8,20)                 1.0971         calculate D2E/DX2 analytically  !
 ! R13   R(9,10)                 1.5274         calculate D2E/DX2 analytically  !
 ! R14   R(9,21)                 1.0972         calculate D2E/DX2 analytically  !
 ! R15   R(9,22)                 1.0958         calculate D2E/DX2 analytically  !
 ! R16   R(10,11)                1.5287         calculate D2E/DX2 analytically  !
 ! R17   R(10,23)                1.0961         calculate D2E/DX2 analytically  !
 ! R18   R(10,24)                1.0967         calculate D2E/DX2 analytically  !
 ! R19   R(11,12)                1.5289         calculate D2E/DX2 analytically  !
 ! R20   R(11,25)                1.0971         calculate D2E/DX2 analytically  !
 ! R21   R(11,26)                1.0957         calculate D2E/DX2 analytically  !
 ! R22   R(12,27)                1.0932         calculate D2E/DX2 analytically  !
 ! R23   R(12,28)                1.0972         calculate D2E/DX2 analytically  !
 ! R24   R(13,14)                1.4587         calculate D2E/DX2 analytically  !
 ! R25   R(13,18)                1.4614         calculate D2E/DX2 analytically  !
 ! R26   R(14,15)                1.5267         calculate D2E/DX2 analytically  !
 ! R27   R(14,29)                1.0941         calculate D2E/DX2 analytically  !
 ! R28   R(14,30)                1.0969         calculate D2E/DX2 analytically  !
 ! R29   R(15,16)                1.5275         calculate D2E/DX2 analytically  !
 ! R30   R(15,31)                1.0973         calculate D2E/DX2 analytically  !
 ! R31   R(15,32)                1.0956         calculate D2E/DX2 analytically  !
 ! R32   R(16,17)                1.5287         calculate D2E/DX2 analytically  !
 ! R33   R(16,33)                1.0962         calculate D2E/DX2 analytically  !
 ! R34   R(16,34)                1.0967         calculate D2E/DX2 analytically  !
 ! R35   R(17,18)                1.5289         calculate D2E/DX2 analytically  !
 ! R36   R(17,35)                1.097          calculate D2E/DX2 analytically  !
 ! R37   R(17,36)                1.0957         calculate D2E/DX2 analytically  !
 ! R38   R(18,37)                1.093          calculate D2E/DX2 analytically  !
 ! R39   R(18,38)                1.0971         calculate D2E/DX2 analytically  !
 ! A1    A(2,1,3)              124.0792         calculate D2E/DX2 analytically  !
 ! A2    A(2,1,13)             120.5011         calculate D2E/DX2 analytically  !
 ! A3    A(3,1,13)             115.4171         calculate D2E/DX2 analytically  !
 ! A4    A(1,3,4)              112.5961         calculate D2E/DX2 analytically  !
 ! A5    A(3,4,5)              112.6722         calculate D2E/DX2 analytically  !
 ! A6    A(4,5,6)              124.0798         calculate D2E/DX2 analytically  !
 ! A7    A(4,5,7)              115.4668         calculate D2E/DX2 analytically  !
 ! A8    A(6,5,7)              120.4506         calculate D2E/DX2 analytically  !
 ! A9    A(5,7,8)              119.9805         calculate D2E/DX2 analytically  !
 ! A10   A(5,7,12)             123.8212         calculate D2E/DX2 analytically  !
 ! A11   A(8,7,12)             115.5898         calculate D2E/DX2 analytically  !
 ! A12   A(7,8,9)              110.9595         calculate D2E/DX2 analytically  !
 ! A13   A(7,8,19)             111.3793         calculate D2E/DX2 analytically  !
 ! A14   A(7,8,20)             107.4053         calculate D2E/DX2 analytically  !
 ! A15   A(9,8,19)             109.4689         calculate D2E/DX2 analytically  !
 ! A16   A(9,8,20)             110.2384         calculate D2E/DX2 analytically  !
 ! A17   A(19,8,20)            107.3048         calculate D2E/DX2 analytically  !
 ! A18   A(8,9,10)             111.3346         calculate D2E/DX2 analytically  !
 ! A19   A(8,9,21)             109.2908         calculate D2E/DX2 analytically  !
 ! A20   A(8,9,22)             109.9755         calculate D2E/DX2 analytically  !
 ! A21   A(10,9,21)            109.0658         calculate D2E/DX2 analytically  !
 ! A22   A(10,9,22)            109.9066         calculate D2E/DX2 analytically  !
 ! A23   A(21,9,22)            107.1679         calculate D2E/DX2 analytically  !
 ! A24   A(9,10,11)            111.0227         calculate D2E/DX2 analytically  !
 ! A25   A(9,10,23)            109.751          calculate D2E/DX2 analytically  !
 ! A26   A(9,10,24)            109.5378         calculate D2E/DX2 analytically  !
 ! A27   A(11,10,23)           109.7851         calculate D2E/DX2 analytically  !
 ! A28   A(11,10,24)           109.6279         calculate D2E/DX2 analytically  !
 ! A29   A(23,10,24)           107.0304         calculate D2E/DX2 analytically  !
 ! A30   A(10,11,12)           111.8182         calculate D2E/DX2 analytically  !
 ! A31   A(10,11,25)           108.9083         calculate D2E/DX2 analytically  !
 ! A32   A(10,11,26)           109.7382         calculate D2E/DX2 analytically  !
 ! A33   A(12,11,25)           109.1544         calculate D2E/DX2 analytically  !
 ! A34   A(12,11,26)           109.9296         calculate D2E/DX2 analytically  !
 ! A35   A(25,11,26)           107.1717         calculate D2E/DX2 analytically  !
 ! A36   A(7,12,11)            111.0271         calculate D2E/DX2 analytically  !
 ! A37   A(7,12,27)            111.7517         calculate D2E/DX2 analytically  !
 ! A38   A(7,12,28)            107.0852         calculate D2E/DX2 analytically  !
 ! A39   A(11,12,27)           109.6288         calculate D2E/DX2 analytically  !
 ! A40   A(11,12,28)           109.9884         calculate D2E/DX2 analytically  !
 ! A41   A(27,12,28)           107.2523         calculate D2E/DX2 analytically  !
 ! A42   A(1,13,14)            119.8514         calculate D2E/DX2 analytically  !
 ! A43   A(1,13,18)            123.892          calculate D2E/DX2 analytically  !
 ! A44   A(14,13,18)           115.6803         calculate D2E/DX2 analytically  !
 ! A45   A(13,14,15)           110.9101         calculate D2E/DX2 analytically  !
 ! A46   A(13,14,29)           111.4288         calculate D2E/DX2 analytically  !
 ! A47   A(13,14,30)           107.3672         calculate D2E/DX2 analytically  !
 ! A48   A(15,14,29)           109.4593         calculate D2E/DX2 analytically  !
 ! A49   A(15,14,30)           110.2841         calculate D2E/DX2 analytically  !
 ! A50   A(29,14,30)           107.3092         calculate D2E/DX2 analytically  !
 ! A51   A(14,15,16)           111.3349         calculate D2E/DX2 analytically  !
 ! A52   A(14,15,31)           109.2932         calculate D2E/DX2 analytically  !
 ! A53   A(14,15,32)           109.9719         calculate D2E/DX2 analytically  !
 ! A54   A(16,15,31)           109.0429         calculate D2E/DX2 analytically  !
 ! A55   A(16,15,32)           109.9131         calculate D2E/DX2 analytically  !
 ! A56   A(31,15,32)           107.1858         calculate D2E/DX2 analytically  !
 ! A57   A(15,16,17)           111.0236         calculate D2E/DX2 analytically  !
 ! A58   A(15,16,33)           109.7454         calculate D2E/DX2 analytically  !
 ! A59   A(15,16,34)           109.5381         calculate D2E/DX2 analytically  !
 ! A60   A(17,16,33)           109.7937         calculate D2E/DX2 analytically  !
 ! A61   A(17,16,34)           109.6267         calculate D2E/DX2 analytically  !
 ! A62   A(33,16,34)           107.0273         calculate D2E/DX2 analytically  !
 ! A63   A(16,17,18)           111.8016         calculate D2E/DX2 analytically  !
 ! A64   A(16,17,35)           108.916          calculate D2E/DX2 analytically  !
 ! A65   A(16,17,36)           109.7341         calculate D2E/DX2 analytically  !
 ! A66   A(18,17,35)           109.1614         calculate D2E/DX2 analytically  !
 ! A67   A(18,17,36)           109.946          calculate D2E/DX2 analytically  !
 ! A68   A(35,17,36)           107.1615         calculate D2E/DX2 analytically  !
 ! A69   A(13,18,17)           111.016          calculate D2E/DX2 analytically  !
 ! A70   A(13,18,37)           111.7866         calculate D2E/DX2 analytically  !
 ! A71   A(13,18,38)           107.08           calculate D2E/DX2 analytically  !
 ! A72   A(17,18,37)           109.6473         calculate D2E/DX2 analytically  !
 ! A73   A(17,18,38)           109.9669         calculate D2E/DX2 analytically  !
 ! A74   A(37,18,38)           107.2351         calculate D2E/DX2 analytically  !
 ! D1    D(2,1,3,4)           -149.6471         calculate D2E/DX2 analytically  !
 ! D2    D(13,1,3,4)            29.763          calculate D2E/DX2 analytically  !
 ! D3    D(2,1,13,14)           -0.0006         calculate D2E/DX2 analytically  !
 ! D4    D(2,1,13,18)         -170.9094         calculate D2E/DX2 analytically  !
 ! D5    D(3,1,13,14)         -179.4335         calculate D2E/DX2 analytically  !
 ! D6    D(3,1,13,18)            9.6577         calculate D2E/DX2 analytically  !
 ! D7    D(1,3,4,5)           -178.0064         calculate D2E/DX2 analytically  !
 ! D8    D(3,4,5,6)             29.6472         calculate D2E/DX2 analytically  !
 ! D9    D(3,4,5,7)           -150.9649         calculate D2E/DX2 analytically  !
 ! D10   D(4,5,7,8)              1.2938         calculate D2E/DX2 analytically  !
 ! D11   D(4,5,7,12)          -169.3591         calculate D2E/DX2 analytically  !
 ! D12   D(6,5,7,8)           -179.2943         calculate D2E/DX2 analytically  !
 ! D13   D(6,5,7,12)            10.0528         calculate D2E/DX2 analytically  !
 ! D14   D(5,7,8,9)            133.4702         calculate D2E/DX2 analytically  !
 ! D15   D(5,7,8,19)            11.2455         calculate D2E/DX2 analytically  !
 ! D16   D(5,7,8,20)          -105.9796         calculate D2E/DX2 analytically  !
 ! D17   D(12,7,8,9)           -55.1339         calculate D2E/DX2 analytically  !
 ! D18   D(12,7,8,19)         -177.3586         calculate D2E/DX2 analytically  !
 ! D19   D(12,7,8,20)           65.4163         calculate D2E/DX2 analytically  !
 ! D20   D(5,7,12,11)         -134.8053         calculate D2E/DX2 analytically  !
 ! D21   D(5,7,12,27)          -12.0634         calculate D2E/DX2 analytically  !
 ! D22   D(5,7,12,28)          105.1104         calculate D2E/DX2 analytically  !
 ! D23   D(8,7,12,11)           54.1686         calculate D2E/DX2 analytically  !
 ! D24   D(8,7,12,27)          176.9105         calculate D2E/DX2 analytically  !
 ! D25   D(8,7,12,28)          -65.9157         calculate D2E/DX2 analytically  !
 ! D26   D(7,8,9,10)            53.4586         calculate D2E/DX2 analytically  !
 ! D27   D(7,8,9,21)           -67.0892         calculate D2E/DX2 analytically  !
 ! D28   D(7,8,9,22)           175.5254         calculate D2E/DX2 analytically  !
 ! D29   D(19,8,9,10)          176.7883         calculate D2E/DX2 analytically  !
 ! D30   D(19,8,9,21)           56.2406         calculate D2E/DX2 analytically  !
 ! D31   D(19,8,9,22)          -61.1449         calculate D2E/DX2 analytically  !
 ! D32   D(20,8,9,10)          -65.3986         calculate D2E/DX2 analytically  !
 ! D33   D(20,8,9,21)          174.0536         calculate D2E/DX2 analytically  !
 ! D34   D(20,8,9,22)           56.6682         calculate D2E/DX2 analytically  !
 ! D35   D(8,9,10,11)          -53.1501         calculate D2E/DX2 analytically  !
 ! D36   D(8,9,10,23)         -174.7032         calculate D2E/DX2 analytically  !
 ! D37   D(8,9,10,24)           68.0635         calculate D2E/DX2 analytically  !
 ! D38   D(21,9,10,11)          67.5299         calculate D2E/DX2 analytically  !
 ! D39   D(21,9,10,23)         -54.0232         calculate D2E/DX2 analytically  !
 ! D40   D(21,9,10,24)        -171.2565         calculate D2E/DX2 analytically  !
 ! D41   D(22,9,10,11)        -175.2567         calculate D2E/DX2 analytically  !
 ! D42   D(22,9,10,23)          63.1902         calculate D2E/DX2 analytically  !
 ! D43   D(22,9,10,24)         -54.0431         calculate D2E/DX2 analytically  !
 ! D44   D(9,10,11,12)          52.4208         calculate D2E/DX2 analytically  !
 ! D45   D(9,10,11,25)         -68.2912         calculate D2E/DX2 analytically  !
 ! D46   D(9,10,11,26)         174.6785         calculate D2E/DX2 analytically  !
 ! D47   D(23,10,11,12)        173.954          calculate D2E/DX2 analytically  !
 ! D48   D(23,10,11,25)         53.242          calculate D2E/DX2 analytically  !
 ! D49   D(23,10,11,26)        -63.7883         calculate D2E/DX2 analytically  !
 ! D50   D(24,10,11,12)        -68.7399         calculate D2E/DX2 analytically  !
 ! D51   D(24,10,11,25)        170.5481         calculate D2E/DX2 analytically  !
 ! D52   D(24,10,11,26)         53.5178         calculate D2E/DX2 analytically  !
 ! D53   D(10,11,12,7)         -51.6944         calculate D2E/DX2 analytically  !
 ! D54   D(10,11,12,27)       -175.6547         calculate D2E/DX2 analytically  !
 ! D55   D(10,11,12,28)         66.6488         calculate D2E/DX2 analytically  !
 ! D56   D(25,11,12,7)          68.8743         calculate D2E/DX2 analytically  !
 ! D57   D(25,11,12,27)        -55.0859         calculate D2E/DX2 analytically  !
 ! D58   D(25,11,12,28)       -172.7825         calculate D2E/DX2 analytically  !
 ! D59   D(26,11,12,7)        -173.8425         calculate D2E/DX2 analytically  !
 ! D60   D(26,11,12,27)         62.1972         calculate D2E/DX2 analytically  !
 ! D61   D(26,11,12,28)        -55.4993         calculate D2E/DX2 analytically  !
 ! D62   D(1,13,14,15)         133.2491         calculate D2E/DX2 analytically  !
 ! D63   D(1,13,14,29)          11.0368         calculate D2E/DX2 analytically  !
 ! D64   D(1,13,14,30)        -106.198          calculate D2E/DX2 analytically  !
 ! D65   D(18,13,14,15)        -55.1191         calculate D2E/DX2 analytically  !
 ! D66   D(18,13,14,29)       -177.3314         calculate D2E/DX2 analytically  !
 ! D67   D(18,13,14,30)         65.4338         calculate D2E/DX2 analytically  !
 ! D68   D(1,13,18,17)        -134.5537         calculate D2E/DX2 analytically  !
 ! D69   D(1,13,18,37)         -11.7711         calculate D2E/DX2 analytically  !
 ! D70   D(1,13,18,38)         105.3979         calculate D2E/DX2 analytically  !
 ! D71   D(14,13,18,17)         54.1927         calculate D2E/DX2 analytically  !
 ! D72   D(14,13,18,37)        176.9753         calculate D2E/DX2 analytically  !
 ! D73   D(14,13,18,38)        -65.8557         calculate D2E/DX2 analytically  !
 ! D74   D(13,14,15,16)         53.3819         calculate D2E/DX2 analytically  !
 ! D75   D(13,14,15,31)        -67.1389         calculate D2E/DX2 analytically  !
 ! D76   D(13,14,15,32)        175.4546         calculate D2E/DX2 analytically  !
 ! D77   D(29,14,15,16)        176.7342         calculate D2E/DX2 analytically  !
 ! D78   D(29,14,15,31)         56.2134         calculate D2E/DX2 analytically  !
 ! D79   D(29,14,15,32)        -61.1931         calculate D2E/DX2 analytically  !
 ! D80   D(30,14,15,16)        -65.426          calculate D2E/DX2 analytically  !
 ! D81   D(30,14,15,31)        174.0532         calculate D2E/DX2 analytically  !
 ! D82   D(30,14,15,32)         56.6467         calculate D2E/DX2 analytically  !
 ! D83   D(14,15,16,17)        -53.1539         calculate D2E/DX2 analytically  !
 ! D84   D(14,15,16,33)       -174.7147         calculate D2E/DX2 analytically  !
 ! D85   D(14,15,16,34)         68.0589         calculate D2E/DX2 analytically  !
 ! D86   D(31,15,16,17)         67.514          calculate D2E/DX2 analytically  !
 ! D87   D(31,15,16,33)        -54.0468         calculate D2E/DX2 analytically  !
 ! D88   D(31,15,16,34)       -171.2732         calculate D2E/DX2 analytically  !
 ! D89   D(32,15,16,17)       -175.2606         calculate D2E/DX2 analytically  !
 ! D90   D(32,15,16,33)         63.1786         calculate D2E/DX2 analytically  !
 ! D91   D(32,15,16,34)        -54.0478         calculate D2E/DX2 analytically  !
 ! D92   D(15,16,17,18)         52.4332         calculate D2E/DX2 analytically  !
 ! D93   D(15,16,17,35)        -68.2822         calculate D2E/DX2 analytically  !
 ! D94   D(15,16,17,36)        174.6978         calculate D2E/DX2 analytically  !
 ! D95   D(33,16,17,18)        173.9657         calculate D2E/DX2 analytically  !
 ! D96   D(33,16,17,35)         53.2503         calculate D2E/DX2 analytically  !
 ! D97   D(33,16,17,36)        -63.7697         calculate D2E/DX2 analytically  !
 ! D98   D(34,16,17,18)        -68.7275         calculate D2E/DX2 analytically  !
 ! D99   D(34,16,17,35)        170.5571         calculate D2E/DX2 analytically  !
 ! D100  D(34,16,17,36)         53.5371         calculate D2E/DX2 analytically  !
 ! D101  D(16,17,18,13)        -51.7105         calculate D2E/DX2 analytically  !
 ! D102  D(16,17,18,37)       -175.7204         calculate D2E/DX2 analytically  !
 ! D103  D(16,17,18,38)         66.6057         calculate D2E/DX2 analytically  !
 ! D104  D(35,17,18,13)         68.8619         calculate D2E/DX2 analytically  !
 ! D105  D(35,17,18,37)        -55.148          calculate D2E/DX2 analytically  !
 ! D106  D(35,17,18,38)       -172.8218         calculate D2E/DX2 analytically  !
 ! D107  D(36,17,18,13)       -173.8537         calculate D2E/DX2 analytically  !
 ! D108  D(36,17,18,37)         62.1364         calculate D2E/DX2 analytically  !
 ! D109  D(36,17,18,38)        -55.5375         calculate D2E/DX2 analytically  !
 --------------------------------------------------------------------------------
 Trust Radius=3.00D-01 FncErr=1.00D-07 GrdErr=1.00D-06 EigMax=2.50D+02 EigMin=1.00D-04
 Number of steps in this run=    228 maximum allowed number of steps=    228.
 GradGradGradGradGradGradGradGradGradGradGradGradGradGradGradGradGradGrad

                          Input orientation:                          
 ---------------------------------------------------------------------
 Center     Atomic      Atomic             Coordinates (Angstroms)
 Number     Number       Type             X           Y           Z
 ---------------------------------------------------------------------
      1          6           0        0.814100    0.146100    0.047300
      2          8           0        1.910420   -0.090960    0.558460
      3          7           0        0.202800    1.386300    0.065100
      4          7           0       -1.049600    1.306600    0.065800
      5          6           0       -1.662500    2.545700    0.039200
      6          8           0       -1.172930    3.547290   -0.486660
      7          7           0       -2.917630    2.608190    0.649130
      8          6           0       -3.480270    1.421070    1.281520
      9          6           0       -4.042370    1.752110    2.662160
     10          6           0       -5.032540    2.913180    2.595240
     11          6           0       -4.412360    4.123250    1.896630
     12          6           0       -3.822540    3.753020    0.535530
     13          7           0        0.094540   -0.869080   -0.593040
     14          6           0        0.643970   -2.218810   -0.657390
     15          6           0       -0.410120   -3.255010   -0.275110
     16          6           0       -1.679680   -3.089670   -1.108180
     17          6           0       -2.199620   -1.653870   -1.036420
     18          6           0       -1.111650   -0.637900   -1.385080
     19          1           0       -2.734500    0.626520    1.372560
     20          1           0       -4.277300    1.047090    0.626960
     21          1           0       -3.217990    2.022370    3.333890
     22          1           0       -4.531140    0.869030    3.088950
     23          1           0       -5.347270    3.190410    3.607890
     24          1           0       -5.932640    2.596880    2.054430
     25          1           0       -3.618640    4.533210    2.533410
     26          1           0       -5.167570    4.907870    1.775490
     27          1           0       -3.322270    4.623480    0.103050
     28          1           0       -4.624740    3.462610   -0.154400
     29          1           0        1.515270   -2.327260   -0.004560
     30          1           0        0.984720   -2.384890   -1.686750
     31          1           0       -0.661530   -3.141620    0.786990
     32          1           0       -0.006690   -4.265130   -0.406220
     33          1           0       -2.450430   -3.781900   -0.749980
     34          1           0       -1.470560   -3.354010   -2.151850
     35          1           0       -2.563160   -1.457660   -0.020160
     36          1           0       -3.052840   -1.535070   -1.713580
     37          1           0       -1.498040    0.375470   -1.249360
     38          1           0       -0.828640   -0.739290   -2.440220
 ---------------------------------------------------------------------
                    Distance matrix (angstroms):
                    1          2          3          4          5
     1  C    0.000000
     2  O    1.232639   0.000000
     3  N    1.382787   2.311205   0.000000
     4  N    2.195559   3.310228   1.254934   0.000000
     5  C    3.448433   4.470723   2.196411   1.382651   0.000000
     6  O    3.975109   4.882232   2.620487   2.311085   1.232635
     7  N    4.511086   5.532061   3.401645   2.350308   1.396879
     8  C    4.646554   5.645227   3.878903   2.720154   2.472335
     9  C    5.744742   6.577094   4.989991   3.987008   3.629530
    10  C    6.952117   7.834413   6.011801   4.984273   4.245651
    11  C    6.823022   7.715427   5.669665   4.753274   3.674295
    12  C    5.894631   6.902430   4.693190   3.727575   2.523834
    13  N    1.399426   2.286666   2.351937   2.544938   3.891997
    14  C    2.473526   2.758611   3.703166   3.977398   5.339063
    15  C    3.629079   4.011354   4.693951   4.618814   5.942683
    16  C    4.245501   4.965760   4.995460   4.593737   5.751015
    17  C    3.673806   4.677474   4.028350   3.361818   4.368277
    18  C    2.524853   3.634474   2.815704   2.426929   3.530909
    19  H    3.818335   4.769991   3.303702   2.238084   2.571047
    20  H    5.202898   6.291878   4.527919   3.286380   3.070582
    21  H    5.529902   6.202400   4.774032   3.986810   3.680816
    22  H    6.192403   6.987035   5.641048   4.631633   4.510132
    23  H    7.740033   8.528803   6.827111   5.879210   5.169983
    24  H    7.453415   8.424726   6.562512   5.428034   4.722062
    25  H    6.713915   7.473545   5.531636   4.806254   3.741358
    26  H    7.838461   8.750280   6.645883   5.731480   4.569471
    27  H    6.095867   7.057931   4.786115   4.020959   2.660091
    28  H    6.373453   7.472907   5.259694   4.180729   3.106939
    29  H    2.571350   2.339695   3.939284   4.448421   5.817721
    30  H    3.072776   3.340659   4.231105   4.564755   5.856398
    31  H    3.678822   3.996709   4.665860   4.522983   5.822949
    32  H    4.509803   4.693572   5.674918   5.688114   7.023355
    33  H    5.169332   5.861064   5.866368   5.340473   6.425119
    34  H    4.722997   5.424417   5.494137   5.178462   6.296358
    35  H    3.739316   4.713341   3.968112   3.152679   4.103852
    36  H    4.569492   5.646377   4.722001   3.905669   4.653812
    37  H    2.660814   3.886305   2.375382   1.672647   2.529295
    38  H    3.109705   4.112768   3.443636   3.242626   4.199286
                    6          7          8          9         10
     6  O    0.000000
     7  N    2.283836   0.000000
     8  C    3.601540   1.457990   0.000000
     9  C    4.622924   2.459716   1.526994   0.000000
    10  C    4.979638   2.890192   2.522260   1.527416   0.000000
    11  C    4.062722   2.466958   2.923855   2.518975   1.528708
    12  C    2.847390   1.463695   2.472173   2.928228   2.532160
    13  N    4.595881   4.765245   4.640908   5.880560   7.124435
    14  C    6.047990   6.139374   5.832448   6.982077   8.315028
    15  C    6.848205   6.443519   5.806431   6.847777   8.225098
    16  C    6.685232   6.089850   5.412907   6.575759   7.809686
    17  C    5.329953   4.639156   4.058099   5.354990   6.486319
    18  C    4.280973   4.235171   4.118310   5.539081   6.620158
    19  H    3.798170   2.117523   1.093513   2.154192   3.464787
    20  H    4.138631   2.070321   1.097072   2.166630   2.815458
    21  H    4.593937   2.764297   2.154664   1.097207   2.152147
    22  H    5.588885   3.403059   2.162378   1.095845   2.161874
    23  H    5.858141   3.872517   3.468177   2.160064   1.096071
    24  H    5.478618   3.326452   2.827373   2.157798   1.096677
    25  H    4.009284   2.783456   3.357349   2.816139   2.151147
    26  H    4.788074   3.408731   3.904966   3.465700   2.160790
    27  H    2.474996   2.126812   3.416019   3.913100   3.472918
    28  H    3.468798   2.071212   2.745827   3.346338   2.833495
    29  H    6.478362   6.666077   6.376472   7.391889   8.780375
    30  H    6.425452   6.753926   6.575112   7.829395   9.089136
    31  H    6.828267   6.178131   5.385907   6.236580   7.683495
    32  H    7.899398   7.538558   6.873652   7.868217   9.262617
    33  H    7.444352   6.558127   5.679653   6.693447   7.917189
    34  H    7.105588   6.744430   6.215171   7.474046   8.631352
    35  H    5.215351   4.135787   3.289764   4.436837   5.660600
    36  H    5.556058   4.771507   4.229904   5.561638   6.501697
    37  H    3.278391   3.256461   3.380513   4.865053   5.806342
    38  H    4.723315   5.011346   5.054666   6.524524   7.507940
                   11         12         13         14         15
    11  C    0.000000
    12  C    1.528905   0.000000
    13  N    7.171748   6.162872   0.000000
    14  C    8.503600   7.552187   1.458693   0.000000
    15  C    8.670242   7.836723   2.459354   1.526746   0.000000
    16  C    8.277840   7.356360   2.888641   2.522094   1.527457
    17  C    6.846467   5.859979   2.464884   2.923837   2.519038
    18  C    6.658292   5.506164   1.461392   2.472046   2.928044
    19  H    3.913692   3.414594   3.755512   4.861138   4.814959
    20  H    3.330625   2.745400   4.926773   6.044382   5.854646
    21  H    2.811749   3.345362   5.895262   6.988037   6.982819
    22  H    3.467807   3.916563   6.162385   7.095885   6.731078
    23  H    2.161633   3.475734   7.983769   9.129470   8.999810
    24  H    2.160083   2.845389   7.439682   8.590497   8.376730
    25  H    1.097063   2.154483   7.262722   8.598885   8.879119
    26  H    1.095740   2.163397   8.165347   9.512227   9.668035
    27  H    2.157650   1.093165   6.505947   7.945204   8.407986
    28  H    2.165242   1.097208   6.420868   7.764717   7.931205
    29  H    8.964396   8.108867   2.119215   1.094126   2.154308
    30  H    9.182863   8.106924   2.070339   1.096939   2.166891
    31  H    8.250961   7.588892   2.764157   2.154563   1.097324
    32  H    9.750793   8.929632   3.402691   2.161914   1.095577
    33  H    8.564176   7.765967   3.871178   3.468016   2.160088
    34  H    8.997433   7.953848   3.324801   2.827247   2.157889
    35  H    6.183865   5.389436   2.781724   3.357245   2.816212
    36  H    6.848248   5.797830   3.406634   3.905053   3.465741
    37  H    5.695294   4.471798   2.125082   3.415981   3.913198
    38  H    7.436102   6.164363   2.069101   2.745185   3.345401
                   16         17         18         19         20
    16  C    0.000000
    17  C    1.528728   0.000000
    18  C    2.531898   1.528868   0.000000
    19  H    4.590946   3.359979   3.440491   0.000000
    20  H    5.183736   3.791935   4.112036   1.764378   0.000000
    21  H    6.944878   5.800985   5.812261   2.455397   3.066069
    22  H    6.435684   5.368397   5.829296   2.496542   2.481438
    23  H    8.667868   7.412447   7.584602   4.289149   3.824212
    24  H    7.773456   6.446524   6.748035   3.817770   2.679491
    25  H    8.667701   7.282669   6.955569   4.170312   4.027582
    26  H    9.189210   7.731235   7.562754   4.940864   4.125206
    27  H    7.978588   6.477952   5.897753   4.234716   3.738600
    28  H    7.246754   5.730404   5.538100   3.734705   2.562416
    29  H    3.465105   3.913898   3.414745   5.355541   6.733418
    30  H    2.816112   3.331267   2.745496   5.679838   6.694819
    31  H    2.151975   2.811396   3.345013   4.340389   5.535765
    32  H    2.161793   3.467675   3.916108   5.876499   6.893856
    33  H    1.096150   2.161820   3.475690   4.901024   5.343460
    34  H    1.096747   2.160136   2.844997   5.464763   5.913481
    35  H    2.151228   1.097016   2.154506   2.512535   3.103355
    36  H    2.160754   1.095739   2.163572   3.781279   3.693911
    37  H    3.472768   2.157725   1.092994   2.909695   3.419932
    38  H    2.832470   2.164878   1.097130   4.476051   4.948940
                   21         22         23         24         25
    21  H    0.000000
    22  H    1.764809   0.000000
    23  H    2.444019   2.514791   0.000000
    24  H    3.055553   2.453548   1.763001   0.000000
    25  H    2.665634   3.816739   2.438397   3.055060   0.000000
    26  H    3.815178   4.294467   2.517866   2.450268   1.764652
    27  H    4.149093   4.947005   4.293975   3.837841   2.450027
    28  H    4.027580   4.153882   3.840699   2.709063   3.063127
    29  H    7.243499   7.506341   9.517822   9.162858   8.936687
    30  H    7.892626   7.988743   9.960486   9.309368   9.319913
    31  H    6.299919   6.029777   8.367093   7.894390   8.408180
    32  H    7.989589   7.684169  10.010991   9.394619   9.954818
    33  H    7.138396   6.379490   8.717558   7.789694   9.015898
    34  H    7.877329   7.393727   9.541117   8.544942   9.422003
    35  H    4.877403   4.353504   6.520627   5.665387   6.597369
    36  H    6.177346   5.570401   7.477474   6.290005   7.428397
    37  H    5.164948   5.316411   6.806860   5.959477   6.007753
    38  H    6.831991   6.845942   8.511181   7.575139   7.766618
                   26         27         28         29         30
    26  H    0.000000
    27  H    2.506604   0.000000
    28  H    2.471420   1.763612   0.000000
    29  H   10.008798   8.469130   8.440662   0.000000
    30  H   10.149982   8.418479   8.246660   1.764814   0.000000
    31  H    9.277705   8.236752   7.759452   2.455238   3.066296
    32  H   10.748882   9.500517   9.005985   2.496604   2.481522
    33  H    9.448436   8.493420   7.587178   4.289336   3.824844
    34  H    9.866638   8.494336   7.772063   3.818409   2.680282
    35  H    7.108255   6.129575   5.336402   4.170137   4.027993
    36  H    7.626085   6.426545   5.466143   4.941249   4.126113
    37  H    6.569461   4.816889   4.528314   4.234892   3.738314
    38  H    8.275805   6.437835   6.106661   3.734702   2.562029
                   31         32         33         34         35
    31  H    0.000000
    32  H    1.764891   0.000000
    33  H    2.443849   2.514666   0.000000
    34  H    3.055556   2.453626   1.763087   0.000000
    35  H    2.665222   3.816604   2.438737   3.055163   0.000000
    36  H    3.814737   4.294351   2.517870   2.450354   1.764497
    37  H    4.149264   4.946734   4.294200   3.837221   2.450669
    38  H    4.026661   4.152626   3.839868   2.707763   3.062892
                   36         37         38
    36  H    0.000000
    37  H    2.506605   0.000000
    38  H    2.471505   1.763217   0.000000
 Stoichiometry    C12H20N4O2
 Framework group  C1[X(C12H20N4O2)]
 Deg. of freedom   108
 Full point group                 C1      NOp   1
 Largest Abelian subgroup         C1      NOp   1
 Largest concise Abelian subgroup C1      NOp   1
                         Standard orientation:                         
 ---------------------------------------------------------------------
 Center     Atomic      Atomic             Coordinates (Angstroms)
 Number     Number       Type             X           Y           Z
 ---------------------------------------------------------------------
      1          6           0       -1.952664   -1.581360    0.623930
      2          8           0       -2.595276   -2.207764    1.468955
      3          7           0       -0.662154   -1.897412    0.240790
      4          7           0       -0.003807   -0.889466   -0.113443
      5          6           0        1.272492   -1.208942   -0.538553
      6          8           0        1.576897   -2.280848   -1.065570
      7          7           0        2.235725   -0.215643   -0.346694
      8          6           0        1.867770    1.042449    0.291700
      9          6           0        2.884114    1.428638    1.363900
     10          6           0        4.304984    1.442130    0.803593
     11          6           0        4.635906    0.117547    0.115903
     12          6           0        3.580438   -0.262659   -0.922837
     13          7           0       -2.511010   -0.465391   -0.009517
     14          6           0       -3.863543   -0.038273    0.331088
     15          6           0       -3.916550    1.469814    0.563077
     16          6           0       -3.332298    2.235331   -0.622570
     17          6           0       -1.929454    1.732048   -0.962778
     18          6           0       -1.900286    0.214921   -1.149629
     19          1           0        0.870912    0.986549    0.737706
     20          1           0        1.832282    1.809815   -0.491534
     21          1           0        2.831316    0.708123    2.189694
     22          1           0        2.636617    2.412949    1.777124
     23          1           0        5.020430    1.629012    1.612657
     24          1           0        4.408684    2.265445    0.086586
     25          1           0        4.694669   -0.672218    0.875091
     26          1           0        5.621003    0.183330   -0.359389
     27          1           0        3.810001   -1.248453   -1.335779
     28          1           0        3.599476    0.451472   -1.755615
     29          1           0       -4.234614   -0.557069    1.220058
     30          1           0       -4.515562   -0.317455   -0.505694
     31          1           0       -3.344908    1.718013    1.466262
     32          1           0       -4.951035    1.785409    0.737802
     33          1           0       -3.296424    3.306066   -0.390654
     34          1           0       -3.987465    2.117284   -1.494164
     35          1           0       -1.245889    2.007991   -0.150351
     36          1           0       -1.568789    2.227540   -1.871102
     37          1           0       -0.871639   -0.115203   -1.315580
     38          1           0       -2.478766   -0.064197   -2.039094
 ---------------------------------------------------------------------
 Rotational constants (GHZ):           0.7374500           0.2327643           0.2016559
 Standard basis: 6-31G(d) (6D, 7F)
 There are   310 symmetry adapted cartesian basis functions of A   symmetry.
 There are   310 symmetry adapted basis functions of A   symmetry.
   310 basis functions,   584 primitive gaussians,   310 cartesian basis functions
    68 alpha electrons       68 beta electrons
       nuclear repulsion energy      1401.7026699018 Hartrees.
 NAtoms=   38 NActive=   38 NUniq=   38 SFac= 1.00D+00 NAtFMM=   60 NAOKFM=F Big=F
 Integral buffers will be    131072 words long.
 Raffenetti 2 integral format.
 Two-electron integral symmetry is turned on.
 One-electron integrals computed using PRISM.
 NBasis=   310 RedAO= T EigKep=  1.86D-03  NBF=   310
 NBsUse=   310 1.00D-06 EigRej= -1.00D+00 NBFU=   310
 ExpMin= 1.61D-01 ExpMax= 5.48D+03 ExpMxC= 8.25D+02 IAcc=3 IRadAn=         5 AccDes= 0.00D+00
 Harris functional with IExCor=  402 and IRadAn=       5 diagonalized for initial guess.
 HarFok:  IExCor=  402 AccDes= 0.00D+00 IRadAn=         5 IDoV= 1 UseB2=F ITyADJ=14
 ICtDFT=  3500011 ScaDFX=  1.000000  1.000000  1.000000  1.000000
 FoFCou: FMM=F IPFlag=           0 FMFlag=      100000 FMFlg1=           0
         NFxFlg=           0 DoJE=T BraDBF=F KetDBF=T FulRan=T
         wScrn=  0.000000 ICntrl=       500 IOpCl=  0 I1Cent=   200000004 NGrid=           0
         NMat0=    1 NMatS0=      1 NMatT0=    0 NMatD0=    1 NMtDS0=    0 NMtDT0=    0
 Petite list used in FoFCou.
 Gradient too large for Newton-Raphson -- use scaled steepest descent instead.
     Minimum is close to point  2 DX=  2.73D-02 DF= -3.16D-03 DXR=  8.35D-02 DFR=  7.02D-03 which will be used.
 Gradient too large for Newton-Raphson -- use scaled steepest descent instead.
     Minimum is close to point  3 DX= -1.06D-02 DF= -2.75D-05 DXR=  2.17D-02 DFR=  4.67D-04 which will be used.
 Gradient too large for Newton-Raphson -- use scaled steepest descent instead.
     Accept linear search using points  1 and  2.
 Gradient too large for Newton-Raphson -- use scaled steepest descent instead.
 Gradient too large for Newton-Raphson -- use scaled steepest descent instead.
     Accept linear search using points  1 and  2.
 Gradient too large for Newton-Raphson -- use scaled steepest descent instead.
     Accept linear search using points  1 and  2.
 Gradient too large for Newton-Raphson -- use scaled steepest descent instead.
 LinEq1:  Iter=  0 NonCon=     1 RMS=4.87D-05 Max=2.28D-03 NDo=     1
 AX will form     1 AO Fock derivatives at one time.
 LinEq1:  Iter=  1 NonCon=     1 RMS=8.90D-05 Max=6.03D-03 NDo=     1
 LinEq1:  Iter=  2 NonCon=     1 RMS=1.28D-05 Max=6.86D-04 NDo=     1
 LinEq1:  Iter=  3 NonCon=     1 RMS=1.20D-05 Max=4.38D-04 NDo=     1
 LinEq1:  Iter=  4 NonCon=     1 RMS=6.15D-06 Max=3.26D-04 NDo=     1
 LinEq1:  Iter=  5 NonCon=     1 RMS=6.16D-06 Max=3.98D-04 NDo=     1
 LinEq1:  Iter=  6 NonCon=     1 RMS=4.04D-06 Max=2.02D-04 NDo=     1
 LinEq1:  Iter=  7 NonCon=     1 RMS=2.79D-06 Max=1.64D-04 NDo=     1
 LinEq1:  Iter=  8 NonCon=     1 RMS=2.99D-06 Max=1.81D-04 NDo=     1
 LinEq1:  Iter=  9 NonCon=     1 RMS=1.82D-06 Max=7.17D-05 NDo=     1
 LinEq1:  Iter= 10 NonCon=     1 RMS=7.91D-07 Max=2.66D-05 NDo=     1
 LinEq1:  Iter= 11 NonCon=     1 RMS=3.55D-07 Max=9.49D-06 NDo=     1
 LinEq1:  Iter= 12 NonCon=     1 RMS=2.38D-07 Max=8.72D-06 NDo=     1
 LinEq1:  Iter= 13 NonCon=     1 RMS=9.87D-08 Max=3.14D-06 NDo=     1
 LinEq1:  Iter= 14 NonCon=     1 RMS=4.82D-08 Max=1.40D-06 NDo=     1
 LinEq1:  Iter= 15 NonCon=     1 RMS=2.42D-08 Max=6.20D-07 NDo=     1
 LinEq1:  Iter= 16 NonCon=     1 RMS=7.57D-09 Max=1.83D-07 NDo=     1
 LinEq1:  Iter= 17 NonCon=     0 RMS=2.94D-09 Max=7.82D-08 NDo=     1
 Linear equations converged to 1.814D-08 1.814D-07 after    17 iterations.
     Minimum is close to point  2 DX=  6.21D-04 DF= -1.02D-11 DXR=  6.21D-04 DFR=  3.78D-07 which will be used.
 LinEq1:  Iter=  0 NonCon=     1 RMS=1.48D-07 Max=1.09D-05 NDo=     1
 LinEq1:  Iter=  1 NonCon=     1 RMS=1.60D-07 Max=1.10D-05 NDo=     1
 LinEq1:  Iter=  2 NonCon=     1 RMS=1.07D-07 Max=6.65D-06 NDo=     1
 LinEq1:  Iter=  3 NonCon=     1 RMS=5.65D-08 Max=2.37D-06 NDo=     1
 LinEq1:  Iter=  4 NonCon=     1 RMS=4.84D-08 Max=1.77D-06 NDo=     1
 LinEq1:  Iter=  5 NonCon=     1 RMS=3.34D-08 Max=1.18D-06 NDo=     1
 LinEq1:  Iter=  6 NonCon=     1 RMS=2.55D-08 Max=1.36D-06 NDo=     1
 LinEq1:  Iter=  7 NonCon=     1 RMS=1.51D-08 Max=8.77D-07 NDo=     1
 LinEq1:  Iter=  8 NonCon=     1 RMS=1.62D-08 Max=9.03D-07 NDo=     1
 LinEq1:  Iter=  9 NonCon=     1 RMS=1.07D-08 Max=5.04D-07 NDo=     1
 LinEq1:  Iter= 10 NonCon=     1 RMS=5.26D-09 Max=1.87D-07 NDo=     1
 LinEq1:  Iter= 11 NonCon=     1 RMS=3.53D-09 Max=1.20D-07 NDo=     1
 LinEq1:  Iter= 12 NonCon=     1 RMS=1.77D-09 Max=6.28D-08 NDo=     1
 LinEq1:  Iter= 13 NonCon=     1 RMS=8.24D-10 Max=2.05D-08 NDo=     1
 LinEq1:  Iter= 14 NonCon=     1 RMS=3.98D-10 Max=1.37D-08 NDo=     1
 LinEq1:  Iter= 15 NonCon=     1 RMS=1.51D-10 Max=5.47D-09 NDo=     1
 LinEq1:  Iter= 16 NonCon=     1 RMS=6.24D-11 Max=1.79D-09 NDo=     1
 LinEq1:  Iter= 17 NonCon=     0 RMS=2.75D-11 Max=6.02D-10 NDo=     1
 Linear equations converged to 1.141D-10 1.141D-09 after    17 iterations.
 Restarting incremental Fock formation.
 SCF Done:  E(RB3LYP) =  -838.711003298     a.u. after   10 cycles
            Convg  =    0.3964D-09                    55 Fock formations.
              S**2 =  0.0000                  -V/T =  2.0090
 DoSCS=F DFT=T ScalE2(SS,OS)=  1.000000  1.000000
 Range of M.O.s used for correlation:     1   310
 NBasis=   310 NAE=    68 NBE=    68 NFC=     0 NFV=     0
 NROrb=    310 NOA=    68 NOB=    68 NVA=   242 NVB=   242
 Symmetrizing basis deriv contribution to polar:
 IMax=3 JMax=2 DiffMx= 0.00D+00
 G2DrvN: will do    39 centers at a time, making    1 passes.
 Calling FoFCou, ICntrl=  3107 FMM=F I1Cent=   0 AccDes= 0.00D+00.
 End of G2Drv F.D. properties file   721 does not exist.
 End of G2Drv F.D. properties file   722 does not exist.
 End of G2Drv F.D. properties file   788 does not exist.
          IDoAtm=11111111111111111111111111111111111111
          Differentiating once with respect to electric field.
                with respect to dipole field.
          Differentiating once with respect to nuclear coordinates.
 Keep R1 ints in memory in canonical form, NReq=1176942798.
          There are   117 degrees of freedom in the 1st order CPHF.  IDoFFX=6 NUNeed=     3.
    114 vectors produced by pass  0 Test12= 1.65D-14 1.00D-09 XBig12= 1.72D+02 5.13D+00.
 AX will form   114 AO Fock derivatives at one time.
    114 vectors produced by pass  1 Test12= 1.65D-14 1.00D-09 XBig12= 4.15D+01 1.09D+00.
    114 vectors produced by pass  2 Test12= 1.65D-14 1.00D-09 XBig12= 3.33D-01 1.16D-01.
    114 vectors produced by pass  3 Test12= 1.65D-14 1.00D-09 XBig12= 2.06D-03 4.36D-03.
    114 vectors produced by pass  4 Test12= 1.65D-14 1.00D-09 XBig12= 3.18D-06 1.16D-04.
     68 vectors produced by pass  5 Test12= 1.65D-14 1.00D-09 XBig12= 2.50D-09 4.15D-06.
     10 vectors produced by pass  6 Test12= 1.65D-14 1.00D-09 XBig12= 1.91D-12 1.12D-07.
      3 vectors produced by pass  7 Test12= 1.65D-14 1.00D-09 XBig12= 1.53D-15 3.60D-09.
 InvSVY:  IOpt=1 It=  1 EMax= 1.07D-14
 Solved reduced A of dimension   651 with   117 vectors.
 Isotropic polarizability for W=    0.000000      163.83 Bohr**3.
 End of Minotr F.D. properties file   721 does not exist.
 End of Minotr F.D. properties file   722 does not exist.
 End of Minotr F.D. properties file   788 does not exist.

 **********************************************************************

            Population analysis using the SCF density.

 **********************************************************************

 Orbital symmetries:
       Occupied  (A) (A) (A) (A) (A) (A) (A) (A) (A) (A) (A) (A)
                 (A) (A) (A) (A) (A) (A) (A) (A) (A) (A) (A) (A)
                 (A) (A) (A) (A) (A) (A) (A) (A) (A) (A) (A) (A)
                 (A) (A) (A) (A) (A) (A) (A) (A) (A) (A) (A) (A)
                 (A) (A) (A) (A) (A) (A) (A) (A) (A) (A) (A) (A)
                 (A) (A) (A) (A) (A) (A) (A) (A)
       Virtual   (A) (A) (A) (A) (A) (A) (A) (A) (A) (A) (A) (A)
                 (A) (A) (A) (A) (A) (A) (A) (A) (A) (A) (A) (A)
                 (A) (A) (A) (A) (A) (A) (A) (A) (A) (A) (A) (A)
                 (A) (A) (A) (A) (A) (A) (A) (A) (A) (A) (A) (A)
                 (A) (A) (A) (A) (A) (A) (A) (A) (A) (A) (A) (A)
                 (A) (A) (A) (A) (A) (A) (A) (A) (A) (A) (A) (A)
                 (A) (A) (A) (A) (A) (A) (A) (A) (A) (A) (A) (A)
                 (A) (A) (A) (A) (A) (A) (A) (A) (A) (A) (A) (A)
                 (A) (A) (A) (A) (A) (A) (A) (A) (A) (A) (A) (A)
                 (A) (A) (A) (A) (A) (A) (A) (A) (A) (A) (A) (A)
                 (A) (A) (A) (A) (A) (A) (A) (A) (A) (A) (A) (A)
                 (A) (A) (A) (A) (A) (A) (A) (A) (A) (A) (A) (A)
                 (A) (A) (A) (A) (A) (A) (A) (A) (A) (A) (A) (A)
                 (A) (A) (A) (A) (A) (A) (A) (A) (A) (A) (A) (A)
                 (A) (A) (A) (A) (A) (A) (A) (A) (A) (A) (A) (A)
                 (A) (A) (A) (A) (A) (A) (A) (A) (A) (A) (A) (A)
                 (A) (A) (A) (A) (A) (A) (A) (A) (A) (A) (A) (A)
                 (A) (A) (A) (A) (A) (A) (A) (A) (A) (A) (A) (A)
                 (A) (A) (A) (A) (A) (A) (A) (A) (A) (A) (A) (A)
                 (A) (A) (A) (A) (A) (A) (A) (A) (A) (A) (A) (A)
                 (A) (A)
 The electronic state is 1-A.
 Alpha  occ. eigenvalues --  -19.12278 -19.12054 -14.41172 -14.40938 -14.37825
 Alpha  occ. eigenvalues --  -14.36832 -10.31389 -10.31160 -10.23040 -10.22953
 Alpha  occ. eigenvalues --  -10.22023 -10.21881 -10.19642 -10.19567 -10.19422
 Alpha  occ. eigenvalues --  -10.19386 -10.19139 -10.19073  -1.10156  -1.04366
 Alpha  occ. eigenvalues --   -1.01131  -0.94827  -0.93846  -0.82860  -0.80850
 Alpha  occ. eigenvalues --   -0.79192  -0.77292  -0.76955  -0.69180  -0.66826
 Alpha  occ. eigenvalues --   -0.64729  -0.64307  -0.61204  -0.59135  -0.57456
 Alpha  occ. eigenvalues --   -0.55307  -0.54207  -0.50420  -0.48944  -0.47446
 Alpha  occ. eigenvalues --   -0.47091  -0.46982  -0.46599  -0.44941  -0.44487
 Alpha  occ. eigenvalues --   -0.44047  -0.43934  -0.43338  -0.43032  -0.41251
 Alpha  occ. eigenvalues --   -0.40962  -0.40052  -0.39248  -0.37986  -0.36783
 Alpha  occ. eigenvalues --   -0.36057  -0.35385  -0.34437  -0.34088  -0.33702
 Alpha  occ. eigenvalues --   -0.33409  -0.33338  -0.32750  -0.28046  -0.26927
 Alpha  occ. eigenvalues --   -0.24687  -0.24154  -0.23350
 Alpha virt. eigenvalues --   -0.11930   0.03585   0.05658   0.07517   0.09013
 Alpha virt. eigenvalues --    0.10123   0.10403   0.11709   0.12517   0.12887
 Alpha virt. eigenvalues --    0.13491   0.14163   0.14678   0.15241   0.15629
 Alpha virt. eigenvalues --    0.15928   0.16087   0.16163   0.16321   0.16546
 Alpha virt. eigenvalues --    0.17249   0.17848   0.18651   0.19057   0.20056
 Alpha virt. eigenvalues --    0.20936   0.22130   0.22922   0.23326   0.23700
 Alpha virt. eigenvalues --    0.24976   0.25285   0.25908   0.26614   0.26963
 Alpha virt. eigenvalues --    0.27563   0.28733   0.31218   0.34500   0.37743
 Alpha virt. eigenvalues --    0.40295   0.42892   0.48524   0.49541   0.49739
 Alpha virt. eigenvalues --    0.50570   0.51502   0.52245   0.52569   0.53343
 Alpha virt. eigenvalues --    0.54465   0.54735   0.56144   0.56857   0.57463
 Alpha virt. eigenvalues --    0.58555   0.59715   0.60342   0.60651   0.63142
 Alpha virt. eigenvalues --    0.63329   0.63448   0.64268   0.64548   0.65357
 Alpha virt. eigenvalues --    0.66525   0.68543   0.70051   0.70540   0.71404
 Alpha virt. eigenvalues --    0.71971   0.74300   0.75908   0.76560   0.77228
 Alpha virt. eigenvalues --    0.78381   0.79559   0.79990   0.80810   0.82304
 Alpha virt. eigenvalues --    0.83100   0.83652   0.84353   0.85253   0.85711
 Alpha virt. eigenvalues --    0.86420   0.86918   0.87049   0.87196   0.87682
 Alpha virt. eigenvalues --    0.88842   0.89660   0.90407   0.91320   0.91783
 Alpha virt. eigenvalues --    0.92029   0.92305   0.94148   0.94773   0.95216
 Alpha virt. eigenvalues --    0.95829   0.96185   0.98616   0.99399   1.00831
 Alpha virt. eigenvalues --    1.01233   1.04222   1.05943   1.07382   1.09672
 Alpha virt. eigenvalues --    1.12622   1.13175   1.15188   1.16703   1.17078
 Alpha virt. eigenvalues --    1.19602   1.24046   1.25720   1.27641   1.30464
 Alpha virt. eigenvalues --    1.31092   1.32067   1.34739   1.36755   1.37052
 Alpha virt. eigenvalues --    1.38823   1.39218   1.40363   1.43494   1.45025
 Alpha virt. eigenvalues --    1.47221   1.52123   1.53563   1.54892   1.57029
 Alpha virt. eigenvalues --    1.57727   1.58961   1.59480   1.63245   1.65305
 Alpha virt. eigenvalues --    1.67122   1.69182   1.70446   1.71480   1.74694
 Alpha virt. eigenvalues --    1.76658   1.77841   1.78069   1.80273   1.81921
 Alpha virt. eigenvalues --    1.83248   1.84838   1.85664   1.87310   1.87464
 Alpha virt. eigenvalues --    1.88684   1.89825   1.90669   1.91820   1.92347
 Alpha virt. eigenvalues --    1.92738   1.94999   1.96406   1.97470   1.98580
 Alpha virt. eigenvalues --    1.99489   1.99718   1.99866   2.00860   2.01915
 Alpha virt. eigenvalues --    2.04557   2.05620   2.06419   2.08769   2.10186
 Alpha virt. eigenvalues --    2.11644   2.14414   2.15392   2.16411   2.17551
 Alpha virt. eigenvalues --    2.20051   2.27047   2.27442   2.28418   2.30207
 Alpha virt. eigenvalues --    2.31077   2.32036   2.33232   2.34439   2.34845
 Alpha virt. eigenvalues --    2.35522   2.36828   2.38489   2.39885   2.40650
 Alpha virt. eigenvalues --    2.40823   2.41984   2.45634   2.47578   2.53106
 Alpha virt. eigenvalues --    2.55327   2.56213   2.59726   2.60814   2.61198
 Alpha virt. eigenvalues --    2.62475   2.63718   2.65637   2.67343   2.69413
 Alpha virt. eigenvalues --    2.71147   2.72085   2.73610   2.74089   2.75022
 Alpha virt. eigenvalues --    2.79043   2.82622   2.86279   2.94363   2.95172
 Alpha virt. eigenvalues --    3.08615   3.13622   3.21670   3.25479   3.83991
 Alpha virt. eigenvalues --    3.99745   4.01592   4.07613   4.14249   4.16738
 Alpha virt. eigenvalues --    4.17329   4.17810   4.25399   4.26145   4.39211
 Alpha virt. eigenvalues --    4.42373   4.49302   4.54187   4.54595   4.56398
 Alpha virt. eigenvalues --    4.58421   4.60539
          Condensed to atoms (all electrons):
               1          2          3          4          5          6
     1  C    4.277619   0.587137   0.236321  -0.039381   0.003621   0.000669
     2  O    0.587137   8.065253  -0.068101   0.001635  -0.000209   0.000000
     3  N    0.236321  -0.068101   6.983001   0.188713  -0.052098   0.000427
     4  N   -0.039381   0.001635   0.188713   7.290511   0.169879  -0.085572
     5  C    0.003621  -0.000209  -0.052098   0.169879   4.320053   0.581691
     6  O    0.000669   0.000000   0.000427  -0.085572   0.581691   8.069641
     7  N   -0.000189   0.000001   0.002452  -0.108071   0.307616  -0.102729
     8  C   -0.000043   0.000001   0.000894  -0.008646  -0.030426   0.002637
     9  C    0.000002  -0.000000   0.000030  -0.000105   0.002271  -0.000039
    10  C    0.000000   0.000000   0.000001  -0.000022   0.000023  -0.000010
    11  C   -0.000000  -0.000000   0.000005  -0.000112   0.001626   0.000074
    12  C    0.000002  -0.000000  -0.000073   0.003695  -0.021906  -0.001566
    13  N    0.280197  -0.110078  -0.114576  -0.003344   0.000524  -0.000004
    14  C   -0.021233  -0.003882   0.004729  -0.000596   0.000009   0.000000
    15  C    0.001669   0.000373  -0.000093  -0.000050   0.000000   0.000000
    16  C   -0.000110  -0.000014  -0.000025  -0.000064  -0.000001   0.000000
    17  C    0.000996  -0.000071   0.000728   0.000155  -0.000217   0.000002
    18  C   -0.024518   0.002403  -0.003679  -0.084382   0.002364  -0.000219
    19  H    0.000089  -0.000002  -0.000429   0.013070  -0.011416   0.000205
    20  H   -0.000005   0.000000  -0.000083   0.000769  -0.000757  -0.000046
    21  H   -0.000001   0.000000  -0.000014   0.000061   0.000387  -0.000024
    22  H   -0.000000   0.000000  -0.000001   0.000016  -0.000087   0.000001
    23  H   -0.000000  -0.000000   0.000000  -0.000000   0.000012   0.000000
    24  H   -0.000000   0.000000  -0.000000  -0.000000  -0.000027   0.000000
    25  H   -0.000000   0.000000  -0.000001  -0.000001   0.000513   0.000042
    26  H    0.000000  -0.000000  -0.000000   0.000001  -0.000078  -0.000006
    27  H    0.000000  -0.000000  -0.000005   0.000506  -0.000807   0.014068
    28  H   -0.000000   0.000000  -0.000005  -0.000082  -0.000077   0.000779
    29  H   -0.003174   0.016944   0.000613  -0.000041   0.000001   0.000000
    30  H    0.000270   0.000863  -0.000209   0.000060   0.000001  -0.000000
    31  H    0.000677   0.000029  -0.000030   0.000020   0.000000  -0.000000
    32  H   -0.000036  -0.000009   0.000002  -0.000000   0.000000  -0.000000
    33  H    0.000012   0.000000   0.000000   0.000003  -0.000000   0.000000
    34  H   -0.000022   0.000000  -0.000000   0.000001   0.000000  -0.000000
    35  H    0.000231  -0.000011  -0.000284   0.003040  -0.000147   0.000001
    36  H   -0.000049   0.000001  -0.000013   0.000148   0.000025  -0.000000
    37  H   -0.010109  -0.000106  -0.006124  -0.021492   0.004306   0.000199
    38  H   -0.000512  -0.000028  -0.000777   0.004925   0.000049   0.000001
               7          8          9         10         11         12
     1  C   -0.000189  -0.000043   0.000002   0.000000  -0.000000   0.000002
     2  O    0.000001   0.000001  -0.000000   0.000000  -0.000000  -0.000000
     3  N    0.002452   0.000894   0.000030   0.000001   0.000005  -0.000073
     4  N   -0.108071  -0.008646  -0.000105  -0.000022  -0.000112   0.003695
     5  C    0.307616  -0.030426   0.002271   0.000023   0.001626  -0.021906
     6  O   -0.102729   0.002637  -0.000039  -0.000010   0.000074  -0.001566
     7  N    7.043577   0.287505  -0.053515  -0.013803  -0.043394   0.284564
     8  C    0.287505   4.962413   0.363526  -0.040831  -0.013966  -0.043441
     9  C   -0.053515   0.363526   5.046499   0.383383  -0.045565  -0.014589
    10  C   -0.013803  -0.040831   0.383383   5.014400   0.381352  -0.040268
    11  C   -0.043394  -0.013966  -0.045565   0.381352   5.025105   0.374309
    12  C    0.284564  -0.043441  -0.014589  -0.040268   0.374309   4.915525
    13  N    0.000005  -0.000045  -0.000000  -0.000000   0.000000   0.000000
    14  C   -0.000000   0.000002  -0.000000   0.000000  -0.000000   0.000000
    15  C   -0.000000  -0.000000   0.000000  -0.000000   0.000000   0.000000
    16  C   -0.000000   0.000015  -0.000000   0.000000   0.000000   0.000000
    17  C    0.000049  -0.000454   0.000018  -0.000000   0.000000  -0.000001
    18  C   -0.000249   0.000230  -0.000007   0.000000   0.000000   0.000005
    19  H   -0.027822   0.374149  -0.028764   0.004002   0.000057   0.003485
    20  H   -0.057908   0.367257  -0.050776  -0.007636  -0.001213  -0.002112
    21  H    0.001125  -0.038169   0.369745  -0.042728  -0.003889  -0.000661
    22  H    0.004151  -0.030940   0.363886  -0.034069   0.005174   0.000089
    23  H   -0.000071   0.004853  -0.033195   0.374761  -0.032732   0.004857
    24  H   -0.000958  -0.003670  -0.042323   0.370231  -0.042042  -0.003202
    25  H   -0.000789  -0.000277  -0.004227  -0.042364   0.372714  -0.037648
    26  H    0.003995   0.000101   0.005121  -0.034000   0.366856  -0.032133
    27  H   -0.031433   0.003796  -0.000011   0.003958  -0.027957   0.372299
    28  H   -0.056746  -0.001787  -0.001400  -0.006664  -0.048422   0.375684
    29  H   -0.000000   0.000000  -0.000000   0.000000  -0.000000   0.000000
    30  H    0.000000  -0.000000  -0.000000  -0.000000  -0.000000   0.000000
    31  H    0.000000  -0.000003   0.000000  -0.000000  -0.000000   0.000000
    32  H    0.000000   0.000000  -0.000000   0.000000  -0.000000   0.000000
    33  H   -0.000000  -0.000000   0.000000  -0.000000   0.000000  -0.000000
    34  H    0.000000  -0.000000   0.000000  -0.000000  -0.000000  -0.000000
    35  H   -0.000021  -0.000176  -0.000028   0.000000  -0.000000  -0.000000
    36  H   -0.000007   0.000029  -0.000000   0.000000  -0.000000   0.000000
    37  H   -0.000116   0.000422  -0.000002   0.000000   0.000001   0.000010
    38  H    0.000002  -0.000015   0.000000  -0.000000  -0.000000  -0.000000
              13         14         15         16         17         18
     1  C    0.280197  -0.021233   0.001669  -0.000110   0.000996  -0.024518
     2  O   -0.110078  -0.003882   0.000373  -0.000014  -0.000071   0.002403
     3  N   -0.114576   0.004729  -0.000093  -0.000025   0.000728  -0.003679
     4  N   -0.003344  -0.000596  -0.000050  -0.000064   0.000155  -0.084382
     5  C    0.000524   0.000009   0.000000  -0.000001  -0.000217   0.002364
     6  O   -0.000004   0.000000   0.000000   0.000000   0.000002  -0.000219
     7  N    0.000005  -0.000000  -0.000000  -0.000000   0.000049  -0.000249
     8  C   -0.000045   0.000002  -0.000000   0.000015  -0.000454   0.000230
     9  C   -0.000000  -0.000000   0.000000  -0.000000   0.000018  -0.000007
    10  C   -0.000000   0.000000  -0.000000   0.000000  -0.000000   0.000000
    11  C    0.000000  -0.000000   0.000000   0.000000   0.000000   0.000000
    12  C    0.000000   0.000000   0.000000   0.000000  -0.000001   0.000005
    13  N    7.092474   0.283697  -0.047088  -0.014597  -0.048150   0.281007
    14  C    0.283697   4.921923   0.372034  -0.040305  -0.012379  -0.042293
    15  C   -0.047088   0.372034   5.030227   0.380593  -0.046283  -0.013946
    16  C   -0.014597  -0.040305   0.380593   5.010795   0.387670  -0.040455
    17  C   -0.048150  -0.012379  -0.046283   0.387670   5.034493   0.371149
    18  C    0.281007  -0.042293  -0.013946  -0.040455   0.371149   5.004826
    19  H    0.000395  -0.000016  -0.000001  -0.000023  -0.000206  -0.000515
    20  H   -0.000003   0.000000   0.000000   0.000002   0.000092  -0.000112
    21  H   -0.000000  -0.000000   0.000000   0.000000  -0.000000  -0.000000
    22  H    0.000000   0.000000  -0.000000  -0.000000   0.000000   0.000000
    23  H   -0.000000  -0.000000   0.000000  -0.000000   0.000000  -0.000000
    24  H    0.000000  -0.000000  -0.000000   0.000000  -0.000000  -0.000000
    25  H    0.000000  -0.000000  -0.000000  -0.000000  -0.000000   0.000000
    26  H   -0.000000   0.000000  -0.000000   0.000000  -0.000000   0.000000
    27  H    0.000000   0.000000  -0.000000  -0.000000  -0.000000   0.000001
    28  H   -0.000000   0.000000  -0.000000   0.000000  -0.000001   0.000000
    29  H   -0.032297   0.373816  -0.028789   0.004090   0.000059   0.003848
    30  H   -0.054680   0.372690  -0.047771  -0.007228  -0.001511  -0.001742
    31  H   -0.000062  -0.038570   0.370921  -0.043645  -0.004297  -0.000394
    32  H    0.004212  -0.031888   0.366685  -0.033755   0.005210   0.000049
    33  H   -0.000096   0.005027  -0.033452   0.373524  -0.034516   0.004984
    34  H   -0.000877  -0.003546  -0.041465   0.370835  -0.041611  -0.003131
    35  H   -0.000396  -0.000794  -0.004015  -0.042969   0.365339  -0.040019
    36  H    0.004263  -0.000005   0.005280  -0.034170   0.362250  -0.030396
    37  H   -0.029189   0.003555   0.000164   0.004042  -0.025525   0.378579
    38  H   -0.058810  -0.004735  -0.000993  -0.007762  -0.048844   0.358031
              19         20         21         22         23         24
     1  C    0.000089  -0.000005  -0.000001  -0.000000  -0.000000  -0.000000
     2  O   -0.000002   0.000000   0.000000   0.000000  -0.000000   0.000000
     3  N   -0.000429  -0.000083  -0.000014  -0.000001   0.000000  -0.000000
     4  N    0.013070   0.000769   0.000061   0.000016  -0.000000  -0.000000
     5  C   -0.011416  -0.000757   0.000387  -0.000087   0.000012  -0.000027
     6  O    0.000205  -0.000046  -0.000024   0.000001   0.000000   0.000000
     7  N   -0.027822  -0.057908   0.001125   0.004151  -0.000071  -0.000958
     8  C    0.374149   0.367257  -0.038169  -0.030940   0.004853  -0.003670
     9  C   -0.028764  -0.050776   0.369745   0.363886  -0.033195  -0.042323
    10  C    0.004002  -0.007636  -0.042728  -0.034069   0.374761   0.370231
    11  C    0.000057  -0.001213  -0.003889   0.005174  -0.032732  -0.042042
    12  C    0.003485  -0.002112  -0.000661   0.000089   0.004857  -0.003202
    13  N    0.000395  -0.000003  -0.000000   0.000000  -0.000000   0.000000
    14  C   -0.000016   0.000000  -0.000000   0.000000  -0.000000  -0.000000
    15  C   -0.000001   0.000000   0.000000  -0.000000   0.000000  -0.000000
    16  C   -0.000023   0.000002   0.000000  -0.000000  -0.000000   0.000000
    17  C   -0.000206   0.000092  -0.000000   0.000000   0.000000  -0.000000
    18  C   -0.000515  -0.000112  -0.000000   0.000000  -0.000000  -0.000000
    19  H    0.519751  -0.034114  -0.004428  -0.001427  -0.000143  -0.000031
    20  H   -0.034114   0.629283   0.006375  -0.001125  -0.000102   0.005562
    21  H   -0.004428   0.006375   0.591062  -0.031740  -0.005160   0.006151
    22  H   -0.001427  -0.001125  -0.031740   0.591945  -0.002470  -0.004308
    23  H   -0.000143  -0.000102  -0.005160  -0.002470   0.589069  -0.035385
    24  H   -0.000031   0.005562   0.006151  -0.004308  -0.035385   0.610973
    25  H   -0.000017   0.000230   0.004994  -0.000012  -0.005078   0.006061
    26  H    0.000010   0.000062   0.000009  -0.000149  -0.002427  -0.004402
    27  H   -0.000143  -0.000162  -0.000035   0.000010  -0.000137  -0.000056
    28  H   -0.000057   0.008474   0.000247   0.000036  -0.000094   0.005143
    29  H   -0.000000   0.000000  -0.000000   0.000000  -0.000000  -0.000000
    30  H    0.000001   0.000000   0.000000   0.000000  -0.000000   0.000000
    31  H    0.000021  -0.000000  -0.000000   0.000000  -0.000000   0.000000
    32  H   -0.000000  -0.000000   0.000000   0.000000  -0.000000   0.000000
    33  H    0.000000  -0.000000   0.000000  -0.000000   0.000000   0.000000
    34  H    0.000001   0.000000  -0.000000   0.000000   0.000000  -0.000000
    35  H    0.003871   0.000551   0.000000   0.000015  -0.000000  -0.000000
    36  H   -0.000034   0.000110   0.000000  -0.000000  -0.000000   0.000000
    37  H   -0.000699   0.000183   0.000002  -0.000001  -0.000000   0.000000
    38  H    0.000042   0.000002   0.000000   0.000000   0.000000   0.000000
              25         26         27         28         29         30
     1  C   -0.000000   0.000000   0.000000  -0.000000  -0.003174   0.000270
     2  O    0.000000  -0.000000  -0.000000   0.000000   0.016944   0.000863
     3  N   -0.000001  -0.000000  -0.000005  -0.000005   0.000613  -0.000209
     4  N   -0.000001   0.000001   0.000506  -0.000082  -0.000041   0.000060
     5  C    0.000513  -0.000078  -0.000807  -0.000077   0.000001   0.000001
     6  O    0.000042  -0.000006   0.014068   0.000779   0.000000  -0.000000
     7  N   -0.000789   0.003995  -0.031433  -0.056746  -0.000000   0.000000
     8  C   -0.000277   0.000101   0.003796  -0.001787   0.000000  -0.000000
     9  C   -0.004227   0.005121  -0.000011  -0.001400  -0.000000  -0.000000
    10  C   -0.042364  -0.034000   0.003958  -0.006664   0.000000  -0.000000
    11  C    0.372714   0.366856  -0.027957  -0.048422  -0.000000  -0.000000
    12  C   -0.037648  -0.032133   0.372299   0.375684   0.000000   0.000000
    13  N    0.000000  -0.000000   0.000000  -0.000000  -0.032297  -0.054680
    14  C   -0.000000   0.000000   0.000000   0.000000   0.373816   0.372690
    15  C   -0.000000  -0.000000  -0.000000  -0.000000  -0.028789  -0.047771
    16  C   -0.000000   0.000000  -0.000000   0.000000   0.004090  -0.007228
    17  C   -0.000000  -0.000000  -0.000000  -0.000001   0.000059  -0.001511
    18  C    0.000000   0.000000   0.000001   0.000000   0.003848  -0.001742
    19  H   -0.000017   0.000010  -0.000143  -0.000057  -0.000000   0.000001
    20  H    0.000230   0.000062  -0.000162   0.008474   0.000000   0.000000
    21  H    0.004994   0.000009  -0.000035   0.000247  -0.000000   0.000000
    22  H   -0.000012  -0.000149   0.000010   0.000036   0.000000   0.000000
    23  H   -0.005078  -0.002427  -0.000137  -0.000094  -0.000000  -0.000000
    24  H    0.006061  -0.004402  -0.000056   0.005143  -0.000000   0.000000
    25  H    0.584022  -0.031539  -0.004469   0.005985  -0.000000   0.000000
    26  H   -0.031539   0.587215  -0.001182  -0.001643   0.000000   0.000000
    27  H   -0.004469  -0.001182   0.508481  -0.032025   0.000000   0.000000
    28  H    0.005985  -0.001643  -0.032025   0.606541  -0.000000   0.000000
    29  H   -0.000000   0.000000   0.000000  -0.000000   0.508995  -0.032129
    30  H    0.000000   0.000000   0.000000   0.000000  -0.032129   0.610074
    31  H    0.000000   0.000000   0.000000   0.000000  -0.004443   0.006154
    32  H    0.000000   0.000000   0.000000   0.000000  -0.001385  -0.001636
    33  H   -0.000000  -0.000000  -0.000000  -0.000000  -0.000141  -0.000074
    34  H    0.000000  -0.000000   0.000000   0.000000  -0.000048   0.005319
    35  H    0.000000   0.000000  -0.000000   0.000001  -0.000027   0.000230
    36  H    0.000000   0.000000  -0.000000   0.000000   0.000009   0.000055
    37  H    0.000000  -0.000000  -0.000001  -0.000004  -0.000147  -0.000129
    38  H    0.000000   0.000000  -0.000000   0.000000  -0.000168   0.008290
              31         32         33         34         35         36
     1  C    0.000677  -0.000036   0.000012  -0.000022   0.000231  -0.000049
     2  O    0.000029  -0.000009   0.000000   0.000000  -0.000011   0.000001
     3  N   -0.000030   0.000002   0.000000  -0.000000  -0.000284  -0.000013
     4  N    0.000020  -0.000000   0.000003   0.000001   0.003040   0.000148
     5  C    0.000000   0.000000  -0.000000   0.000000  -0.000147   0.000025
     6  O   -0.000000  -0.000000   0.000000  -0.000000   0.000001  -0.000000
     7  N    0.000000   0.000000  -0.000000   0.000000  -0.000021  -0.000007
     8  C   -0.000003   0.000000  -0.000000  -0.000000  -0.000176   0.000029
     9  C    0.000000  -0.000000   0.000000   0.000000  -0.000028  -0.000000
    10  C   -0.000000   0.000000  -0.000000  -0.000000   0.000000   0.000000
    11  C   -0.000000  -0.000000   0.000000  -0.000000  -0.000000  -0.000000
    12  C    0.000000   0.000000  -0.000000  -0.000000  -0.000000   0.000000
    13  N   -0.000062   0.004212  -0.000096  -0.000877  -0.000396   0.004263
    14  C   -0.038570  -0.031888   0.005027  -0.003546  -0.000794  -0.000005
    15  C    0.370921   0.366685  -0.033452  -0.041465  -0.004015   0.005280
    16  C   -0.043645  -0.033755   0.373524   0.370835  -0.042969  -0.034170
    17  C   -0.004297   0.005210  -0.034516  -0.041611   0.365339   0.362250
    18  C   -0.000394   0.000049   0.004984  -0.003131  -0.040019  -0.030396
    19  H    0.000021  -0.000000   0.000000   0.000001   0.003871  -0.000034
    20  H   -0.000000  -0.000000  -0.000000   0.000000   0.000551   0.000110
    21  H   -0.000000   0.000000   0.000000  -0.000000   0.000000   0.000000
    22  H    0.000000   0.000000  -0.000000   0.000000   0.000015  -0.000000
    23  H   -0.000000  -0.000000   0.000000   0.000000  -0.000000  -0.000000
    24  H    0.000000   0.000000   0.000000  -0.000000  -0.000000   0.000000
    25  H    0.000000   0.000000  -0.000000   0.000000   0.000000   0.000000
    26  H    0.000000   0.000000  -0.000000  -0.000000   0.000000   0.000000
    27  H    0.000000   0.000000  -0.000000   0.000000  -0.000000  -0.000000
    28  H    0.000000   0.000000  -0.000000   0.000000   0.000001   0.000000
    29  H   -0.004443  -0.001385  -0.000141  -0.000048  -0.000027   0.000009
    30  H    0.006154  -0.001636  -0.000074   0.005319   0.000230   0.000055
    31  H    0.596517  -0.032514  -0.004951   0.006149   0.005060   0.000002
    32  H   -0.032514   0.589021  -0.002428  -0.004327  -0.000019  -0.000150
    33  H   -0.004951  -0.002428   0.596422  -0.035671  -0.004928  -0.002311
    34  H    0.006149  -0.004327  -0.035671   0.607255   0.006084  -0.004449
    35  H    0.005060  -0.000019  -0.004928   0.006084   0.601759  -0.032928
    36  H    0.000002  -0.000150  -0.002311  -0.004449  -0.032928   0.597647
    37  H   -0.000035   0.000008  -0.000143  -0.000050  -0.005409  -0.001965
    38  H    0.000237   0.000036  -0.000051   0.005062   0.006719  -0.001232
              37         38
     1  C   -0.010109  -0.000512
     2  O   -0.000106  -0.000028
     3  N   -0.006124  -0.000777
     4  N   -0.021492   0.004925
     5  C    0.004306   0.000049
     6  O    0.000199   0.000001
     7  N   -0.000116   0.000002
     8  C    0.000422  -0.000015
     9  C   -0.000002   0.000000
    10  C    0.000000  -0.000000
    11  C    0.000001  -0.000000
    12  C    0.000010  -0.000000
    13  N   -0.029189  -0.058810
    14  C    0.003555  -0.004735
    15  C    0.000164  -0.000993
    16  C    0.004042  -0.007762
    17  C   -0.025525  -0.048844
    18  C    0.378579   0.358031
    19  H   -0.000699   0.000042
    20  H    0.000183   0.000002
    21  H    0.000002   0.000000
    22  H   -0.000001   0.000000
    23  H   -0.000000   0.000000
    24  H    0.000000   0.000000
    25  H    0.000000   0.000000
    26  H   -0.000000   0.000000
    27  H   -0.000001  -0.000000
    28  H   -0.000004   0.000000
    29  H   -0.000147  -0.000168
    30  H   -0.000129   0.008290
    31  H   -0.000035   0.000237
    32  H    0.000008   0.000036
    33  H   -0.000143  -0.000051
    34  H   -0.000050   0.005062
    35  H   -0.005409   0.006719
    36  H   -0.001965  -0.001232
    37  H    0.533102  -0.034518
    38  H   -0.034518   0.641313
 Mulliken charges:
               1
     1  C    0.709871
     2  O   -0.492128
     3  N   -0.171297
     4  N   -0.325248
     5  C    0.723282
     6  O   -0.480221
     7  N   -0.437224
     8  C   -0.154941
     9  C   -0.259935
    10  C   -0.269719
    11  C   -0.267981
    12  C   -0.136924
    13  N   -0.432483
    14  C   -0.137243
    15  C   -0.263999
    16  C   -0.266442
    17  C   -0.264145
    18  C   -0.121421
    19  H    0.191136
    20  H    0.137202
    21  H    0.146692
    22  H    0.141005
    23  H    0.143442
    24  H    0.132284
    25  H    0.151861
    26  H    0.144188
    27  H    0.195303
    28  H    0.146115
    29  H    0.194415
    30  H    0.143103
    31  H    0.143157
    32  H    0.142923
    33  H    0.138791
    34  H    0.134492
    35  H    0.139272
    36  H    0.137888
    37  H    0.211192
    38  H    0.133736
 Sum of Mulliken charges =  -0.00000
 Mulliken charges with hydrogens summed into heavy atoms:
               1
     1  C    0.709871
     2  O   -0.492128
     3  N   -0.171297
     4  N   -0.325248
     5  C    0.723282
     6  O   -0.480221
     7  N   -0.437224
     8  C    0.173397
     9  C    0.027763
    10  C    0.006007
    11  C    0.028068
    12  C    0.204494
    13  N   -0.432483
    14  C    0.200276
    15  C    0.022081
    16  C    0.006841
    17  C    0.013015
    18  C    0.223507
 APT charges:
               1
     1  C    0.974745
     2  O   -0.693569
     3  N   -0.166819
     4  N   -0.103695
     5  C    1.096184
     6  O   -0.737000
     7  N   -0.742073
     8  C    0.289793
     9  C    0.104950
    10  C    0.109931
    11  C    0.110878
    12  C    0.343652
    13  N   -0.718553
    14  C    0.333336
    15  C    0.089141
    16  C    0.120742
    17  C    0.087476
    18  C    0.281418
    19  H    0.008425
    20  H   -0.064028
    21  H   -0.036167
    22  H   -0.052986
    23  H   -0.054864
    24  H   -0.046209
    25  H   -0.031680
    26  H   -0.053202
    27  H    0.024415
    28  H   -0.083261
    29  H    0.027419
    30  H   -0.070328
    31  H   -0.035591
    32  H   -0.049984
    33  H   -0.055505
    34  H   -0.050023
    35  H   -0.040823
    36  H   -0.048253
    37  H    0.012122
    38  H   -0.080014
 Sum of APT charges =  -0.00000
 APT charges with hydrogens summed into heavy atoms:
               1
     1  C    0.974745
     2  O   -0.693569
     3  N   -0.166819
     4  N   -0.103695
     5  C    1.096184
     6  O   -0.737000
     7  N   -0.742073
     8  C    0.234190
     9  C    0.015797
    10  C    0.008858
    11  C    0.025997
    12  C    0.284806
    13  N   -0.718553
    14  C    0.290427
    15  C    0.003566
    16  C    0.015214
    17  C   -0.001600
    18  C    0.213526
 Electronic spatial extent (au):  <R**2>=           5637.7040
 Charge=             -0.0000 electrons
 Dipole moment (field-independent basis, Debye):
    X=              1.5260    Y=              6.5560    Z=             -1.0697  Tot=              6.8157
 Quadrupole moment (field-independent basis, Debye-Ang):
   XX=            -94.2551   YY=           -122.1690   ZZ=           -108.9817
   XY=             -2.7510   XZ=              6.5300   YZ=              1.9843
 Traceless Quadrupole moment (field-independent basis, Debye-Ang):
   XX=             14.2135   YY=            -13.7004   ZZ=             -0.5131
[...]
    53    N    4  py     Ryd( 3p)     0.00412
    54    N    4  pz     Val( 2p)     1.26262
    55    N    4  pz     Ryd( 3p)     0.00447
    56    N    4  dxy    Ryd( 3d)     0.00074
    57    N    4  dxz    Ryd( 3d)     0.00181
    58    N    4  dyz    Ryd( 3d)     0.00202
    59    N    4  dx2y2  Ryd( 3d)     0.00080
    60    N    4  dz2    Ryd( 3d)     0.00215
 
    61    C    5  S      Cor( 1S)     1.99934
    62    C    5  S      Val( 2S)     0.73346
    63    C    5  S      Ryd( 3S)     0.00457
    64    C    5  S      Ryd( 4S)     0.00039
    65    C    5  px     Val( 2p)     0.83079
    66    C    5  px     Ryd( 3p)     0.00782
    67    C    5  py     Val( 2p)     0.77840
    68    C    5  py     Ryd( 3p)     0.01857
    69    C    5  pz     Val( 2p)     0.81437
    70    C    5  pz     Ryd( 3p)     0.00545
    71    C    5  dxy    Ryd( 3d)     0.00311
    72    C    5  dxz    Ryd( 3d)     0.00200
    73    C    5  dyz    Ryd( 3d)     0.00180
    74    C    5  dx2y2  Ryd( 3d)     0.00217
    75    C    5  dz2    Ryd( 3d)     0.00090
 
    76    O    6  S      Cor( 1S)     1.99979
    77    O    6  S      Val( 2S)     1.70370
    78    O    6  S      Ryd( 3S)     0.00078
    79    O    6  S      Ryd( 4S)     0.00009
    80    O    6  px     Val( 2p)     1.75086
    81    O    6  px     Ryd( 3p)     0.00140
    82    O    6  py     Val( 2p)     1.56753
    83    O    6  py     Ryd( 3p)     0.00042
    84    O    6  pz     Val( 2p)     1.53165
    85    O    6  pz     Ryd( 3p)     0.00093
    86    O    6  dxy    Ryd( 3d)     0.00406
    87    O    6  dxz    Ryd( 3d)     0.00050
    88    O    6  dyz    Ryd( 3d)     0.00443
    89    O    6  dx2y2  Ryd( 3d)     0.00410
    90    O    6  dz2    Ryd( 3d)     0.00181
 
    91    N    7  S      Cor( 1S)     1.99928
    92    N    7  S      Val( 2S)     1.20567
    93    N    7  S      Ryd( 3S)     0.00173
    94    N    7  S      Ryd( 4S)     0.00007
    95    N    7  px     Val( 2p)     1.29979
    96    N    7  px     Ryd( 3p)     0.00161
    97    N    7  py     Val( 2p)     1.32512
    98    N    7  py     Ryd( 3p)     0.00189
    99    N    7  pz     Val( 2p)     1.62736
   100    N    7  pz     Ryd( 3p)     0.00449
   101    N    7  dxy    Ryd( 3d)     0.00073
   102    N    7  dxz    Ryd( 3d)     0.00071
   103    N    7  dyz    Ryd( 3d)     0.00043
   104    N    7  dx2y2  Ryd( 3d)     0.00065
   105    N    7  dz2    Ryd( 3d)     0.00060
 
   106    C    8  S      Cor( 1S)     1.99930
   107    C    8  S      Val( 2S)     1.01833
   108    C    8  S      Ryd( 3S)     0.00128
   109    C    8  S      Ryd( 4S)     0.00003
   110    C    8  px     Val( 2p)     1.22266
   111    C    8  px     Ryd( 3p)     0.00605
   112    C    8  py     Val( 2p)     0.86119
   113    C    8  py     Ryd( 3p)     0.00278
   114    C    8  pz     Val( 2p)     1.14362
   115    C    8  pz     Ryd( 3p)     0.00140
   116    C    8  dxy    Ryd( 3d)     0.00073
   117    C    8  dxz    Ryd( 3d)     0.00079
   118    C    8  dyz    Ryd( 3d)     0.00089
   119    C    8  dx2y2  Ryd( 3d)     0.00124
   120    C    8  dz2    Ryd( 3d)     0.00118
 
   121    C    9  S      Cor( 1S)     1.99932
   122    C    9  S      Val( 2S)     1.04171
   123    C    9  S      Ryd( 3S)     0.00066
   124    C    9  S      Ryd( 4S)     0.00002
   125    C    9  px     Val( 2p)     1.07401
   126    C    9  px     Ryd( 3p)     0.00201
   127    C    9  py     Val( 2p)     1.17593
   128    C    9  py     Ryd( 3p)     0.00295
   129    C    9  pz     Val( 2p)     1.16955
   130    C    9  pz     Ryd( 3p)     0.00235
   131    C    9  dxy    Ryd( 3d)     0.00050
   132    C    9  dxz    Ryd( 3d)     0.00096
   133    C    9  dyz    Ryd( 3d)     0.00047
   134    C    9  dx2y2  Ryd( 3d)     0.00083
   135    C    9  dz2    Ryd( 3d)     0.00072
 
   136    C   10  S      Cor( 1S)     1.99933
   137    C   10  S      Val( 2S)     1.03672
   138    C   10  S      Ryd( 3S)     0.00060
   139    C   10  S      Ryd( 4S)     0.00002
   140    C   10  px     Val( 2p)     1.12351
   141    C   10  px     Ryd( 3p)     0.00179
   142    C   10  py     Val( 2p)     1.06078
   143    C   10  py     Ryd( 3p)     0.00194
   144    C   10  pz     Val( 2p)     1.23374
   145    C   10  pz     Ryd( 3p)     0.00365
   146    C   10  dxy    Ryd( 3d)     0.00066
   147    C   10  dxz    Ryd( 3d)     0.00113
   148    C   10  dyz    Ryd( 3d)     0.00052
   149    C   10  dx2y2  Ryd( 3d)     0.00061
   150    C   10  dz2    Ryd( 3d)     0.00063
 
   151    C   11  S      Cor( 1S)     1.99932
   152    C   11  S      Val( 2S)     1.04118
   153    C   11  S      Ryd( 3S)     0.00063
   154    C   11  S      Ryd( 4S)     0.00002
   155    C   11  px     Val( 2p)     1.18455
   156    C   11  px     Ryd( 3p)     0.00359
   157    C   11  py     Val( 2p)     1.07702
   158    C   11  py     Ryd( 3p)     0.00188
   159    C   11  pz     Val( 2p)     1.15849
   160    C   11  pz     Ryd( 3p)     0.00171
   161    C   11  dxy    Ryd( 3d)     0.00088
   162    C   11  dxz    Ryd( 3d)     0.00074
   163    C   11  dyz    Ryd( 3d)     0.00040
   164    C   11  dx2y2  Ryd( 3d)     0.00055
   165    C   11  dz2    Ryd( 3d)     0.00091
 
   166    C   12  S      Cor( 1S)     1.99932
   167    C   12  S      Val( 2S)     1.01834
   168    C   12  S      Ryd( 3S)     0.00118
   169    C   12  S      Ryd( 4S)     0.00003
   170    C   12  px     Val( 2p)     0.92245
   171    C   12  px     Ryd( 3p)     0.00373
   172    C   12  py     Val( 2p)     1.13461
   173    C   12  py     Ryd( 3p)     0.00399
   174    C   12  pz     Val( 2p)     1.16841
   175    C   12  pz     Ryd( 3p)     0.00235
   176    C   12  dxy    Ryd( 3d)     0.00113
   177    C   12  dxz    Ryd( 3d)     0.00128
   178    C   12  dyz    Ryd( 3d)     0.00050
   179    C   12  dx2y2  Ryd( 3d)     0.00087
   180    C   12  dz2    Ryd( 3d)     0.00110
 
   181    N   13  S      Cor( 1S)     1.99928
   182    N   13  S      Val( 2S)     1.20568
   183    N   13  S      Ryd( 3S)     0.00173
   184    N   13  S      Ryd( 4S)     0.00007
   185    N   13  px     Val( 2p)     1.29977
   186    N   13  px     Ryd( 3p)     0.00161
   187    N   13  py     Val( 2p)     1.32512
   188    N   13  py     Ryd( 3p)     0.00189
   189    N   13  pz     Val( 2p)     1.62738
   190    N   13  pz     Ryd( 3p)     0.00449
   191    N   13  dxy    Ryd( 3d)     0.00073
   192    N   13  dxz    Ryd( 3d)     0.00071
   193    N   13  dyz    Ryd( 3d)     0.00043
   194    N   13  dx2y2  Ryd( 3d)     0.00065
   195    N   13  dz2    Ryd( 3d)     0.00060
 
   196    C   14  S      Cor( 1S)     1.99932
   197    C   14  S      Val( 2S)     1.01834
   198    C   14  S      Ryd( 3S)     0.00118
   199    C   14  S      Ryd( 4S)     0.00003
   200    C   14  px     Val( 2p)     0.92241
   201    C   14  px     Ryd( 3p)     0.00373
   202    C   14  py     Val( 2p)     1.13465
   203    C   14  py     Ryd( 3p)     0.00399
   204    C   14  pz     Val( 2p)     1.16840
   205    C   14  pz     Ryd( 3p)     0.00235
   206    C   14  dxy    Ryd( 3d)     0.00113
   207    C   14  dxz    Ryd( 3d)     0.00128
   208    C   14  dyz    Ryd( 3d)     0.00050
   209    C   14  dx2y2  Ryd( 3d)     0.00087
   210    C   14  dz2    Ryd( 3d)     0.00110
 
   211    C   15  S      Cor( 1S)     1.99932
   212    C   15  S      Val( 2S)     1.04118
   213    C   15  S      Ryd( 3S)     0.00063
   214    C   15  S      Ryd( 4S)     0.00002
   215    C   15  px     Val( 2p)     1.18457
   216    C   15  px     Ryd( 3p)     0.00359
   217    C   15  py     Val( 2p)     1.07701
   218    C   15  py     Ryd( 3p)     0.00188
   219    C   15  pz     Val( 2p)     1.15849
   220    C   15  pz     Ryd( 3p)     0.00171
   221    C   15  dxy    Ryd( 3d)     0.00088
   222    C   15  dxz    Ryd( 3d)     0.00074
   223    C   15  dyz    Ryd( 3d)     0.00040
   224    C   15  dx2y2  Ryd( 3d)     0.00055
   225    C   15  dz2    Ryd( 3d)     0.00091
 
   226    C   16  S      Cor( 1S)     1.99933
   227    C   16  S      Val( 2S)     1.03672
   228    C   16  S      Ryd( 3S)     0.00060
   229    C   16  S      Ryd( 4S)     0.00002
   230    C   16  px     Val( 2p)     1.12350
   231    C   16  px     Ryd( 3p)     0.00179
   232    C   16  py     Val( 2p)     1.06079
   233    C   16  py     Ryd( 3p)     0.00194
   234    C   16  pz     Val( 2p)     1.23374
   235    C   16  pz     Ryd( 3p)     0.00365
   236    C   16  dxy    Ryd( 3d)     0.00066
   237    C   16  dxz    Ryd( 3d)     0.00113
   238    C   16  dyz    Ryd( 3d)     0.00052
   239    C   16  dx2y2  Ryd( 3d)     0.00061
   240    C   16  dz2    Ryd( 3d)     0.00063
 
   241    C   17  S      Cor( 1S)     1.99932
   242    C   17  S      Val( 2S)     1.04171
   243    C   17  S      Ryd( 3S)     0.00066
   244    C   17  S      Ryd( 4S)     0.00002
   245    C   17  px     Val( 2p)     1.07400
   246    C   17  px     Ryd( 3p)     0.00201
   247    C   17  py     Val( 2p)     1.17594
   248    C   17  py     Ryd( 3p)     0.00295
   249    C   17  pz     Val( 2p)     1.16954
   250    C   17  pz     Ryd( 3p)     0.00235
   251    C   17  dxy    Ryd( 3d)     0.00050
   252    C   17  dxz    Ryd( 3d)     0.00096
   253    C   17  dyz    Ryd( 3d)     0.00047
   254    C   17  dx2y2  Ryd( 3d)     0.00083
   255    C   17  dz2    Ryd( 3d)     0.00072
 
   256    C   18  S      Cor( 1S)     1.99930
   257    C   18  S      Val( 2S)     1.01833
   258    C   18  S      Ryd( 3S)     0.00128
   259    C   18  S      Ryd( 4S)     0.00003
   260    C   18  px     Val( 2p)     1.22269
   261    C   18  px     Ryd( 3p)     0.00605
   262    C   18  py     Val( 2p)     0.86117
   263    C   18  py     Ryd( 3p)     0.00278
   264    C   18  pz     Val( 2p)     1.14361
   265    C   18  pz     Ryd( 3p)     0.00140
   266    C   18  dxy    Ryd( 3d)     0.00073
   267    C   18  dxz    Ryd( 3d)     0.00079
   268    C   18  dyz    Ryd( 3d)     0.00089
   269    C   18  dx2y2  Ryd( 3d)     0.00124
   270    C   18  dz2    Ryd( 3d)     0.00118
 
   271    H   19  S      Val( 1S)     0.72451
   272    H   19  S      Ryd( 2S)     0.00249
 
   273    H   20  S      Val( 1S)     0.77272
   274    H   20  S      Ryd( 2S)     0.00217
 
   275    H   21  S      Val( 1S)     0.75957
   276    H   21  S      Ryd( 2S)     0.00200
 
   277    H   22  S      Val( 1S)     0.75286
   278    H   22  S      Ryd( 2S)     0.00112
 
   279    H   23  S      Val( 1S)     0.75438
   280    H   23  S      Ryd( 2S)     0.00111
 
   281    H   24  S      Val( 1S)     0.77232
   282    H   24  S      Ryd( 2S)     0.00194
 
   283    H   25  S      Val( 1S)     0.76099
   284    H   25  S      Ryd( 2S)     0.00189
 
   285    H   26  S      Val( 1S)     0.75443
   286    H   26  S      Ryd( 2S)     0.00113
 
   287    H   27  S      Val( 1S)     0.73020
   288    H   27  S      Ryd( 2S)     0.00207
 
   289    H   28  S      Val( 1S)     0.77219
   290    H   28  S      Ryd( 2S)     0.00204
 
   291    H   29  S      Val( 1S)     0.73021
   292    H   29  S      Ryd( 2S)     0.00207
 
   293    H   30  S      Val( 1S)     0.77219
   294    H   30  S      Ryd( 2S)     0.00204
 
   295    H   31  S      Val( 1S)     0.76099
   296    H   31  S      Ryd( 2S)     0.00189
 
   297    H   32  S      Val( 1S)     0.75443
   298    H   32  S      Ryd( 2S)     0.00113
 
   299    H   33  S      Val( 1S)     0.75438
   300    H   33  S      Ryd( 2S)     0.00111
 
   301    H   34  S      Val( 1S)     0.77232
   302    H   34  S      Ryd( 2S)     0.00194
 
   303    H   35  S      Val( 1S)     0.75957
   304    H   35  S      Ryd( 2S)     0.00200
 
   305    H   36  S      Val( 1S)     0.75286
   306    H   36  S      Ryd( 2S)     0.00112
 
   307    H   37  S      Val( 1S)     0.72451
   308    H   37  S      Ryd( 2S)     0.00249
 
   309    H   38  S      Val( 1S)     0.77272
   310    H   38  S      Ryd( 2S)     0.00217


 Summary of Natural Population Analysis:                  
                                                          
                                       Natural Population 
                Natural  -----------------------------------------------
    Atom  No    Charge         Core      Valence    Rydberg      Total
 -----------------------------------------------------------------------
      C    1    0.79688      1.99934     3.15701    0.04677     5.20312
      O    2   -0.57203      1.99979     6.55372    0.01853     8.57203
      N    3   -0.25233      1.99941     5.22695    0.02596     7.25233
      N    4   -0.25233      1.99941     5.22696    0.02596     7.25233
      C    5    0.79686      1.99934     3.15703    0.04677     5.20314
      O    6   -0.57205      1.99979     6.55374    0.01853     8.57205
      N    7   -0.47012      1.99928     5.45794    0.01290     7.47012
      C    8   -0.26147      1.99930     4.24580    0.01637     6.26147
      C    9   -0.47198      1.99932     4.46119    0.01147     6.47198
      C   10   -0.46563      1.99933     4.45475    0.01155     6.46563
      C   11   -0.47189      1.99932     4.46124    0.01132     6.47189
      C   12   -0.25928      1.99932     4.24380    0.01615     6.25928
      N   13   -0.47013      1.99928     5.45795    0.01290     7.47013
      C   14   -0.25927      1.99932     4.24380    0.01615     6.25927
      C   15   -0.47189      1.99932     4.46124    0.01132     6.47189
      C   16   -0.46562      1.99933     4.45475    0.01155     6.46562
      C   17   -0.47198      1.99932     4.46119    0.01147     6.47198
      C   18   -0.26147      1.99930     4.24580    0.01637     6.26147
      H   19    0.27299      0.00000     0.72451    0.00249     0.72701
      H   20    0.22510      0.00000     0.77272    0.00217     0.77490
      H   21    0.23843      0.00000     0.75957    0.00200     0.76157
      H   22    0.24603      0.00000     0.75286    0.00112     0.75397
      H   23    0.24451      0.00000     0.75438    0.00111     0.75549
      H   24    0.22574      0.00000     0.77232    0.00194     0.77426
      H   25    0.23712      0.00000     0.76099    0.00189     0.76288
      H   26    0.24445      0.00000     0.75443    0.00113     0.75555
      H   27    0.26773      0.00000     0.73020    0.00207     0.73227
      H   28    0.22578      0.00000     0.77219    0.00204     0.77422
      H   29    0.26772      0.00000     0.73021    0.00207     0.73228
      H   30    0.22577      0.00000     0.77219    0.00204     0.77423
      H   31    0.23712      0.00000     0.76099    0.00189     0.76288
      H   32    0.24445      0.00000     0.75443    0.00113     0.75555
      H   33    0.24451      0.00000     0.75438    0.00111     0.75549
      H   34    0.22574      0.00000     0.77232    0.00194     0.77426
      H   35    0.23843      0.00000     0.75957    0.00200     0.76157
      H   36    0.24602      0.00000     0.75286    0.00112     0.75398
      H   37    0.27299      0.00000     0.72451    0.00249     0.72701
      H   38    0.22510      0.00000     0.77272    0.00217     0.77490
 =======================================================================
   * Total *   -0.00000     35.98882    99.63320    0.37798   136.00000

                                 Natural Population      
 --------------------------------------------------------
   Core                      35.98882 ( 99.9689% of  36)
   Valence                   99.63320 ( 99.6332% of 100)
   Natural Minimal Basis    135.62202 ( 99.7221% of 136)
   Natural Rydberg Basis      0.37798 (  0.2779% of 136)
 --------------------------------------------------------

    Atom  No          Natural Electron Configuration
 ----------------------------------------------------------------------------
      C    1      [core]2S( 0.73)2p( 2.42)3p( 0.03)3d( 0.01)
      O    2      [core]2S( 1.70)2p( 4.85)3d( 0.01)
      N    3      [core]2S( 1.40)2p( 3.83)3S( 0.01)3p( 0.01)3d( 0.01)
      N    4      [core]2S( 1.40)2p( 3.83)3S( 0.01)3p( 0.01)3d( 0.01)
      C    5      [core]2S( 0.73)2p( 2.42)3p( 0.03)3d( 0.01)
      O    6      [core]2S( 1.70)2p( 4.85)3d( 0.01)
      N    7      [core]2S( 1.21)2p( 4.25)3p( 0.01)
      C    8      [core]2S( 1.02)2p( 3.23)3p( 0.01)
      C    9      [core]2S( 1.04)2p( 3.42)3p( 0.01)
      C   10      [core]2S( 1.04)2p( 3.42)3p( 0.01)
      C   11      [core]2S( 1.04)2p( 3.42)3p( 0.01)
      C   12      [core]2S( 1.02)2p( 3.23)3p( 0.01)
      N   13      [core]2S( 1.21)2p( 4.25)3p( 0.01)
      C   14      [core]2S( 1.02)2p( 3.23)3p( 0.01)
      C   15      [core]2S( 1.04)2p( 3.42)3p( 0.01)
      C   16      [core]2S( 1.04)2p( 3.42)3p( 0.01)
      C   17      [core]2S( 1.04)2p( 3.42)3p( 0.01)
      C   18      [core]2S( 1.02)2p( 3.23)3p( 0.01)
      H   19            1S( 0.72)
      H   20            1S( 0.77)
      H   21            1S( 0.76)
      H   22            1S( 0.75)
      H   23            1S( 0.75)
      H   24            1S( 0.77)
      H   25            1S( 0.76)
      H   26            1S( 0.75)
      H   27            1S( 0.73)
      H   28            1S( 0.77)
      H   29            1S( 0.73)
      H   30            1S( 0.77)
      H   31            1S( 0.76)
      H   32            1S( 0.75)
      H   33            1S( 0.75)
      H   34            1S( 0.77)
      H   35            1S( 0.76)
      H   36            1S( 0.75)
      H   37            1S( 0.72)
      H   38            1S( 0.77)


 NBO analysis skipped by request.
 1\1\GINC-DELLA-R1C3N7\SP\RB3LYP TD-FC\6-31G(d)\C12H20N4O2\BJS4\22-Aug-
 2020\0\\# TD(NStates=10, Root=1) B3LYP/6-31G* scf=qc volume pop=NPA de
 nsity=current Geom=AllCheck Guess=Read\\Title Card Required\\0,1\C,0,-
 0.952688217,-0.7743981115,0.7187983261\O,0,-0.978645832,-1.1499442971,
 1.8804059222\N,0,-1.5402426663,0.5240190435,0.3921088921\N,0,-2.782359
 9623,0.4735909231,0.3219583228\C,0,-3.3698969009,1.7719922095,-0.00484
 05956\O,0,-3.3436445205,2.1475189242,-1.1664531706\N,0,-3.9910273163,2
 .3785168758,1.0341450303\C,0,-3.9428684879,1.903617816,2.4219890198\C,
 0,-3.3043681016,2.9633788274,3.3302208803\C,0,-4.0090242459,4.32036971
 96,3.1742061555\C,0,-4.0564391939,4.7515472755,1.6996125063\C,0,-4.676
 8788316,3.6559283772,0.8225340082\N,0,-0.3318309,-1.3809565231,-0.3203
 703926\C,0,0.3540892759,-2.6583687768,-0.108940622\C,0,-0.2664266429,-
 3.753917981,-0.9860484249\C,0,-0.3139760158,-3.3226213758,-2.460610063
 9\C,0,-1.0186303522,-1.9656034032,-2.616431515\C,0,-0.3800235836,-0.90
 59288016,-1.7081739173\H,0,-3.3934170662,0.9624689483,2.4650587299\H,0
 ,-4.9734543213,1.7015721479,2.7503410492\H,0,-2.2430451413,3.060160094
 7,3.066352112\H,0,-3.3499368614,2.6190910907,4.3705958608\H,0,-3.50373
 7505,5.0831814357,3.7784291039\H,0,-5.0356215184,4.2415169669,3.562135
 8609\H,0,-3.0398369669,4.9581011197,1.3399371617\H,0,-4.6345282148,5.6
 768273925,1.5849836162\H,0,-4.6084772467,3.894118283,-0.2395753709\H,0
 ,-5.7389564767,3.5245842787,1.078761286\H,0,0.2858182867,-2.8966608663
 ,0.9531522847\H,0,1.4161349821,-2.5269785747,-0.3652776321\H,0,-1.2829
 956539,-3.9605017099,-0.6262957889\H,0,0.3116730282,-4.6792067996,-0.8
 715398246\H,0,-0.819325417,-4.0853792615,-3.0648486921\H,0,0.712584436
 9,-3.2437373721,-2.8486292922\H,0,-2.0799277017,-2.0624056275,-2.35246
 60667\H,0,-0.9731612485,-1.6212126434,-3.6567769983\H,0,-0.9294096936,
 0.0352639768,-1.7511657124\H,0,0.6505627945,-0.7039236019,-2.036552048
 8\\Version=ES64L-G16RevA.03\State=1-A\HF=-838.7633566\RMSD=3.401e-13\D
 ipole=-0.0002809,0.0001139,-0.0000636\Quadrupole=0.8391787,4.3343896,-
 5.1735683,-6.9821221,-7.8170045,10.5260519\PG=C01 [X(C12H20N4O2)]\\@


 IT IS BETTER TO THINK YOU ARE HALF DRY THAN TO KNOW YOU
 ARE ALL WET.  -- SNOOPY
 Job cpu time:       0 days  0 hours 53 minutes 36.7 seconds.
 Elapsed time:       0 days  0 hours 10 minutes 43.8 seconds.
 File lengths (MBytes):  RWF=    821 Int=      0 D2E=      0 Chk=    268 Scr=      1
 Normal termination of Gaussian 16 at Sat Aug 22 17:30:12 2020.
