 Entering Gaussian System, Link 0=g16
 Input=azadicarboxylate_3_conf8123.com
 Output=azadicarboxylate_3_conf8123.log
 Initial command:
 /opt/export//g16/l1.exe "/scratch/bjs4/job.130986/Gau-130988.inp" -scrdir="/scratch/bjs4/job.130986/"
 Entering Link 1 = /opt/export//g16/l1.exe PID=    130989.
  
 Copyright (c) 1988,1990,1992,1993,1995,1998,2003,2009,2016,
            Gaussian, Inc.  All Rights Reserved.
  
 This is part of the Gaussian(R) 16 program.  It is based on
 the Gaussian(R) 09 system (copyright 2009, Gaussian, Inc.),
 the Gaussian(R) 03 system (copyright 2003, Gaussian, Inc.),
 the Gaussian(R) 98 system (copyright 1998, Gaussian, Inc.),
 the Gaussian(R) 94 system (copyright 1995, Gaussian, Inc.),
 the Gaussian 92(TM) system (copyright 1992, Gaussian, Inc.),
 the Gaussian 90(TM) system (copyright 1990, Gaussian, Inc.),
 the Gaussian 88(TM) system (copyright 1988, Gaussian, Inc.),
 the Gaussian 86(TM) system (copyright 1986, Carnegie Mellon
 University), and the Gaussian 82(TM) system (copyright 1983,
 Carnegie Mellon University). Gaussian is a federally registered
 trademark of Gaussian, Inc.
  
 This software contains proprietary and confidential information,
 including trade secrets, belonging to Gaussian, Inc.
  
 This software is provided under written license and may be
 used, copied, transmitted, or stored only in accord with that
 written license.
  
 The following legend is applicable only to US Government
 contracts under FAR:
  
                    RESTRICTED RIGHTS LEGEND
  
 Use, reproduction and disclosure by the US Government is
 subject to restrictions as set forth in subparagraphs (a)
 and (c) of the Commercial Computer Software - Restricted
 Rights clause in FAR 52.227-19.
  
 Gaussian, Inc.
 340 Quinnipiac St., Bldg. 40, Wallingford CT 06492
  
  
 ---------------------------------------------------------------
 Warning -- This program may not be used in any manner that
 competes with the business of Gaussian, Inc. or will provide
 assistance to any competitor of Gaussian, Inc.  The licensee
 of this program is prohibited from giving any competitor of
 Gaussian, Inc. access to this program.  By using this program,
 the user acknowledges that Gaussian, Inc. is engaged in the
 business of creating and licensing software in the field of
 computational chemistry and represents and warrants to the
 licensee that it is not a competitor of Gaussian, Inc. and that
 it will not use this program in any manner prohibited above.
 ---------------------------------------------------------------
  

 Cite this work as:
 Gaussian 16, Revision A.03,
 M. J. Frisch, G. W. Trucks, H. B. Schlegel, G. E. Scuseria, 
 M. A. Robb, J. R. Cheeseman, G. Scalmani, V. Barone, 
 G. A. Petersson, H. Nakatsuji, X. Li, M. Caricato, A. V. Marenich, 
 J. Bloino, B. G. Janesko, R. Gomperts, B. Mennucci, H. P. Hratchian, 
 J. V. Ortiz, A. F. Izmaylov, J. L. Sonnenberg, D. Williams-Young, 
 F. Ding, F. Lipparini, F. Egidi, J. Goings, B. Peng, A. Petrone, 
 T. Henderson, D. Ranasinghe, V. G. Zakrzewski, J. Gao, N. Rega, 
 G. Zheng, W. Liang, M. Hada, M. Ehara, K. Toyota, R. Fukuda, 
 J. Hasegawa, M. Ishida, T. Nakajima, Y. Honda, O. Kitao, H. Nakai, 
 T. Vreven, K. Throssell, J. A. Montgomery, Jr., J. E. Peralta, 
 F. Ogliaro, M. J. Bearpark, J. J. Heyd, E. N. Brothers, K. N. Kudin, 
 V. N. Staroverov, T. A. Keith, R. Kobayashi, J. Normand, 
 K. Raghavachari, A. P. Rendell, J. C. Burant, S. S. Iyengar, 
 J. Tomasi, M. Cossi, J. M. Millam, M. Klene, C. Adamo, R. Cammi, 
 J. W. Ochterski, R. L. Martin, K. Morokuma, O. Farkas, 
 J. B. Foresman, and D. J. Fox, Gaussian, Inc., Wallingford CT, 2016.
 
 ******************************************
 Gaussian 16:  ES64L-G16RevA.03 25-Dec-2016
                22-Aug-2020 
 ******************************************
 %nprocshared=5
 Will use up to    5 processors via shared memory.
 %Mem=10GB
 %Chk=azadicarboxylate_3_conf81.chk
 ---------------------------------
 # opt=CalcAll B3LYP/6-31G* scf=qc
 ---------------------------------
 1/10=4,18=20,19=15,26=3,38=1/1,3;
 2/9=110,12=2,17=6,18=5,40=1/2;
 3/5=1,6=6,7=1,11=2,25=1,30=1,71=2,74=-5,140=1/1,2,3;
 4//1;
 5/5=2,8=3,38=5/8;
 8/6=4,10=90,11=11/1;
 11/6=1,8=1,9=11,15=111,16=1/1,2,10;
 10/6=1/2;
 6/7=2,8=2,9=2,10=2,18=1,28=1/1;
 7/10=1,25=1/1,2,3,16;
 1/10=4,18=20,19=15,26=3/3(3);
 2/9=110/2;
 7/8=1,9=1,25=1,44=-1/16;
 99//99;
 2/9=110/2;
 3/5=1,6=6,7=1,11=2,25=1,30=1,71=2,74=-5,140=1/1,2,3;
 4/5=5,16=3,69=1/1;
 5/5=2,8=3,38=5/8;
 8/6=4,10=90,11=11/1;
 11/6=1,8=1,9=11,15=111,16=1/1,2,10;
 10/6=1/2;
 7/10=1,25=1/1,2,3,16;
 1/10=4,18=20,19=15,26=3/3(-8);
 2/9=110/2;
 6/7=2,8=2,9=2,10=2,18=1,19=2,28=1/1;
 7/8=1,9=1,25=1,44=-1/16;
 99//99;
 -------------------
 Title Card Required
 -------------------
 Symbolic Z-matrix:
 Charge =  0 Multiplicity = 1
 C                    -1.92131  -0.10382   0.01867 
 C                    -3.33858  -0.06653   0.54697 
 O1                   -3.88531   1.2542    0.43219 
 C2                   -5.0041    1.3932   -0.331 
 O3                   -5.55839   0.46837  -0.91564 
 N4                   -5.404     2.7122   -0.3088 
 N5                   -6.6449    2.8402   -0.4308 
 C6                   -7.0458    4.1568   -0.3655 
 O7                   -6.49846   5.05974   0.25758 
 O8                   -8.18479   4.31423  -1.09426 
 C                    -8.76148   5.62718  -1.11936 
 C                    -8.03895   6.50599  -2.11634 
 C                    -8.70926   7.08422  -3.2056 
 C                    -8.02343   7.8929   -4.11624 
 C                    -6.66619   8.14499  -3.93406 
 C                    -5.9927    7.60985  -2.83914 
 C                    -6.67805   6.7982   -1.93064 
 Cl                   -5.81654   9.12107  -5.06774 
 C                    -0.84291  -0.47469   0.83706 
 C                     0.45931  -0.50324   0.32964 
 C                     0.69076  -0.17912  -1.00476 
 C                    -0.3711    0.15608  -1.84074 
 C                    -1.67261   0.18773  -1.3323 
 Cl                    2.29605  -0.19138  -1.62353 
 H                    -3.3211   -0.32635   1.61143 
 H                    -3.94754  -0.82029   0.03565 
 H                    -8.76258   6.10499  -0.13375 
 H                    -9.80534   5.52387  -1.43568 
 H                    -9.7714    6.9019   -3.35928 
 H                    -8.55321   8.31851  -4.96434 
 H                    -4.93621   7.81594  -2.68885 
 H                    -6.1366    6.389    -1.07952 
 H                    -1.00731  -0.73645   1.88079 
 H                     1.28579  -0.77551   0.98093 
 H                    -0.19361   0.39724  -2.8856 
 H                    -2.49119   0.45023  -2.00008 
 

 GradGradGradGradGradGradGradGradGradGradGradGradGradGradGradGradGradGrad
 Berny optimization.
 Initialization pass.
                           ----------------------------
                           !    Initial Parameters    !
                           ! (Angstroms and Degrees)  !
 --------------------------                            --------------------------
 ! Name  Definition              Value          Derivative Info.                !
 --------------------------------------------------------------------------------
 ! R1    R(1,2)                  1.513          calculate D2E/DX2 analytically  !
 ! R2    R(1,19)                 1.4037         calculate D2E/DX2 analytically  !
 ! R3    R(1,23)                 1.4043         calculate D2E/DX2 analytically  !
 ! R4    R(2,3)                  1.434          calculate D2E/DX2 analytically  !
 ! R5    R(2,25)                 1.0958         calculate D2E/DX2 analytically  !
 ! R6    R(2,26)                 1.0956         calculate D2E/DX2 analytically  !
 ! R7    R(3,4)                  1.3614         calculate D2E/DX2 analytically  !
 ! R8    R(4,5)                  1.2265         calculate D2E/DX2 analytically  !
 ! R9    R(4,6)                  1.3785         calculate D2E/DX2 analytically  !
 ! R10   R(6,7)                  1.2534         calculate D2E/DX2 analytically  !
 ! R11   R(7,8)                  1.3778         calculate D2E/DX2 analytically  !
 ! R12   R(8,9)                  1.226          calculate D2E/DX2 analytically  !
 ! R13   R(8,10)                 1.3613         calculate D2E/DX2 analytically  !
 ! R14   R(10,11)                1.4342         calculate D2E/DX2 analytically  !
 ! R15   R(11,12)                1.5127         calculate D2E/DX2 analytically  !
 ! R16   R(11,27)                1.0953         calculate D2E/DX2 analytically  !
 ! R17   R(11,28)                1.0956         calculate D2E/DX2 analytically  !
 ! R18   R(12,13)                1.4036         calculate D2E/DX2 analytically  !
 ! R19   R(12,17)                1.4043         calculate D2E/DX2 analytically  !
 ! R20   R(13,14)                1.3977         calculate D2E/DX2 analytically  !
 ! R21   R(13,29)                1.0886         calculate D2E/DX2 analytically  !
 ! R22   R(14,15)                1.3924         calculate D2E/DX2 analytically  !
 ! R23   R(14,30)                1.0868         calculate D2E/DX2 analytically  !
 ! R24   R(15,16)                1.3924         calculate D2E/DX2 analytically  !
 ! R25   R(15,18)                1.7204         calculate D2E/DX2 analytically  !
 ! R26   R(16,17)                1.3978         calculate D2E/DX2 analytically  !
 ! R27   R(16,31)                1.0868         calculate D2E/DX2 analytically  !
 ! R28   R(17,32)                1.0886         calculate D2E/DX2 analytically  !
 ! R29   R(19,20)                1.3979         calculate D2E/DX2 analytically  !
 ! R30   R(19,33)                1.0885         calculate D2E/DX2 analytically  !
 ! R31   R(20,21)                1.3926         calculate D2E/DX2 analytically  !
 ! R32   R(20,34)                1.0869         calculate D2E/DX2 analytically  !
 ! R33   R(21,22)                1.3924         calculate D2E/DX2 analytically  !
 ! R34   R(21,24)                1.7205         calculate D2E/DX2 analytically  !
 ! R35   R(22,23)                1.3977         calculate D2E/DX2 analytically  !
 ! R36   R(22,35)                1.0869         calculate D2E/DX2 analytically  !
 ! R37   R(23,36)                1.0885         calculate D2E/DX2 analytically  !
 ! A1    A(2,1,19)             121.5068         calculate D2E/DX2 analytically  !
 ! A2    A(2,1,23)             119.7821         calculate D2E/DX2 analytically  !
 ! A3    A(19,1,23)            118.666          calculate D2E/DX2 analytically  !
 ! A4    A(1,2,3)              110.6028         calculate D2E/DX2 analytically  !
 ! A5    A(1,2,25)             108.5655         calculate D2E/DX2 analytically  !
 ! A6    A(1,2,26)             109.9212         calculate D2E/DX2 analytically  !
 ! A7    A(3,2,25)             107.5894         calculate D2E/DX2 analytically  !
 ! A8    A(3,2,26)             112.6036         calculate D2E/DX2 analytically  !
 ! A9    A(25,2,26)            107.4018         calculate D2E/DX2 analytically  !
 ! A10   A(2,3,4)              116.8857         calculate D2E/DX2 analytically  !
 ! A11   A(3,4,5)              124.1668         calculate D2E/DX2 analytically  !
 ! A12   A(3,4,6)              109.091          calculate D2E/DX2 analytically  !
 ! A13   A(5,4,6)              126.7318         calculate D2E/DX2 analytically  !
 ! A14   A(4,6,7)              112.5413         calculate D2E/DX2 analytically  !
 ! A15   A(6,7,8)              112.397          calculate D2E/DX2 analytically  !
 ! A16   A(7,8,9)              126.7227         calculate D2E/DX2 analytically  !
 ! A17   A(7,8,10)             109.1826         calculate D2E/DX2 analytically  !
 ! A18   A(9,8,10)             124.0851         calculate D2E/DX2 analytically  !
 ! A19   A(8,10,11)            116.85           calculate D2E/DX2 analytically  !
 ! A20   A(10,11,12)           110.5669         calculate D2E/DX2 analytically  !
 ! A21   A(10,11,27)           112.5813         calculate D2E/DX2 analytically  !
 ! A22   A(10,11,28)           107.5673         calculate D2E/DX2 analytically  !
 ! A23   A(12,11,27)           109.8832         calculate D2E/DX2 analytically  !
 ! A24   A(12,11,28)           108.637          calculate D2E/DX2 analytically  !
 ! A25   A(27,11,28)           107.4559         calculate D2E/DX2 analytically  !
 ! A26   A(11,12,13)           121.5124         calculate D2E/DX2 analytically  !
 ! A27   A(11,12,17)           119.7769         calculate D2E/DX2 analytically  !
 ! A28   A(13,12,17)           118.6668         calculate D2E/DX2 analytically  !
 ! A29   A(12,13,14)           120.6388         calculate D2E/DX2 analytically  !
 ! A30   A(12,13,29)           120.4323         calculate D2E/DX2 analytically  !
 ! A31   A(14,13,29)           118.9266         calculate D2E/DX2 analytically  !
 ! A32   A(13,14,15)           119.8538         calculate D2E/DX2 analytically  !
 ! A33   A(13,14,30)           119.7242         calculate D2E/DX2 analytically  !
 ! A34   A(15,14,30)           120.4218         calculate D2E/DX2 analytically  !
 ! A35   A(14,15,16)           120.3159         calculate D2E/DX2 analytically  !
 ! A36   A(14,15,18)           119.8599         calculate D2E/DX2 analytically  !
 ! A37   A(16,15,18)           119.8241         calculate D2E/DX2 analytically  !
 ! A38   A(15,16,17)           119.808          calculate D2E/DX2 analytically  !
 ! A39   A(15,16,31)           120.4002         calculate D2E/DX2 analytically  !
 ! A40   A(17,16,31)           119.7913         calculate D2E/DX2 analytically  !
 ! A41   A(12,17,16)           120.6671         calculate D2E/DX2 analytically  !
 ! A42   A(12,17,32)           120.478          calculate D2E/DX2 analytically  !
 ! A43   A(16,17,32)           118.8532         calculate D2E/DX2 analytically  !
 ! A44   A(1,19,20)            120.6279         calculate D2E/DX2 analytically  !
 ! A45   A(1,19,33)            120.434          calculate D2E/DX2 analytically  !
 ! A46   A(20,19,33)           118.936          calculate D2E/DX2 analytically  !
 ! A47   A(19,20,21)           119.8616         calculate D2E/DX2 analytically  !
 ! A48   A(19,20,34)           119.7334         calculate D2E/DX2 analytically  !
 ! A49   A(21,20,34)           120.4047         calculate D2E/DX2 analytically  !
 ! A50   A(20,21,22)           120.3043         calculate D2E/DX2 analytically  !
 ! A51   A(20,21,24)           119.8711         calculate D2E/DX2 analytically  !
 ! A52   A(22,21,24)           119.8246         calculate D2E/DX2 analytically  !
 ! A53   A(21,22,23)           119.8145         calculate D2E/DX2 analytically  !
 ! A54   A(21,22,35)           120.4003         calculate D2E/DX2 analytically  !
 ! A55   A(23,22,35)           119.7847         calculate D2E/DX2 analytically  !
 ! A56   A(1,23,22)            120.6766         calculate D2E/DX2 analytically  !
 ! A57   A(1,23,36)            120.4687         calculate D2E/DX2 analytically  !
 ! A58   A(22,23,36)           118.853          calculate D2E/DX2 analytically  !
 ! D1    D(19,1,2,3)           120.0001         calculate D2E/DX2 analytically  !
 ! D2    D(19,1,2,25)            2.1716         calculate D2E/DX2 analytically  !
 ! D3    D(19,1,2,26)         -115.0408         calculate D2E/DX2 analytically  !
 ! D4    D(23,1,2,3)           -62.4722         calculate D2E/DX2 analytically  !
 ! D5    D(23,1,2,25)          179.6993         calculate D2E/DX2 analytically  !
 ! D6    D(23,1,2,26)           62.4869         calculate D2E/DX2 analytically  !
 ! D7    D(2,1,19,20)          179.9789         calculate D2E/DX2 analytically  !
 ! D8    D(2,1,19,33)           -0.562          calculate D2E/DX2 analytically  !
 ! D9    D(23,1,19,20)           2.4244         calculate D2E/DX2 analytically  !
 ! D10   D(23,1,19,33)        -178.1166         calculate D2E/DX2 analytically  !
 ! D11   D(2,1,23,22)         -179.8652         calculate D2E/DX2 analytically  !
 ! D12   D(2,1,23,36)            0.6184         calculate D2E/DX2 analytically  !
 ! D13   D(19,1,23,22)          -2.2674         calculate D2E/DX2 analytically  !
 ! D14   D(19,1,23,36)         178.2162         calculate D2E/DX2 analytically  !
 ! D15   D(1,2,3,4)            120.0002         calculate D2E/DX2 analytically  !
 ! D16   D(25,2,3,4)          -121.5752         calculate D2E/DX2 analytically  !
 ! D17   D(26,2,3,4)            -3.4222         calculate D2E/DX2 analytically  !
 ! D18   D(2,3,4,5)             -0.0795         calculate D2E/DX2 analytically  !
 ! D19   D(2,3,4,6)            178.8168         calculate D2E/DX2 analytically  !
 ! D20   D(3,4,6,7)           -149.647          calculate D2E/DX2 analytically  !
 ! D21   D(5,4,6,7)             29.2135         calculate D2E/DX2 analytically  !
 ! D22   D(4,6,7,8)            178.0638         calculate D2E/DX2 analytically  !
 ! D23   D(6,7,8,9)            -29.6471         calculate D2E/DX2 analytically  !
 ! D24   D(6,7,8,10)           151.4486         calculate D2E/DX2 analytically  !
 ! D25   D(7,8,10,11)          178.9395         calculate D2E/DX2 analytically  !
 ! D26   D(9,8,10,11)            0.0            calculate D2E/DX2 analytically  !
 ! D27   D(8,10,11,12)          80.4705         calculate D2E/DX2 analytically  !
 ! D28   D(8,10,11,27)         -42.8596         calculate D2E/DX2 analytically  !
 ! D29   D(8,10,11,28)        -161.052          calculate D2E/DX2 analytically  !
 ! D30   D(10,11,12,13)        120.0005         calculate D2E/DX2 analytically  !
 ! D31   D(10,11,12,17)        -62.4424         calculate D2E/DX2 analytically  !
 ! D32   D(27,11,12,13)       -115.1212         calculate D2E/DX2 analytically  !
 ! D33   D(27,11,12,17)         62.4359         calculate D2E/DX2 analytically  !
 ! D34   D(28,11,12,13)          2.1765         calculate D2E/DX2 analytically  !
 ! D35   D(28,11,12,17)        179.7336         calculate D2E/DX2 analytically  !
 ! D36   D(11,12,13,14)       -179.9696         calculate D2E/DX2 analytically  !
 ! D37   D(11,12,13,29)         -0.5273         calculate D2E/DX2 analytically  !
 ! D38   D(17,12,13,14)          2.447          calculate D2E/DX2 analytically  !
 ! D39   D(17,12,13,29)       -178.1107         calculate D2E/DX2 analytically  !
 ! D40   D(11,12,17,16)       -179.8991         calculate D2E/DX2 analytically  !
 ! D41   D(11,12,17,32)          0.5957         calculate D2E/DX2 analytically  !
 ! D42   D(13,12,17,16)         -2.2727         calculate D2E/DX2 analytically  !
 ! D43   D(13,12,17,32)        178.2222         calculate D2E/DX2 analytically  !
 ! D44   D(12,13,14,15)         -0.9087         calculate D2E/DX2 analytically  !
 ! D45   D(12,13,14,30)        178.8992         calculate D2E/DX2 analytically  !
 ! D46   D(29,13,14,15)        179.6407         calculate D2E/DX2 analytically  !
 ! D47   D(29,13,14,30)         -0.5514         calculate D2E/DX2 analytically  !
 ! D48   D(13,14,15,16)         -0.8571         calculate D2E/DX2 analytically  !
 ! D49   D(13,14,15,18)        179.0861         calculate D2E/DX2 analytically  !
 ! D50   D(30,14,15,16)        179.3364         calculate D2E/DX2 analytically  !
 ! D51   D(30,14,15,18)         -0.7204         calculate D2E/DX2 analytically  !
 ! D52   D(14,15,16,17)          1.0301         calculate D2E/DX2 analytically  !
 ! D53   D(14,15,16,31)       -179.2316         calculate D2E/DX2 analytically  !
 ! D54   D(18,15,16,17)       -178.9131         calculate D2E/DX2 analytically  !
 ! D55   D(18,15,16,31)          0.8252         calculate D2E/DX2 analytically  !
 ! D56   D(15,16,17,12)          0.559          calculate D2E/DX2 analytically  !
 ! D57   D(15,16,17,32)       -179.9279         calculate D2E/DX2 analytically  !
 ! D58   D(31,16,17,12)       -179.1809         calculate D2E/DX2 analytically  !
 ! D59   D(31,16,17,32)          0.3322         calculate D2E/DX2 analytically  !
 ! D60   D(1,19,20,21)          -0.8887         calculate D2E/DX2 analytically  !
 ! D61   D(1,19,20,34)         178.9147         calculate D2E/DX2 analytically  !
 ! D62   D(33,19,20,21)        179.6443         calculate D2E/DX2 analytically  !
 ! D63   D(33,19,20,34)         -0.5524         calculate D2E/DX2 analytically  !
 ! D64   D(19,20,21,22)         -0.8571         calculate D2E/DX2 analytically  !
 ! D65   D(19,20,21,24)        179.0889         calculate D2E/DX2 analytically  !
 ! D66   D(34,20,21,22)        179.3408         calculate D2E/DX2 analytically  !
 ! D67   D(34,20,21,24)         -0.7132         calculate D2E/DX2 analytically  !
 ! D68   D(20,21,22,23)          1.0135         calculate D2E/DX2 analytically  !
 ! D69   D(20,21,22,35)       -179.2332         calculate D2E/DX2 analytically  !
 ! D70   D(24,21,22,23)       -178.9325         calculate D2E/DX2 analytically  !
 ! D71   D(24,21,22,35)          0.8208         calculate D2E/DX2 analytically  !
 ! D72   D(21,22,23,1)           0.5729         calculate D2E/DX2 analytically  !
 ! D73   D(21,22,23,36)       -179.903          calculate D2E/DX2 analytically  !
 ! D74   D(35,22,23,1)        -179.1819         calculate D2E/DX2 analytically  !
 ! D75   D(35,22,23,36)          0.3421         calculate D2E/DX2 analytically  !
 --------------------------------------------------------------------------------
 Trust Radius=3.00D-01 FncErr=1.00D-07 GrdErr=1.00D-06 EigMax=2.50D+02 EigMin=1.00D-04
 Number of steps in this run=    180 maximum allowed number of steps=    216.
 GradGradGradGradGradGradGradGradGradGradGradGradGradGradGradGradGradGrad

                          Input orientation:                          
 ---------------------------------------------------------------------
 Center     Atomic      Atomic             Coordinates (Angstroms)
 Number     Number       Type             X           Y           Z
 ---------------------------------------------------------------------
      1          6           0       -1.921310   -0.103820    0.018670
      2          6           0       -3.338580   -0.066530    0.546970
      3          8           0       -3.885310    1.254200    0.432190
      4          6           0       -5.004100    1.393200   -0.331000
      5          8           0       -5.558390    0.468370   -0.915640
      6          7           0       -5.404000    2.712200   -0.308800
      7          7           0       -6.644900    2.840200   -0.430800
      8          6           0       -7.045800    4.156800   -0.365500
      9          8           0       -6.498460    5.059740    0.257580
     10          8           0       -8.184790    4.314230   -1.094260
     11          6           0       -8.761480    5.627180   -1.119360
     12          6           0       -8.038950    6.505990   -2.116340
     13          6           0       -8.709260    7.084220   -3.205600
     14          6           0       -8.023430    7.892900   -4.116240
     15          6           0       -6.666190    8.144990   -3.934060
     16          6           0       -5.992700    7.609850   -2.839140
     17          6           0       -6.678050    6.798200   -1.930640
     18         17           0       -5.816540    9.121070   -5.067740
     19          6           0       -0.842910   -0.474690    0.837060
     20          6           0        0.459310   -0.503240    0.329640
     21          6           0        0.690760   -0.179120   -1.004760
     22          6           0       -0.371100    0.156080   -1.840740
     23          6           0       -1.672610    0.187730   -1.332300
     24         17           0        2.296050   -0.191380   -1.623530
     25          1           0       -3.321100   -0.326350    1.611430
     26          1           0       -3.947540   -0.820290    0.035650
     27          1           0       -8.762580    6.104990   -0.133750
     28          1           0       -9.805340    5.523870   -1.435680
     29          1           0       -9.771400    6.901900   -3.359280
     30          1           0       -8.553210    8.318510   -4.964340
     31          1           0       -4.936210    7.815940   -2.688850
     32          1           0       -6.136600    6.389000   -1.079520
     33          1           0       -1.007310   -0.736450    1.880790
     34          1           0        1.285790   -0.775510    0.980930
     35          1           0       -0.193610    0.397240   -2.885600
     36          1           0       -2.491190    0.450230   -2.000080
 ---------------------------------------------------------------------
                    Distance matrix (angstroms):
                    1          2          3          4          5
     1  C    0.000000
     2  C    1.512992   0.000000
     3  O    2.423327   1.434021   0.000000
     4  C    3.444841   2.382352   1.361422   0.000000
     5  O    3.798511   2.711624   2.287656   1.226520   0.000000
     6  N    4.490694   3.566461   2.231871   1.378468   2.329563
     7  N    5.584047   4.509641   3.297800   2.189976   2.653517
     8  C    6.675393   5.693206   4.364641   3.436163   4.014917
     9  O    6.904327   6.028867   4.619651   4.002881   4.831237
    10  O    7.745254   6.735759   5.493575   4.385404   4.660528
    11  C    8.995966   8.037589   6.731069   5.715418   6.075739
    12  C    9.255991   8.507921   7.164428   6.207928   6.636845
    13  C   10.399043   9.698413   8.396019   7.374228   7.677328
    14  C   10.875701  10.346298   9.049010   8.104967   8.452450
    15  C   10.304408   9.928831   8.618609   7.831427   8.322774
    16  C    9.178453   8.799824   7.452314   6.776049   7.408726
    17  C    8.606060   8.025904   6.642161   5.880049   6.507735
    18  Cl  11.231339  11.048857   9.791145   9.100370   9.600823
    19  C    1.403657   2.545411   3.522666   4.708384   5.118307
    20  C    2.433843   3.829088   4.687732   5.820806   6.221532
    21  C    2.806419   4.319273   5.005961   5.946223   6.283237
    22  C    2.434770   3.815318   4.326864   5.027372   5.278382
    23  C    1.404270   2.524235   3.024372   3.681655   3.918118
    24  Cl   4.526656   6.039513   6.672698   7.581142   7.913824
    25  H    2.132092   1.095850   2.051116   3.092309   3.467438
    26  H    2.149238   1.095643   2.112966   2.479978   2.271659
    27  H    9.239888   8.244441   6.902044   6.030427   6.530672
    28  H    9.795099   8.775104   7.534307   6.429204   6.623074
    29  H   11.050546  10.256655   8.995433   7.889449   8.069147
    30  H   11.821511  11.308218  10.040732   9.056707   9.326608
    31  H    8.896229   8.669273   7.341779   6.842197   7.584073
    32  H    7.818657   7.221375   5.806870   5.176954   5.951054
    33  H    2.168665   2.768156   3.787349   5.040015   5.475759
    34  H    3.415055   4.698486   5.582214   6.781385   7.210202
    35  H    3.416254   4.678510   5.036940   5.537033   5.715476
    36  H    2.169582   2.733601   2.916483   3.160655   3.253314
                    6          7          8          9         10
     6  N    0.000000
     7  N    1.253436   0.000000
     8  C    2.187599   1.377832   0.000000
     9  O    2.651334   2.328448   1.226014   0.000000
    10  O    3.303973   2.232533   1.361313   2.286256   0.000000
    11  C    4.519600   3.566691   2.381991   2.709098   1.434238
    12  C    4.960142   4.268775   3.093619   3.178088   2.422752
    13  C    6.199254   5.474742   4.404890   4.580368   3.522168
    14  C    6.942454   6.404107   5.383517   5.429791   4.686713
    15  C    6.652131   6.357207   5.365108   5.207374   5.004531
    16  C    5.544021   5.382846   4.376239   4.043331   4.325619
    17  C    4.577004   4.232775   3.092232   2.800500   3.023227
    18  Cl   7.993204   7.850906   6.947382   6.731898   6.671047
    19  C    5.680916   6.801401   7.834073   7.934164   8.975910
    20  C    6.717519   7.888388   8.861482   8.908563   9.997798
    21  C    6.781607   7.953467   8.891750   8.984656   9.948547
    22  C    5.848989   6.967998   7.920462   8.123630   8.882634
    23  C    4.619932   5.707186   6.749770   7.039391   7.713181
    24  Cl   8.333670   9.515969  10.380726  10.414233  11.420537
    25  H    4.154340   5.024479   6.154695   6.398319   7.246463
    26  H    3.836458   4.570833   5.876356   6.413361   6.752354
    27  H    4.777209   3.902776   2.607007   2.524267   2.112639
    28  H    5.342952   4.266175   3.260249   3.744062   2.050848
    29  H    6.777403   5.903254   4.891543   5.214151   3.787305
    30  H    7.938658   7.362507   6.382903   6.489224   5.580996
    31  H    5.650808   5.725068   4.820543   4.326513   5.035669
    32  H    3.827476   3.643239   2.513799   1.919821   2.915471
    33  H    6.001531   7.065288   8.090308   8.147598   9.266958
    34  H    7.653810   8.829620   9.775272   9.755405  10.950057
    35  H    6.256764   7.322106   8.212046   8.448054   9.078032
    36  H    4.057265   5.042609   6.095489   6.511745   6.940323
                   11         12         13         14         15
    11  C    0.000000
    12  C    1.512721   0.000000
    13  C    2.545209   1.403621   0.000000
    14  C    3.828772   2.433795   1.397709   0.000000
    15  C    4.318813   2.806225   2.414544   1.392422   0.000000
    16  C    3.815071   2.434766   2.791107   2.415567   1.392413
    17  C    2.523914   1.404251   2.415190   2.790208   2.414058
    18  Cl   6.039010   4.526424   3.998019   2.698910   1.720427
    19  C   10.186469  10.451577  11.634418  12.087664  11.444346
    20  C   11.167122  11.284172  12.414916  12.736479  11.989319
    21  C   11.093741  11.051432  12.081398  12.279085  11.488965
    22  C   10.042500   9.959580  10.926430  11.117304  10.384259
    23  C    8.937843   9.003633  10.029221  10.365948   9.747973
    24  Cl  12.505151  12.325171  13.287368  13.343944  12.456137
    25  H    8.514662   9.101387  10.351454  11.066805  10.663287
    26  H    8.128834   8.662856   9.780642  10.477154  10.174768
    27  H    1.095322   2.148279   3.224593   4.427549   4.795707
    28  H    1.095616   2.132602   2.601673   3.996612   4.792331
    29  H    2.768048   2.168646   1.088577   2.147200   3.393814
    30  H    4.697926   3.414791   2.154296   1.086777   2.156949
    31  H    4.678318   3.416245   3.877931   3.402101   2.156769
    32  H    2.733487   2.169705   3.409124   3.878597   3.392988
    33  H   10.470140  10.856977  12.097697  12.635505  12.029771
    34  H   12.097656  12.229640  13.386688  13.703432  12.921549
    35  H   10.192167   9.972861  10.832100  10.908963  10.149935
    36  H    8.178815   8.213610   9.172104   9.511948   8.965503
                   16         17         18         19         20
    16  C    0.000000
    17  C    1.397803   0.000000
    18  Cl   2.698421   3.997414   0.000000
    19  C   10.266186   9.726456  12.315936   0.000000
    20  C   10.839365  10.457619  12.694304   1.397879   0.000000
    21  C   10.426008  10.190172  12.055965   2.414913   1.392568
    22  C    9.389243   9.159883  10.974397   2.791252   2.415540
    23  C    8.719037   8.313288  10.532342   2.415228   2.790084
    24  Cl  11.447282  11.379060  12.821795   3.998479   2.699212
    25  H    9.483053   8.635658  11.836058   2.600592   3.995720
    26  H    9.138619   8.328468  11.329977   3.224969   4.428011
    27  H    4.154031   2.838066   6.490004  10.341945  11.354589
    28  H    4.566972   3.413040   6.483998  11.021489  12.033514
    29  H    3.879473   3.408897   4.846078  12.318331  13.157190
    30  H    3.402188   3.876971   2.853797  13.054705  13.677537
    31  H    1.086845   2.155153   2.852624   9.895539  10.364925
    32  H    2.146496   1.088585   4.844847   8.877312   9.643378
    33  H   10.807061  10.171295  12.983892   1.088539   2.147423
    34  H   11.742385  11.369304  13.600434   2.154659   1.086913
    35  H    9.254909   9.161452  10.605861   3.878150   3.402196
    36  H    8.014035   7.604692   9.780182   3.409057   3.878421
                   21         22         23         24         25
    21  C    0.000000
    22  C    1.392397   0.000000
    23  C    2.413997   1.397656   0.000000
    24  Cl   1.720460   2.698444   3.997349   0.000000
    25  H    4.791779   4.566477   3.412821   6.483483   0.000000
    26  H    4.796601   4.155125   2.839489   6.490826   1.766207
    27  H   11.384829  10.426902   9.312259  12.812377   8.603342
    28  H   11.953154  10.861958   9.727609  13.384432   9.249612
    29  H   12.850735  11.669520  10.713502  14.104992  10.888615
    30  H   13.165826  11.972012  11.253620  14.187519  12.056091
    31  H    9.920682   8.957286   8.407193  10.842401   9.348683
    32  H    9.474103   8.524655   7.645054  10.710132   7.763001
    33  H    3.394180   3.879582   3.408912   4.846602   2.365240
    34  H    2.157013   3.402200   3.876983   2.853953   4.671478
    35  H    2.156817   1.086919   2.155012   2.852666   5.525220
    36  H    3.392867   2.146321   1.088536   4.844700   3.786137
                   26         27         28         29         30
    26  H    0.000000
    27  H    8.436398   0.000000
    28  H    8.759395   1.766372   0.000000
    29  H   10.250615   3.472294   2.366507   0.000000
    30  H   11.389897   5.317716   4.672182   2.463126   0.000000
    31  H    9.109601   4.908869   5.525617   4.966287   4.302688
    32  H    7.616394   2.805515   3.786153   4.321128   4.965364
    33  H    3.472250  10.536028  11.295836  12.751941  13.630433
    34  H    5.318205  12.229208  12.982117  14.143603  14.657877
    35  H    4.909997  10.657314  10.989539  11.587452  11.702589
    36  H    2.807022   8.648111   8.919482   9.822063  10.365556
                   31         32         33         34         35
    31  H    0.000000
    32  H    2.463136   0.000000
    33  H   10.462373   9.265262   0.000000
    34  H   11.224686  10.519864   2.463652   0.000000
    35  H    8.807274   8.630310   4.966471   4.302792   0.000000
    36  H    7.791419   7.028900   4.321025   4.965323   2.462890
                   36
    36  H    0.000000
 Stoichiometry    C16H12Cl2N2O4
 Framework group  C1[X(C16H12Cl2N2O4)]
 Deg. of freedom   102
 Full point group                 C1      NOp   1
 Largest Abelian subgroup         C1      NOp   1
 Largest concise Abelian subgroup C1      NOp   1
                         Standard orientation:                         
 ---------------------------------------------------------------------
 Center     Atomic      Atomic             Coordinates (Angstroms)
 Number     Number       Type             X           Y           Z
 ---------------------------------------------------------------------
      1          6           0        4.492562   -0.798824   -0.016827
      2          6           0        3.636881   -2.046360   -0.041559
      3          8           0        2.312658   -1.759375    0.428003
      4          6           0        1.288434   -1.991659   -0.438299
      5          8           0        1.433938   -2.423365   -1.577075
      6          7           0        0.095461   -1.688844    0.182420
      7          7           0       -0.855430   -2.390232   -0.235865
      8          6           0       -2.037467   -2.114859    0.416346
      9          8           0       -2.163361   -1.720425    1.570332
     10          8           0       -3.080315   -2.373048   -0.419704
     11          6           0       -4.398525   -2.163062    0.104956
     12          6           0       -4.762570   -0.695625    0.055689
     13          6           0       -5.870509   -0.238727   -0.674974
     14          6           0       -6.189880    1.121594   -0.708417
     15          6           0       -5.415010    2.033209    0.003885
     16          6           0       -4.334010    1.594136    0.763797
     17          6           0       -4.012715    0.234098    0.794102
     18         17           0       -5.793777    3.710352   -0.056072
     19          6           0        5.665830   -0.729137    0.750532
     20          6           0        6.442960    0.432782    0.759502
     21          6           0        6.062794    1.527191   -0.013148
     22          6           0        4.921720    1.463283   -0.808532
     23          6           0        4.143117    0.302603   -0.814773
     24         17           0        7.006172    2.965656    0.015806
     25          1           0        4.076643   -2.784621    0.638491
     26          1           0        3.641985   -2.482687   -1.046559
     27          1           0       -4.509324   -2.540245    1.127299
     28          1           0       -5.098864   -2.718992   -0.528165
     29          1           0       -6.490002   -0.938884   -1.232655
     30          1           0       -7.040466    1.461175   -1.293458
     31          1           0       -3.735842    2.303053    1.330246
     32          1           0       -3.165171   -0.092208    1.394279
     33          1           0        5.980156   -1.577665    1.355609
     34          1           0        7.339254    0.477120    1.372747
     35          1           0        4.630438    2.312131   -1.421725
     36          1           0        3.255217    0.269066   -1.443597
 ---------------------------------------------------------------------
 Rotational constants (GHZ):           0.2840244           0.0618877           0.0525523
 Standard basis: 6-31G(d) (6D, 7F)
 There are   392 symmetry adapted cartesian basis functions of A   symmetry.
 There are   392 symmetry adapted basis functions of A   symmetry.
   392 basis functions,   768 primitive gaussians,   392 cartesian basis functions
    94 alpha electrons       94 beta electrons
       nuclear repulsion energy      2024.2005700579 Hartrees.
 NAtoms=   36 NActive=   36 NUniq=   36 SFac= 1.00D+00 NAtFMM=   60 NAOKFM=F Big=F
 Integral buffers will be    131072 words long.
 Raffenetti 2 integral format.
 Two-electron integral symmetry is turned on.
 One-electron integrals computed using PRISM.
 NBasis=   392 RedAO= T EigKep=  4.45D-04  NBF=   392
 NBsUse=   392 1.00D-06 EigRej= -1.00D+00 NBFU=   392
 ExpMin= 1.43D-01 ExpMax= 2.52D+04 ExpMxC= 3.78D+03 IAcc=3 IRadAn=         5 AccDes= 0.00D+00
 Harris functional with IExCor=  402 and IRadAn=       5 diagonalized for initial guess.
 HarFok:  IExCor=  402 AccDes= 0.00D+00 IRadAn=         5 IDoV= 1 UseB2=F ITyADJ=14
 ICtDFT=  3500011 ScaDFX=  1.000000  1.000000  1.000000  1.000000
 FoFCou: FMM=F IPFlag=           0 FMFlag=      100000 FMFlg1=           0
         NFxFlg=           0 DoJE=T BraDBF=F KetDBF=T FulRan=T
         wScrn=  0.000000 ICntrl=       500 IOpCl=  0 I1Cent=   200000004 NGrid=           0
         NMat0=    1 NMatS0=      1 NMatT0=    0 NMatD0=    1 NMtDS0=    0 NMtDT0=    0
 Petite list used in FoFCou.
 Gradient too large for Newton-Raphson -- use scaled steepest descent instead.
 Gradient too large for Newton-Raphson -- use scaled steepest descent instead.
     Accept linear search using points  2 and  3.
 Gradient too large for Newton-Raphson -- use scaled steepest descent instead.
 Gradient too large for Newton-Raphson -- use scaled steepest descent instead.
     Minimum is close to point  2 DX=  1.43D-02 DF= -3.24D-06 DXR=  3.46D-02 DFR=  1.20D-03 which will be used.
 Gradient too large for Newton-Raphson -- use scaled steepest descent instead.
 Gradient too large for Newton-Raphson -- use scaled steepest descent instead.
     Accept linear search using points  1 and  2.
 Gradient too large for Newton-Raphson -- use scaled steepest descent instead.
     Minimum is close to point  3 DX=  7.77D-02 DF= -7.81D-07 DXR=  7.21D-02 DFR=  5.23D-03 which will be used.
 LinEq1:  Iter=  0 NonCon=     1 RMS=2.19D-05 Max=1.32D-03 NDo=     1
 AX will form     1 AO Fock derivatives at one time.
 LinEq1:  Iter=  1 NonCon=     1 RMS=2.74D-05 Max=1.46D-03 NDo=     1
 LinEq1:  Iter=  2 NonCon=     1 RMS=5.96D-06 Max=6.23D-04 NDo=     1
 LinEq1:  Iter=  3 NonCon=     1 RMS=5.01D-06 Max=2.81D-04 NDo=     1
 LinEq1:  Iter=  4 NonCon=     1 RMS=4.25D-06 Max=2.88D-04 NDo=     1
 LinEq1:  Iter=  5 NonCon=     1 RMS=3.48D-06 Max=1.73D-04 NDo=     1
 LinEq1:  Iter=  6 NonCon=     1 RMS=1.83D-06 Max=6.42D-05 NDo=     1
 LinEq1:  Iter=  7 NonCon=     1 RMS=1.11D-06 Max=4.91D-05 NDo=     1
 LinEq1:  Iter=  8 NonCon=     1 RMS=7.95D-07 Max=4.90D-05 NDo=     1
 LinEq1:  Iter=  9 NonCon=     1 RMS=4.70D-07 Max=1.71D-05 NDo=     1
 LinEq1:  Iter= 10 NonCon=     1 RMS=2.79D-07 Max=1.03D-05 NDo=     1
 LinEq1:  Iter= 11 NonCon=     1 RMS=1.51D-07 Max=7.02D-06 NDo=     1
 LinEq1:  Iter= 12 NonCon=     1 RMS=1.39D-07 Max=6.90D-06 NDo=     1
 LinEq1:  Iter= 13 NonCon=     1 RMS=7.42D-08 Max=3.33D-06 NDo=     1
 LinEq1:  Iter= 14 NonCon=     1 RMS=4.42D-08 Max=2.27D-06 NDo=     1
 LinEq1:  Iter= 15 NonCon=     1 RMS=1.95D-08 Max=7.14D-07 NDo=     1
 LinEq1:  Iter= 16 NonCon=     1 RMS=1.40D-08 Max=6.31D-07 NDo=     1
 LinEq1:  Iter= 17 NonCon=     1 RMS=7.24D-09 Max=3.19D-07 NDo=     1
 LinEq1:  Iter= 18 NonCon=     0 RMS=4.54D-09 Max=1.88D-07 NDo=     1
 Linear equations converged to 2.367D-08 2.367D-07 after    18 iterations.
 Restarting incremental Fock formation.
     Minimum is close to point  2 DX=  3.68D-04 DF= -1.14D-12 DXR=  3.68D-04 DFR=  1.58D-07 which will be used.
 LinEq1:  Iter=  0 NonCon=     1 RMS=2.22D-08 Max=1.45D-06 NDo=     1
 LinEq1:  Iter=  1 NonCon=     1 RMS=1.97D-08 Max=1.01D-06 NDo=     1
 LinEq1:  Iter=  2 NonCon=     1 RMS=1.49D-08 Max=1.08D-06 NDo=     1
 LinEq1:  Iter=  3 NonCon=     1 RMS=8.94D-09 Max=7.26D-07 NDo=     1
 LinEq1:  Iter=  4 NonCon=     1 RMS=6.85D-09 Max=5.99D-07 NDo=     1
 LinEq1:  Iter=  5 NonCon=     1 RMS=4.59D-09 Max=2.61D-07 NDo=     1
 LinEq1:  Iter=  6 NonCon=     1 RMS=3.48D-09 Max=1.73D-07 NDo=     1
 LinEq1:  Iter=  7 NonCon=     1 RMS=3.07D-09 Max=1.57D-07 NDo=     1
 LinEq1:  Iter=  8 NonCon=     1 RMS=2.32D-09 Max=9.42D-08 NDo=     1
 LinEq1:  Iter=  9 NonCon=     1 RMS=1.54D-09 Max=6.64D-08 NDo=     1
 LinEq1:  Iter= 10 NonCon=     1 RMS=7.31D-10 Max=3.28D-08 NDo=     1
 LinEq1:  Iter= 11 NonCon=     1 RMS=5.05D-10 Max=1.78D-08 NDo=     1
 LinEq1:  Iter= 12 NonCon=     1 RMS=3.36D-10 Max=2.20D-08 NDo=     1
 LinEq1:  Iter= 13 NonCon=     1 RMS=2.60D-10 Max=1.06D-08 NDo=     1
 LinEq1:  Iter= 14 NonCon=     1 RMS=1.13D-10 Max=5.35D-09 NDo=     1
 LinEq1:  Iter= 15 NonCon=     1 RMS=7.14D-11 Max=3.53D-09 NDo=     1
 LinEq1:  Iter= 16 NonCon=     1 RMS=4.65D-11 Max=2.18D-09 NDo=     1
 LinEq1:  Iter= 17 NonCon=     1 RMS=2.87D-11 Max=1.05D-09 NDo=     1
 LinEq1:  Iter= 18 NonCon=     1 RMS=1.39D-11 Max=5.97D-10 NDo=     1
 LinEq1:  Iter= 19 NonCon=     0 RMS=6.97D-12 Max=2.39D-10 NDo=     1
 Linear equations converged to 2.422D-11 2.422D-10 after    19 iterations.
 SCF Done:  E(RB3LYP) =  -1947.64728269     a.u. after   10 cycles
            Convg  =    0.2171D-09                    60 Fock formations.
              S**2 =  0.0000                  -V/T =  2.0063
 DoSCS=F DFT=T ScalE2(SS,OS)=  1.000000  1.000000
 Range of M.O.s used for correlation:     1   392
 NBasis=   392 NAE=    94 NBE=    94 NFC=     0 NFV=     0
 NROrb=    392 NOA=    94 NOB=    94 NVA=   298 NVB=   298

 **** Warning!!: The smallest alpha delta epsilon is  0.98752952D-01

 Symmetrizing basis deriv contribution to polar:
 IMax=3 JMax=2 DiffMx= 0.00D+00
 G2DrvN: will do    37 centers at a time, making    1 passes.
 Calling FoFCou, ICntrl=  3107 FMM=F I1Cent=   0 AccDes= 0.00D+00.
 End of G2Drv F.D. properties file   721 does not exist.
 End of G2Drv F.D. properties file   722 does not exist.
 End of G2Drv F.D. properties file   788 does not exist.
          IDoAtm=111111111111111111111111111111111111
          Differentiating once with respect to electric field.
                with respect to dipole field.
          Differentiating once with respect to nuclear coordinates.
 CalDSu exits because no D1Ps are significant.
          There are   111 degrees of freedom in the 1st order CPHF.  IDoFFX=6 NUNeed=     3.
    108 vectors produced by pass  0 Test12= 2.80D-14 1.00D-09 XBig12= 2.60D+02 7.43D+00.
 AX will form   108 AO Fock derivatives at one time.
    108 vectors produced by pass  1 Test12= 2.80D-14 1.00D-09 XBig12= 5.16D+01 1.44D+00.
    108 vectors produced by pass  2 Test12= 2.80D-14 1.00D-09 XBig12= 1.29D+00 2.82D-01.
    108 vectors produced by pass  3 Test12= 2.80D-14 1.00D-09 XBig12= 1.85D-02 1.54D-02.
    108 vectors produced by pass  4 Test12= 2.80D-14 1.00D-09 XBig12= 3.70D-05 4.89D-04.
    103 vectors produced by pass  5 Test12= 2.80D-14 1.00D-09 XBig12= 4.86D-08 2.60D-05.
     31 vectors produced by pass  6 Test12= 2.80D-14 1.00D-09 XBig12= 5.21D-11 6.37D-07.
      3 vectors produced by pass  7 Test12= 2.80D-14 1.00D-09 XBig12= 5.27D-14 1.86D-08.
 InvSVY:  IOpt=1 It=  1 EMax= 6.24D-15
 Solved reduced A of dimension   677 with   111 vectors.
 Isotropic polarizability for W=    0.000000      216.46 Bohr**3.
 End of Minotr F.D. properties file   721 does not exist.
 End of Minotr F.D. properties file   722 does not exist.
 End of Minotr F.D. properties file   788 does not exist.

 **********************************************************************

            Population analysis using the SCF density.

 **********************************************************************

 Orbital symmetries:
       Occupied  (A) (A) (A) (A) (A) (A) (A) (A) (A) (A) (A) (A)
                 (A) (A) (A) (A) (A) (A) (A) (A) (A) (A) (A) (A)
                 (A) (A) (A) (A) (A) (A) (A) (A) (A) (A) (A) (A)
                 (A) (A) (A) (A) (A) (A) (A) (A) (A) (A) (A) (A)
                 (A) (A) (A) (A) (A) (A) (A) (A) (A) (A) (A) (A)
                 (A) (A) (A) (A) (A) (A) (A) (A) (A) (A) (A) (A)
                 (A) (A) (A) (A) (A) (A) (A) (A) (A) (A) (A) (A)
                 (A) (A) (A) (A) (A) (A) (A) (A) (A) (A)
       Virtual   (A) (A) (A) (A) (A) (A) (A) (A) (A) (A) (A) (A)
                 (A) (A) (A) (A) (A) (A) (A) (A) (A) (A) (A) (A)
                 (A) (A) (A) (A) (A) (A) (A) (A) (A) (A) (A) (A)
                 (A) (A) (A) (A) (A) (A) (A) (A) (A) (A) (A) (A)
                 (A) (A) (A) (A) (A) (A) (A) (A) (A) (A) (A) (A)
                 (A) (A) (A) (A) (A) (A) (A) (A) (A) (A) (A) (A)
                 (A) (A) (A) (A) (A) (A) (A) (A) (A) (A) (A) (A)
                 (A) (A) (A) (A) (A) (A) (A) (A) (A) (A) (A) (A)
                 (A) (A) (A) (A) (A) (A) (A) (A) (A) (A) (A) (A)
                 (A) (A) (A) (A) (A) (A) (A) (A) (A) (A) (A) (A)
                 (A) (A) (A) (A) (A) (A) (A) (A) (A) (A) (A) (A)
                 (A) (A) (A) (A) (A) (A) (A) (A) (A) (A) (A) (A)
                 (A) (A) (A) (A) (A) (A) (A) (A) (A) (A) (A) (A)
                 (A) (A) (A) (A) (A) (A) (A) (A) (A) (A) (A) (A)
                 (A) (A) (A) (A) (A) (A) (A) (A) (A) (A) (A) (A)
                 (A) (A) (A) (A) (A) (A) (A) (A) (A) (A) (A) (A)
                 (A) (A) (A) (A) (A) (A) (A) (A) (A) (A) (A) (A)
                 (A) (A) (A) (A) (A) (A) (A) (A) (A) (A) (A) (A)
                 (A) (A) (A) (A) (A) (A) (A) (A) (A) (A) (A) (A)
                 (A) (A) (A) (A) (A) (A) (A) (A) (A) (A) (A) (A)
                 (A) (A) (A) (A) (A) (A) (A) (A) (A) (A) (A) (A)
                 (A) (A) (A) (A) (A) (A) (A) (A) (A) (A) (A) (A)
                 (A) (A) (A) (A) (A) (A) (A) (A) (A) (A) (A) (A)
                 (A) (A) (A) (A) (A) (A) (A) (A) (A) (A) (A) (A)
                 (A) (A) (A) (A) (A) (A) (A) (A) (A) (A)
 The electronic state is 1-A.
 Alpha  occ. eigenvalues -- -101.55599-101.55157 -19.22449 -19.22447 -19.17284
 Alpha  occ. eigenvalues --  -19.16903 -14.44263 -14.44213 -10.36917 -10.36641
 Alpha  occ. eigenvalues --  -10.26761 -10.26580 -10.26013 -10.25457 -10.21851
 Alpha  occ. eigenvalues --  -10.21455 -10.21277 -10.21265 -10.21224 -10.21210
 Alpha  occ. eigenvalues --  -10.20985 -10.20754 -10.20460 -10.19778  -9.47291
 Alpha  occ. eigenvalues --   -9.46852  -7.23679  -7.23236  -7.22718  -7.22677
 Alpha  occ. eigenvalues --   -7.22281  -7.22240  -1.15378  -1.13401  -1.08372
 Alpha  occ. eigenvalues --   -1.04543  -1.03454  -0.90452  -0.89930  -0.86246
 Alpha  occ. eigenvalues --   -0.85190  -0.84145  -0.78506  -0.76804  -0.76703
 Alpha  occ. eigenvalues --   -0.76043  -0.72050  -0.69641  -0.64289  -0.63274
 Alpha  occ. eigenvalues --   -0.62702  -0.60435  -0.59310  -0.57704  -0.55567
 Alpha  occ. eigenvalues --   -0.53608  -0.52828  -0.52227  -0.51408  -0.50148
 Alpha  occ. eigenvalues --   -0.49550  -0.49078  -0.48063  -0.47874  -0.46990
 Alpha  occ. eigenvalues --   -0.46321  -0.44673  -0.44466  -0.44383  -0.43908
 Alpha  occ. eigenvalues --   -0.43360  -0.41806  -0.40687  -0.40306  -0.39629
 Alpha  occ. eigenvalues --   -0.39030  -0.38728  -0.38205  -0.37192  -0.36771
 Alpha  occ. eigenvalues --   -0.35868  -0.34003  -0.33364  -0.33179  -0.32286
 Alpha  occ. eigenvalues --   -0.32080  -0.31920  -0.31398  -0.30297  -0.27875
 Alpha  occ. eigenvalues --   -0.27090  -0.26448  -0.25104  -0.24706
 Alpha virt. eigenvalues --   -0.14831  -0.02736  -0.02387  -0.02176  -0.01642
 Alpha virt. eigenvalues --   -0.00284   0.03222   0.03315   0.03971   0.09818
 Alpha virt. eigenvalues --    0.10169   0.10619   0.11262   0.11614   0.12398
 Alpha virt. eigenvalues --    0.12759   0.12924   0.13756   0.15258   0.15636
 Alpha virt. eigenvalues --    0.16137   0.16861   0.17563   0.18881   0.21060
 Alpha virt. eigenvalues --    0.21362   0.22030   0.22937   0.23788   0.26777
 Alpha virt. eigenvalues --    0.27226   0.27394   0.27841   0.28596   0.28983
 Alpha virt. eigenvalues --    0.29645   0.31841   0.32168   0.32602   0.33010
 Alpha virt. eigenvalues --    0.38865   0.39562   0.39614   0.40202   0.41436
 Alpha virt. eigenvalues --    0.41977   0.42217   0.42477   0.43710   0.44087
 Alpha virt. eigenvalues --    0.45150   0.46916   0.47807   0.48399   0.49326
 Alpha virt. eigenvalues --    0.50118   0.51421   0.52554   0.52729   0.53383
 Alpha virt. eigenvalues --    0.54062   0.54242   0.54646   0.55105   0.56834
 Alpha virt. eigenvalues --    0.57229   0.57431   0.57681   0.58118   0.58250
 Alpha virt. eigenvalues --    0.58893   0.59197   0.59600   0.59739   0.60341
 Alpha virt. eigenvalues --    0.60964   0.61705   0.61944   0.62298   0.63567
 Alpha virt. eigenvalues --    0.63819   0.65138   0.66183   0.67636   0.67764
 Alpha virt. eigenvalues --    0.68816   0.70629   0.71582   0.72570   0.73565
 Alpha virt. eigenvalues --    0.73895   0.74171   0.75105   0.75471   0.76971
 Alpha virt. eigenvalues --    0.77786   0.79554   0.79963   0.80340   0.81934
 Alpha virt. eigenvalues --    0.82418   0.83087   0.83514   0.84557   0.85296
 Alpha virt. eigenvalues --    0.85426   0.85784   0.86451   0.86665   0.86967
 Alpha virt. eigenvalues --    0.87500   0.88716   0.89472   0.89925   0.90737
 Alpha virt. eigenvalues --    0.91410   0.91636   0.92259   0.92623   0.93133
 Alpha virt. eigenvalues --    0.93607   0.95314   0.96253   0.96963   0.97369
 Alpha virt. eigenvalues --    0.99983   1.01251   1.02519   1.02677   1.03338
 Alpha virt. eigenvalues --    1.04403   1.06188   1.06634   1.10725   1.10974
 Alpha virt. eigenvalues --    1.12126   1.12826   1.13176   1.13373   1.14135
 Alpha virt. eigenvalues --    1.14654   1.16485   1.17818   1.19618   1.22392
 Alpha virt. eigenvalues --    1.22983   1.24377   1.24854   1.27770   1.28628
 Alpha virt. eigenvalues --    1.29828   1.33019   1.34062   1.35469   1.36416
 Alpha virt. eigenvalues --    1.37210   1.40263   1.40606   1.42038   1.42163
 Alpha virt. eigenvalues --    1.42686   1.43288   1.44803   1.45433   1.45917
 Alpha virt. eigenvalues --    1.46034   1.47750   1.49076   1.49712   1.51479
 Alpha virt. eigenvalues --    1.53099   1.54750   1.54920   1.55682   1.57588
 Alpha virt. eigenvalues --    1.61764   1.63687   1.65750   1.68003   1.68892
 Alpha virt. eigenvalues --    1.71095   1.72774   1.74488   1.76435   1.77350
 Alpha virt. eigenvalues --    1.77697   1.78312   1.78601   1.80418   1.81444
 Alpha virt. eigenvalues --    1.82517   1.83358   1.84546   1.86206   1.87240
 Alpha virt. eigenvalues --    1.88708   1.89354   1.92155   1.93642   1.93790
 Alpha virt. eigenvalues --    1.95319   1.96533   1.96942   1.98482   1.99513
 Alpha virt. eigenvalues --    2.00517   2.01982   2.02997   2.04468   2.05603
 Alpha virt. eigenvalues --    2.06039   2.06946   2.09206   2.10276   2.11489
 Alpha virt. eigenvalues --    2.11854   2.12313   2.12672   2.12944   2.13532
 Alpha virt. eigenvalues --    2.14980   2.20257   2.22045   2.22670   2.23510
 Alpha virt. eigenvalues --    2.26899   2.28058   2.28477   2.28655   2.29446
 Alpha virt. eigenvalues --    2.31267   2.32061   2.33608   2.34306   2.40338
 Alpha virt. eigenvalues --    2.41156   2.43297   2.44291   2.48807   2.52245
 Alpha virt. eigenvalues --    2.54557   2.56314   2.58328   2.59237   2.61019
 Alpha virt. eigenvalues --    2.62389   2.62613   2.63186   2.66595   2.67136
 Alpha virt. eigenvalues --    2.68527   2.69634   2.71453   2.73091   2.74320
 Alpha virt. eigenvalues --    2.74407   2.75036   2.75732   2.76507   2.77225
 Alpha virt. eigenvalues --    2.79528   2.81758   2.86750   2.87791   2.93018
 Alpha virt. eigenvalues --    2.94727   3.03809   3.05536   3.06402   3.08381
 Alpha virt. eigenvalues --    3.18775   3.23942   3.35744   3.36515   3.78013
 Alpha virt. eigenvalues --    3.89867   3.98389   4.01543   4.04578   4.05346
 Alpha virt. eigenvalues --    4.08720   4.09784   4.10144   4.12693   4.19779
 Alpha virt. eigenvalues --    4.23939   4.26216   4.27375   4.28788   4.30051
 Alpha virt. eigenvalues --    4.31287   4.33272   4.37414   4.38955   4.43435
 Alpha virt. eigenvalues --    4.43690   4.67958   4.68993
          Condensed to atoms (all electrons):
               1          2          3          4          5          6
     1  C    4.693338   0.347783  -0.044127  -0.003366  -0.000786  -0.000139
     2  C    0.347783   5.037408   0.184305  -0.016661  -0.008505   0.003432
     3  O   -0.044127   0.184305   8.228255   0.288552  -0.076202  -0.087883
     4  C   -0.003366  -0.016661   0.288552   4.233551   0.530919   0.247822
     5  O   -0.000786  -0.008505  -0.076202   0.530919   8.042942  -0.074902
     6  N   -0.000139   0.003432  -0.087883   0.247822  -0.074902   6.925207
     7  N   -0.000004  -0.000142   0.001972  -0.053222   0.000289   0.240498
     8  C   -0.000000   0.000002  -0.000178   0.005840   0.000270  -0.053532
     9  O   -0.000000   0.000000   0.000006   0.000149  -0.000005   0.000071
    10  O   -0.000000  -0.000000   0.000000  -0.000165   0.000005   0.002245
    11  C    0.000000   0.000000  -0.000000   0.000004   0.000000  -0.000057
    12  C    0.000000  -0.000000   0.000000  -0.000000  -0.000000   0.000023
    13  C   -0.000000   0.000000   0.000000   0.000000  -0.000000  -0.000000
    14  C    0.000000  -0.000000   0.000000  -0.000000   0.000000  -0.000000
    15  C    0.000000  -0.000000   0.000000  -0.000000  -0.000000   0.000000
    16  C   -0.000000  -0.000000  -0.000000   0.000000   0.000000  -0.000001
    17  C    0.000000  -0.000000   0.000000  -0.000003   0.000000  -0.000004
    18  Cl  -0.000000   0.000000  -0.000000   0.000000   0.000000  -0.000000
    19  C    0.545574  -0.045717   0.000041  -0.000038  -0.000023   0.000002
    20  C   -0.022153   0.006241  -0.000050   0.000001   0.000000  -0.000000
    21  C   -0.031121   0.000431  -0.000005  -0.000000   0.000000   0.000000
    22  C   -0.020449   0.005593   0.000177   0.000030   0.000007  -0.000000
    23  C    0.527113  -0.058943   0.003712   0.001744  -0.000123  -0.000144
    24  Cl   0.000624   0.000007  -0.000000  -0.000000   0.000000  -0.000000
    25  H   -0.041704   0.363527  -0.031821   0.002351   0.000716  -0.000147
    26  H   -0.027177   0.347119  -0.030002  -0.007601   0.020679   0.000549
    27  H   -0.000000  -0.000000  -0.000000  -0.000000   0.000000  -0.000004
    28  H   -0.000000  -0.000000   0.000000  -0.000000   0.000000  -0.000001
    29  H   -0.000000   0.000000  -0.000000   0.000000   0.000000  -0.000000
    30  H   -0.000000   0.000000  -0.000000   0.000000  -0.000000  -0.000000
    31  H   -0.000000   0.000000  -0.000000   0.000000   0.000000  -0.000000
    32  H   -0.000000   0.000000  -0.000000   0.000005   0.000000   0.000249
    33  H   -0.041059  -0.009345   0.000084  -0.000001  -0.000000   0.000000
    34  H    0.003625  -0.000148   0.000000   0.000000  -0.000000   0.000000
    35  H    0.003507  -0.000169   0.000003  -0.000000  -0.000000   0.000000
    36  H   -0.042913  -0.007157  -0.000277   0.002360   0.001464   0.000004
               7          8          9         10         11         12
     1  C   -0.000004  -0.000000  -0.000000  -0.000000   0.000000   0.000000
     2  C   -0.000142   0.000002   0.000000  -0.000000   0.000000  -0.000000
     3  O    0.001972  -0.000178   0.000006   0.000000  -0.000000   0.000000
     4  C   -0.053222   0.005840   0.000149  -0.000165   0.000004  -0.000000
     5  O    0.000289   0.000270  -0.000005   0.000005   0.000000  -0.000000
     6  N    0.240498  -0.053532   0.000071   0.002245  -0.000057   0.000023
     7  N    6.911840   0.257879  -0.070471  -0.089156   0.004305  -0.000516
     8  C    0.257879   4.252747   0.472967   0.301513  -0.015542  -0.006045
     9  O   -0.070471   0.472967   8.105627  -0.077906   0.009931  -0.010152
    10  O   -0.089156   0.301513  -0.077906   8.212435   0.185010  -0.039237
    11  C    0.004305  -0.015542   0.009931   0.185010   5.014734   0.332693
    12  C   -0.000516  -0.006045  -0.010152  -0.039237   0.332693   4.732646
    13  C   -0.000001   0.000097  -0.000145   0.000532  -0.049893   0.547033
    14  C   -0.000000  -0.000009   0.000002  -0.000045   0.006473  -0.023185
    15  C    0.000000  -0.000019  -0.000011   0.000004   0.000296  -0.031191
    16  C    0.000004  -0.000058   0.001114  -0.000049   0.006959  -0.027676
    17  C   -0.000323   0.008074  -0.017302  -0.003157  -0.056438   0.548255
    18  Cl   0.000000   0.000000   0.000000  -0.000000   0.000008   0.000586
    19  C    0.000000   0.000000  -0.000000   0.000000   0.000000  -0.000000
    20  C    0.000000  -0.000000   0.000000   0.000000  -0.000000   0.000000
    21  C   -0.000000  -0.000000   0.000000  -0.000000  -0.000000   0.000000
    22  C    0.000000  -0.000000   0.000000   0.000000  -0.000000   0.000000
    23  C    0.000003  -0.000000   0.000000  -0.000000   0.000000  -0.000000
    24  Cl   0.000000  -0.000000  -0.000000  -0.000000   0.000000  -0.000000
    25  H    0.000016  -0.000000   0.000000   0.000000  -0.000000   0.000000
    26  H    0.000004   0.000000   0.000000  -0.000000   0.000000   0.000000
    27  H    0.000043  -0.005489   0.009540  -0.030814   0.353229  -0.031858
    28  H   -0.000060   0.003628   0.000376  -0.028613   0.369512  -0.042856
    29  H    0.000000   0.000004  -0.000001   0.000041  -0.009452  -0.041748
    30  H    0.000000   0.000000  -0.000000   0.000001  -0.000149   0.003762
    31  H    0.000000   0.000026   0.000002   0.000000  -0.000164   0.003619
    32  H    0.000013  -0.002523   0.017575  -0.000414  -0.008565  -0.033447
    33  H    0.000000   0.000000  -0.000000   0.000000   0.000000  -0.000000
    34  H    0.000000   0.000000  -0.000000   0.000000   0.000000  -0.000000
    35  H    0.000000   0.000000  -0.000000   0.000000   0.000000  -0.000000
    36  H   -0.000001  -0.000000   0.000000   0.000000  -0.000000   0.000000
              13         14         15         16         17         18
     1  C   -0.000000   0.000000   0.000000  -0.000000   0.000000  -0.000000
     2  C    0.000000  -0.000000  -0.000000  -0.000000  -0.000000   0.000000
     3  O    0.000000   0.000000   0.000000  -0.000000   0.000000  -0.000000
     4  C    0.000000  -0.000000  -0.000000   0.000000  -0.000003   0.000000
     5  O   -0.000000   0.000000  -0.000000   0.000000   0.000000   0.000000
     6  N   -0.000000  -0.000000   0.000000  -0.000001  -0.000004  -0.000000
     7  N   -0.000001  -0.000000   0.000000   0.000004  -0.000323   0.000000
     8  C    0.000097  -0.000009  -0.000019  -0.000058   0.008074   0.000000
     9  O   -0.000145   0.000002  -0.000011   0.001114  -0.017302   0.000000
    10  O    0.000532  -0.000045   0.000004  -0.000049  -0.003157  -0.000000
    11  C   -0.049893   0.006473   0.000296   0.006959  -0.056438   0.000008
    12  C    0.547033  -0.023185  -0.031191  -0.027676   0.548255   0.000586
    13  C    4.952937   0.507894  -0.030181  -0.045433  -0.038573   0.004639
    14  C    0.507894   4.935266   0.534350  -0.033652  -0.043357  -0.072013
    15  C   -0.030181   0.534350   4.933303   0.522758  -0.027364   0.237505
    16  C   -0.045433  -0.033652   0.522758   4.967571   0.490786  -0.071332
    17  C   -0.038573  -0.043357  -0.027364   0.490786   4.999438   0.004504
    18  Cl   0.004639  -0.072013   0.237505  -0.071332   0.004504  16.906063
    19  C   -0.000000   0.000000   0.000000   0.000000   0.000000  -0.000000
    20  C    0.000000  -0.000000  -0.000000  -0.000000  -0.000000   0.000000
    21  C    0.000000  -0.000000  -0.000000  -0.000000  -0.000000   0.000000
    22  C    0.000000  -0.000000  -0.000000  -0.000000  -0.000000   0.000000
    23  C   -0.000000   0.000000   0.000000   0.000000   0.000000  -0.000000
    24  Cl  -0.000000   0.000000   0.000000   0.000000   0.000000  -0.000000
    25  H    0.000000  -0.000000  -0.000000   0.000000  -0.000000   0.000000
    26  H   -0.000000   0.000000   0.000000  -0.000000   0.000000  -0.000000
    27  H    0.001809  -0.000230   0.000016  -0.000028  -0.004522  -0.000000
    28  H   -0.003704   0.000132  -0.000005  -0.000124   0.004935  -0.000000
    29  H    0.354938  -0.042296   0.004620   0.000421   0.005579  -0.000170
    30  H   -0.035414   0.359626  -0.043252   0.004389   0.000599  -0.000445
    31  H    0.000759   0.004271  -0.044711   0.360786  -0.034682  -0.000356
    32  H    0.005008   0.000411   0.004155  -0.037920   0.346090  -0.000147
    33  H   -0.000000   0.000000  -0.000000   0.000000   0.000000  -0.000000
    34  H    0.000000   0.000000  -0.000000   0.000000  -0.000000   0.000000
    35  H   -0.000000   0.000000  -0.000000   0.000000  -0.000000   0.000000
    36  H    0.000000  -0.000000  -0.000000   0.000000  -0.000000   0.000000
              19         20         21         22         23         24
     1  C    0.545574  -0.022153  -0.031121  -0.020449   0.527113   0.000624
     2  C   -0.045717   0.006241   0.000431   0.005593  -0.058943   0.000007
     3  O    0.000041  -0.000050  -0.000005   0.000177   0.003712  -0.000000
     4  C   -0.000038   0.000001  -0.000000   0.000030   0.001744  -0.000000
     5  O   -0.000023   0.000000   0.000000   0.000007  -0.000123   0.000000
     6  N    0.000002  -0.000000   0.000000  -0.000000  -0.000144  -0.000000
     7  N    0.000000   0.000000  -0.000000   0.000000   0.000003   0.000000
     8  C    0.000000  -0.000000  -0.000000  -0.000000  -0.000000  -0.000000
     9  O   -0.000000   0.000000   0.000000   0.000000   0.000000  -0.000000
    10  O    0.000000   0.000000  -0.000000   0.000000  -0.000000  -0.000000
    11  C    0.000000  -0.000000  -0.000000  -0.000000   0.000000   0.000000
    12  C   -0.000000   0.000000   0.000000   0.000000  -0.000000  -0.000000
    13  C   -0.000000   0.000000   0.000000   0.000000  -0.000000  -0.000000
    14  C    0.000000  -0.000000  -0.000000  -0.000000   0.000000   0.000000
    15  C    0.000000  -0.000000  -0.000000  -0.000000   0.000000   0.000000
    16  C    0.000000  -0.000000  -0.000000  -0.000000   0.000000   0.000000
    17  C    0.000000  -0.000000  -0.000000  -0.000000   0.000000   0.000000
    18  Cl  -0.000000   0.000000   0.000000   0.000000  -0.000000  -0.000000
    19  C    4.960966   0.505441  -0.031330  -0.041295  -0.044599   0.004580
    20  C    0.505441   4.934134   0.533981  -0.035186  -0.042184  -0.071851
    21  C   -0.031330   0.533981   4.928850   0.528244  -0.030282   0.240298
    22  C   -0.041295  -0.035186   0.528244   4.930150   0.511572  -0.071388
    23  C   -0.044599  -0.042184  -0.030282   0.511572   4.962354   0.004590
    24  Cl   0.004580  -0.071851   0.240298  -0.071388   0.004590  16.897506
    25  H   -0.005169   0.000149  -0.000010  -0.000133   0.005921  -0.000000
    26  H    0.001840  -0.000237   0.000019  -0.000007  -0.005283  -0.000000
    27  H    0.000000  -0.000000   0.000000  -0.000000  -0.000000  -0.000000
    28  H    0.000000   0.000000  -0.000000   0.000000   0.000000  -0.000000
    29  H   -0.000000   0.000000   0.000000   0.000000  -0.000000   0.000000
    30  H   -0.000000   0.000000   0.000000   0.000000  -0.000000   0.000000
    31  H   -0.000000   0.000000   0.000000   0.000000  -0.000000  -0.000000
    32  H   -0.000000   0.000000   0.000000  -0.000000   0.000000  -0.000000
    33  H    0.355454  -0.042254   0.004528   0.000426   0.005584  -0.000168
    34  H   -0.034862   0.359884  -0.043028   0.004402   0.000643  -0.000449
    35  H    0.000756   0.004318  -0.043174   0.360010  -0.034756  -0.000413
    36  H    0.004919   0.000479   0.004505  -0.039559   0.358007  -0.000168
              25         26         27         28         29         30
     1  C   -0.041704  -0.027177  -0.000000  -0.000000  -0.000000  -0.000000
     2  C    0.363527   0.347119  -0.000000  -0.000000   0.000000   0.000000
     3  O   -0.031821  -0.030002  -0.000000   0.000000  -0.000000  -0.000000
     4  C    0.002351  -0.007601  -0.000000  -0.000000   0.000000   0.000000
     5  O    0.000716   0.020679   0.000000   0.000000   0.000000  -0.000000
     6  N   -0.000147   0.000549  -0.000004  -0.000001  -0.000000  -0.000000
     7  N    0.000016   0.000004   0.000043  -0.000060   0.000000   0.000000
     8  C   -0.000000   0.000000  -0.005489   0.003628   0.000004   0.000000
     9  O    0.000000   0.000000   0.009540   0.000376  -0.000001  -0.000000
    10  O    0.000000  -0.000000  -0.030814  -0.028613   0.000041   0.000001
    11  C   -0.000000   0.000000   0.353229   0.369512  -0.009452  -0.000149
    12  C    0.000000   0.000000  -0.031858  -0.042856  -0.041748   0.003762
    13  C    0.000000  -0.000000   0.001809  -0.003704   0.354938  -0.035414
    14  C   -0.000000   0.000000  -0.000230   0.000132  -0.042296   0.359626
    15  C   -0.000000   0.000000   0.000016  -0.000005   0.004620  -0.043252
    16  C    0.000000  -0.000000  -0.000028  -0.000124   0.000421   0.004389
    17  C   -0.000000   0.000000  -0.004522   0.004935   0.005579   0.000599
    18  Cl   0.000000  -0.000000  -0.000000  -0.000000  -0.000170  -0.000445
    19  C   -0.005169   0.001840   0.000000   0.000000  -0.000000  -0.000000
    20  C    0.000149  -0.000237  -0.000000   0.000000   0.000000   0.000000
    21  C   -0.000010   0.000019   0.000000  -0.000000   0.000000   0.000000
    22  C   -0.000133  -0.000007  -0.000000   0.000000   0.000000   0.000000
    23  C    0.005921  -0.005283  -0.000000   0.000000  -0.000000  -0.000000
    24  Cl  -0.000000  -0.000000  -0.000000  -0.000000   0.000000   0.000000
    25  H    0.567247  -0.033542   0.000000   0.000000   0.000000  -0.000000
    26  H   -0.033542   0.527676  -0.000000  -0.000000  -0.000000   0.000000
    27  H    0.000000  -0.000000   0.554581  -0.034889   0.000083   0.000003
    28  H    0.000000  -0.000000  -0.034889   0.554139   0.007141  -0.000007
    29  H    0.000000  -0.000000   0.000083   0.007141   0.589676  -0.005751
    30  H   -0.000000   0.000000   0.000003  -0.000007  -0.005751   0.562686
    31  H    0.000000  -0.000000  -0.000000   0.000003   0.000016  -0.000173
    32  H    0.000000  -0.000000   0.000573  -0.000055  -0.000159   0.000012
    33  H    0.007327   0.000113   0.000000  -0.000000  -0.000000   0.000000
    34  H   -0.000005   0.000003   0.000000   0.000000   0.000000   0.000000
    35  H    0.000003  -0.000000   0.000000   0.000000   0.000000   0.000000
    36  H    0.000071   0.001623  -0.000000   0.000000   0.000000   0.000000
              31         32         33         34         35         36
     1  C   -0.000000  -0.000000  -0.041059   0.003625   0.003507  -0.042913
     2  C    0.000000   0.000000  -0.009345  -0.000148  -0.000169  -0.007157
     3  O   -0.000000  -0.000000   0.000084   0.000000   0.000003  -0.000277
     4  C    0.000000   0.000005  -0.000001   0.000000  -0.000000   0.002360
     5  O    0.000000   0.000000  -0.000000  -0.000000  -0.000000   0.001464
     6  N   -0.000000   0.000249   0.000000   0.000000   0.000000   0.000004
     7  N    0.000000   0.000013   0.000000   0.000000   0.000000  -0.000001
     8  C    0.000026  -0.002523   0.000000   0.000000   0.000000  -0.000000
     9  O    0.000002   0.017575  -0.000000  -0.000000  -0.000000   0.000000
    10  O    0.000000  -0.000414   0.000000   0.000000   0.000000   0.000000
    11  C   -0.000164  -0.008565   0.000000   0.000000   0.000000  -0.000000
    12  C    0.003619  -0.033447  -0.000000  -0.000000  -0.000000   0.000000
    13  C    0.000759   0.005008  -0.000000   0.000000  -0.000000   0.000000
    14  C    0.004271   0.000411   0.000000   0.000000   0.000000  -0.000000
    15  C   -0.044711   0.004155  -0.000000  -0.000000  -0.000000  -0.000000
    16  C    0.360786  -0.037920   0.000000   0.000000   0.000000   0.000000
    17  C   -0.034682   0.346090   0.000000  -0.000000  -0.000000  -0.000000
    18  Cl  -0.000356  -0.000147  -0.000000   0.000000   0.000000   0.000000
    19  C   -0.000000  -0.000000   0.355454  -0.034862   0.000756   0.004919
    20  C    0.000000   0.000000  -0.042254   0.359884   0.004318   0.000479
    21  C    0.000000   0.000000   0.004528  -0.043028  -0.043174   0.004505
    22  C    0.000000  -0.000000   0.000426   0.004402   0.360010  -0.039559
    23  C   -0.000000   0.000000   0.005584   0.000643  -0.034756   0.358007
    24  Cl  -0.000000  -0.000000  -0.000168  -0.000449  -0.000413  -0.000168
    25  H    0.000000   0.000000   0.007327  -0.000005   0.000003   0.000071
    26  H   -0.000000  -0.000000   0.000113   0.000003  -0.000000   0.001623
    27  H   -0.000000   0.000573   0.000000   0.000000   0.000000  -0.000000
    28  H    0.000003  -0.000055  -0.000000   0.000000   0.000000   0.000000
    29  H    0.000016  -0.000159  -0.000000   0.000000   0.000000   0.000000
    30  H   -0.000173   0.000012   0.000000   0.000000   0.000000   0.000000
    31  H    0.558399  -0.005212   0.000000   0.000000   0.000000   0.000000
    32  H   -0.005212   0.508776   0.000000   0.000000   0.000000   0.000000
    33  H    0.000000   0.000000   0.584129  -0.005612   0.000015  -0.000170
    34  H    0.000000   0.000000  -0.005612   0.558416  -0.000171   0.000014
    35  H    0.000000   0.000000   0.000015  -0.000171   0.556642  -0.005485
    36  H    0.000000   0.000000  -0.000170   0.000014  -0.005485   0.571183
 Mulliken charges:
               1
     1  C    0.153434
     2  C   -0.149060
     3  O   -0.436563
     4  C    0.767729
     5  O   -0.436743
     6  N   -0.203288
     7  N   -0.202971
     8  C    0.780347
     9  O   -0.441366
    10  O   -0.432229
    11  C   -0.142895
    12  C    0.119295
    13  C   -0.172301
    14  C   -0.133640
    15  C   -0.060272
    16  C   -0.138514
    17  C   -0.182533
    18  Cl  -0.008840
    19  C   -0.176541
    20  C   -0.130713
    21  C   -0.061907
    22  C   -0.132594
    23  C   -0.164925
    24  Cl  -0.003167
    25  H    0.165202
    26  H    0.204225
    27  H    0.187959
    28  H    0.170448
    29  H    0.137060
    30  H    0.154114
    31  H    0.157419
    32  H    0.205575
    33  H    0.140949
    34  H    0.157286
    35  H    0.158916
    36  H    0.151102
 Sum of Mulliken charges =  -0.00000
 Mulliken charges with hydrogens summed into heavy atoms:
               1
     1  C    0.153434
     2  C    0.220367
     3  O   -0.436563
     4  C    0.767729
     5  O   -0.436743
     6  N   -0.203288
     7  N   -0.202971
     8  C    0.780347
     9  O   -0.441366
    10  O   -0.432229
    11  C    0.215512
    12  C    0.119295
    13  C   -0.035241
    14  C    0.020474
    15  C   -0.060272
    16  C    0.018905
    17  C    0.023043
    18  Cl  -0.008840
    19  C   -0.035593
    20  C    0.026574
    21  C   -0.061907
    22  C    0.026322
    23  C   -0.013823
    24  Cl  -0.003167
 APT charges:
               1
     1  C   -0.063050
     2  C    0.658194
     3  O   -0.992255
     4  C    1.362806
     5  O   -0.697246
     6  N   -0.204035
     7  N   -0.262259
     8  C    1.309506
     9  O   -0.695251
    10  O   -0.943148
    11  C    0.681827
    12  C   -0.080907
    13  C    0.021620
    14  C   -0.121298
    15  C    0.446243
    16  C   -0.122722
    17  C   -0.055250
    18  Cl  -0.358569
    19  C    0.014030
    20  C   -0.118176
    21  C    0.451350
    22  C   -0.118752
    23  C   -0.014167
    24  Cl  -0.364162
    25  H   -0.036921
    26  H    0.000274
    27  H   -0.051405
    28  H   -0.024400
    29  H    0.019452
    30  H    0.042365
    31  H    0.045233
    32  H    0.123087
    33  H    0.025936
    34  H    0.043856
    35  H    0.045501
    36  H    0.032693
 Sum of APT charges =  -0.00000
 APT charges with hydrogens summed into heavy atoms:
               1
     1  C   -0.063050
     2  C    0.621547
     3  O   -0.992255
     4  C    1.362806
     5  O   -0.697246
     6  N   -0.204035
     7  N   -0.262259
     8  C    1.309506
     9  O   -0.695251
    10  O   -0.943148
    11  C    0.606022
    12  C   -0.080907
    13  C    0.041072
    14  C   -0.078934
    15  C    0.446243
    16  C   -0.077489
    17  C    0.067837
    18  Cl  -0.358569
    19  C    0.039966
    20  C   -0.074320
    21  C    0.451350
    22  C   -0.073250
    23  C    0.018526
    24  Cl  -0.364162
 Electronic spatial extent (au):  <R**2>=          18274.2262
 Charge=             -0.0000 electrons
 Dipole moment (field-independent basis, Debye):
    X=             -0.0012    Y=             -2.4949    Z=              0.1873  Tot=              2.5019
 Quadrupole moment (field-independent basis, Debye-Ang):
   XX=           -132.6437   YY=           -150.7137   ZZ=           -154.2772
   XY=              1.6424   XZ=              8.1702   YZ=             -5.8474
 Traceless Quadrupole moment (field-independent basis, Debye-Ang):
   XX=             13.2345   YY=             -4.8355   ZZ=             -8.3990
   XY=              1.6424   XZ=              8.1702   YZ=             -5.8474
 Octapole moment (field-independent basis, Debye-Ang**2):
  XXX=            -69.0818  YYY=            -39.9957  ZZZ=              0.5191  XYY=              6.9827
  XXY=           -157.5837  XXZ=             -1.2324  XZZ=              4.7116  YZZ=             12.5890
  YYZ=             17.9928  XYZ=            -15.7433
 Hexadecapole moment (field-independent basis, Debye-Ang**3):
 XXXX=         -19390.1049 YYYY=          -3835.1475 ZZZZ=           -570.8766 XXXY=             11.4130
 XXXZ=            578.6246 YYYX=             72.8693 YYYZ=            -60.4694 ZZZX=             17.8091
 ZZZY=             -6.1561 XXYY=          -4013.7223 XXZZ=          -3364.4592 YYZZ=           -759.0980
 XXYZ=            -63.4649 YYXZ=             -7.1925 ZZXY=              4.8231
 N-N= 2.024200570058D+03 E-N=-8.627896418988D+03  KE= 1.935543694058D+03
  Exact polarizability: 277.174  16.139 237.104  39.896  -2.467 135.102
 Approx polarizability: 349.160  29.094 367.091  81.686   3.148 251.020
 Calling FoFJK, ICntrl=    100127 FMM=F ISym2X=0 I1Cent= 0 IOpClX= 0 NMat=1 NMatS=1 NMatT=0.
 ***** Axes restored to original set *****
 -------------------------------------------------------------------
 Center     Atomic                   Forces (Hartrees/Bohr)
 Number     Number              X              Y              Z
 -------------------------------------------------------------------
      1        6           0.001176155   -0.000704831   -0.003857276
      2        6           0.013465779   -0.016328494    0.006669039
      3        8          -0.015114320    0.011381729   -0.010771026
      4        6           0.007109950   -0.077227187    0.002324303
      5        8           0.011260300    0.024143247    0.005348127
      6        7          -0.009958782    0.041293641   -0.003684294
      7        7           0.012060581   -0.040486852    0.003729308
      8        6          -0.018404349    0.069144604    0.000257529
      9        8          -0.011084056   -0.028343664    0.001592213
     10        8           0.011779916   -0.017315877    0.014655249
     11        6          -0.003278581    0.020218842   -0.010807727
     12        6           0.000684088    0.006511350    0.000480536
     13        6           0.004745567   -0.002412287    0.001447575
     14        6          -0.006852069   -0.000604182   -0.000490714
     15        6          -0.007843231   -0.008288007    0.009275315
     16        6           0.000334109   -0.004023015    0.004606396
     17        6           0.006584939    0.006679390   -0.006930154
     18       17           0.008254089    0.010199182   -0.011458511
     19        6          -0.001557571    0.003667814   -0.004283435
     20        6          -0.001478634   -0.002494223    0.005942247
     21        6          -0.013078332   -0.000183600    0.006584606
     22        6          -0.007941516    0.002283800   -0.003788552
     23        6           0.005610697    0.000467193    0.001735364
     24       17           0.015481244   -0.000441383   -0.005999504
     25        1          -0.003142175    0.003785722    0.000271387
     26        1          -0.004162827    0.007877130   -0.001191845
     27        1           0.004146337   -0.007378676    0.003135860
     28        1           0.002626292   -0.008115554    0.001796612
     29        1           0.000988320   -0.000911842    0.000259420
     30        1           0.001502324    0.000182856    0.000528012
     31        1          -0.001126967    0.000485717   -0.000863497
     32        1          -0.003271044    0.006240530   -0.006848783
     33        1          -0.000620639    0.001296148   -0.000874597
     34        1          -0.000199806    0.000331980   -0.001649983
     35        1           0.000912920   -0.000578083    0.001282555
     36        1           0.000391290   -0.000353118    0.001578247
 -------------------------------------------------------------------
 Cartesian Forces:  Max     0.077227187 RMS     0.013768300
 FormGI is forming the generalized inverse of G from B-inverse, IUseBI=4.

 GradGradGradGradGradGradGradGradGradGradGradGradGradGradGradGradGradGrad
 Berny optimization.
 Internal  Forces:  Max     0.043582454 RMS     0.009605987
 Search for a local minimum.
 Step number   1 out of a maximum of  180
 All quantities printed in internal units (Hartrees-Bohrs-Radians)
 Mixed Optimization -- RFO/linear search
 Second derivative matrix not updated -- analytic derivatives used.
 ITU=  0
     Eigenvalues ---   -0.01079  -0.00484  -0.00307   0.00005   0.00060
     Eigenvalues ---    0.00680   0.01438   0.01460   0.01543   0.01717
     Eigenvalues ---    0.01728   0.01774   0.01785   0.02029   0.02114
     Eigenvalues ---    0.02232   0.02239   0.02481   0.02519   0.02657
     Eigenvalues ---    0.02669   0.02703   0.02758   0.02787   0.03062
     Eigenvalues ---    0.03096   0.06068   0.06438   0.06987   0.07361
     Eigenvalues ---    0.08315   0.09973   0.10332   0.10622   0.11378
     Eigenvalues ---    0.11408   0.11611   0.11668   0.11703   0.11951
     Eigenvalues ---    0.12007   0.12747   0.12896   0.13328   0.13773
     Eigenvalues ---    0.17325   0.17427   0.17579   0.17652   0.18674
     Eigenvalues ---    0.19070   0.19228   0.19380   0.20464   0.20534
     Eigenvalues ---    0.21268   0.21706   0.22427   0.24076   0.24835
     Eigenvalues ---    0.25400   0.26209   0.28795   0.28877   0.29048
     Eigenvalues ---    0.29256   0.29386   0.29990   0.30854   0.31264
     Eigenvalues ---    0.32557   0.33320   0.33706   0.33918   0.34874
     Eigenvalues ---    0.35600   0.35616   0.35681   0.35835   0.36115
     Eigenvalues ---    0.36127   0.36308   0.36319   0.36583   0.40289
[...]
   143    O   10  py     Ryd( 3p)     0.00180
   144    O   10  pz     Val( 2p)     1.67481
   145    O   10  pz     Ryd( 3p)     0.00148
   146    O   10  dxy    Ryd( 3d)     0.00031
   147    O   10  dxz    Ryd( 3d)     0.00155
   148    O   10  dyz    Ryd( 3d)     0.00199
   149    O   10  dx2y2  Ryd( 3d)     0.00061
   150    O   10  dz2    Ryd( 3d)     0.00145
 
   151    C   11  S      Cor( 1S)     1.99912
   152    C   11  S      Val( 2S)     1.03204
   153    C   11  S      Ryd( 3S)     0.00121
   154    C   11  S      Ryd( 4S)     0.00005
   155    C   11  px     Val( 2p)     0.71352
   156    C   11  px     Ryd( 3p)     0.00285
   157    C   11  py     Val( 2p)     1.10222
   158    C   11  py     Ryd( 3p)     0.00144
   159    C   11  pz     Val( 2p)     1.25789
   160    C   11  pz     Ryd( 3p)     0.00767
   161    C   11  dxy    Ryd( 3d)     0.00130
   162    C   11  dxz    Ryd( 3d)     0.00107
   163    C   11  dyz    Ryd( 3d)     0.00093
   164    C   11  dx2y2  Ryd( 3d)     0.00171
   165    C   11  dz2    Ryd( 3d)     0.00111
 
   166    C   12  S      Cor( 1S)     1.99901
   167    C   12  S      Val( 2S)     0.88855
   168    C   12  S      Ryd( 3S)     0.00068
   169    C   12  S      Ryd( 4S)     0.00006
   170    C   12  px     Val( 2p)     1.03327
   171    C   12  px     Ryd( 3p)     0.00191
   172    C   12  py     Val( 2p)     1.06513
   173    C   12  py     Ryd( 3p)     0.00442
   174    C   12  pz     Val( 2p)     1.09349
   175    C   12  pz     Ryd( 3p)     0.00446
   176    C   12  dxy    Ryd( 3d)     0.00037
   177    C   12  dxz    Ryd( 3d)     0.00055
   178    C   12  dyz    Ryd( 3d)     0.00077
   179    C   12  dx2y2  Ryd( 3d)     0.00052
   180    C   12  dz2    Ryd( 3d)     0.00059
 
   181    C   13  S      Cor( 1S)     1.99903
   182    C   13  S      Val( 2S)     0.95327
   183    C   13  S      Ryd( 3S)     0.00058
   184    C   13  S      Ryd( 4S)     0.00005
   185    C   13  px     Val( 2p)     0.98303
   186    C   13  px     Ryd( 3p)     0.00071
   187    C   13  py     Val( 2p)     1.07070
   188    C   13  py     Ryd( 3p)     0.00387
   189    C   13  pz     Val( 2p)     1.18016
   190    C   13  pz     Ryd( 3p)     0.00507
   191    C   13  dxy    Ryd( 3d)     0.00053
   192    C   13  dxz    Ryd( 3d)     0.00036
   193    C   13  dyz    Ryd( 3d)     0.00072
   194    C   13  dx2y2  Ryd( 3d)     0.00044
   195    C   13  dz2    Ryd( 3d)     0.00077
 
   196    C   14  S      Cor( 1S)     1.99893
   197    C   14  S      Val( 2S)     0.95904
   198    C   14  S      Ryd( 3S)     0.00097
   199    C   14  S      Ryd( 4S)     0.00005
   200    C   14  px     Val( 2p)     1.00745
   201    C   14  px     Ryd( 3p)     0.00102
   202    C   14  py     Val( 2p)     1.11228
   203    C   14  py     Ryd( 3p)     0.00538
   204    C   14  pz     Val( 2p)     1.15089
   205    C   14  pz     Ryd( 3p)     0.00478
   206    C   14  dxy    Ryd( 3d)     0.00045
   207    C   14  dxz    Ryd( 3d)     0.00044
   208    C   14  dyz    Ryd( 3d)     0.00077
   209    C   14  dx2y2  Ryd( 3d)     0.00045
   210    C   14  dz2    Ryd( 3d)     0.00060
 
   211    C   15  S      Cor( 1S)     1.99856
   212    C   15  S      Val( 2S)     0.93307
   213    C   15  S      Ryd( 3S)     0.00060
   214    C   15  S      Ryd( 4S)     0.00009
   215    C   15  px     Val( 2p)     1.04746
   216    C   15  px     Ryd( 3p)     0.00130
   217    C   15  py     Val( 2p)     0.93266
   218    C   15  py     Ryd( 3p)     0.00693
   219    C   15  pz     Val( 2p)     1.10232
   220    C   15  pz     Ryd( 3p)     0.00768
   221    C   15  dxy    Ryd( 3d)     0.00114
   222    C   15  dxz    Ryd( 3d)     0.00069
   223    C   15  dyz    Ryd( 3d)     0.00103
   224    C   15  dx2y2  Ryd( 3d)     0.00132
   225    C   15  dz2    Ryd( 3d)     0.00097
 
   226    C   16  S      Cor( 1S)     1.99894
   227    C   16  S      Val( 2S)     0.95982
   228    C   16  S      Ryd( 3S)     0.00097
   229    C   16  S      Ryd( 4S)     0.00005
   230    C   16  px     Val( 2p)     1.00206
   231    C   16  px     Ryd( 3p)     0.00099
   232    C   16  py     Val( 2p)     1.07865
   233    C   16  py     Ryd( 3p)     0.00520
   234    C   16  pz     Val( 2p)     1.18774
   235    C   16  pz     Ryd( 3p)     0.00500
   236    C   16  dxy    Ryd( 3d)     0.00045
   237    C   16  dxz    Ryd( 3d)     0.00042
   238    C   16  dyz    Ryd( 3d)     0.00077
   239    C   16  dx2y2  Ryd( 3d)     0.00040
   240    C   16  dz2    Ryd( 3d)     0.00066
 
   241    C   17  S      Cor( 1S)     1.99903
   242    C   17  S      Val( 2S)     0.95647
   243    C   17  S      Ryd( 3S)     0.00059
   244    C   17  S      Ryd( 4S)     0.00004
   245    C   17  px     Val( 2p)     0.97502
   246    C   17  px     Ryd( 3p)     0.00081
   247    C   17  py     Val( 2p)     1.10279
   248    C   17  py     Ryd( 3p)     0.00425
   249    C   17  pz     Val( 2p)     1.15225
   250    C   17  pz     Ryd( 3p)     0.00479
   251    C   17  dxy    Ryd( 3d)     0.00050
   252    C   17  dxz    Ryd( 3d)     0.00043
   253    C   17  dyz    Ryd( 3d)     0.00083
   254    C   17  dx2y2  Ryd( 3d)     0.00046
   255    C   17  dz2    Ryd( 3d)     0.00062
 
   256   Cl   18  S      Cor( 1S)     2.00000
   257   Cl   18  S      Cor( 2S)     1.99979
   258   Cl   18  S      Val( 3S)     1.83537
   259   Cl   18  S      Ryd( 4S)     0.00331
   260   Cl   18  S      Ryd( 5S)     0.00000
   261   Cl   18  px     Cor( 2p)     1.99999
   262   Cl   18  px     Val( 3p)     1.88719
   263   Cl   18  px     Ryd( 4p)     0.00176
   264   Cl   18  py     Cor( 2p)     1.99991
   265   Cl   18  py     Val( 3p)     1.29777
   266   Cl   18  py     Ryd( 4p)     0.00378
   267   Cl   18  pz     Cor( 2p)     1.99999
   268   Cl   18  pz     Val( 3p)     1.95856
   269   Cl   18  pz     Ryd( 4p)     0.00157
   270   Cl   18  dxy    Ryd( 3d)     0.00264
   271   Cl   18  dxz    Ryd( 3d)     0.00014
   272   Cl   18  dyz    Ryd( 3d)     0.00130
   273   Cl   18  dx2y2  Ryd( 3d)     0.00346
   274   Cl   18  dz2    Ryd( 3d)     0.00132
 
   275    C   19  S      Cor( 1S)     1.99903
   276    C   19  S      Val( 2S)     0.95353
   277    C   19  S      Ryd( 3S)     0.00058
   278    C   19  S      Ryd( 4S)     0.00005
   279    C   19  px     Val( 2p)     0.99615
   280    C   19  px     Ryd( 3p)     0.00125
   281    C   19  py     Val( 2p)     1.05800
   282    C   19  py     Ryd( 3p)     0.00335
   283    C   19  pz     Val( 2p)     1.17867
   284    C   19  pz     Ryd( 3p)     0.00506
   285    C   19  dxy    Ryd( 3d)     0.00046
   286    C   19  dxz    Ryd( 3d)     0.00041
   287    C   19  dyz    Ryd( 3d)     0.00068
   288    C   19  dx2y2  Ryd( 3d)     0.00050
   289    C   19  dz2    Ryd( 3d)     0.00076
 
   290    C   20  S      Cor( 1S)     1.99893
   291    C   20  S      Val( 2S)     0.95932
   292    C   20  S      Ryd( 3S)     0.00098
   293    C   20  S      Ryd( 4S)     0.00005
   294    C   20  px     Val( 2p)     1.02422
   295    C   20  px     Ryd( 3p)     0.00172
   296    C   20  py     Val( 2p)     1.09217
   297    C   20  py     Ryd( 3p)     0.00467
   298    C   20  pz     Val( 2p)     1.15347
   299    C   20  pz     Ryd( 3p)     0.00480
   300    C   20  dxy    Ryd( 3d)     0.00045
   301    C   20  dxz    Ryd( 3d)     0.00049
   302    C   20  dyz    Ryd( 3d)     0.00071
   303    C   20  dx2y2  Ryd( 3d)     0.00044
   304    C   20  dz2    Ryd( 3d)     0.00060
 
   305    C   21  S      Cor( 1S)     1.99856
   306    C   21  S      Val( 2S)     0.93335
   307    C   21  S      Ryd( 3S)     0.00060
   308    C   21  S      Ryd( 4S)     0.00009
   309    C   21  px     Val( 2p)     1.02781
   310    C   21  px     Ryd( 3p)     0.00220
   311    C   21  py     Val( 2p)     0.95020
   312    C   21  py     Ryd( 3p)     0.00603
   313    C   21  pz     Val( 2p)     1.10299
   314    C   21  pz     Ryd( 3p)     0.00770
   315    C   21  dxy    Ryd( 3d)     0.00128
   316    C   21  dxz    Ryd( 3d)     0.00074
   317    C   21  dyz    Ryd( 3d)     0.00097
   318    C   21  dx2y2  Ryd( 3d)     0.00119
   319    C   21  dz2    Ryd( 3d)     0.00098
 
   320    C   22  S      Cor( 1S)     1.99894
   321    C   22  S      Val( 2S)     0.95995
   322    C   22  S      Ryd( 3S)     0.00098
   323    C   22  S      Ryd( 4S)     0.00005
   324    C   22  px     Val( 2p)     1.01388
   325    C   22  px     Ryd( 3p)     0.00166
   326    C   22  py     Val( 2p)     1.06824
   327    C   22  py     Ryd( 3p)     0.00456
   328    C   22  pz     Val( 2p)     1.18617
   329    C   22  pz     Ryd( 3p)     0.00500
   330    C   22  dxy    Ryd( 3d)     0.00041
   331    C   22  dxz    Ryd( 3d)     0.00048
   332    C   22  dyz    Ryd( 3d)     0.00072
   333    C   22  dx2y2  Ryd( 3d)     0.00044
   334    C   22  dz2    Ryd( 3d)     0.00066
 
   335    C   23  S      Cor( 1S)     1.99903
   336    C   23  S      Val( 2S)     0.95664
   337    C   23  S      Ryd( 3S)     0.00059
   338    C   23  S      Ryd( 4S)     0.00004
   339    C   23  px     Val( 2p)     0.99551
   340    C   23  px     Ryd( 3p)     0.00145
   341    C   23  py     Val( 2p)     1.07968
   342    C   23  py     Ryd( 3p)     0.00363
   343    C   23  pz     Val( 2p)     1.15438
   344    C   23  pz     Ryd( 3p)     0.00481
   345    C   23  dxy    Ryd( 3d)     0.00047
   346    C   23  dxz    Ryd( 3d)     0.00050
   347    C   23  dyz    Ryd( 3d)     0.00076
   348    C   23  dx2y2  Ryd( 3d)     0.00048
   349    C   23  dz2    Ryd( 3d)     0.00063
 
   350   Cl   24  S      Cor( 1S)     2.00000
   351   Cl   24  S      Cor( 2S)     1.99979
   352   Cl   24  S      Val( 3S)     1.83545
   353   Cl   24  S      Ryd( 4S)     0.00331
   354   Cl   24  S      Ryd( 5S)     0.00000
   355   Cl   24  px     Cor( 2p)     1.99997
   356   Cl   24  px     Val( 3p)     1.79183
   357   Cl   24  px     Ryd( 4p)     0.00208
   358   Cl   24  py     Cor( 2p)     1.99992
   359   Cl   24  py     Val( 3p)     1.38808
   360   Cl   24  py     Ryd( 4p)     0.00347
   361   Cl   24  pz     Cor( 2p)     1.99999
   362   Cl   24  pz     Val( 3p)     1.96154
   363   Cl   24  pz     Ryd( 4p)     0.00156
   364   Cl   24  dxy    Ryd( 3d)     0.00327
   365   Cl   24  dxz    Ryd( 3d)     0.00031
   366   Cl   24  dyz    Ryd( 3d)     0.00108
   367   Cl   24  dx2y2  Ryd( 3d)     0.00287
   368   Cl   24  dz2    Ryd( 3d)     0.00134
 
   369    H   25  S      Val( 1S)     0.75484
   370    H   25  S      Ryd( 2S)     0.00115
 
   371    H   26  S      Val( 1S)     0.75362
   372    H   26  S      Ryd( 2S)     0.00211
 
   373    H   27  S      Val( 1S)     0.75425
   374    H   27  S      Ryd( 2S)     0.00218
 
   375    H   28  S      Val( 1S)     0.75541
   376    H   28  S      Ryd( 2S)     0.00111
 
   377    H   29  S      Val( 1S)     0.75526
   378    H   29  S      Ryd( 2S)     0.00101
 
   379    H   30  S      Val( 1S)     0.74262
   380    H   30  S      Ryd( 2S)     0.00102
 
   381    H   31  S      Val( 1S)     0.74192
   382    H   31  S      Ryd( 2S)     0.00100
 
   383    H   32  S      Val( 1S)     0.74013
   384    H   32  S      Ryd( 2S)     0.00132
 
   385    H   33  S      Val( 1S)     0.75454
   386    H   33  S      Ryd( 2S)     0.00100
 
   387    H   34  S      Val( 1S)     0.74203
   388    H   34  S      Ryd( 2S)     0.00101
 
   389    H   35  S      Val( 1S)     0.74130
   390    H   35  S      Ryd( 2S)     0.00100
 
   391    H   36  S      Val( 1S)     0.74040
   392    H   36  S      Ryd( 2S)     0.00138

 WARNING:  1 low occupancy (<1.9990e) core orbital  found on  C   14
           1 low occupancy (<1.9990e) core orbital  found on  C   15
           1 low occupancy (<1.9990e) core orbital  found on  C   16
           1 low occupancy (<1.9990e) core orbital  found on  C   20
           1 low occupancy (<1.9990e) core orbital  found on  C   21
           1 low occupancy (<1.9990e) core orbital  found on  C   22


 Summary of Natural Population Analysis:                  
                                                          
                                       Natural Population 
                Natural  -----------------------------------------------
    Atom  No    Charge         Core      Valence    Rydberg      Total
 -----------------------------------------------------------------------
      C    1   -0.09429      1.99901     4.08090    0.01438     6.09429
      C    2   -0.12606      1.99912     4.10776    0.01918     6.12606
      O    3   -0.51981      1.99973     6.50773    0.01234     8.51981
      C    4    0.92349      1.99950     3.02643    0.05058     5.07651
      O    5   -0.55041      1.99977     6.52998    0.02067     8.55041
      N    6   -0.21259      1.99938     5.18706    0.02615     7.21259
      N    7   -0.21622      1.99938     5.19039    0.02644     7.21622
      C    8    0.91802      1.99950     3.03215    0.05033     5.08198
      O    9   -0.55918      1.99977     6.53870    0.02071     8.55918
      O   10   -0.52315      1.99973     6.51116    0.01226     8.52315
      C   11   -0.12412      1.99912     4.10567    0.01933     6.12412
      C   12   -0.09379      1.99901     4.08044    0.01434     6.09379
      C   13   -0.19928      1.99903     4.18716    0.01310     6.19928
      C   14   -0.24350      1.99893     4.22966    0.01491     6.24350
      C   15   -0.03581      1.99856     4.01551    0.02175     6.03581
      C   16   -0.24211      1.99894     4.22826    0.01492     6.24211
      C   17   -0.19888      1.99903     4.18653    0.01332     6.19888
     Cl   18    0.00215      9.99967     6.97889    0.01929    16.99785
      C   19   -0.19849      1.99903     4.18635    0.01311     6.19849
      C   20   -0.24305      1.99893     4.22919    0.01492     6.24305
      C   21   -0.03470      1.99856     4.01436    0.02179     6.03470
      C   22   -0.24212      1.99894     4.22824    0.01495     6.24212
      C   23   -0.19860      1.99903     4.18622    0.01335     6.19860
     Cl   24    0.00413      9.99967     6.97690    0.01930    16.99587
      H   25    0.24401      0.00000     0.75484    0.00115     0.75599
      H   26    0.24427      0.00000     0.75362    0.00211     0.75573
      H   27    0.24357      0.00000     0.75425    0.00218     0.75643
      H   28    0.24348      0.00000     0.75541    0.00111     0.75652
      H   29    0.24374      0.00000     0.75526    0.00101     0.75626
      H   30    0.25636      0.00000     0.74262    0.00102     0.74364
      H   31    0.25707      0.00000     0.74192    0.00100     0.74293
      H   32    0.25855      0.00000     0.74013    0.00132     0.74145
      H   33    0.24446      0.00000     0.75454    0.00100     0.75554
      H   34    0.25696      0.00000     0.74203    0.00101     0.74304
      H   35    0.25770      0.00000     0.74130    0.00100     0.74230
      H   36    0.25822      0.00000     0.74040    0.00138     0.74178
 =======================================================================
   * Total *   -0.00000     63.98135   123.52195    0.49670   188.00000

                                 Natural Population      
 --------------------------------------------------------
   Core                      63.98135 ( 99.9709% of  64)
   Valence                  123.52195 ( 99.6145% of 124)
   Natural Minimal Basis    187.50330 ( 99.7358% of 188)
   Natural Rydberg Basis      0.49670 (  0.2642% of 188)
 --------------------------------------------------------

    Atom  No          Natural Electron Configuration
 ----------------------------------------------------------------------------
      C    1      [core]2S( 0.89)2p( 3.19)3p( 0.01)
      C    2      [core]2S( 1.03)2p( 3.08)3p( 0.01)3d( 0.01)
      O    3      [core]2S( 1.63)2p( 4.88)3d( 0.01)
      C    4      [core]2S( 0.73)2p( 2.29)3p( 0.03)3d( 0.01)
      O    5      [core]2S( 1.71)2p( 4.82)3d( 0.02)
      N    6      [core]2S( 1.39)2p( 3.80)3S( 0.01)3p( 0.01)3d( 0.01)
      N    7      [core]2S( 1.39)2p( 3.80)3S( 0.01)3p( 0.01)3d( 0.01)
      C    8      [core]2S( 0.73)2p( 2.30)3p( 0.03)3d( 0.01)
      O    9      [core]2S( 1.71)2p( 4.83)3d( 0.02)
      O   10      [core]2S( 1.63)2p( 4.88)3d( 0.01)
      C   11      [core]2S( 1.03)2p( 3.07)3p( 0.01)3d( 0.01)
      C   12      [core]2S( 0.89)2p( 3.19)3p( 0.01)
      C   13      [core]2S( 0.95)2p( 3.23)3p( 0.01)
      C   14      [core]2S( 0.96)2p( 3.27)3p( 0.01)
      C   15      [core]2S( 0.93)2p( 3.08)3p( 0.02)3d( 0.01)
      C   16      [core]2S( 0.96)2p( 3.27)3p( 0.01)
      C   17      [core]2S( 0.96)2p( 3.23)3p( 0.01)
     Cl   18      [core]3S( 1.84)3p( 5.14)3d( 0.01)4p( 0.01)
      C   19      [core]2S( 0.95)2p( 3.23)3p( 0.01)
      C   20      [core]2S( 0.96)2p( 3.27)3p( 0.01)
      C   21      [core]2S( 0.93)2p( 3.08)3p( 0.02)3d( 0.01)
      C   22      [core]2S( 0.96)2p( 3.27)3p( 0.01)
      C   23      [core]2S( 0.96)2p( 3.23)3p( 0.01)
     Cl   24      [core]3S( 1.84)3p( 5.14)3d( 0.01)4p( 0.01)
      H   25            1S( 0.75)
      H   26            1S( 0.75)
      H   27            1S( 0.75)
      H   28            1S( 0.76)
      H   29            1S( 0.76)
      H   30            1S( 0.74)
      H   31            1S( 0.74)
      H   32            1S( 0.74)
      H   33            1S( 0.75)
      H   34            1S( 0.74)
      H   35            1S( 0.74)
      H   36            1S( 0.74)


 NBO analysis skipped by request.
 1\1\GINC-DELLA-R2C4N6\SP\RB3LYP TD-FC\6-31G(d)\C16H12Cl2N2O4\BJS4\22-A
 ug-2020\0\\# TD(NStates=10, Root=1) B3LYP/6-31G* scf=qc volume pop=NPA
  density=current Geom=AllCheck Guess=Read\\Title Card Required\\0,1\C,
 0,-2.0320529964,0.1190582504,0.0855722379\C,0,-3.2731669759,0.15126481
 57,0.9361869226\O,0,-4.0745678279,1.3536373626,0.6809661166\C,0,-4.974
 8713736,1.2649601827,-0.2941307848\O,0,-5.2324034901,0.3157767252,-0.9
 921715074\N,0,-5.5844423364,2.5580560035,-0.5244631181\N,0,-6.52976110
 34,2.7956407723,0.2504071051\C,0,-7.1408350836,4.088437427,0.014590033
 1\O,0,-7.03694523,4.9784694175,0.8221174032\O,0,-7.8679265088,4.066992
 398,-1.0994437403\C,0,-8.6425742425,5.2780513209,-1.3894323306\C,0,-7.
 8501737675,6.2649220101,-2.2039224437\C,0,-7.8546299425,6.1916079343,-
 3.6021009206\C,0,-7.1208158558,7.0934240399,-4.3705389383\C,0,-6.37517
 21955,8.0793792371,-3.7249969966\C,0,-6.3522305733,8.17371738,-2.33370
 56934\C,0,-7.0908775028,7.2634090712,-1.5797095407\Cl,0,-5.4508727214,
 9.2263242333,-4.6831703585\C,0,-0.8568204387,0.7400640878,0.5259282037
 \C,0,0.2979753872,0.7265582789,-0.2541102937\C,0,0.2699097188,0.081129
 8676,-1.4901251868\C,0,-0.8876013429,-0.5440899577,-1.9530463662\C,0,-
 2.0343897244,-0.5208335813,-1.1610317827\Cl,0,1.7214710807,0.052028879
 7,-2.4799189349\H,0,-3.0322851178,0.2317931239,1.9971345674\H,0,-3.906
 3806254,-0.7209933262,0.7665555242\H,0,-8.9699285405,5.7049952049,-0.4
 396286606\H,0,-9.5037742374,4.90028223,-1.9425936272\H,0,-8.4385209525
 ,5.4215697837,-4.1002820662\H,0,-7.1274379131,7.0363897338,-5.45363139
 63\H,0,-5.7661423045,8.9478389851,-1.8502628554\H,0,-7.0696489083,7.32
 08586906,-0.4957077798\H,0,-0.8399712186,1.2404921311,1.4910250719\H,0
 ,1.2080942375,1.2057553488,0.0900853268\H,0,-0.8893803178,-1.041176288
 1,-2.9170906927\H,0,-2.9438890547,-0.9943417746,-1.5179924972\\Version
 =ES64L-G16RevA.03\State=1-A\HF=-1947.6738485\RMSD=4.061e-13\Dipole=-0.
 3730721,-0.322018,0.3631724\Quadrupole=3.4494713,-3.4170264,-0.0324449
 ,-4.461833,9.2630303,-2.6204192\PG=C01 [X(C16H12Cl2N2O4)]\\@


 NO SCIENCE HAS EVER MADE MORE RAPID PROGRESS IN A
 SHORTER TIME THAN CHEMISTRY.
   -- MARTIN HEINRICH KLOPROTH, 1791
 (FIRST PROFESSOR OF CHEMISTRY AT THE UNIVERSITY OF BERLIN)
 Job cpu time:       0 days  0 hours 54 minutes 56.9 seconds.
 Elapsed time:       0 days  0 hours 11 minutes  1.5 seconds.
 File lengths (MBytes):  RWF=   1224 Int=      0 D2E=      0 Chk=    268 Scr=      1
 Normal termination of Gaussian 16 at Sat Aug 22 18:54:33 2020.
