 Entering Gaussian System, Link 0=g16
 Input=azadicarboxylate_1_conf25123.com
 Output=azadicarboxylate_1_conf25123.log
 Initial command:
 /opt/export//g16/l1.exe "/scratch/bjs4/job.114208/Gau-114211.inp" -scrdir="/scratch/bjs4/job.114208/"
 Entering Link 1 = /opt/export//g16/l1.exe PID=    114213.
  
 Copyright (c) 1988,1990,1992,1993,1995,1998,2003,2009,2016,
            Gaussian, Inc.  All Rights Reserved.
  
 This is part of the Gaussian(R) 16 program.  It is based on
 the Gaussian(R) 09 system (copyright 2009, Gaussian, Inc.),
 the Gaussian(R) 03 system (copyright 2003, Gaussian, Inc.),
 the Gaussian(R) 98 system (copyright 1998, Gaussian, Inc.),
 the Gaussian(R) 94 system (copyright 1995, Gaussian, Inc.),
 the Gaussian 92(TM) system (copyright 1992, Gaussian, Inc.),
 the Gaussian 90(TM) system (copyright 1990, Gaussian, Inc.),
 the Gaussian 88(TM) system (copyright 1988, Gaussian, Inc.),
 the Gaussian 86(TM) system (copyright 1986, Carnegie Mellon
 University), and the Gaussian 82(TM) system (copyright 1983,
 Carnegie Mellon University). Gaussian is a federally registered
 trademark of Gaussian, Inc.
  
 This software contains proprietary and confidential information,
 including trade secrets, belonging to Gaussian, Inc.
  
 This software is provided under written license and may be
 used, copied, transmitted, or stored only in accord with that
 written license.
  
 The following legend is applicable only to US Government
 contracts under FAR:
  
                    RESTRICTED RIGHTS LEGEND
  
 Use, reproduction and disclosure by the US Government is
 subject to restrictions as set forth in subparagraphs (a)
 and (c) of the Commercial Computer Software - Restricted
 Rights clause in FAR 52.227-19.
  
 Gaussian, Inc.
 340 Quinnipiac St., Bldg. 40, Wallingford CT 06492
  
  
 ---------------------------------------------------------------
 Warning -- This program may not be used in any manner that
 competes with the business of Gaussian, Inc. or will provide
 assistance to any competitor of Gaussian, Inc.  The licensee
 of this program is prohibited from giving any competitor of
 Gaussian, Inc. access to this program.  By using this program,
 the user acknowledges that Gaussian, Inc. is engaged in the
 business of creating and licensing software in the field of
 computational chemistry and represents and warrants to the
 licensee that it is not a competitor of Gaussian, Inc. and that
 it will not use this program in any manner prohibited above.
 ---------------------------------------------------------------
  

 Cite this work as:
 Gaussian 16, Revision A.03,
 M. J. Frisch, G. W. Trucks, H. B. Schlegel, G. E. Scuseria, 
 M. A. Robb, J. R. Cheeseman, G. Scalmani, V. Barone, 
 G. A. Petersson, H. Nakatsuji, X. Li, M. Caricato, A. V. Marenich, 
 J. Bloino, B. G. Janesko, R. Gomperts, B. Mennucci, H. P. Hratchian, 
 J. V. Ortiz, A. F. Izmaylov, J. L. Sonnenberg, D. Williams-Young, 
 F. Ding, F. Lipparini, F. Egidi, J. Goings, B. Peng, A. Petrone, 
 T. Henderson, D. Ranasinghe, V. G. Zakrzewski, J. Gao, N. Rega, 
 G. Zheng, W. Liang, M. Hada, M. Ehara, K. Toyota, R. Fukuda, 
 J. Hasegawa, M. Ishida, T. Nakajima, Y. Honda, O. Kitao, H. Nakai, 
 T. Vreven, K. Throssell, J. A. Montgomery, Jr., J. E. Peralta, 
 F. Ogliaro, M. J. Bearpark, J. J. Heyd, E. N. Brothers, K. N. Kudin, 
 V. N. Staroverov, T. A. Keith, R. Kobayashi, J. Normand, 
 K. Raghavachari, A. P. Rendell, J. C. Burant, S. S. Iyengar, 
 J. Tomasi, M. Cossi, J. M. Millam, M. Klene, C. Adamo, R. Cammi, 
 J. W. Ochterski, R. L. Martin, K. Morokuma, O. Farkas, 
 J. B. Foresman, and D. J. Fox, Gaussian, Inc., Wallingford CT, 2016.
 
 ******************************************
 Gaussian 16:  ES64L-G16RevA.03 25-Dec-2016
                22-Aug-2020 
 ******************************************
 %nprocshared=5
 Will use up to    5 processors via shared memory.
 %Mem=10GB
 %Chk=azadicarboxylate_1_conf251.chk
 ---------------------------------
 # opt=CalcAll B3LYP/6-31G* scf=qc
 ---------------------------------
 1/10=4,18=20,19=15,26=3,38=1/1,3;
 2/9=110,12=2,17=6,18=5,40=1/2;
 3/5=1,6=6,7=1,11=2,25=1,30=1,71=2,74=-5,140=1/1,2,3;
 4//1;
 5/5=2,8=3,38=5/8;
 8/6=4,10=90,11=11/1;
 11/6=1,8=1,9=11,15=111,16=1/1,2,10;
 10/6=1/2;
 6/7=2,8=2,9=2,10=2,18=1,28=1/1;
 7/10=1,25=1/1,2,3,16;
 1/10=4,18=20,19=15,26=3/3(3);
 2/9=110/2;
 7/8=1,9=1,25=1,44=-1/16;
 99//99;
 2/9=110/2;
 3/5=1,6=6,7=1,11=2,25=1,30=1,71=2,74=-5,140=1/1,2,3;
 4/5=5,16=3,69=1/1;
 5/5=2,8=3,38=5/8;
 8/6=4,10=90,11=11/1;
 11/6=1,8=1,9=11,15=111,16=1/1,2,10;
 10/6=1/2;
 7/10=1,25=1/1,2,3,16;
 1/10=4,18=20,19=15,26=3/3(-8);
 2/9=110/2;
 6/7=2,8=2,9=2,10=2,18=1,19=2,28=1/1;
 7/8=1,9=1,25=1,44=-1/16;
 99//99;
 -------------------
 Title Card Required
 -------------------
 Symbolic Z-matrix:
 Charge =  0 Multiplicity = 1
 C                     6.16921   0.08245  -1.17177 
 C                     5.65571  -0.85754  -0.07361 
 C                     4.26407  -1.41848  -0.39305 
 C                     6.6322   -2.043     0.02731 
 O1                    5.67942  -0.20397   1.22494 
 C2                    4.6771    0.6551    1.5808 
 O3                    3.72021   0.93162   0.86621 
 N4                    4.9172    1.1559    2.8418 
 N5                    6.1448    1.2226    3.0972 
 C6                    6.3853    1.7078    4.365 
 O7                    5.67297   2.49243   4.98089 
 O8                    7.55246   1.1855    4.84573 
 C                     8.02668   1.55064   6.16797 
 C                     7.00615   1.17821   7.2516 
 C                     9.29746   0.71668   6.4078 
 C                     8.41953   3.03285   6.22403 
 H                     6.23286  -0.42967  -2.13768 
 H                     7.16433   0.46494  -0.9163 
 H                     5.52621   0.95641  -1.30572 
 H                     4.26836  -1.98162  -1.33272 
 H                     3.50928  -0.63353  -0.48693 
 H                     3.92304  -2.08483   0.4075 
 H                     6.68426  -2.60137  -0.91478 
 H                     6.33107  -2.73669   0.82059 
 H                     7.64282  -1.70128   0.27881 
 H                     6.75096   0.11385   7.1922 
 H                     6.0679    1.7287    7.14786 
 H                     7.39745   1.38377   8.25391 
 H                     9.08231  -0.35679   6.35154 
 H                     9.73713   0.92708   7.38955 
 H                     10.0546   0.92286   5.64209 
 H                     7.56499   3.69592   6.06682 
 H                     9.14487   3.26766   5.43641 
 H                     8.8626    3.29179   7.19159 
 

 GradGradGradGradGradGradGradGradGradGradGradGradGradGradGradGradGradGrad
 Berny optimization.
 Initialization pass.
                           ----------------------------
                           !    Initial Parameters    !
                           ! (Angstroms and Degrees)  !
 --------------------------                            --------------------------
 ! Name  Definition              Value          Derivative Info.                !
 --------------------------------------------------------------------------------
 ! R1    R(1,2)                  1.534          calculate D2E/DX2 analytically  !
 ! R2    R(1,17)                 1.0951         calculate D2E/DX2 analytically  !
 ! R3    R(1,18)                 1.0963         calculate D2E/DX2 analytically  !
 ! R4    R(1,19)                 1.0933         calculate D2E/DX2 analytically  !
 ! R5    R(2,3)                  1.5341         calculate D2E/DX2 analytically  !
 ! R6    R(2,4)                  1.5392         calculate D2E/DX2 analytically  !
 ! R7    R(2,5)                  1.4539         calculate D2E/DX2 analytically  !
 ! R8    R(3,20)                 1.0955         calculate D2E/DX2 analytically  !
 ! R9    R(3,21)                 1.093          calculate D2E/DX2 analytically  !
 ! R10   R(3,22)                 1.096          calculate D2E/DX2 analytically  !
 ! R11   R(4,23)                 1.0964         calculate D2E/DX2 analytically  !
 ! R12   R(4,24)                 1.096          calculate D2E/DX2 analytically  !
 ! R13   R(4,25)                 1.0961         calculate D2E/DX2 analytically  !
 ! R14   R(5,6)                  1.3672         calculate D2E/DX2 analytically  !
 ! R15   R(6,7)                  1.2259         calculate D2E/DX2 analytically  !
 ! R16   R(6,8)                  1.3779         calculate D2E/DX2 analytically  !
 ! R17   R(8,9)                  1.2557         calculate D2E/DX2 analytically  !
 ! R18   R(9,10)                 1.3786         calculate D2E/DX2 analytically  !
 ! R19   R(10,11)                1.2257         calculate D2E/DX2 analytically  !
 ! R20   R(10,12)                1.3661         calculate D2E/DX2 analytically  !
 ! R21   R(12,13)                1.4514         calculate D2E/DX2 analytically  !
 ! R22   R(13,14)                1.5344         calculate D2E/DX2 analytically  !
 ! R23   R(13,15)                1.5388         calculate D2E/DX2 analytically  !
 ! R24   R(13,16)                1.5344         calculate D2E/DX2 analytically  !
 ! R25   R(14,26)                1.0961         calculate D2E/DX2 analytically  !
 ! R26   R(14,27)                1.0928         calculate D2E/DX2 analytically  !
 ! R27   R(14,28)                1.0954         calculate D2E/DX2 analytically  !
 ! R28   R(15,29)                1.0963         calculate D2E/DX2 analytically  !
 ! R29   R(15,30)                1.0961         calculate D2E/DX2 analytically  !
 ! R30   R(15,31)                1.0964         calculate D2E/DX2 analytically  !
 ! R31   R(16,32)                1.093          calculate D2E/DX2 analytically  !
 ! R32   R(16,33)                1.0962         calculate D2E/DX2 analytically  !
 ! R33   R(16,34)                1.0952         calculate D2E/DX2 analytically  !
 ! A1    A(2,1,17)             111.3651         calculate D2E/DX2 analytically  !
 ! A2    A(2,1,18)             110.5377         calculate D2E/DX2 analytically  !
 ! A3    A(2,1,19)             112.376          calculate D2E/DX2 analytically  !
 ! A4    A(17,1,18)            108.4174         calculate D2E/DX2 analytically  !
 ! A5    A(17,1,19)            107.4547         calculate D2E/DX2 analytically  !
 ! A6    A(18,1,19)            106.4704         calculate D2E/DX2 analytically  !
 ! A7    A(1,2,3)              112.2505         calculate D2E/DX2 analytically  !
 ! A8    A(1,2,4)              107.8494         calculate D2E/DX2 analytically  !
 ! A9    A(1,2,5)              111.0054         calculate D2E/DX2 analytically  !
 ! A10   A(3,2,4)              107.9118         calculate D2E/DX2 analytically  !
 ! A11   A(3,2,5)              111.416          calculate D2E/DX2 analytically  !
 ! A12   A(4,2,5)              106.0997         calculate D2E/DX2 analytically  !
 ! A13   A(2,3,20)             111.2859         calculate D2E/DX2 analytically  !
 ! A14   A(2,3,21)             112.4413         calculate D2E/DX2 analytically  !
 ! A15   A(2,3,22)             110.6395         calculate D2E/DX2 analytically  !
 ! A16   A(20,3,21)            107.3493         calculate D2E/DX2 analytically  !
 ! A17   A(20,3,22)            108.3738         calculate D2E/DX2 analytically  !
 ! A18   A(21,3,22)            106.5284         calculate D2E/DX2 analytically  !
 ! A19   A(2,4,23)             111.4715         calculate D2E/DX2 analytically  !
 ! A20   A(2,4,24)             111.139          calculate D2E/DX2 analytically  !
 ! A21   A(2,4,25)             111.0934         calculate D2E/DX2 analytically  !
 ! A22   A(23,4,24)            108.2191         calculate D2E/DX2 analytically  !
 ! A23   A(23,4,25)            108.1898         calculate D2E/DX2 analytically  !
 ! A24   A(24,4,25)            106.5341         calculate D2E/DX2 analytically  !
 ! A25   A(2,5,6)              120.1956         calculate D2E/DX2 analytically  !
 ! A26   A(5,6,7)              124.2125         calculate D2E/DX2 analytically  !
 ! A27   A(5,6,8)              109.8054         calculate D2E/DX2 analytically  !
 ! A28   A(7,6,8)              125.9806         calculate D2E/DX2 analytically  !
 ! A29   A(6,8,9)              112.0744         calculate D2E/DX2 analytically  !
 ! A30   A(8,9,10)             112.1045         calculate D2E/DX2 analytically  !
 ! A31   A(9,10,11)            125.8735         calculate D2E/DX2 analytically  !
 ! A32   A(9,10,12)            109.7615         calculate D2E/DX2 analytically  !
 ! A33   A(11,10,12)           124.3646         calculate D2E/DX2 analytically  !
 ! A34   A(10,12,13)           120.236          calculate D2E/DX2 analytically  !
 ! A35   A(12,13,14)           111.4077         calculate D2E/DX2 analytically  !
 ! A36   A(12,13,15)           105.99           calculate D2E/DX2 analytically  !
 ! A37   A(12,13,16)           111.0976         calculate D2E/DX2 analytically  !
 ! A38   A(14,13,15)           107.9172         calculate D2E/DX2 analytically  !
 ! A39   A(14,13,16)           112.268          calculate D2E/DX2 analytically  !
 ! A40   A(15,13,16)           107.8419         calculate D2E/DX2 analytically  !
 ! A41   A(13,14,26)           110.625          calculate D2E/DX2 analytically  !
 ! A42   A(13,14,27)           112.4414         calculate D2E/DX2 analytically  !
 ! A43   A(13,14,28)           111.2878         calculate D2E/DX2 analytically  !
 ! A44   A(26,14,27)           106.5065         calculate D2E/DX2 analytically  !
 ! A45   A(26,14,28)           108.3581         calculate D2E/DX2 analytically  !
 ! A46   A(27,14,28)           107.3995         calculate D2E/DX2 analytically  !
 ! A47   A(13,15,29)           111.138          calculate D2E/DX2 analytically  !
 ! A48   A(13,15,30)           111.5201         calculate D2E/DX2 analytically  !
 ! A49   A(13,15,31)           111.0713         calculate D2E/DX2 analytically  !
 ! A50   A(29,15,30)           108.2193         calculate D2E/DX2 analytically  !
 ! A51   A(29,15,31)           106.489          calculate D2E/DX2 analytically  !
 ! A52   A(30,15,31)           108.2058         calculate D2E/DX2 analytically  !
 ! A53   A(13,16,32)           112.3705         calculate D2E/DX2 analytically  !
 ! A54   A(13,16,33)           110.4924         calculate D2E/DX2 analytically  !
 ! A55   A(13,16,34)           111.3603         calculate D2E/DX2 analytically  !
 ! A56   A(32,16,33)           106.5018         calculate D2E/DX2 analytically  !
 ! A57   A(32,16,34)           107.4533         calculate D2E/DX2 analytically  !
 ! A58   A(33,16,34)           108.447          calculate D2E/DX2 analytically  !
 ! D1    D(17,1,2,3)           -59.3135         calculate D2E/DX2 analytically  !
 ! D2    D(17,1,2,4)            59.427          calculate D2E/DX2 analytically  !
 ! D3    D(17,1,2,5)           175.2579         calculate D2E/DX2 analytically  !
 ! D4    D(18,1,2,3)          -179.8995         calculate D2E/DX2 analytically  !
 ! D5    D(18,1,2,4)           -61.159          calculate D2E/DX2 analytically  !
 ! D6    D(18,1,2,5)            54.6719         calculate D2E/DX2 analytically  !
 ! D7    D(19,1,2,3)            61.3076         calculate D2E/DX2 analytically  !
 ! D8    D(19,1,2,4)          -179.9519         calculate D2E/DX2 analytically  !
 ! D9    D(19,1,2,5)           -64.1211         calculate D2E/DX2 analytically  !
 ! D10   D(1,2,3,20)            59.4905         calculate D2E/DX2 analytically  !
 ! D11   D(1,2,3,21)           -60.9844         calculate D2E/DX2 analytically  !
 ! D12   D(1,2,3,22)          -179.9626         calculate D2E/DX2 analytically  !
 ! D13   D(4,2,3,20)           -59.2133         calculate D2E/DX2 analytically  !
 ! D14   D(4,2,3,21)          -179.6882         calculate D2E/DX2 analytically  !
 ! D15   D(4,2,3,22)            61.3336         calculate D2E/DX2 analytically  !
 ! D16   D(5,2,3,20)          -175.3059         calculate D2E/DX2 analytically  !
 ! D17   D(5,2,3,21)            64.2193         calculate D2E/DX2 analytically  !
 ! D18   D(5,2,3,22)           -54.759          calculate D2E/DX2 analytically  !
 ! D19   D(1,2,4,23)           -60.8738         calculate D2E/DX2 analytically  !
 ! D20   D(1,2,4,24)           178.3097         calculate D2E/DX2 analytically  !
 ! D21   D(1,2,4,25)            59.8739         calculate D2E/DX2 analytically  !
 ! D22   D(3,2,4,23)            60.6028         calculate D2E/DX2 analytically  !
 ! D23   D(3,2,4,24)           -60.2137         calculate D2E/DX2 analytically  !
 ! D24   D(3,2,4,25)          -178.6495         calculate D2E/DX2 analytically  !
 ! D25   D(5,2,4,23)          -179.8796         calculate D2E/DX2 analytically  !
 ! D26   D(5,2,4,24)            59.3039         calculate D2E/DX2 analytically  !
 ! D27   D(5,2,4,25)           -59.1318         calculate D2E/DX2 analytically  !
 ! D28   D(1,2,5,6)             80.4709         calculate D2E/DX2 analytically  !
 ! D29   D(3,2,5,6)            -45.4236         calculate D2E/DX2 analytically  !
 ! D30   D(4,2,5,6)           -162.6208         calculate D2E/DX2 analytically  !
 ! D31   D(2,5,6,7)             -0.0004         calculate D2E/DX2 analytically  !
 ! D32   D(2,5,6,8)           -179.5807         calculate D2E/DX2 analytically  !
 ! D33   D(5,6,8,9)             29.6469         calculate D2E/DX2 analytically  !
 ! D34   D(7,6,8,9)           -149.9242         calculate D2E/DX2 analytically  !
 ! D35   D(6,8,9,10)          -179.2377         calculate D2E/DX2 analytically  !
 ! D36   D(8,9,10,11)          -29.6472         calculate D2E/DX2 analytically  !
 ! D37   D(8,9,10,12)          150.5591         calculate D2E/DX2 analytically  !
 ! D38   D(9,10,12,13)         179.798          calculate D2E/DX2 analytically  !
 ! D39   D(11,10,12,13)          0.0006         calculate D2E/DX2 analytically  !
 ! D40   D(10,12,13,14)         59.294          calculate D2E/DX2 analytically  !
 ! D41   D(10,12,13,15)        176.4287         calculate D2E/DX2 analytically  !
 ! D42   D(10,12,13,16)        -66.6877         calculate D2E/DX2 analytically  !
 ! D43   D(12,13,14,26)         55.1189         calculate D2E/DX2 analytically  !
 ! D44   D(12,13,14,27)        -63.8217         calculate D2E/DX2 analytically  !
 ! D45   D(12,13,14,28)        175.6374         calculate D2E/DX2 analytically  !
 ! D46   D(15,13,14,26)        -60.8398         calculate D2E/DX2 analytically  !
 ! D47   D(15,13,14,27)       -179.7804         calculate D2E/DX2 analytically  !
 ! D48   D(15,13,14,28)         59.6787         calculate D2E/DX2 analytically  !
 ! D49   D(16,13,14,26)       -179.5481         calculate D2E/DX2 analytically  !
 ! D50   D(16,13,14,27)         61.5112         calculate D2E/DX2 analytically  !
 ! D51   D(16,13,14,28)        -59.0296         calculate D2E/DX2 analytically  !
 ! D52   D(12,13,15,29)        -59.3893         calculate D2E/DX2 analytically  !
 ! D53   D(12,13,15,30)        179.7614         calculate D2E/DX2 analytically  !
 ! D54   D(12,13,15,31)         58.9751         calculate D2E/DX2 analytically  !
 ! D55   D(14,13,15,29)         60.0628         calculate D2E/DX2 analytically  !
 ! D56   D(14,13,15,30)        -60.7866         calculate D2E/DX2 analytically  !
 ! D57   D(14,13,15,31)        178.4272         calculate D2E/DX2 analytically  !
 ! D58   D(16,13,15,29)       -178.4409         calculate D2E/DX2 analytically  !
 ! D59   D(16,13,15,30)         60.7097         calculate D2E/DX2 analytically  !
 ! D60   D(16,13,15,31)        -60.0765         calculate D2E/DX2 analytically  !
 ! D61   D(12,13,16,32)         64.5412         calculate D2E/DX2 analytically  !
 ! D62   D(12,13,16,33)        -54.2571         calculate D2E/DX2 analytically  !
 ! D63   D(12,13,16,34)       -174.8468         calculate D2E/DX2 analytically  !
 ! D64   D(14,13,16,32)        -60.9614         calculate D2E/DX2 analytically  !
 ! D65   D(14,13,16,33)       -179.7597         calculate D2E/DX2 analytically  !
 ! D66   D(14,13,16,34)         59.6506         calculate D2E/DX2 analytically  !
 ! D67   D(15,13,16,32)       -179.7141         calculate D2E/DX2 analytically  !
 ! D68   D(15,13,16,33)         61.4876         calculate D2E/DX2 analytically  !
 ! D69   D(15,13,16,34)        -59.102          calculate D2E/DX2 analytically  !
 --------------------------------------------------------------------------------
 Trust Radius=3.00D-01 FncErr=1.00D-07 GrdErr=1.00D-06 EigMax=2.50D+02 EigMin=1.00D-04
 Number of steps in this run=    170 maximum allowed number of steps=    204.
 GradGradGradGradGradGradGradGradGradGradGradGradGradGradGradGradGradGrad

                          Input orientation:                          
 ---------------------------------------------------------------------
 Center     Atomic      Atomic             Coordinates (Angstroms)
 Number     Number       Type             X           Y           Z
 ---------------------------------------------------------------------
      1          6           0        6.169210    0.082450   -1.171770
      2          6           0        5.655710   -0.857540   -0.073610
      3          6           0        4.264070   -1.418480   -0.393050
      4          6           0        6.632200   -2.043000    0.027310
      5          8           0        5.679420   -0.203970    1.224940
      6          6           0        4.677100    0.655100    1.580800
      7          8           0        3.720210    0.931620    0.866210
      8          7           0        4.917200    1.155900    2.841800
      9          7           0        6.144800    1.222600    3.097200
     10          6           0        6.385300    1.707800    4.365000
     11          8           0        5.672970    2.492430    4.980890
     12          8           0        7.552460    1.185500    4.845730
     13          6           0        8.026680    1.550640    6.167970
     14          6           0        7.006150    1.178210    7.251600
     15          6           0        9.297460    0.716680    6.407800
     16          6           0        8.419530    3.032850    6.224030
     17          1           0        6.232860   -0.429670   -2.137680
     18          1           0        7.164330    0.464940   -0.916300
     19          1           0        5.526210    0.956410   -1.305720
     20          1           0        4.268360   -1.981620   -1.332720
     21          1           0        3.509280   -0.633530   -0.486930
     22          1           0        3.923040   -2.084830    0.407500
     23          1           0        6.684260   -2.601370   -0.914780
     24          1           0        6.331070   -2.736690    0.820590
     25          1           0        7.642820   -1.701280    0.278810
     26          1           0        6.750960    0.113850    7.192200
     27          1           0        6.067900    1.728700    7.147860
     28          1           0        7.397450    1.383770    8.253910
     29          1           0        9.082310   -0.356790    6.351540
     30          1           0        9.737130    0.927080    7.389550
     31          1           0       10.054600    0.922860    5.642090
     32          1           0        7.564990    3.695920    6.066820
     33          1           0        9.144870    3.267660    5.436410
     34          1           0        8.862600    3.291790    7.191590
 ---------------------------------------------------------------------
                    Distance matrix (angstroms):
                    1          2          3          4          5
     1  C    0.000000
     2  C    1.534020   0.000000
     3  C    2.547303   1.534066   0.000000
     4  C    2.483886   1.539166   2.484908   0.000000
     5  O    2.462955   1.453942   2.469037   2.392517   0.000000
     6  C    3.182917   2.445982   2.892475   3.676342   1.367217
     7  O    3.297280   2.798306   2.721119   4.246387   2.292762
     8  N    4.339190   3.619248   4.185483   4.592988   2.245988
     9  N    4.418670   3.823641   4.763853   4.508428   2.399383
    10  C    5.774451   5.178275   6.075548   5.739775   3.743409
    11  O    6.626423   6.063874   6.794074   6.784409   4.623611
    12  O    6.272193   5.654342   6.711113   5.872586   4.306858
    13  C    7.712170   7.097757   8.125263   7.250278   5.746463
    14  C    8.535474   7.721831   8.526575   7.918737   6.323865
    15  C    8.224237   7.599289   8.726138   7.445139   6.387476
    16  C    8.274458   7.901525   8.992660   8.207201   6.555616
    17  H    1.095126   2.185534   2.810269   2.729375   3.415326
    18  H    1.096279   2.176009   3.497509   2.731909   2.690224
    19  H    1.093251   2.196652   2.840082   3.463617   2.788224
    20  H    2.810609   2.184869   1.095502   2.727854   3.419467
    21  H    2.838461   2.197311   1.093009   3.464632   2.797236
    22  H    3.498067   2.177120   1.095995   2.736027   2.700132
    23  H    2.744852   2.192356   2.743857   1.096367   3.366843
    24  H    3.455900   2.187901   2.735523   1.095983   2.646284
    25  H    2.730824   2.187396   3.456490   1.096074   2.644246
    26  H    8.384236   7.411826   8.128264   7.483432   6.071030
    27  H    8.481547   7.681677   8.368027   8.077524   6.242364
    28  H    9.594032   8.797995   9.614603   8.944569   7.408034
    29  H    8.079559   7.298965   8.356561   6.988722   6.155083
    30  H    9.313413   8.691468   9.799230   8.524350   7.466371
    31  H    7.888677   7.428949   8.685334   7.213522   6.318478
    32  H    8.209906   7.879355   8.875983   8.383375   6.496793
    33  H    7.916322   7.716983   8.931110   7.985924   6.465140
    34  H    9.354144   8.960146  10.042902   9.206605   7.612745
                    6          7          8          9         10
     6  C    0.000000
     7  O    1.225863   0.000000
     8  N    1.377886   2.320785   0.000000
     9  N    2.185330   3.307661   1.255659   0.000000
    10  C    3.431894   4.466172   2.186332   1.378614   0.000000
    11  O    3.991009   4.814560   2.633098   2.320211   1.225716
    12  O    4.382783   5.530567   3.310771   2.245048   1.366075
    13  C    5.750114   6.858391   4.570349   3.616450   2.443262
    14  C    6.152730   7.185500   4.879605   4.242986   2.999730
    15  C    6.682174   7.865185   5.665329   4.599488   3.692699
    16  C    6.420207   7.430007   5.218116   4.269481   3.057751
    17  H    4.174232   4.146067   5.388897   5.490147   6.846668
    18  H    3.529587   3.906033   4.432870   4.209712   5.481215
    19  H    3.023867   2.824806   4.196738   4.454123   5.784435
    20  H    3.950691   3.690898   5.262285   5.780333   7.110363
    21  H    2.701829   2.079705   4.032957   4.820495   6.106926
    22  H    3.074485   3.057863   4.173308   4.807265   6.009041
    23  H    4.567407   4.943636   5.599239   5.568640   6.821613
    24  H    3.849386   4.502796   4.608316   4.570955   5.685004
    25  H    4.005396   4.760680   4.707590   4.328563   5.468101
    26  H    6.006801   7.062035   4.834721   4.285532   3.266105
    27  H    5.837731   6.753230   4.493814   4.082879   2.800980
    28  H    7.243042   8.264662   5.957726   5.309121   4.031509
    29  H    6.571891   7.778236   5.652844   4.659846   3.934811
    30  H    7.708401   8.874532   6.630695   5.605037   4.581724
    31  H    6.744129   7.933070   5.855665   4.674703   3.963692
    32  H    6.140918   7.033494   4.885002   4.117389   2.870624
    33  H    6.453849   7.467981   5.391171   4.319096   3.346089
    34  H    7.480074   8.486755   6.248910   5.332168   4.078682
                   11         12         13         14         15
    11  O    0.000000
    12  O    2.293211   0.000000
    13  C    2.799300   1.451389   0.000000
    14  C    2.942901   2.467128   1.534418   0.000000
    15  C    4.280921   2.388489   1.538795   2.484977   0.000000
    16  C    3.062849   2.462564   1.534412   2.548182   2.483783
    17  H    7.715321   7.288219   8.724863   9.557292   9.150471
    18  H    6.411842   5.819866   7.218675   8.200510   7.632566
    19  H    6.473203   6.480626   7.903259   8.687183   8.589423
    20  H    7.864587   7.680443   9.102867   9.548328   9.617085
    21  H    6.659597   6.934943   8.334578   8.683049   9.102933
    22  H    6.702944   6.600427   7.952328   8.185029   8.528567
    23  H    7.856744   6.948211   8.319052   9.004366   8.453310
    24  H    6.714528   5.751271   7.060507   7.559105   7.207090
    25  H    6.601293   5.403556   6.738289   7.570774   6.793297
    26  H    3.421929   2.701251   2.177355   1.096135   2.731913
    27  H    2.331311   2.792631   2.197432   1.092755   3.464380
    28  H    3.862074   3.417460   2.185159   1.095443   2.731880
    29  H    4.649767   2.643211   2.187771   2.734369   1.096263
    30  H    4.976883   3.363121   2.192424   2.745969   1.096089
    31  H    4.701002   2.638915   2.187034   3.456700   1.096395
    32  H    2.491460   2.791671   2.196728   2.838110   3.463176
    33  H    3.586442   2.687017   2.175704   3.497834   2.733931
    34  H    3.962311   3.414086   2.185901   2.813757   2.726650
                   16         17         18         19         20
    16  C    0.000000
    17  H    9.310680   0.000000
    18  H    7.691164   1.777564   0.000000
    19  H    8.329468   1.764293   1.754032   0.000000
    20  H    9.974046   2.629785   3.813883   3.196081   0.000000
    21  H    9.087898   3.191304   3.840623   2.695614   1.763210
    22  H    8.957739   3.814809   4.331251   3.841148   1.777150
    23  H    9.258413   2.532889   3.103663   3.761876   2.528900
    24  H    8.175966   3.752779   3.736515   4.336817   3.075979
    25  H    7.639431   3.073175   2.519871   3.748878   3.750013
    26  H    3.498863   9.360048   8.126617   8.626967   9.122969
    27  H    2.843314   9.534518   8.235892   8.506049   9.430008
    28  H    2.807940  10.612727   9.219075   9.750421  10.631111
    29  H    3.456182   8.954973   7.561441   8.544236   9.212059
    30  H    2.743861  10.241523   8.707469   9.661285  10.697943
    31  H    2.732063   8.772677   7.181631   8.293341   9.516541
    32  H    1.092985   9.279487   7.704786   8.125016   9.892190
    33  H    1.096175   8.917224   7.220436   7.993303   9.856795
    34  H    1.095232  10.382682   8.752890   9.422833  11.026321
                   21         22         23         24         25
    21  H    0.000000
    22  H    1.754273   0.000000
    23  H    3.759780   3.104766   0.000000
    24  H    3.754383   2.528670   1.776109   0.000000
    25  H    4.337350   3.741716   1.775854   1.756783   0.000000
    26  H    8.368758   7.672254   8.549853   6.992803   7.203129
    27  H    8.391465   8.035912   9.172544   7.748762   7.837664
    28  H    9.776996   9.255747  10.022717   8.565606   8.554529
    29  H    8.826093   8.058275   7.974220   6.620019   6.384186
    30  H   10.161720   9.572057   9.525328   8.256857   7.864924
    31  H    9.101014   8.604834   8.171409   7.106606   6.439531
    32  H    8.839941   8.871797   9.443214   8.391898   7.914347
    33  H    9.058980   9.011470   8.990980   8.079324   7.317606
    34  H   10.150165   9.966503  10.256107   9.129121   8.614240
                   26         27         28         29         30
    26  H    0.000000
    27  H    1.753932   0.000000
    28  H    1.777041   1.763527   0.000000
    29  H    2.522579   3.751008   3.080148   0.000000
    30  H    3.101210   3.763543   2.535702   1.776113   0.000000
    31  H    3.737830   4.337107   3.754263   1.756750   1.776069
    32  H    3.841920   2.698125   3.187079   4.336794   3.759559
    33  H    4.331296   3.842552   3.813243   3.738718   3.105454
    34  H    3.815538   3.202423   2.629777   3.750479   2.529001
                   31         32         33         34
    31  H    0.000000
    32  H    3.750789   0.000000
    33  H    2.523490   1.754094   0.000000
    34  H    3.071424   1.764149   1.777896   0.000000
 Stoichiometry    C10H18N2O4
 Framework group  C1[X(C10H18N2O4)]
 Deg. of freedom    96
 Full point group                 C1      NOp   1
 Largest Abelian subgroup         C1      NOp   1
 Largest concise Abelian subgroup C1      NOp   1
                         Standard orientation:                         
 ---------------------------------------------------------------------
 Center     Atomic      Atomic             Coordinates (Angstroms)
 Number     Number       Type             X           Y           Z
 ---------------------------------------------------------------------
      1          6           0       -3.909149    0.692193    1.474241
      2          6           0       -3.442991    0.705710    0.012826
      3          6           0       -4.406246   -0.050420   -0.911168
      4          6           0       -3.393201    2.171863   -0.452950
      5          8           0       -2.085531    0.198614   -0.105932
      6          6           0       -1.852747   -1.148631   -0.111175
      7          8           0       -2.730005   -2.000038   -0.020271
      8          7           0       -0.500498   -1.388332   -0.223135
      9          7           0        0.185596   -0.468454    0.286551
     10          6           0        1.538807   -0.699483    0.159975
     11          8           0        2.078495   -1.799010    0.113537
     12          8           0        2.206630    0.490558    0.096925
     13          6           0        3.651955    0.511520   -0.033947
     14          6           0        4.109591   -0.212454   -1.307081
     15          6           0        4.044241    1.993671   -0.165216
     16          6           0        4.328747   -0.044110    1.226072
     17          1           0       -4.898198    1.149923    1.581776
     18          1           0       -3.202840    1.240738    2.108318
     19          1           0       -3.970242   -0.320228    1.882248
     20          1           0       -5.410454    0.386435   -0.882052
     21          1           0       -4.501729   -1.105242   -0.641164
     22          1           0       -4.048249   -0.024812   -1.946729
     23          1           0       -4.380793    2.644621   -0.396530
     24          1           0       -3.036195    2.246331   -1.486477
     25          1           0       -2.698178    2.757118    0.160073
     26          1           0        3.616540    0.210314   -2.190077
     27          1           0        3.862593   -1.276840   -1.293355
     28          1           0        5.193250   -0.129386   -1.444113
     29          1           0        3.565329    2.453608   -1.037508
     30          1           0        5.128910    2.115102   -0.266013
     31          1           0        3.715100    2.567476    0.709138
     32          1           0        4.102083   -1.100946    1.388358
     33          1           0        3.978440    0.489847    2.117012
     34          1           0        5.418179    0.053298    1.169651
 ---------------------------------------------------------------------
 Rotational constants (GHZ):           1.1187326           0.2168744           0.1982406
 Standard basis: 6-31G(d) (6D, 7F)
 There are   276 symmetry adapted cartesian basis functions of A   symmetry.
 There are   276 symmetry adapted basis functions of A   symmetry.
   276 basis functions,   520 primitive gaussians,   276 cartesian basis functions
    62 alpha electrons       62 beta electrons
       nuclear repulsion energy      1158.5903261571 Hartrees.
 NAtoms=   34 NActive=   34 NUniq=   34 SFac= 1.00D+00 NAtFMM=   60 NAOKFM=F Big=F
 Integral buffers will be    131072 words long.
 Raffenetti 2 integral format.
 Two-electron integral symmetry is turned on.
 One-electron integrals computed using PRISM.
 NBasis=   276 RedAO= T EigKep=  2.24D-03  NBF=   276
 NBsUse=   276 1.00D-06 EigRej= -1.00D+00 NBFU=   276
 ExpMin= 1.61D-01 ExpMax= 5.48D+03 ExpMxC= 8.25D+02 IAcc=3 IRadAn=         5 AccDes= 0.00D+00
 Harris functional with IExCor=  402 and IRadAn=       5 diagonalized for initial guess.
 HarFok:  IExCor=  402 AccDes= 0.00D+00 IRadAn=         5 IDoV= 1 UseB2=F ITyADJ=14
 ICtDFT=  3500011 ScaDFX=  1.000000  1.000000  1.000000  1.000000
 FoFCou: FMM=F IPFlag=           0 FMFlag=      100000 FMFlg1=           0
         NFxFlg=           0 DoJE=T BraDBF=F KetDBF=T FulRan=T
         wScrn=  0.000000 ICntrl=       500 IOpCl=  0 I1Cent=   200000004 NGrid=           0
         NMat0=    1 NMatS0=      1 NMatT0=    0 NMatD0=    1 NMtDS0=    0 NMtDT0=    0
 Petite list used in FoFCou.
 Gradient too large for Newton-Raphson -- use scaled steepest descent instead.
     Minimum is close to point  2 DX=  1.19D-02 DF= -7.05D-04 DXR=  3.80D-02 DFR=  1.45D-03 which will be used.
 Gradient too large for Newton-Raphson -- use scaled steepest descent instead.
 Gradient too large for Newton-Raphson -- use scaled steepest descent instead.
     Accept linear search using points  1 and  2.
 Gradient too large for Newton-Raphson -- use scaled steepest descent instead.
     Minimum is close to point  3 DX=  3.93D-02 DF= -1.25D-05 DXR=  4.69D-02 DFR=  2.20D-03 which will be used.
 Gradient too large for Newton-Raphson -- use scaled steepest descent instead.
     Accept linear search using points  1 and  2.
 Gradient too large for Newton-Raphson -- use scaled steepest descent instead.
     Accept linear search using points  1 and  2.
 LinEq1:  Iter=  0 NonCon=     1 RMS=7.50D-05 Max=3.82D-03 NDo=     1
 AX will form     1 AO Fock derivatives at one time.
 LinEq1:  Iter=  1 NonCon=     1 RMS=9.96D-05 Max=6.72D-03 NDo=     1
 LinEq1:  Iter=  2 NonCon=     1 RMS=4.31D-05 Max=1.43D-03 NDo=     1
 LinEq1:  Iter=  3 NonCon=     1 RMS=2.63D-05 Max=7.31D-04 NDo=     1
 LinEq1:  Iter=  4 NonCon=     1 RMS=2.11D-05 Max=7.70D-04 NDo=     1
 LinEq1:  Iter=  5 NonCon=     1 RMS=1.34D-05 Max=5.18D-04 NDo=     1
 LinEq1:  Iter=  6 NonCon=     1 RMS=6.84D-06 Max=4.14D-04 NDo=     1
 LinEq1:  Iter=  7 NonCon=     1 RMS=3.43D-06 Max=1.11D-04 NDo=     1
 LinEq1:  Iter=  8 NonCon=     1 RMS=2.08D-06 Max=9.29D-05 NDo=     1
 LinEq1:  Iter=  9 NonCon=     1 RMS=1.95D-06 Max=8.12D-05 NDo=     1
 LinEq1:  Iter= 10 NonCon=     1 RMS=1.13D-06 Max=2.83D-05 NDo=     1
 LinEq1:  Iter= 11 NonCon=     1 RMS=4.35D-07 Max=1.96D-05 NDo=     1
 LinEq1:  Iter= 12 NonCon=     1 RMS=1.89D-07 Max=1.16D-05 NDo=     1
 LinEq1:  Iter= 13 NonCon=     1 RMS=1.49D-07 Max=6.21D-06 NDo=     1
 LinEq1:  Iter= 14 NonCon=     1 RMS=5.72D-08 Max=1.67D-06 NDo=     1
 LinEq1:  Iter= 15 NonCon=     1 RMS=2.11D-08 Max=4.26D-07 NDo=     1
 LinEq1:  Iter= 16 NonCon=     0 RMS=9.71D-09 Max=1.43D-07 NDo=     1
 Linear equations converged to 1.629D-08 1.629D-07 after    16 iterations.
     Accept linear search using points  1 and  2.
     Minimum is close to point  2 DX= -1.13D-03 DF= -5.65D-11 DXR=  1.13D-03 DFR=  1.27D-06 which will be used.
 LinEq1:  Iter=  0 NonCon=     1 RMS=1.63D-07 Max=6.68D-06 NDo=     1
 LinEq1:  Iter=  1 NonCon=     1 RMS=1.51D-07 Max=8.32D-06 NDo=     1
 LinEq1:  Iter=  2 NonCon=     1 RMS=9.15D-08 Max=4.69D-06 NDo=     1
 LinEq1:  Iter=  3 NonCon=     1 RMS=6.13D-08 Max=3.16D-06 NDo=     1
 LinEq1:  Iter=  4 NonCon=     1 RMS=5.48D-08 Max=2.29D-06 NDo=     1
 LinEq1:  Iter=  5 NonCon=     1 RMS=4.26D-08 Max=1.96D-06 NDo=     1
 LinEq1:  Iter=  6 NonCon=     1 RMS=2.78D-08 Max=7.31D-07 NDo=     1
 LinEq1:  Iter=  7 NonCon=     1 RMS=2.15D-08 Max=8.96D-07 NDo=     1
 LinEq1:  Iter=  8 NonCon=     1 RMS=1.02D-08 Max=3.39D-07 NDo=     1
 LinEq1:  Iter=  9 NonCon=     1 RMS=8.94D-09 Max=3.93D-07 NDo=     1
 LinEq1:  Iter= 10 NonCon=     1 RMS=7.01D-09 Max=2.47D-07 NDo=     1
 LinEq1:  Iter= 11 NonCon=     1 RMS=3.54D-09 Max=1.23D-07 NDo=     1
 LinEq1:  Iter= 12 NonCon=     1 RMS=1.03D-09 Max=2.83D-08 NDo=     1
 LinEq1:  Iter= 13 NonCon=     1 RMS=6.41D-10 Max=1.59D-08 NDo=     1
 LinEq1:  Iter= 14 NonCon=     1 RMS=3.05D-10 Max=1.23D-08 NDo=     1
 LinEq1:  Iter= 15 NonCon=     1 RMS=1.13D-10 Max=3.76D-09 NDo=     1
 LinEq1:  Iter= 16 NonCon=     1 RMS=5.79D-11 Max=1.68D-09 NDo=     1
 LinEq1:  Iter= 17 NonCon=     0 RMS=1.74D-11 Max=4.76D-10 NDo=     1
 Linear equations converged to 1.476D-10 1.476D-09 after    17 iterations.
 SCF Done:  E(RB3LYP) =  -802.253077826     a.u. after    9 cycles
            Convg  =    0.2017D-09                    50 Fock formations.
              S**2 =  0.0000                  -V/T =  2.0091
 DoSCS=F DFT=T ScalE2(SS,OS)=  1.000000  1.000000
 Range of M.O.s used for correlation:     1   276
 NBasis=   276 NAE=    62 NBE=    62 NFC=     0 NFV=     0
 NROrb=    276 NOA=    62 NOB=    62 NVA=   214 NVB=   214
 Symmetrizing basis deriv contribution to polar:
 IMax=3 JMax=2 DiffMx= 0.00D+00
 G2DrvN: will do    35 centers at a time, making    1 passes.
 Calling FoFCou, ICntrl=  3107 FMM=F I1Cent=   0 AccDes= 0.00D+00.
 End of G2Drv F.D. properties file   721 does not exist.
 End of G2Drv F.D. properties file   722 does not exist.
 End of G2Drv F.D. properties file   788 does not exist.
          IDoAtm=1111111111111111111111111111111111
          Differentiating once with respect to electric field.
                with respect to dipole field.
          Differentiating once with respect to nuclear coordinates.
 Keep R1 ints in memory in canonical form, NReq=741275395.
          There are   105 degrees of freedom in the 1st order CPHF.  IDoFFX=6 NUNeed=     3.
    102 vectors produced by pass  0 Test12= 1.33D-14 1.00D-09 XBig12= 1.34D+02 4.77D+00.
 AX will form   102 AO Fock derivatives at one time.
    102 vectors produced by pass  1 Test12= 1.33D-14 1.00D-09 XBig12= 5.45D+01 1.92D+00.
    102 vectors produced by pass  2 Test12= 1.33D-14 1.00D-09 XBig12= 1.02D+00 1.48D-01.
    102 vectors produced by pass  3 Test12= 1.33D-14 1.00D-09 XBig12= 5.18D-03 6.33D-03.
    102 vectors produced by pass  4 Test12= 1.33D-14 1.00D-09 XBig12= 7.82D-06 2.43D-04.
     56 vectors produced by pass  5 Test12= 1.33D-14 1.00D-09 XBig12= 6.34D-09 6.10D-06.
     10 vectors produced by pass  6 Test12= 1.33D-14 1.00D-09 XBig12= 5.20D-12 1.90D-07.
      3 vectors produced by pass  7 Test12= 1.33D-14 1.00D-09 XBig12= 4.37D-15 6.98D-09.
 InvSVY:  IOpt=1 It=  1 EMax= 7.11D-15
 Solved reduced A of dimension   579 with   105 vectors.
 Isotropic polarizability for W=    0.000000      136.83 Bohr**3.
 End of Minotr F.D. properties file   721 does not exist.
 End of Minotr F.D. properties file   722 does not exist.
 End of Minotr F.D. properties file   788 does not exist.

 **********************************************************************

            Population analysis using the SCF density.

 **********************************************************************

 Orbital symmetries:
       Occupied  (A) (A) (A) (A) (A) (A) (A) (A) (A) (A) (A) (A)
                 (A) (A) (A) (A) (A) (A) (A) (A) (A) (A) (A) (A)
                 (A) (A) (A) (A) (A) (A) (A) (A) (A) (A) (A) (A)
                 (A) (A) (A) (A) (A) (A) (A) (A) (A) (A) (A) (A)
                 (A) (A) (A) (A) (A) (A) (A) (A) (A) (A) (A) (A)
                 (A) (A)
       Virtual   (A) (A) (A) (A) (A) (A) (A) (A) (A) (A) (A) (A)
                 (A) (A) (A) (A) (A) (A) (A) (A) (A) (A) (A) (A)
                 (A) (A) (A) (A) (A) (A) (A) (A) (A) (A) (A) (A)
                 (A) (A) (A) (A) (A) (A) (A) (A) (A) (A) (A) (A)
                 (A) (A) (A) (A) (A) (A) (A) (A) (A) (A) (A) (A)
                 (A) (A) (A) (A) (A) (A) (A) (A) (A) (A) (A) (A)
                 (A) (A) (A) (A) (A) (A) (A) (A) (A) (A) (A) (A)
                 (A) (A) (A) (A) (A) (A) (A) (A) (A) (A) (A) (A)
                 (A) (A) (A) (A) (A) (A) (A) (A) (A) (A) (A) (A)
                 (A) (A) (A) (A) (A) (A) (A) (A) (A) (A) (A) (A)
                 (A) (A) (A) (A) (A) (A) (A) (A) (A) (A) (A) (A)
                 (A) (A) (A) (A) (A) (A) (A) (A) (A) (A) (A) (A)
                 (A) (A) (A) (A) (A) (A) (A) (A) (A) (A) (A) (A)
                 (A) (A) (A) (A) (A) (A) (A) (A) (A) (A) (A) (A)
                 (A) (A) (A) (A) (A) (A) (A) (A) (A) (A) (A) (A)
                 (A) (A) (A) (A) (A) (A) (A) (A) (A) (A) (A) (A)
                 (A) (A) (A) (A) (A) (A) (A) (A) (A) (A) (A) (A)
                 (A) (A) (A) (A) (A) (A) (A) (A) (A) (A)
 The electronic state is 1-A.
 Alpha  occ. eigenvalues --  -19.20647 -19.19973 -19.16096 -19.15602 -14.43028
 Alpha  occ. eigenvalues --  -14.42941 -10.35575 -10.35434 -10.26816 -10.26407
 Alpha  occ. eigenvalues --  -10.18630 -10.18334 -10.18314 -10.18237 -10.17984
 Alpha  occ. eigenvalues --  -10.17335  -1.13990  -1.11446  -1.06268  -1.02991
 Alpha  occ. eigenvalues --   -1.02409  -0.84881  -0.81491  -0.79208  -0.69943
 Alpha  occ. eigenvalues --   -0.69762  -0.69713  -0.69349  -0.66892  -0.62150
 Alpha  occ. eigenvalues --   -0.57920  -0.52086  -0.51845  -0.51400  -0.49769
 Alpha  occ. eigenvalues --   -0.48011  -0.47698  -0.46763  -0.45653  -0.45411
 Alpha  occ. eigenvalues --   -0.44241  -0.43880  -0.42163  -0.41731  -0.40958
 Alpha  occ. eigenvalues --   -0.40094  -0.39672  -0.39075  -0.37487  -0.36988
 Alpha  occ. eigenvalues --   -0.36908  -0.36835  -0.36177  -0.35658  -0.35047
 Alpha  occ. eigenvalues --   -0.34073  -0.33921  -0.30979  -0.30682  -0.30022
 Alpha  occ. eigenvalues --   -0.29129  -0.26185
 Alpha virt. eigenvalues --   -0.13602   0.00852   0.04320   0.08009   0.08231
 Alpha virt. eigenvalues --    0.09887   0.10124   0.14219   0.14391   0.14703
 Alpha virt. eigenvalues --    0.14974   0.15590   0.15705   0.16488   0.16832
 Alpha virt. eigenvalues --    0.17899   0.18287   0.18854   0.18923   0.19037
 Alpha virt. eigenvalues --    0.19298   0.20187   0.20458   0.21950   0.22144
 Alpha virt. eigenvalues --    0.22250   0.22393   0.24682   0.24710   0.25049
 Alpha virt. eigenvalues --    0.25410   0.29085   0.32650   0.34999   0.40078
 Alpha virt. eigenvalues --    0.43458   0.47934   0.48487   0.48833   0.49445
 Alpha virt. eigenvalues --    0.50563   0.50975   0.51430   0.52514   0.55037
 Alpha virt. eigenvalues --    0.55352   0.56002   0.57468   0.59030   0.59352
 Alpha virt. eigenvalues --    0.59628   0.60367   0.60843   0.62722   0.64827
 Alpha virt. eigenvalues --    0.65947   0.68082   0.68840   0.70179   0.70619
 Alpha virt. eigenvalues --    0.70812   0.70902   0.71685   0.72740   0.74013
 Alpha virt. eigenvalues --    0.76852   0.77140   0.80648   0.81499   0.83092
 Alpha virt. eigenvalues --    0.84128   0.84798   0.85570   0.86012   0.86855
 Alpha virt. eigenvalues --    0.88311   0.89087   0.89189   0.89439   0.89841
 Alpha virt. eigenvalues --    0.90230   0.91757   0.92158   0.92546   0.92881
 Alpha virt. eigenvalues --    0.93345   0.93641   0.95392   0.95948   0.97009
 Alpha virt. eigenvalues --    0.97406   0.98199   0.99835   1.00624   1.02283
 Alpha virt. eigenvalues --    1.04400   1.08148   1.10399   1.11522   1.13401
 Alpha virt. eigenvalues --    1.14525   1.16213   1.17422   1.19876   1.23656
 Alpha virt. eigenvalues --    1.27129   1.32625   1.33381   1.35782   1.37264
 Alpha virt. eigenvalues --    1.38537   1.40635   1.41707   1.43840   1.46178
 Alpha virt. eigenvalues --    1.48099   1.48939   1.49900   1.52223   1.53315
 Alpha virt. eigenvalues --    1.55339   1.57909   1.65016   1.66303   1.69462
 Alpha virt. eigenvalues --    1.71764   1.72101   1.72795   1.74133   1.74467
 Alpha virt. eigenvalues --    1.77170   1.77741   1.78829   1.80192   1.80913
 Alpha virt. eigenvalues --    1.83294   1.84045   1.84203   1.84749   1.85323
 Alpha virt. eigenvalues --    1.86492   1.88031   1.90433   1.90642   1.92591
 Alpha virt. eigenvalues --    1.95105   1.96408   2.01568   2.03395   2.05078
 Alpha virt. eigenvalues --    2.08472   2.08822   2.08964   2.10172   2.12691
 Alpha virt. eigenvalues --    2.14597   2.15882   2.16786   2.18091   2.19567
 Alpha virt. eigenvalues --    2.20441   2.22806   2.23023   2.24670   2.24854
 Alpha virt. eigenvalues --    2.25825   2.26182   2.26661   2.26976   2.29887
 Alpha virt. eigenvalues --    2.31964   2.32733   2.39428   2.41261   2.46995
 Alpha virt. eigenvalues --    2.49906   2.51656   2.54978   2.56519   2.58843
 Alpha virt. eigenvalues --    2.60918   2.62675   2.65246   2.69875   2.70867
 Alpha virt. eigenvalues --    2.71476   2.74260   2.75546   2.78371   2.78858
 Alpha virt. eigenvalues --    2.85690   2.87070   2.93874   2.95839   3.09231
 Alpha virt. eigenvalues --    3.12294   3.20172   3.23811   3.78023   3.90142
 Alpha virt. eigenvalues --    4.04786   4.08309   4.16804   4.19788   4.24637
 Alpha virt. eigenvalues --    4.27748   4.28922   4.29816   4.30192   4.31558
 Alpha virt. eigenvalues --    4.36230   4.43709   4.66413   4.66720
          Condensed to atoms (all electrons):
               1          2          3          4          5          6
     1  C    5.177117   0.380552  -0.064357  -0.073839  -0.043602  -0.003430
     2  C    0.380552   4.583010   0.379111   0.401556   0.177224  -0.012045
     3  C   -0.064357   0.379111   5.221586  -0.072192  -0.039103  -0.007053
     4  C   -0.073839   0.401556  -0.072192   5.157737  -0.045540   0.002829
     5  O   -0.043602   0.177224  -0.039103  -0.045540   8.322809   0.282280
     6  C   -0.003430  -0.012045  -0.007053   0.002829   0.282280   4.226123
     7  O   -0.002426   0.000102  -0.018024   0.000183  -0.076987   0.526428
     8  N   -0.000251   0.003834  -0.000670  -0.000225  -0.101006   0.243885
     9  N   -0.000066   0.000553   0.000037  -0.000015  -0.007146  -0.054704
    10  C   -0.000004   0.000009   0.000002  -0.000000  -0.000079   0.004878
    11  O   -0.000000   0.000000  -0.000000  -0.000000  -0.000008   0.000493
    12  O    0.000000  -0.000001  -0.000000   0.000000  -0.000000  -0.000140
    13  C   -0.000000   0.000000   0.000000  -0.000000  -0.000000   0.000002
    14  C    0.000000   0.000000   0.000000  -0.000000   0.000000   0.000000
    15  C    0.000000  -0.000000   0.000000   0.000000   0.000000  -0.000000
    16  C    0.000000  -0.000000   0.000000   0.000000  -0.000000  -0.000000
    17  H    0.362503  -0.022960  -0.002026  -0.002792   0.002810   0.000098
    18  H    0.364184  -0.026939   0.005442  -0.006349   0.000237   0.000032
    19  H    0.366530  -0.024126  -0.005391   0.005431  -0.003098   0.002588
    20  H   -0.002614  -0.025158   0.356029  -0.003530   0.002424   0.000579
    21  H   -0.004169  -0.023586   0.366347   0.004970  -0.001811  -0.001834
    22  H    0.005631  -0.028017   0.362201  -0.006750  -0.000576   0.001184
    23  H   -0.001616  -0.026407  -0.002236   0.364191   0.002916  -0.000029
    24  H    0.005984  -0.025480  -0.005822   0.362672   0.000428   0.000097
    25  H   -0.005957  -0.025436   0.006020   0.362578   0.000312  -0.000079
    26  H    0.000000  -0.000000   0.000000   0.000000   0.000000  -0.000000
    27  H    0.000000  -0.000000   0.000000   0.000000   0.000000  -0.000000
    28  H    0.000000  -0.000000   0.000000   0.000000   0.000000   0.000000
    29  H    0.000000  -0.000000   0.000000   0.000000  -0.000000  -0.000000
    30  H   -0.000000   0.000000   0.000000   0.000000   0.000000   0.000000
    31  H   -0.000000   0.000000  -0.000000  -0.000000   0.000000  -0.000000
    32  H    0.000000  -0.000000   0.000000   0.000000   0.000000  -0.000000
    33  H    0.000000   0.000000  -0.000000  -0.000000   0.000000  -0.000000
    34  H   -0.000000   0.000000   0.000000  -0.000000   0.000000   0.000000
               7          8          9         10         11         12
     1  C   -0.002426  -0.000251  -0.000066  -0.000004  -0.000000   0.000000
     2  C    0.000102   0.003834   0.000553   0.000009   0.000000  -0.000001
     3  C   -0.018024  -0.000670   0.000037   0.000002  -0.000000  -0.000000
     4  C    0.000183  -0.000225  -0.000015  -0.000000  -0.000000   0.000000
     5  O   -0.076987  -0.101006  -0.007146  -0.000079  -0.000008  -0.000000
     6  C    0.526428   0.243885  -0.054704   0.004878   0.000493  -0.000140
     7  O    8.063653  -0.059741   0.000988  -0.000104   0.000004   0.000000
     8  N   -0.059741   6.955331   0.222659  -0.052795  -0.000476   0.001866
     9  N    0.000988   0.222659   6.953795   0.247884  -0.073307  -0.088650
    10  C   -0.000104  -0.052795   0.247884   4.238311   0.508163   0.297680
    11  O    0.000004  -0.000476  -0.073307   0.508163   8.068718  -0.074053
    12  O    0.000000   0.001866  -0.088650   0.297680  -0.074053   8.300116
    13  C   -0.000000  -0.000091   0.003914  -0.014396   0.002534   0.175275
    14  C    0.000000   0.000037  -0.000513  -0.005187  -0.009117  -0.041072
    15  C    0.000000   0.000001  -0.000184   0.003378   0.000197  -0.045179
    16  C   -0.000000   0.000004  -0.000470  -0.005105  -0.005923  -0.041903
    17  H    0.000025   0.000004   0.000001   0.000000   0.000000  -0.000000
    18  H    0.000042  -0.000021   0.000047   0.000002  -0.000000  -0.000000
    19  H    0.004165  -0.000033  -0.000007  -0.000000   0.000000  -0.000000
    20  H    0.000776   0.000011  -0.000000  -0.000000   0.000000   0.000000
    21  H    0.012133   0.000154  -0.000013   0.000000  -0.000000  -0.000000
    22  H   -0.000333  -0.000039  -0.000013  -0.000000  -0.000000   0.000000
    23  H    0.000010   0.000003  -0.000001   0.000000  -0.000000  -0.000000
    24  H   -0.000003  -0.000006  -0.000008  -0.000001   0.000000   0.000000
    25  H    0.000005  -0.000002   0.000037   0.000002  -0.000000   0.000000
    26  H   -0.000000  -0.000008  -0.000001   0.000565   0.000001  -0.000079
    27  H   -0.000000  -0.000006   0.000113   0.001080   0.011295  -0.002932
    28  H   -0.000000  -0.000000   0.000006   0.000287   0.000261   0.002593
    29  H   -0.000000  -0.000000   0.000001  -0.000015   0.000002   0.000368
    30  H   -0.000000  -0.000000   0.000002  -0.000039   0.000009   0.002886
    31  H    0.000000   0.000000   0.000003  -0.000008   0.000004   0.000441
    32  H   -0.000000  -0.000002   0.000070   0.002039   0.009257  -0.003211
    33  H   -0.000000   0.000001  -0.000012   0.000451   0.000066   0.000164
    34  H    0.000000  -0.000000   0.000006   0.000227   0.000145   0.002684
              13         14         15         16         17         18
     1  C   -0.000000   0.000000   0.000000   0.000000   0.362503   0.364184
     2  C    0.000000   0.000000  -0.000000  -0.000000  -0.022960  -0.026939
     3  C    0.000000   0.000000   0.000000   0.000000  -0.002026   0.005442
     4  C   -0.000000  -0.000000   0.000000   0.000000  -0.002792  -0.006349
     5  O   -0.000000   0.000000   0.000000  -0.000000   0.002810   0.000237
     6  C    0.000002   0.000000  -0.000000  -0.000000   0.000098   0.000032
     7  O   -0.000000   0.000000   0.000000  -0.000000   0.000025   0.000042
     8  N   -0.000091   0.000037   0.000001   0.000004   0.000004  -0.000021
     9  N    0.003914  -0.000513  -0.000184  -0.000470   0.000001   0.000047
    10  C   -0.014396  -0.005187   0.003378  -0.005105   0.000000   0.000002
    11  O    0.002534  -0.009117   0.000197  -0.005923   0.000000  -0.000000
    12  O    0.175275  -0.041072  -0.045179  -0.041903  -0.000000  -0.000000
    13  C    4.581612   0.378548   0.404144   0.380339   0.000000   0.000000
    14  C    0.378548   5.201737  -0.073027  -0.063920  -0.000000  -0.000000
    15  C    0.404144  -0.073027   5.154184  -0.072634  -0.000000   0.000000
    16  C    0.380339  -0.063920  -0.072634   5.191245  -0.000000   0.000000
    17  H    0.000000  -0.000000  -0.000000  -0.000000   0.561445  -0.027039
    18  H    0.000000  -0.000000   0.000000   0.000000  -0.027039   0.560877
    19  H    0.000000  -0.000000  -0.000000  -0.000000  -0.027708  -0.030600
    20  H   -0.000000   0.000000  -0.000000   0.000000   0.001670  -0.000026
    21  H    0.000000  -0.000000  -0.000000  -0.000000   0.000129  -0.000059
    22  H   -0.000000   0.000000  -0.000000   0.000000  -0.000048  -0.000186
    23  H    0.000000   0.000000  -0.000000  -0.000000   0.001525   0.000117
    24  H   -0.000000   0.000000   0.000000   0.000000  -0.000020  -0.000044
    25  H    0.000000   0.000000   0.000000   0.000000   0.000148   0.004422
    26  H   -0.028027   0.361906  -0.006499   0.005542  -0.000000  -0.000000
    27  H   -0.024070   0.366568   0.005068  -0.004909  -0.000000   0.000000
    28  H   -0.024456   0.361310  -0.002847  -0.002312  -0.000000   0.000000
    29  H   -0.025299  -0.005884   0.362494   0.005989  -0.000000  -0.000000
    30  H   -0.026614  -0.002001   0.365760  -0.002006   0.000000   0.000000
    31  H   -0.025388   0.006016   0.362248  -0.005885   0.000000  -0.000000
    32  H   -0.024161  -0.005214   0.005170   0.366505   0.000000   0.000000
    33  H   -0.027893   0.005537  -0.006437   0.362225  -0.000000  -0.000000
    34  H   -0.024061  -0.002014  -0.003020   0.362385   0.000000   0.000000
              19         20         21         22         23         24
     1  C    0.366530  -0.002614  -0.004169   0.005631  -0.001616   0.005984
     2  C   -0.024126  -0.025158  -0.023586  -0.028017  -0.026407  -0.025480
     3  C   -0.005391   0.356029   0.366347   0.362201  -0.002236  -0.005822
     4  C    0.005431  -0.003530   0.004970  -0.006750   0.364191   0.362672
     5  O   -0.003098   0.002424  -0.001811  -0.000576   0.002916   0.000428
     6  C    0.002588   0.000579  -0.001834   0.001184  -0.000029   0.000097
     7  O    0.004165   0.000776   0.012133  -0.000333   0.000010  -0.000003
     8  N   -0.000033   0.000011   0.000154  -0.000039   0.000003  -0.000006
     9  N   -0.000007  -0.000000  -0.000013  -0.000013  -0.000001  -0.000008
    10  C   -0.000000  -0.000000   0.000000  -0.000000   0.000000  -0.000001
    11  O    0.000000   0.000000  -0.000000  -0.000000  -0.000000   0.000000
    12  O   -0.000000   0.000000  -0.000000   0.000000  -0.000000   0.000000
    13  C    0.000000  -0.000000   0.000000  -0.000000   0.000000  -0.000000
    14  C   -0.000000   0.000000  -0.000000   0.000000   0.000000   0.000000
    15  C   -0.000000  -0.000000  -0.000000  -0.000000  -0.000000   0.000000
    16  C   -0.000000   0.000000  -0.000000   0.000000  -0.000000   0.000000
    17  H   -0.027708   0.001670   0.000129  -0.000048   0.001525  -0.000020
    18  H   -0.030600  -0.000026  -0.000059  -0.000186   0.000117  -0.000044
    19  H    0.542434   0.000141   0.002551  -0.000026   0.000006  -0.000186
    20  H    0.000141   0.576614  -0.024708  -0.026905   0.002135   0.000056
    21  H    0.002551  -0.024708   0.495692  -0.028800   0.000000  -0.000045
    22  H   -0.000026  -0.026905  -0.028800   0.572725   0.000201   0.004482
    23  H    0.000006   0.002135   0.000000   0.000201   0.563489  -0.027029
    24  H   -0.000186   0.000056  -0.000045   0.004482  -0.027029   0.562264
    25  H   -0.000060   0.000017  -0.000181  -0.000044  -0.027677  -0.029789
    26  H   -0.000000   0.000000   0.000000   0.000000  -0.000000   0.000000
    27  H   -0.000000   0.000000   0.000000   0.000000  -0.000000   0.000000
    28  H    0.000000   0.000000   0.000000   0.000000  -0.000000   0.000000
    29  H   -0.000000   0.000000  -0.000000   0.000000  -0.000000   0.000000
    30  H    0.000000  -0.000000   0.000000   0.000000   0.000000  -0.000000
    31  H   -0.000000  -0.000000  -0.000000  -0.000000   0.000000  -0.000000
    32  H   -0.000000  -0.000000   0.000000  -0.000000  -0.000000  -0.000000
    33  H   -0.000000  -0.000000  -0.000000   0.000000   0.000000  -0.000000
    34  H    0.000000  -0.000000   0.000000  -0.000000   0.000000  -0.000000
              25         26         27         28         29         30
     1  C   -0.005957   0.000000   0.000000   0.000000   0.000000  -0.000000
     2  C   -0.025436  -0.000000  -0.000000  -0.000000  -0.000000   0.000000
     3  C    0.006020   0.000000   0.000000   0.000000   0.000000   0.000000
     4  C    0.362578   0.000000   0.000000   0.000000   0.000000   0.000000
     5  O    0.000312   0.000000   0.000000   0.000000  -0.000000   0.000000
     6  C   -0.000079  -0.000000  -0.000000   0.000000  -0.000000   0.000000
     7  O    0.000005  -0.000000  -0.000000  -0.000000  -0.000000  -0.000000
     8  N   -0.000002  -0.000008  -0.000006  -0.000000  -0.000000  -0.000000
     9  N    0.000037  -0.000001   0.000113   0.000006   0.000001   0.000002
    10  C    0.000002   0.000565   0.001080   0.000287  -0.000015  -0.000039
    11  O   -0.000000   0.000001   0.011295   0.000261   0.000002   0.000009
    12  O    0.000000  -0.000079  -0.002932   0.002593   0.000368   0.002886
    13  C    0.000000  -0.028027  -0.024070  -0.024456  -0.025299  -0.026614
    14  C    0.000000   0.361906   0.366568   0.361310  -0.005884  -0.002001
    15  C    0.000000  -0.006499   0.005068  -0.002847   0.362494   0.365760
    16  C    0.000000   0.005542  -0.004909  -0.002312   0.005989  -0.002006
    17  H    0.000148  -0.000000  -0.000000  -0.000000  -0.000000   0.000000
    18  H    0.004422  -0.000000   0.000000   0.000000  -0.000000   0.000000
    19  H   -0.000060  -0.000000  -0.000000   0.000000  -0.000000   0.000000
    20  H    0.000017   0.000000   0.000000   0.000000   0.000000  -0.000000
    21  H   -0.000181   0.000000   0.000000   0.000000  -0.000000   0.000000
    22  H   -0.000044   0.000000   0.000000   0.000000   0.000000   0.000000
    23  H   -0.027677  -0.000000  -0.000000  -0.000000  -0.000000   0.000000
    24  H   -0.029789   0.000000   0.000000   0.000000   0.000000  -0.000000
    25  H    0.559971  -0.000000  -0.000000   0.000000   0.000000   0.000000
    26  H   -0.000000   0.569565  -0.029548  -0.026792   0.004487   0.000176
    27  H   -0.000000  -0.029548   0.510053  -0.025544  -0.000059   0.000007
    28  H    0.000000  -0.026792  -0.025544   0.565639   0.000085   0.001832
    29  H    0.000000   0.004487  -0.000059   0.000085   0.560255  -0.027080
    30  H    0.000000   0.000176   0.000007   0.001832  -0.027080   0.559823
    31  H    0.000000  -0.000040  -0.000180  -0.000005  -0.029722  -0.027197
    32  H    0.000000  -0.000017   0.002384   0.000186  -0.000181   0.000014
    33  H   -0.000000  -0.000187  -0.000030  -0.000030  -0.000046   0.000162
    34  H    0.000000  -0.000034   0.000190   0.001499  -0.000005   0.001773
              31         32         33         34
     1  C   -0.000000   0.000000   0.000000  -0.000000
     2  C    0.000000  -0.000000   0.000000   0.000000
     3  C   -0.000000   0.000000  -0.000000   0.000000
     4  C   -0.000000   0.000000  -0.000000  -0.000000
     5  O    0.000000   0.000000   0.000000   0.000000
     6  C   -0.000000  -0.000000  -0.000000   0.000000
     7  O    0.000000  -0.000000  -0.000000   0.000000
     8  N    0.000000  -0.000002   0.000001  -0.000000
     9  N    0.000003   0.000070  -0.000012   0.000006
    10  C   -0.000008   0.002039   0.000451   0.000227
    11  O    0.000004   0.009257   0.000066   0.000145
    12  O    0.000441  -0.003211   0.000164   0.002684
    13  C   -0.025388  -0.024161  -0.027893  -0.024061
    14  C    0.006016  -0.005214   0.005537  -0.002014
    15  C    0.362248   0.005170  -0.006437  -0.003020
    16  C   -0.005885   0.366505   0.362225   0.362385
    17  H    0.000000   0.000000  -0.000000   0.000000
    18  H   -0.000000   0.000000  -0.000000   0.000000
    19  H   -0.000000  -0.000000  -0.000000   0.000000
    20  H   -0.000000  -0.000000  -0.000000  -0.000000
    21  H   -0.000000   0.000000  -0.000000   0.000000
    22  H   -0.000000  -0.000000   0.000000  -0.000000
    23  H    0.000000  -0.000000   0.000000   0.000000
    24  H   -0.000000  -0.000000  -0.000000  -0.000000
    25  H    0.000000   0.000000  -0.000000   0.000000
    26  H   -0.000040  -0.000017  -0.000187  -0.000034
    27  H   -0.000180   0.002384  -0.000030   0.000190
    28  H   -0.000005   0.000186  -0.000030   0.001499
    29  H   -0.029722  -0.000181  -0.000046  -0.000005
    30  H   -0.027197   0.000014   0.000162   0.001773
    31  H    0.560027  -0.000061   0.004452   0.000114
    32  H   -0.000061   0.521253  -0.029922  -0.026217
    33  H    0.004452  -0.029922   0.566516  -0.026580
    34  H    0.000114  -0.026217  -0.026580   0.562039
 Mulliken charges:
               1
     1  C   -0.460168
     2  C    0.314205
     3  C   -0.479903
     4  C   -0.450916
     5  O   -0.472483
     6  C    0.787819
     7  O   -0.450897
     8  N   -0.212420
     9  N   -0.205004
    10  C    0.772776
    11  O   -0.438263
    12  O   -0.486854
    13  C    0.318089
    14  C   -0.473709
    15  C   -0.452815
    16  C   -0.469165
    17  H    0.152238
    18  H    0.155859
    19  H    0.167389
    20  H    0.142489
    21  H    0.203231
    22  H    0.145314
    23  H    0.150400
    24  H    0.152450
    25  H    0.155713
    26  H    0.148990
    27  H    0.190519
    28  H    0.148290
    29  H    0.154612
    30  H    0.152491
    31  H    0.155181
    32  H    0.182109
    33  H    0.151563
    34  H    0.150871
 Sum of Mulliken charges =   0.00000
 Mulliken charges with hydrogens summed into heavy atoms:
               1
     1  C    0.015317
     2  C    0.314205
     3  C    0.011131
     4  C    0.007647
     5  O   -0.472483
     6  C    0.787819
     7  O   -0.450897
     8  N   -0.212420
     9  N   -0.205004
    10  C    0.772776
    11  O   -0.438263
    12  O   -0.486854
    13  C    0.318089
    14  C    0.014091
    15  C    0.009469
    16  C    0.015377
 APT charges:
               1
     1  C   -0.029935
     2  C    0.640942
     3  C   -0.066125
     4  C    0.014541
     5  O   -0.896343
     6  C    1.202346
     7  O   -0.649681
     8  N   -0.220009
     9  N   -0.218487
    10  C    1.277511
    11  O   -0.671018
    12  O   -0.963626
    13  C    0.685166
    14  C   -0.049926
    15  C    0.017931
    16  C   -0.051699
    17  H   -0.004080
    18  H   -0.010706
    19  H    0.003445
    20  H   -0.010793
    21  H    0.065422
    22  H   -0.017757
    23  H   -0.008529
    24  H   -0.015176
    25  H   -0.011898
    26  H   -0.015842
    27  H    0.036680
    28  H   -0.006238
    29  H   -0.012882
    30  H   -0.008163
    31  H   -0.012828
    32  H    0.027304
    33  H   -0.013831
    34  H   -0.005714
 Sum of APT charges =   0.00000
 APT charges with hydrogens summed into heavy atoms:
               1
     1  C   -0.041276
     2  C    0.640942
     3  C   -0.029253
     4  C   -0.021063
     5  O   -0.896343
     6  C    1.202346
     7  O   -0.649681
     8  N   -0.220009
     9  N   -0.218487
    10  C    1.277511
    11  O   -0.671018
    12  O   -0.963626
    13  C    0.685166
    14  C   -0.035327
    15  C   -0.015942
    16  C   -0.043940
 Electronic spatial extent (au):  <R**2>=           5678.4043
 Charge=              0.0000 electrons
 Dipole moment (field-independent basis, Debye):
    X=              0.7381    Y=              3.6840    Z=              0.0089  Tot=              3.7572
 Quadrupole moment (field-independent basis, Debye-Ang):
   XX=            -79.3299   YY=           -104.6288   ZZ=            -92.6359
   XY=             -2.3240   XZ=             -0.6441   YZ=             -0.6268
 Traceless Quadrupole moment (field-independent basis, Debye-Ang):
   XX=             12.8683   YY=            -12.4306   ZZ=             -0.4377
   XY=             -2.3240   XZ=             -0.6441   YZ=             -0.6268
 Octapole moment (field-independent basis, Debye-Ang**2):
  XXX=             25.1594  YYY=             15.0408  ZZZ=              0.4970  XYY=              1.2474
  XXY=             37.0774  XXZ=              1.8669  XZZ=             -0.6360  YZZ=             -4.9601
  YYZ=              1.9962  XYZ=             -0.6451
 Hexadecapole moment (field-independent basis, Debye-Ang**3):
 XXXX=          -5653.1501 YYYY=          -1011.4648 ZZZZ=           -449.5735 XXXY=            -38.2765
 XXXZ=            -18.6383 YYYX=             -7.8577 YYYZ=             -1.5719 ZZZX=              4.9372
 ZZZY=             -1.6144 XXYY=          -1209.0793 XXZZ=          -1085.3423 YYZZ=           -230.9106
 XXYZ=              3.9779 YYXZ=             -1.5469 ZZXY=              5.2419
 N-N= 1.158590326157D+03 E-N=-4.187643033704D+03  KE= 7.949856196445D+02
  Exact polarizability: 181.111   6.282 125.818   1.937   1.530 103.559
 Approx polarizability: 221.333  18.150 203.091   3.546   4.786 145.096
 Calling FoFJK, ICntrl=    100127 FMM=F ISym2X=0 I1Cent= 0 IOpClX= 0 NMat=1 NMatS=1 NMatT=0.
 ***** Axes restored to original set *****
 -------------------------------------------------------------------
 Center     Atomic                   Forces (Hartrees/Bohr)
 Number     Number              X              Y              Z
 -------------------------------------------------------------------
      1        6          -0.000629292    0.012684057    0.003966664
      2        6          -0.002082427   -0.018103672   -0.019824976
      3        6          -0.011737922    0.001965890   -0.001992676
      4        6           0.004973574    0.001114448    0.012105265
      5        8          -0.011185294    0.003352190    0.000438834
      6        6           0.003028381   -0.026756700   -0.074877964
      7        8           0.016106051    0.010758740    0.033321726
      8        7           0.002221466    0.011304984    0.037722883
      9        7          -0.005990556   -0.008244561   -0.032819434
     10        6           0.007142884    0.026558651    0.077256666
     11        8           0.011853340   -0.010126261   -0.018569270
     12        8          -0.014190109    0.001501822   -0.022234776
     13        6           0.010263593    0.003795602    0.025840409
     14        6          -0.011988213   -0.000247934   -0.000774763
     15        6           0.001269706   -0.007418080   -0.012070895
     16        6          -0.005666260    0.008369774   -0.008200519
     17        1          -0.000455364   -0.002306516    0.002169876
     18        1           0.000735747   -0.002428830    0.000034624
     19        1          -0.003540185   -0.000328989    0.000718435
     20        1           0.004616886   -0.001581109    0.001162890
     21        1           0.003770047   -0.003066168   -0.002312952
     22        1           0.001983387   -0.001967421   -0.000158371
     23        1          -0.002170292    0.003023332    0.000582872
     24        1          -0.001897268   -0.000057407   -0.000773052
     25        1           0.000107745    0.001240107   -0.001175229
     26        1           0.002845915   -0.000999333    0.000385919
     27        1           0.002077339    0.001973065   -0.000667598
     28        1           0.003167393   -0.000611690   -0.001933965
     29        1          -0.001417115    0.000292613    0.001281018
     30        1          -0.003315949    0.001750801   -0.001279175
     31        1          -0.000200653    0.001796106    0.000416409
     32        1          -0.002138492   -0.001885281    0.001314125
     33        1           0.002025560   -0.001877463    0.001114346
     34        1           0.000416376   -0.003474766   -0.000167347
 -------------------------------------------------------------------
 Cartesian Forces:  Max     0.077256666 RMS     0.014492831
 FormGI is forming the generalized inverse of G from B-inverse, IUseBI=4.

 GradGradGradGradGradGradGradGradGradGradGradGradGradGradGradGradGradGrad
 Berny optimization.
 Internal  Forces:  Max     0.050539179 RMS     0.009030503
 Search for a local minimum.
 Step number   1 out of a maximum of  170
 All quantities printed in internal units (Hartrees-Bohrs-Radians)
 Mixed Optimization -- RFO/linear search
 Second derivative matrix not updated -- analytic derivatives used.
 ITU=  0
     Eigenvalues ---   -0.00569  -0.00345  -0.00124   0.00155   0.00201
     Eigenvalues ---    0.00281   0.00290   0.00331   0.00338   0.00685
     Eigenvalues ---    0.00781   0.02596   0.04491   0.04527   0.04552
     Eigenvalues ---    0.04605   0.04606   0.04686   0.04697   0.04718
     Eigenvalues ---    0.04721   0.04749   0.04813   0.04870   0.04881
     Eigenvalues ---    0.04906   0.05753   0.05886   0.06763   0.06956
     Eigenvalues ---    0.07146   0.10064   0.11110   0.11380   0.11798
     Eigenvalues ---    0.12207   0.12225   0.12233   0.12249   0.12792
     Eigenvalues ---    0.12811   0.13348   0.13989   0.14200   0.14325
     Eigenvalues ---    0.14823   0.14876   0.15215   0.15230   0.15304
     Eigenvalues ---    0.15404   0.17745   0.17918   0.18774   0.19745
     Eigenvalues ---    0.20166   0.21655   0.23239   0.24841   0.26293
     Eigenvalues ---    0.26849   0.26964   0.27828   0.27866   0.29080
     Eigenvalues ---    0.29103   0.30225   0.31516   0.32557   0.33651
     Eigenvalues ---    0.33672   0.33815   0.33836   0.33858   0.33873
     Eigenvalues ---    0.33925   0.33935   0.34076   0.34229   0.34285
     Eigenvalues ---    0.34310   0.34579   0.34626   0.34857   0.35032
     Eigenvalues ---    0.35070   0.35149   0.35462   0.36237   0.49211
     Eigenvalues ---    0.54105   0.62047   0.78161   0.79152   0.80780
     Eigenvalues ---    0.86620
 RFO step:  Lambda=-3.53003841D-02 EMin=-5.69294501D-03
 Linear search not attempted -- first point.
 Maximum step size (   0.300) exceeded in Quadratic search.
    -- Step size scaled by   0.992
 Iteration  1 RMS(Cart)=  0.20132687 RMS(Int)=  0.04772333
 Iteration  2 RMS(Cart)=  0.17025608 RMS(Int)=  0.02440166
 Iteration  3 RMS(Cart)=  0.16464118 RMS(Int)=  0.00555493
 Iteration  4 RMS(Cart)=  0.01796528 RMS(Int)=  0.00045905
 Iteration  5 RMS(Cart)=  0.00013956 RMS(Int)=  0.00045700
 Iteration  6 RMS(Cart)=  0.00000004 RMS(Int)=  0.00045700
 Variable       Old X    -DE/DX   Delta X   Delta X   Delta X     New X
                                 (Linear)    (Quad)   (Total)
    R1        2.89888  -0.00157   0.00000  -0.00660  -0.00660   2.89228
    R2        2.06949  -0.00086   0.00000  -0.00080  -0.00080   2.06869
    R3        2.07167  -0.00017   0.00000  -0.00171  -0.00171   2.06995
    R4        2.06594   0.00173   0.00000  -0.00044  -0.00044   2.06550
    R5        2.89896   0.00363   0.00000   0.00072   0.00072   2.89968
    R6        2.90860  -0.00275   0.00000  -0.01539  -0.01539   2.89322
    R7        2.74755   0.00942   0.00000   0.03392   0.03392   2.78147
    R8        2.07020  -0.00017   0.00000  -0.00173  -0.00173   2.06847
    R9        2.06549  -0.00461   0.00000  -0.00322  -0.00322   2.06227
   R10        2.07113   0.00046   0.00000   0.00037   0.00037   2.07150
   R11        2.07183  -0.00214   0.00000  -0.00378  -0.00378   2.06805
   R12        2.07111  -0.00000   0.00000  -0.00164  -0.00164   2.06947
   R13        2.07128   0.00022   0.00000  -0.00134  -0.00134   2.06994
   R14        2.58367  -0.00746   0.00000  -0.06089  -0.06089   2.52278
   R15        2.31655  -0.02957   0.00000  -0.03610  -0.03610   2.28044
   R16        2.60383   0.05054   0.00000   0.09435   0.09435   2.69818
   R17        2.37285  -0.00136   0.00000  -0.01500  -0.01500   2.35785
   R18        2.60520   0.04556   0.00000   0.13546   0.13546   2.74067
   R19        2.31627  -0.02270   0.00000  -0.03858  -0.03858   2.27769
   R20        2.58151  -0.02151   0.00000  -0.06420  -0.06420   2.51731
   R21        2.74273   0.00429   0.00000   0.03195   0.03195   2.77467
   R22        2.89963   0.00045   0.00000  -0.00244  -0.00244   2.89719
   R23        2.90790  -0.00290   0.00000  -0.01352  -0.01352   2.89439
   R24        2.89962  -0.00050   0.00000  -0.00292  -0.00292   2.89670
   R25        2.07140   0.00029   0.00000  -0.00052  -0.00052   2.07087
   R26        2.06501  -0.00073   0.00000  -0.00181  -0.00181   2.06320
   R27        2.07009  -0.00075   0.00000  -0.00144  -0.00144   2.06865
   R28        2.07164  -0.00007   0.00000  -0.00199  -0.00199   2.06965
   R29        2.07131  -0.00214   0.00000  -0.00353  -0.00353   2.06778
   R30        2.07189  -0.00009   0.00000  -0.00219  -0.00219   2.06969
   R31        2.06544   0.00034   0.00000  -0.00108  -0.00108   2.06436
   R32        2.07147   0.00014   0.00000  -0.00095  -0.00095   2.07052
   R33        2.06969  -0.00080   0.00000  -0.00104  -0.00104   2.06865
    A1        1.94369  -0.00391   0.00000  -0.02570  -0.02595   1.91774
    A2        1.92925  -0.00030   0.00000  -0.00212  -0.00218   1.92706
    A3        1.96133  -0.00260   0.00000  -0.01730  -0.01744   1.94390
    A4        1.89224   0.00141   0.00000   0.00267   0.00250   1.89474
    A5        1.87544   0.00287   0.00000   0.01700   0.01669   1.89213
    A6        1.85826   0.00303   0.00000   0.02879   0.02884   1.88710
    A7        1.95914  -0.00349   0.00000   0.00439   0.00287   1.96201
    A8        1.88233   0.00912   0.00000   0.04154   0.04085   1.92317
    A9        1.93741  -0.00596   0.00000  -0.02003  -0.01959   1.91781
   A10        1.88342  -0.00287   0.00000   0.03044   0.02957   1.91298
   A11        1.94458   0.01136   0.00000  -0.01568  -0.01543   1.92915
   A12        1.85179  -0.00838   0.00000  -0.03930  -0.03874   1.81305
   A13        1.94231  -0.00643   0.00000  -0.02529  -0.02552   1.91678
   A14        1.96247   0.00211   0.00000  -0.01296  -0.01303   1.94944
   A15        1.93102  -0.00087   0.00000  -0.00740  -0.00753   1.92350
   A16        1.87360   0.00227   0.00000   0.02012   0.01995   1.89355
   A17        1.89148   0.00141   0.00000   0.00112   0.00083   1.89231
   A18        1.85927   0.00196   0.00000   0.02768   0.02771   1.88698
   A19        1.94554  -0.00438   0.00000  -0.02429  -0.02444   1.92110
   A20        1.93974  -0.00066   0.00000  -0.00446  -0.00453   1.93521
   A21        1.93894  -0.00029   0.00000  -0.00296  -0.00303   1.93592
   A22        1.88878   0.00191   0.00000   0.00650   0.00634   1.89512
   A23        1.88827   0.00189   0.00000   0.00673   0.00660   1.89487
   A24        1.85937   0.00193   0.00000   0.02099   0.02099   1.88036
   A25        2.09781   0.03437   0.00000  -0.01518  -0.01518   2.08263
   A26        2.16792   0.01894   0.00000   0.07993   0.07866   2.24657
   A27        1.91647   0.01892   0.00000  -0.01991  -0.02105   1.89542
   A28        2.19878  -0.03782   0.00000  -0.05942  -0.06045   2.13832
   A29        1.95607   0.02691   0.00000  -0.00829  -0.00829   1.94778
   A30        1.95659   0.00386   0.00000  -0.02039  -0.02039   1.93620
   A31        2.19691   0.00134   0.00000   0.00335   0.00334   2.20024
   A32        1.91570  -0.01775   0.00000  -0.06810  -0.06811   1.84759
   A33        2.17057   0.01638   0.00000   0.06472   0.06470   2.23527
   A34        2.09851   0.00605   0.00000   0.01223   0.01223   2.11075
   A35        1.94443   0.00237   0.00000  -0.00760  -0.00735   1.93708
   A36        1.84987  -0.00637   0.00000  -0.04167  -0.04126   1.80862
   A37        1.93902  -0.00083   0.00000  -0.01433  -0.01401   1.92501
   A38        1.88351   0.00257   0.00000   0.03348   0.03305   1.91656
   A39        1.95945  -0.00269   0.00000  -0.00541  -0.00667   1.95277
   A40        1.88220   0.00498   0.00000   0.03682   0.03639   1.91858
   A41        1.93077  -0.00092   0.00000  -0.00213  -0.00222   1.92855
   A42        1.96247  -0.00142   0.00000  -0.01298  -0.01309   1.94938
   A43        1.94234  -0.00446   0.00000  -0.02882  -0.02907   1.91327
   A44        1.85889   0.00305   0.00000   0.02793   0.02796   1.88685
   A45        1.89121   0.00134   0.00000   0.00103   0.00080   1.89200
   A46        1.87448   0.00292   0.00000   0.01823   0.01798   1.89245
   A47        1.93972  -0.00039   0.00000  -0.00503  -0.00510   1.93462
   A48        1.94639  -0.00478   0.00000  -0.02328  -0.02342   1.92297
   A49        1.93856  -0.00026   0.00000  -0.00413  -0.00419   1.93437
   A50        1.88878   0.00198   0.00000   0.00726   0.00711   1.89590
   A51        1.85858   0.00190   0.00000   0.02033   0.02035   1.87893
   A52        1.88855   0.00197   0.00000   0.00738   0.00725   1.89580
   A53        1.96123  -0.00220   0.00000  -0.01408  -0.01420   1.94704
   A54        1.92846  -0.00051   0.00000  -0.00038  -0.00045   1.92801
   A55        1.94360  -0.00425   0.00000  -0.02812  -0.02837   1.91524
   A56        1.85881   0.00316   0.00000   0.02783   0.02787   1.88668
[...]
     8    C    1  py     Ryd( 3p)     0.00217
     9    C    1  pz     Val( 2p)     1.14711
    10    C    1  pz     Ryd( 3p)     0.00185
    11    C    1  dxy    Ryd( 3d)     0.00029
    12    C    1  dxz    Ryd( 3d)     0.00063
    13    C    1  dyz    Ryd( 3d)     0.00048
    14    C    1  dx2y2  Ryd( 3d)     0.00106
    15    C    1  dz2    Ryd( 3d)     0.00082
 
    16    C    2  S      Cor( 1S)     1.99900
    17    C    2  S      Val( 2S)     0.91191
    18    C    2  S      Ryd( 3S)     0.00081
    19    C    2  S      Ryd( 4S)     0.00004
    20    C    2  px     Val( 2p)     0.69329
    21    C    2  px     Ryd( 3p)     0.00422
    22    C    2  py     Val( 2p)     1.04230
    23    C    2  py     Ryd( 3p)     0.00475
    24    C    2  pz     Val( 2p)     1.05568
    25    C    2  pz     Ryd( 3p)     0.00286
    26    C    2  dxy    Ryd( 3d)     0.00101
    27    C    2  dxz    Ryd( 3d)     0.00121
    28    C    2  dyz    Ryd( 3d)     0.00083
    29    C    2  dx2y2  Ryd( 3d)     0.00179
    30    C    2  dz2    Ryd( 3d)     0.00117
 
    31    C    3  S      Cor( 1S)     1.99932
    32    C    3  S      Val( 2S)     1.09989
    33    C    3  S      Ryd( 3S)     0.00051
    34    C    3  S      Ryd( 4S)     0.00002
    35    C    3  px     Val( 2p)     1.20932
    36    C    3  px     Ryd( 3p)     0.00141
    37    C    3  py     Val( 2p)     1.26382
    38    C    3  py     Ryd( 3p)     0.00236
    39    C    3  pz     Val( 2p)     1.12273
    40    C    3  pz     Ryd( 3p)     0.00165
    41    C    3  dxy    Ryd( 3d)     0.00034
    42    C    3  dxz    Ryd( 3d)     0.00051
    43    C    3  dyz    Ryd( 3d)     0.00066
    44    C    3  dx2y2  Ryd( 3d)     0.00101
    45    C    3  dz2    Ryd( 3d)     0.00076
 
    46    C    4  S      Cor( 1S)     1.99932
    47    C    4  S      Val( 2S)     1.09902
    48    C    4  S      Ryd( 3S)     0.00060
    49    C    4  S      Ryd( 4S)     0.00002
    50    C    4  px     Val( 2p)     1.24747
    51    C    4  px     Ryd( 3p)     0.00227
    52    C    4  py     Val( 2p)     1.07942
    53    C    4  py     Ryd( 3p)     0.00158
    54    C    4  pz     Val( 2p)     1.25112
    55    C    4  pz     Ryd( 3p)     0.00248
    56    C    4  dxy    Ryd( 3d)     0.00038
    57    C    4  dxz    Ryd( 3d)     0.00068
    58    C    4  dyz    Ryd( 3d)     0.00069
    59    C    4  dx2y2  Ryd( 3d)     0.00085
    60    C    4  dz2    Ryd( 3d)     0.00069
 
    61    O    5  S      Cor( 1S)     1.99970
    62    O    5  S      Val( 2S)     1.61523
    63    O    5  S      Ryd( 3S)     0.00231
    64    O    5  S      Ryd( 4S)     0.00015
    65    O    5  px     Val( 2p)     1.53914
    66    O    5  px     Ryd( 3p)     0.00143
    67    O    5  py     Val( 2p)     1.61311
    68    O    5  py     Ryd( 3p)     0.00165
    69    O    5  pz     Val( 2p)     1.76259
    70    O    5  pz     Ryd( 3p)     0.00198
    71    O    5  dxy    Ryd( 3d)     0.00137
    72    O    5  dxz    Ryd( 3d)     0.00041
    73    O    5  dyz    Ryd( 3d)     0.00162
    74    O    5  dx2y2  Ryd( 3d)     0.00136
    75    O    5  dz2    Ryd( 3d)     0.00082
 
    76    C    6  S      Cor( 1S)     1.99951
    77    C    6  S      Val( 2S)     0.72920
    78    C    6  S      Ryd( 3S)     0.00405
    79    C    6  S      Ryd( 4S)     0.00045
    80    C    6  px     Val( 2p)     0.80404
    81    C    6  px     Ryd( 3p)     0.00905
    82    C    6  py     Val( 2p)     0.70924
    83    C    6  py     Ryd( 3p)     0.02115
    84    C    6  pz     Val( 2p)     0.78060
    85    C    6  pz     Ryd( 3p)     0.00479
    86    C    6  dxy    Ryd( 3d)     0.00345
    87    C    6  dxz    Ryd( 3d)     0.00144
    88    C    6  dyz    Ryd( 3d)     0.00290
    89    C    6  dx2y2  Ryd( 3d)     0.00378
    90    C    6  dz2    Ryd( 3d)     0.00075
 
    91    O    7  S      Cor( 1S)     1.99976
    92    O    7  S      Val( 2S)     1.70717
    93    O    7  S      Ryd( 3S)     0.00085
    94    O    7  S      Ryd( 4S)     0.00013
    95    O    7  px     Val( 2p)     1.71233
    96    O    7  px     Ryd( 3p)     0.00112
    97    O    7  py     Val( 2p)     1.62160
    98    O    7  py     Ryd( 3p)     0.00071
    99    O    7  pz     Val( 2p)     1.48570
   100    O    7  pz     Ryd( 3p)     0.00070
   101    O    7  dxy    Ryd( 3d)     0.00500
   102    O    7  dxz    Ryd( 3d)     0.00133
   103    O    7  dyz    Ryd( 3d)     0.00407
   104    O    7  dx2y2  Ryd( 3d)     0.00490
   105    O    7  dz2    Ryd( 3d)     0.00161
 
   106    N    8  S      Cor( 1S)     1.99939
   107    N    8  S      Val( 2S)     1.39645
   108    N    8  S      Ryd( 3S)     0.00620
   109    N    8  S      Ryd( 4S)     0.00003
   110    N    8  px     Val( 2p)     1.12350
   111    N    8  px     Ryd( 3p)     0.00368
   112    N    8  py     Val( 2p)     1.45160
   113    N    8  py     Ryd( 3p)     0.00459
   114    N    8  pz     Val( 2p)     1.22905
   115    N    8  pz     Ryd( 3p)     0.00448
   116    N    8  dxy    Ryd( 3d)     0.00094
   117    N    8  dxz    Ryd( 3d)     0.00149
   118    N    8  dyz    Ryd( 3d)     0.00241
   119    N    8  dx2y2  Ryd( 3d)     0.00072
   120    N    8  dz2    Ryd( 3d)     0.00210
 
   121    N    9  S      Cor( 1S)     1.99939
   122    N    9  S      Val( 2S)     1.39645
   123    N    9  S      Ryd( 3S)     0.00620
   124    N    9  S      Ryd( 4S)     0.00003
   125    N    9  px     Val( 2p)     1.12350
   126    N    9  px     Ryd( 3p)     0.00368
   127    N    9  py     Val( 2p)     1.45160
   128    N    9  py     Ryd( 3p)     0.00459
   129    N    9  pz     Val( 2p)     1.22905
   130    N    9  pz     Ryd( 3p)     0.00448
   131    N    9  dxy    Ryd( 3d)     0.00094
   132    N    9  dxz    Ryd( 3d)     0.00149
   133    N    9  dyz    Ryd( 3d)     0.00241
   134    N    9  dx2y2  Ryd( 3d)     0.00072
   135    N    9  dz2    Ryd( 3d)     0.00210
 
   136    C   10  S      Cor( 1S)     1.99951
   137    C   10  S      Val( 2S)     0.72920
   138    C   10  S      Ryd( 3S)     0.00405
   139    C   10  S      Ryd( 4S)     0.00045
   140    C   10  px     Val( 2p)     0.80404
   141    C   10  px     Ryd( 3p)     0.00905
   142    C   10  py     Val( 2p)     0.70924
   143    C   10  py     Ryd( 3p)     0.02115
   144    C   10  pz     Val( 2p)     0.78061
   145    C   10  pz     Ryd( 3p)     0.00479
   146    C   10  dxy    Ryd( 3d)     0.00345
   147    C   10  dxz    Ryd( 3d)     0.00144
   148    C   10  dyz    Ryd( 3d)     0.00290
   149    C   10  dx2y2  Ryd( 3d)     0.00378
   150    C   10  dz2    Ryd( 3d)     0.00075
 
   151    O   11  S      Cor( 1S)     1.99976
   152    O   11  S      Val( 2S)     1.70717
   153    O   11  S      Ryd( 3S)     0.00085
   154    O   11  S      Ryd( 4S)     0.00013
   155    O   11  px     Val( 2p)     1.71233
   156    O   11  px     Ryd( 3p)     0.00112
   157    O   11  py     Val( 2p)     1.62160
   158    O   11  py     Ryd( 3p)     0.00071
   159    O   11  pz     Val( 2p)     1.48570
   160    O   11  pz     Ryd( 3p)     0.00070
   161    O   11  dxy    Ryd( 3d)     0.00500
   162    O   11  dxz    Ryd( 3d)     0.00133
   163    O   11  dyz    Ryd( 3d)     0.00407
   164    O   11  dx2y2  Ryd( 3d)     0.00490
   165    O   11  dz2    Ryd( 3d)     0.00161
 
   166    O   12  S      Cor( 1S)     1.99970
   167    O   12  S      Val( 2S)     1.61523
   168    O   12  S      Ryd( 3S)     0.00231
   169    O   12  S      Ryd( 4S)     0.00015
   170    O   12  px     Val( 2p)     1.53914
   171    O   12  px     Ryd( 3p)     0.00143
   172    O   12  py     Val( 2p)     1.61311
   173    O   12  py     Ryd( 3p)     0.00165
   174    O   12  pz     Val( 2p)     1.76259
   175    O   12  pz     Ryd( 3p)     0.00198
   176    O   12  dxy    Ryd( 3d)     0.00137
   177    O   12  dxz    Ryd( 3d)     0.00041
   178    O   12  dyz    Ryd( 3d)     0.00162
   179    O   12  dx2y2  Ryd( 3d)     0.00136
   180    O   12  dz2    Ryd( 3d)     0.00082
 
   181    C   13  S      Cor( 1S)     1.99900
   182    C   13  S      Val( 2S)     0.91191
   183    C   13  S      Ryd( 3S)     0.00081
   184    C   13  S      Ryd( 4S)     0.00004
   185    C   13  px     Val( 2p)     0.69329
   186    C   13  px     Ryd( 3p)     0.00422
   187    C   13  py     Val( 2p)     1.04230
   188    C   13  py     Ryd( 3p)     0.00475
   189    C   13  pz     Val( 2p)     1.05568
   190    C   13  pz     Ryd( 3p)     0.00286
   191    C   13  dxy    Ryd( 3d)     0.00101
   192    C   13  dxz    Ryd( 3d)     0.00121
   193    C   13  dyz    Ryd( 3d)     0.00083
   194    C   13  dx2y2  Ryd( 3d)     0.00179
   195    C   13  dz2    Ryd( 3d)     0.00117
 
   196    C   14  S      Cor( 1S)     1.99932
   197    C   14  S      Val( 2S)     1.09990
   198    C   14  S      Ryd( 3S)     0.00050
   199    C   14  S      Ryd( 4S)     0.00002
   200    C   14  px     Val( 2p)     1.22337
   201    C   14  px     Ryd( 3p)     0.00130
   202    C   14  py     Val( 2p)     1.22452
   203    C   14  py     Ryd( 3p)     0.00217
   204    C   14  pz     Val( 2p)     1.14711
   205    C   14  pz     Ryd( 3p)     0.00185
   206    C   14  dxy    Ryd( 3d)     0.00029
   207    C   14  dxz    Ryd( 3d)     0.00063
   208    C   14  dyz    Ryd( 3d)     0.00048
   209    C   14  dx2y2  Ryd( 3d)     0.00106
   210    C   14  dz2    Ryd( 3d)     0.00082
 
   211    C   15  S      Cor( 1S)     1.99932
   212    C   15  S      Val( 2S)     1.09902
   213    C   15  S      Ryd( 3S)     0.00060
   214    C   15  S      Ryd( 4S)     0.00002
   215    C   15  px     Val( 2p)     1.24747
   216    C   15  px     Ryd( 3p)     0.00227
   217    C   15  py     Val( 2p)     1.07942
   218    C   15  py     Ryd( 3p)     0.00158
   219    C   15  pz     Val( 2p)     1.25112
   220    C   15  pz     Ryd( 3p)     0.00248
   221    C   15  dxy    Ryd( 3d)     0.00038
   222    C   15  dxz    Ryd( 3d)     0.00068
   223    C   15  dyz    Ryd( 3d)     0.00069
   224    C   15  dx2y2  Ryd( 3d)     0.00085
   225    C   15  dz2    Ryd( 3d)     0.00069
 
   226    C   16  S      Cor( 1S)     1.99932
   227    C   16  S      Val( 2S)     1.09989
   228    C   16  S      Ryd( 3S)     0.00051
   229    C   16  S      Ryd( 4S)     0.00002
   230    C   16  px     Val( 2p)     1.20932
   231    C   16  px     Ryd( 3p)     0.00141
   232    C   16  py     Val( 2p)     1.26382
   233    C   16  py     Ryd( 3p)     0.00236
   234    C   16  pz     Val( 2p)     1.12273
   235    C   16  pz     Ryd( 3p)     0.00165
   236    C   16  dxy    Ryd( 3d)     0.00034
   237    C   16  dxz    Ryd( 3d)     0.00051
   238    C   16  dyz    Ryd( 3d)     0.00066
   239    C   16  dx2y2  Ryd( 3d)     0.00101
   240    C   16  dz2    Ryd( 3d)     0.00076
 
   241    H   17  S      Val( 1S)     0.75958
   242    H   17  S      Ryd( 2S)     0.00077
 
   243    H   18  S      Val( 1S)     0.75750
   244    H   18  S      Ryd( 2S)     0.00112
 
   245    H   19  S      Val( 1S)     0.74073
   246    H   19  S      Ryd( 2S)     0.00123
 
   247    H   20  S      Val( 1S)     0.75766
   248    H   20  S      Ryd( 2S)     0.00074
 
   249    H   21  S      Val( 1S)     0.74114
   250    H   21  S      Ryd( 2S)     0.00136
 
   251    H   22  S      Val( 1S)     0.75843
   252    H   22  S      Ryd( 2S)     0.00112
 
   253    H   23  S      Val( 1S)     0.76021
   254    H   23  S      Ryd( 2S)     0.00068
 
   255    H   24  S      Val( 1S)     0.75527
   256    H   24  S      Ryd( 2S)     0.00106
 
   257    H   25  S      Val( 1S)     0.75441
   258    H   25  S      Ryd( 2S)     0.00106
 
   259    H   26  S      Val( 1S)     0.75750
   260    H   26  S      Ryd( 2S)     0.00112
 
   261    H   27  S      Val( 1S)     0.74073
   262    H   27  S      Ryd( 2S)     0.00123
 
   263    H   28  S      Val( 1S)     0.75958
   264    H   28  S      Ryd( 2S)     0.00077
 
   265    H   29  S      Val( 1S)     0.75441
   266    H   29  S      Ryd( 2S)     0.00106
 
   267    H   30  S      Val( 1S)     0.76021
   268    H   30  S      Ryd( 2S)     0.00068
 
   269    H   31  S      Val( 1S)     0.75527
   270    H   31  S      Ryd( 2S)     0.00106
 
   271    H   32  S      Val( 1S)     0.74114
   272    H   32  S      Ryd( 2S)     0.00136
 
   273    H   33  S      Val( 1S)     0.75843
   274    H   33  S      Ryd( 2S)     0.00112
 
   275    H   34  S      Val( 1S)     0.75766
   276    H   34  S      Ryd( 2S)     0.00074

 WARNING:  1 low occupancy (<1.9990e) core orbital  found on  C    2
           1 low occupancy (<1.9990e) core orbital  found on  C   13


 Summary of Natural Population Analysis:                  
                                                          
                                       Natural Population 
                Natural  -----------------------------------------------
    Atom  No    Charge         Core      Valence    Rydberg      Total
 -----------------------------------------------------------------------
      C    1   -0.70333      1.99932     4.69491    0.00911     6.70333
      C    2    0.27913      1.99900     3.70317    0.01870     5.72087
      C    3   -0.70429      1.99932     4.69575    0.00922     6.70429
      C    4   -0.68657      1.99932     4.67703    0.01022     6.68657
      O    5   -0.54285      1.99970     6.53007    0.01309     8.54285
      C    6    0.92561      1.99951     3.02308    0.05180     5.07439
      O    7   -0.54697      1.99976     6.52679    0.02041     8.54697
      N    8   -0.22662      1.99939     5.20059    0.02664     7.22662
      N    9   -0.22662      1.99939     5.20059    0.02664     7.22662
      C   10    0.92561      1.99951     3.02308    0.05180     5.07439
      O   11   -0.54697      1.99976     6.52679    0.02041     8.54697
      O   12   -0.54286      1.99970     6.53007    0.01309     8.54286
      C   13    0.27913      1.99900     3.70317    0.01870     5.72087
      C   14   -0.70333      1.99932     4.69491    0.00911     6.70333
      C   15   -0.68657      1.99932     4.67703    0.01022     6.68657
      C   16   -0.70429      1.99932     4.69575    0.00922     6.70429
      H   17    0.23965      0.00000     0.75958    0.00077     0.76035
      H   18    0.24138      0.00000     0.75750    0.00112     0.75862
      H   19    0.25803      0.00000     0.74073    0.00123     0.74197
      H   20    0.24160      0.00000     0.75766    0.00074     0.75840
      H   21    0.25750      0.00000     0.74114    0.00136     0.74250
      H   22    0.24045      0.00000     0.75843    0.00112     0.75955
      H   23    0.23911      0.00000     0.76021    0.00068     0.76089
      H   24    0.24366      0.00000     0.75527    0.00106     0.75634
      H   25    0.24454      0.00000     0.75441    0.00106     0.75546
      H   26    0.24138      0.00000     0.75750    0.00112     0.75862
      H   27    0.25803      0.00000     0.74073    0.00123     0.74197
      H   28    0.23965      0.00000     0.75958    0.00077     0.76035
      H   29    0.24454      0.00000     0.75441    0.00106     0.75546
      H   30    0.23911      0.00000     0.76021    0.00068     0.76089
      H   31    0.24366      0.00000     0.75527    0.00106     0.75634
      H   32    0.25750      0.00000     0.74114    0.00136     0.74250
      H   33    0.24045      0.00000     0.75843    0.00112     0.75955
      H   34    0.24160      0.00000     0.75766    0.00074     0.75840
 =======================================================================
   * Total *   -0.00000     31.99065    91.67264    0.33671   124.00000

                                 Natural Population      
 --------------------------------------------------------
   Core                      31.99065 ( 99.9708% of  32)
   Valence                   91.67264 ( 99.6442% of  92)
   Natural Minimal Basis    123.66329 ( 99.7285% of 124)
   Natural Rydberg Basis      0.33671 (  0.2715% of 124)
 --------------------------------------------------------

    Atom  No          Natural Electron Configuration
 ----------------------------------------------------------------------------
      C    1      [core]2S( 1.10)2p( 3.60)3p( 0.01)
      C    2      [core]2S( 0.91)2p( 2.79)3p( 0.01)3d( 0.01)
      C    3      [core]2S( 1.10)2p( 3.60)3p( 0.01)
      C    4      [core]2S( 1.10)2p( 3.58)3p( 0.01)
      O    5      [core]2S( 1.62)2p( 4.91)3p( 0.01)3d( 0.01)
      C    6      [core]2S( 0.73)2p( 2.29)3p( 0.03)3d( 0.01)
      O    7      [core]2S( 1.71)2p( 4.82)3d( 0.02)
      N    8      [core]2S( 1.40)2p( 3.80)3S( 0.01)3p( 0.01)3d( 0.01)
      N    9      [core]2S( 1.40)2p( 3.80)3S( 0.01)3p( 0.01)3d( 0.01)
      C   10      [core]2S( 0.73)2p( 2.29)3p( 0.03)3d( 0.01)
      O   11      [core]2S( 1.71)2p( 4.82)3d( 0.02)
      O   12      [core]2S( 1.62)2p( 4.91)3p( 0.01)3d( 0.01)
      C   13      [core]2S( 0.91)2p( 2.79)3p( 0.01)3d( 0.01)
      C   14      [core]2S( 1.10)2p( 3.60)3p( 0.01)
      C   15      [core]2S( 1.10)2p( 3.58)3p( 0.01)
      C   16      [core]2S( 1.10)2p( 3.60)3p( 0.01)
      H   17            1S( 0.76)
      H   18            1S( 0.76)
      H   19            1S( 0.74)
      H   20            1S( 0.76)
      H   21            1S( 0.74)
      H   22            1S( 0.76)
      H   23            1S( 0.76)
      H   24            1S( 0.76)
      H   25            1S( 0.75)
      H   26            1S( 0.76)
      H   27            1S( 0.74)
      H   28            1S( 0.76)
      H   29            1S( 0.75)
      H   30            1S( 0.76)
      H   31            1S( 0.76)
      H   32            1S( 0.74)
      H   33            1S( 0.76)
      H   34            1S( 0.76)


 NBO analysis skipped by request.
 1\1\GINC-DELLA-R2C1N11\SP\RB3LYP TD-FC\6-31G(d)\C10H18N2O4\BJS4\22-Aug
 -2020\0\\# TD(NStates=10, Root=1) B3LYP/6-31G* scf=qc volume pop=NPA d
 ensity=current Geom=AllCheck Guess=Read\\Title Card Required\\0,1\C,0,
 5.622802473,0.1377535149,-1.279658115\C,0,5.6863956343,-0.9622110607,-
 0.2175406415\C,0,4.4305989067,-1.8365972245,-0.1964499108\C,0,6.949851
 8239,-1.8090306181,-0.3709515336\O,0,5.8809737326,-0.3420810675,1.1223
 427637\C,0,4.9741201156,0.4765327759,1.6398246101\O,0,3.9231673857,0.8
 540690907,1.1834582611\N,0,5.3555321963,0.8218516286,2.9998264138\N,0,
 6.2057947478,1.7299398188,3.0487007324\C,0,6.5011563202,2.1559076258,4
 .4072433295\O,0,6.0483942294,3.1877394167,4.8380973872\O,0,7.367112921
 2,1.3129389383,4.9548037596\C,0,7.9490881854,1.5699752291,6.3012608584
 \C,0,6.8283076942,1.5800722976,7.3432823539\C,0,8.8727796491,0.3668724
 026,6.4917797287\C,0,8.7408365079,2.8792946004,6.2722990874\H,0,5.6023
 658762,-0.3201873167,-2.2747986868\H,0,6.5078271361,0.7797585117,-1.21
 82308167\H,0,4.7296499598,0.7537570816,-1.1609294542\H,0,4.3521132866,
 -2.3797986552,-1.144656235\H,0,3.5289796955,-1.235723257,-0.0645615462
 \H,0,4.4896687915,-2.5725966921,0.6124960187\H,0,6.9352601189,-2.32756
 85614,-1.3352335424\H,0,7.0140822648,-2.5576136843,0.4249899448\H,0,7.
 8447414898,-1.1803941717,-0.327912192\H,0,6.2459778218,0.6543642667,7.
 2869890568\H,0,6.1581872439,2.4292594125,7.1980304187\H,0,7.265924798,
 1.6470051894,8.3455016295\H,0,8.3040928621,-0.5675002515,6.4542730308\
 H,0,9.3717921645,0.4313806612,7.4642814017\H,0,9.6382020842,0.33785846
 59,5.7099154909\H,0,8.0855028522,3.7376877787,6.1139948768\H,0,9.49360
 53376,2.8543933272,5.4771280315\H,0,9.2606236933,3.0088805264,7.227993
 4881\\Version=ES64L-G16RevA.03\State=1-A\HF=-802.2806175\RMSD=3.500e-0
 9\Dipole=1.2314043,-1.1541544,0.0208855\Quadrupole=-6.0624713,-5.30387
 39,11.3663452,4.6785536,3.9902225,4.6510133\PG=C01 [X(C10H18N2O4)]\\@


 MY GROUP MEETINGS AREN'T VERY STRUCTURED.
     -- PROF. M. S. GORDON, OCT. 5, 1984
 Job cpu time:       0 days  0 hours 31 minutes 34.7 seconds.
 Elapsed time:       0 days  0 hours  6 minutes 20.2 seconds.
 File lengths (MBytes):  RWF=    679 Int=      0 D2E=      0 Chk=    268 Scr=      1
 Normal termination of Gaussian 16 at Sat Aug 22 14:24:50 2020.
