 Entering Gaussian System, Link 0=g16
 Input=azadicarboxylate_4_conf13123.com
 Output=azadicarboxylate_4_conf13123.log
 Initial command:
 /opt/export//g16/l1.exe "/scratch/bjs4/job.41103/Gau-41105.inp" -scrdir="/scratch/bjs4/job.41103/"
 Entering Link 1 = /opt/export//g16/l1.exe PID=     41106.
  
 Copyright (c) 1988,1990,1992,1993,1995,1998,2003,2009,2016,
            Gaussian, Inc.  All Rights Reserved.
  
 This is part of the Gaussian(R) 16 program.  It is based on
 the Gaussian(R) 09 system (copyright 2009, Gaussian, Inc.),
 the Gaussian(R) 03 system (copyright 2003, Gaussian, Inc.),
 the Gaussian(R) 98 system (copyright 1998, Gaussian, Inc.),
 the Gaussian(R) 94 system (copyright 1995, Gaussian, Inc.),
 the Gaussian 92(TM) system (copyright 1992, Gaussian, Inc.),
 the Gaussian 90(TM) system (copyright 1990, Gaussian, Inc.),
 the Gaussian 88(TM) system (copyright 1988, Gaussian, Inc.),
 the Gaussian 86(TM) system (copyright 1986, Carnegie Mellon
 University), and the Gaussian 82(TM) system (copyright 1983,
 Carnegie Mellon University). Gaussian is a federally registered
 trademark of Gaussian, Inc.
  
 This software contains proprietary and confidential information,
 including trade secrets, belonging to Gaussian, Inc.
  
 This software is provided under written license and may be
 used, copied, transmitted, or stored only in accord with that
 written license.
  
 The following legend is applicable only to US Government
 contracts under FAR:
  
                    RESTRICTED RIGHTS LEGEND
  
 Use, reproduction and disclosure by the US Government is
 subject to restrictions as set forth in subparagraphs (a)
 and (c) of the Commercial Computer Software - Restricted
 Rights clause in FAR 52.227-19.
  
 Gaussian, Inc.
 340 Quinnipiac St., Bldg. 40, Wallingford CT 06492
  
  
 ---------------------------------------------------------------
 Warning -- This program may not be used in any manner that
 competes with the business of Gaussian, Inc. or will provide
 assistance to any competitor of Gaussian, Inc.  The licensee
 of this program is prohibited from giving any competitor of
 Gaussian, Inc. access to this program.  By using this program,
 the user acknowledges that Gaussian, Inc. is engaged in the
 business of creating and licensing software in the field of
 computational chemistry and represents and warrants to the
 licensee that it is not a competitor of Gaussian, Inc. and that
 it will not use this program in any manner prohibited above.
 ---------------------------------------------------------------
  

 Cite this work as:
 Gaussian 16, Revision A.03,
 M. J. Frisch, G. W. Trucks, H. B. Schlegel, G. E. Scuseria, 
 M. A. Robb, J. R. Cheeseman, G. Scalmani, V. Barone, 
 G. A. Petersson, H. Nakatsuji, X. Li, M. Caricato, A. V. Marenich, 
 J. Bloino, B. G. Janesko, R. Gomperts, B. Mennucci, H. P. Hratchian, 
 J. V. Ortiz, A. F. Izmaylov, J. L. Sonnenberg, D. Williams-Young, 
 F. Ding, F. Lipparini, F. Egidi, J. Goings, B. Peng, A. Petrone, 
 T. Henderson, D. Ranasinghe, V. G. Zakrzewski, J. Gao, N. Rega, 
 G. Zheng, W. Liang, M. Hada, M. Ehara, K. Toyota, R. Fukuda, 
 J. Hasegawa, M. Ishida, T. Nakajima, Y. Honda, O. Kitao, H. Nakai, 
 T. Vreven, K. Throssell, J. A. Montgomery, Jr., J. E. Peralta, 
 F. Ogliaro, M. J. Bearpark, J. J. Heyd, E. N. Brothers, K. N. Kudin, 
 V. N. Staroverov, T. A. Keith, R. Kobayashi, J. Normand, 
 K. Raghavachari, A. P. Rendell, J. C. Burant, S. S. Iyengar, 
 J. Tomasi, M. Cossi, J. M. Millam, M. Klene, C. Adamo, R. Cammi, 
 J. W. Ochterski, R. L. Martin, K. Morokuma, O. Farkas, 
 J. B. Foresman, and D. J. Fox, Gaussian, Inc., Wallingford CT, 2016.
 
 ******************************************
 Gaussian 16:  ES64L-G16RevA.03 25-Dec-2016
                22-Aug-2020 
 ******************************************
 %nprocshared=5
 Will use up to    5 processors via shared memory.
 %Mem=10GB
 %Chk=azadicarboxylate_4_conf131.chk
 ---------------------------------
 # opt=CalcAll B3LYP/6-31G* scf=qc
 ---------------------------------
 1/10=4,18=20,19=15,26=3,38=1/1,3;
 2/9=110,12=2,17=6,18=5,40=1/2;
 3/5=1,6=6,7=1,11=2,25=1,30=1,71=2,74=-5,140=1/1,2,3;
 4//1;
 5/5=2,8=3,38=5/8;
 8/6=4,10=90,11=11/1;
 11/6=1,8=1,9=11,15=111,16=1/1,2,10;
 10/6=1/2;
 6/7=2,8=2,9=2,10=2,18=1,28=1/1;
 7/10=1,25=1/1,2,3,16;
 1/10=4,18=20,19=15,26=3/3(3);
 2/9=110/2;
 7/8=1,9=1,25=1,44=-1/16;
 99//99;
 2/9=110/2;
 3/5=1,6=6,7=1,11=2,25=1,30=1,71=2,74=-5,140=1/1,2,3;
 4/5=5,16=3,69=1/1;
 5/5=2,8=3,38=5/8;
 8/6=4,10=90,11=11/1;
 11/6=1,8=1,9=11,15=111,16=1/1,2,10;
 10/6=1/2;
 7/10=1,25=1/1,2,3,16;
 1/10=4,18=20,19=15,26=3/3(-8);
 2/9=110/2;
 6/7=2,8=2,9=2,10=2,18=1,19=2,28=1/1;
 7/8=1,9=1,25=1,44=-1/16;
 99//99;
 -------------------
 Title Card Required
 -------------------
 Symbolic Z-matrix:
 Charge =  0 Multiplicity = 1
 C                    -4.25335  -0.92057  -1.93239 
 C                    -5.59736  -0.71185  -1.27314 
 O1                   -5.86875   0.68715  -1.10848 
 C2                   -5.0001    1.3961   -0.3376 
 O3                   -4.0166    0.9144    0.2138 
 N4                   -5.3965    2.7153   -0.3106 
 N5                   -6.637     2.8452   -0.4364 
 C6                   -7.0368    4.1615   -0.3722 
 O7                   -6.38476   5.14408  -0.71049 
 O8                   -8.28794   4.22093   0.16027 
 C                    -8.86003   5.52544   0.32713 
 C                    -8.33151   6.18553   1.5801 
 C                    -7.63049   7.39946   1.53186 
 C                    -7.16126   7.99729   2.70364 
 C                    -7.40253   7.39931   3.93858 
 C                    -8.12354   6.20955   4.0044 
 C                    -8.59016   5.60888   2.83337 
 C                    -3.2032   -0.00569  -1.76466 
 C                    -1.96533  -0.22387  -2.37386 
 C                    -1.75605  -1.36698  -3.14222 
 C                    -2.77995  -2.29914  -3.29242 
 C                    -4.01919  -2.08078  -2.68681 
 H                    -5.57017  -1.16235  -0.27476 
 H                    -6.37793  -1.22731  -1.84358 
 H                    -9.95484   5.50517   0.34888 
 H                    -8.56136   6.12926  -0.53758 
 H                    -7.43863   7.88758   0.57828 
 H                    -6.60636   8.93057   2.6517 
 H                    -7.03173   7.86253   4.84949 
 H                    -8.32151   5.74743   4.96828 
 H                    -9.15504   4.68152   2.90743 
 H                    -3.34317   0.8892   -1.1618 
 H                    -1.16414   0.50004  -2.24846 
 H                    -0.7943   -1.53266  -3.62069 
 H                    -2.61454  -3.19662  -3.88306 
 H                    -4.80414  -2.82366  -2.81345 
 

 GradGradGradGradGradGradGradGradGradGradGradGradGradGradGradGradGradGrad
 Berny optimization.
 Initialization pass.
                           ----------------------------
                           !    Initial Parameters    !
                           ! (Angstroms and Degrees)  !
 --------------------------                            --------------------------
 ! Name  Definition              Value          Derivative Info.                !
 --------------------------------------------------------------------------------
 ! R1    R(1,2)                  1.5115         calculate D2E/DX2 analytically  !
 ! R2    R(1,18)                 1.4028         calculate D2E/DX2 analytically  !
 ! R3    R(1,22)                 1.4036         calculate D2E/DX2 analytically  !
 ! R4    R(2,3)                  1.4346         calculate D2E/DX2 analytically  !
 ! R5    R(2,23)                 1.0957         calculate D2E/DX2 analytically  !
 ! R6    R(2,24)                 1.0956         calculate D2E/DX2 analytically  !
 ! R7    R(3,4)                  1.3607         calculate D2E/DX2 analytically  !
 ! R8    R(4,5)                  1.2261         calculate D2E/DX2 analytically  !
 ! R9    R(4,6)                  1.3777         calculate D2E/DX2 analytically  !
 ! R10   R(6,7)                  1.2536         calculate D2E/DX2 analytically  !
 ! R11   R(7,8)                  1.3772         calculate D2E/DX2 analytically  !
 ! R12   R(8,9)                  1.2268         calculate D2E/DX2 analytically  !
 ! R13   R(8,10)                 1.361          calculate D2E/DX2 analytically  !
 ! R14   R(10,11)                1.4342         calculate D2E/DX2 analytically  !
 ! R15   R(11,12)                1.5116         calculate D2E/DX2 analytically  !
 ! R16   R(11,25)                1.0952         calculate D2E/DX2 analytically  !
 ! R17   R(11,26)                1.0961         calculate D2E/DX2 analytically  !
 ! R18   R(12,13)                1.4026         calculate D2E/DX2 analytically  !
 ! R19   R(12,17)                1.4036         calculate D2E/DX2 analytically  !
 ! R20   R(13,14)                1.3967         calculate D2E/DX2 analytically  !
 ! R21   R(13,27)                1.0883         calculate D2E/DX2 analytically  !
 ! R22   R(14,15)                1.3932         calculate D2E/DX2 analytically  !
 ! R23   R(14,28)                1.087          calculate D2E/DX2 analytically  !
 ! R24   R(15,16)                1.3927         calculate D2E/DX2 analytically  !
 ! R25   R(15,29)                1.0871         calculate D2E/DX2 analytically  !
 ! R26   R(16,17)                1.3964         calculate D2E/DX2 analytically  !
 ! R27   R(16,30)                1.0871         calculate D2E/DX2 analytically  !
 ! R28   R(17,31)                1.0884         calculate D2E/DX2 analytically  !
 ! R29   R(18,19)                1.3968         calculate D2E/DX2 analytically  !
 ! R30   R(18,32)                1.0881         calculate D2E/DX2 analytically  !
 ! R31   R(19,20)                1.3932         calculate D2E/DX2 analytically  !
 ! R32   R(19,33)                1.087          calculate D2E/DX2 analytically  !
 ! R33   R(20,21)                1.3928         calculate D2E/DX2 analytically  !
 ! R34   R(20,34)                1.0869         calculate D2E/DX2 analytically  !
 ! R35   R(21,22)                1.3965         calculate D2E/DX2 analytically  !
 ! R36   R(21,35)                1.0871         calculate D2E/DX2 analytically  !
 ! R37   R(22,36)                1.0881         calculate D2E/DX2 analytically  !
 ! A1    A(2,1,18)             121.5636         calculate D2E/DX2 analytically  !
 ! A2    A(2,1,22)             119.7969         calculate D2E/DX2 analytically  !
 ! A3    A(18,1,22)            118.5847         calculate D2E/DX2 analytically  !
 ! A4    A(1,2,3)              110.6679         calculate D2E/DX2 analytically  !
 ! A5    A(1,2,23)             108.5781         calculate D2E/DX2 analytically  !
 ! A6    A(1,2,24)             109.9654         calculate D2E/DX2 analytically  !
 ! A7    A(3,2,23)             107.5226         calculate D2E/DX2 analytically  !
 ! A8    A(3,2,24)             112.5687         calculate D2E/DX2 analytically  !
 ! A9    A(23,2,24)            107.3775         calculate D2E/DX2 analytically  !
 ! A10   A(2,3,4)              116.8959         calculate D2E/DX2 analytically  !
 ! A11   A(3,4,5)              124.2057         calculate D2E/DX2 analytically  !
 ! A12   A(3,4,6)              109.0454         calculate D2E/DX2 analytically  !
 ! A13   A(5,4,6)              126.7376         calculate D2E/DX2 analytically  !
 ! A14   A(4,6,7)              112.4552         calculate D2E/DX2 analytically  !
 ! A15   A(6,7,8)              112.4347         calculate D2E/DX2 analytically  !
 ! A16   A(7,8,9)              126.7534         calculate D2E/DX2 analytically  !
 ! A17   A(7,8,10)             109.077          calculate D2E/DX2 analytically  !
 ! A18   A(9,8,10)             124.1586         calculate D2E/DX2 analytically  !
 ! A19   A(8,10,11)            116.8672         calculate D2E/DX2 analytically  !
 ! A20   A(10,11,12)           110.7422         calculate D2E/DX2 analytically  !
 ! A21   A(10,11,25)           112.5957         calculate D2E/DX2 analytically  !
 ! A22   A(10,11,26)           107.4927         calculate D2E/DX2 analytically  !
 ! A23   A(12,11,25)           109.9458         calculate D2E/DX2 analytically  !
 ! A24   A(12,11,26)           108.5463         calculate D2E/DX2 analytically  !
 ! A25   A(25,11,26)           107.3516         calculate D2E/DX2 analytically  !
 ! A26   A(11,12,13)           121.6122         calculate D2E/DX2 analytically  !
 ! A27   A(11,12,17)           119.7543         calculate D2E/DX2 analytically  !
 ! A28   A(13,12,17)           118.579          calculate D2E/DX2 analytically  !
 ! A29   A(12,13,14)           120.6315         calculate D2E/DX2 analytically  !
 ! A30   A(12,13,27)           120.4257         calculate D2E/DX2 analytically  !
 ! A31   A(14,13,27)           118.9418         calculate D2E/DX2 analytically  !
 ! A32   A(13,14,15)           120.1191         calculate D2E/DX2 analytically  !
 ! A33   A(13,14,28)           119.9284         calculate D2E/DX2 analytically  !
 ! A34   A(15,14,28)           119.9525         calculate D2E/DX2 analytically  !
 ! A35   A(14,15,16)           119.8824         calculate D2E/DX2 analytically  !
 ! A36   A(14,15,29)           120.0525         calculate D2E/DX2 analytically  !
 ! A37   A(16,15,29)           120.0647         calculate D2E/DX2 analytically  !
 ! A38   A(15,16,17)           120.0553         calculate D2E/DX2 analytically  !
 ! A39   A(15,16,30)           119.9547         calculate D2E/DX2 analytically  !
 ! A40   A(17,16,30)           119.9899         calculate D2E/DX2 analytically  !
 ! A41   A(12,17,16)           120.6969         calculate D2E/DX2 analytically  !
 ! A42   A(12,17,31)           120.4278         calculate D2E/DX2 analytically  !
 ! A43   A(16,17,31)           118.8747         calculate D2E/DX2 analytically  !
 ! A44   A(1,18,19)            120.6238         calculate D2E/DX2 analytically  !
 ! A45   A(1,18,32)            120.4198         calculate D2E/DX2 analytically  !
 ! A46   A(19,18,32)           118.9554         calculate D2E/DX2 analytically  !
 ! A47   A(18,19,20)           120.1215         calculate D2E/DX2 analytically  !
 ! A48   A(18,19,33)           119.9232         calculate D2E/DX2 analytically  !
 ! A49   A(20,19,33)           119.9552         calculate D2E/DX2 analytically  !
 ! A50   A(19,20,21)           119.8809         calculate D2E/DX2 analytically  !
 ! A51   A(19,20,34)           120.0522         calculate D2E/DX2 analytically  !
 ! A52   A(21,20,34)           120.0665         calculate D2E/DX2 analytically  !
 ! A53   A(20,21,22)           120.0629         calculate D2E/DX2 analytically  !
 ! A54   A(20,21,35)           119.9532         calculate D2E/DX2 analytically  !
 ! A55   A(22,21,35)           119.9838         calculate D2E/DX2 analytically  !
 ! A56   A(1,22,21)            120.6898         calculate D2E/DX2 analytically  !
 ! A57   A(1,22,36)            120.4332         calculate D2E/DX2 analytically  !
 ! A58   A(21,22,36)           118.8763         calculate D2E/DX2 analytically  !
 ! D1    D(18,1,2,3)            29.6477         calculate D2E/DX2 analytically  !
 ! D2    D(18,1,2,23)          -88.145          calculate D2E/DX2 analytically  !
 ! D3    D(18,1,2,24)          154.6396         calculate D2E/DX2 analytically  !
 ! D4    D(22,1,2,3)          -153.0822         calculate D2E/DX2 analytically  !
 ! D5    D(22,1,2,23)           89.1251         calculate D2E/DX2 analytically  !
 ! D6    D(22,1,2,24)          -28.0903         calculate D2E/DX2 analytically  !
 ! D7    D(2,1,18,19)          179.4487         calculate D2E/DX2 analytically  !
 ! D8    D(2,1,18,32)           -0.9254         calculate D2E/DX2 analytically  !
 ! D9    D(22,1,18,19)           2.1465         calculate D2E/DX2 analytically  !
 ! D10   D(22,1,18,32)        -178.2277         calculate D2E/DX2 analytically  !
 ! D11   D(2,1,22,21)         -179.3347         calculate D2E/DX2 analytically  !
 ! D12   D(2,1,22,36)            0.9788         calculate D2E/DX2 analytically  !
 ! D13   D(18,1,22,21)          -1.9836         calculate D2E/DX2 analytically  !
 ! D14   D(18,1,22,36)         178.3299         calculate D2E/DX2 analytically  !
 ! D15   D(1,2,3,4)            -60.7062         calculate D2E/DX2 analytically  !
 ! D16   D(23,2,3,4)            57.7303         calculate D2E/DX2 analytically  !
 ! D17   D(24,2,3,4)           175.7904         calculate D2E/DX2 analytically  !
 ! D18   D(2,3,4,5)              0.0003         calculate D2E/DX2 analytically  !
 ! D19   D(2,3,4,6)            178.8515         calculate D2E/DX2 analytically  !
 ! D20   D(3,4,6,7)             29.647          calculate D2E/DX2 analytically  !
 ! D21   D(5,4,6,7)           -151.5385         calculate D2E/DX2 analytically  !
 ! D22   D(4,6,7,8)            178.3141         calculate D2E/DX2 analytically  !
 ! D23   D(6,7,8,9)             29.6471         calculate D2E/DX2 analytically  !
 ! D24   D(6,7,8,10)          -149.1785         calculate D2E/DX2 analytically  !
 ! D25   D(7,8,10,11)          178.8631         calculate D2E/DX2 analytically  !
 ! D26   D(9,8,10,11)            0.0002         calculate D2E/DX2 analytically  !
 ! D27   D(8,10,11,12)         -80.4706         calculate D2E/DX2 analytically  !
 ! D28   D(8,10,11,25)         155.9762         calculate D2E/DX2 analytically  !
 ! D29   D(8,10,11,26)          37.9514         calculate D2E/DX2 analytically  !
 ! D30   D(10,11,12,13)        119.9999         calculate D2E/DX2 analytically  !
 ! D31   D(10,11,12,17)        -62.7246         calculate D2E/DX2 analytically  !
 ! D32   D(25,11,12,13)       -114.9349         calculate D2E/DX2 analytically  !
 ! D33   D(25,11,12,17)         62.3405         calculate D2E/DX2 analytically  !
 ! D34   D(26,11,12,13)          2.2198         calculate D2E/DX2 analytically  !
 ! D35   D(26,11,12,17)        179.4953         calculate D2E/DX2 analytically  !
 ! D36   D(11,12,13,14)        179.4383         calculate D2E/DX2 analytically  !
 ! D37   D(11,12,13,27)         -0.9229         calculate D2E/DX2 analytically  !
 ! D38   D(17,12,13,14)          2.1318         calculate D2E/DX2 analytically  !
 ! D39   D(17,12,13,27)       -178.2294         calculate D2E/DX2 analytically  !
 ! D40   D(11,12,17,16)       -179.3178         calculate D2E/DX2 analytically  !
 ! D41   D(11,12,17,31)          0.9754         calculate D2E/DX2 analytically  !
 ! D42   D(13,12,17,16)         -1.9599         calculate D2E/DX2 analytically  !
 ! D43   D(13,12,17,31)        178.3333         calculate D2E/DX2 analytically  !
 ! D44   D(12,13,14,15)         -0.8829         calculate D2E/DX2 analytically  !
 ! D45   D(12,13,14,28)        179.0841         calculate D2E/DX2 analytically  !
 ! D46   D(27,13,14,15)        179.473          calculate D2E/DX2 analytically  !
 ! D47   D(27,13,14,28)         -0.5601         calculate D2E/DX2 analytically  !
 ! D48   D(13,14,15,16)         -0.5836         calculate D2E/DX2 analytically  !
 ! D49   D(13,14,15,29)        179.6386         calculate D2E/DX2 analytically  !
 ! D50   D(28,14,15,16)        179.4494         calculate D2E/DX2 analytically  !
 ! D51   D(28,14,15,29)         -0.3284         calculate D2E/DX2 analytically  !
 ! D52   D(14,15,16,17)          0.7555         calculate D2E/DX2 analytically  !
 ! D53   D(14,15,16,30)       -179.355          calculate D2E/DX2 analytically  !
 ! D54   D(29,15,16,17)       -179.4668         calculate D2E/DX2 analytically  !
 ! D55   D(29,15,16,30)          0.4228         calculate D2E/DX2 analytically  !
 ! D56   D(15,16,17,12)          0.5357         calculate D2E/DX2 analytically  !
 ! D57   D(15,16,17,31)       -179.753          calculate D2E/DX2 analytically  !
 ! D58   D(30,16,17,12)       -179.3538         calculate D2E/DX2 analytically  !
 ! D59   D(30,16,17,31)          0.3575         calculate D2E/DX2 analytically  !
 ! D60   D(1,18,19,20)          -0.8858         calculate D2E/DX2 analytically  !
 ! D61   D(1,18,19,33)         179.0817         calculate D2E/DX2 analytically  !
 ! D62   D(32,18,19,20)        179.4829         calculate D2E/DX2 analytically  !
 ! D63   D(32,18,19,33)         -0.5495         calculate D2E/DX2 analytically  !
 ! D64   D(18,19,20,21)         -0.5836         calculate D2E/DX2 analytically  !
 ! D65   D(18,19,20,34)        179.6302         calculate D2E/DX2 analytically  !
 ! D66   D(33,19,20,21)        179.4489         calculate D2E/DX2 analytically  !
 ! D67   D(33,19,20,34)         -0.3374         calculate D2E/DX2 analytically  !
 ! D68   D(19,20,21,22)          0.7467         calculate D2E/DX2 analytically  !
 ! D69   D(19,20,21,35)       -179.3554         calculate D2E/DX2 analytically  !
 ! D70   D(34,20,21,22)       -179.4671         calculate D2E/DX2 analytically  !
 ! D71   D(34,20,21,35)          0.4307         calculate D2E/DX2 analytically  !
 ! D72   D(20,21,22,1)           0.5565         calculate D2E/DX2 analytically  !
 ! D73   D(20,21,22,36)       -179.7521         calculate D2E/DX2 analytically  !
 ! D74   D(35,21,22,1)        -179.3413         calculate D2E/DX2 analytically  !
 ! D75   D(35,21,22,36)          0.35           calculate D2E/DX2 analytically  !
 --------------------------------------------------------------------------------
 Trust Radius=3.00D-01 FncErr=1.00D-07 GrdErr=1.00D-06 EigMax=2.50D+02 EigMin=1.00D-04
 Number of steps in this run=    180 maximum allowed number of steps=    216.
 GradGradGradGradGradGradGradGradGradGradGradGradGradGradGradGradGradGrad

                          Input orientation:                          
 ---------------------------------------------------------------------
 Center     Atomic      Atomic             Coordinates (Angstroms)
 Number     Number       Type             X           Y           Z
 ---------------------------------------------------------------------
      1          6           0       -4.253350   -0.920570   -1.932390
      2          6           0       -5.597360   -0.711850   -1.273140
      3          8           0       -5.868750    0.687150   -1.108480
      4          6           0       -5.000100    1.396100   -0.337600
      5          8           0       -4.016600    0.914400    0.213800
      6          7           0       -5.396500    2.715300   -0.310600
      7          7           0       -6.637000    2.845200   -0.436400
      8          6           0       -7.036800    4.161500   -0.372200
      9          8           0       -6.384760    5.144080   -0.710490
     10          8           0       -8.287940    4.220930    0.160270
     11          6           0       -8.860030    5.525440    0.327130
     12          6           0       -8.331510    6.185530    1.580100
     13          6           0       -7.630490    7.399460    1.531860
     14          6           0       -7.161260    7.997290    2.703640
     15          6           0       -7.402530    7.399310    3.938580
     16          6           0       -8.123540    6.209550    4.004400
     17          6           0       -8.590160    5.608880    2.833370
     18          6           0       -3.203200   -0.005690   -1.764660
     19          6           0       -1.965330   -0.223870   -2.373860
     20          6           0       -1.756050   -1.366980   -3.142220
     21          6           0       -2.779950   -2.299140   -3.292420
     22          6           0       -4.019190   -2.080780   -2.686810
     23          1           0       -5.570170   -1.162350   -0.274760
     24          1           0       -6.377930   -1.227310   -1.843580
     25          1           0       -9.954840    5.505170    0.348880
     26          1           0       -8.561360    6.129260   -0.537580
     27          1           0       -7.438630    7.887580    0.578280
     28          1           0       -6.606360    8.930570    2.651700
     29          1           0       -7.031730    7.862530    4.849490
     30          1           0       -8.321510    5.747430    4.968280
     31          1           0       -9.155040    4.681520    2.907430
     32          1           0       -3.343170    0.889200   -1.161800
     33          1           0       -1.164140    0.500040   -2.248460
     34          1           0       -0.794300   -1.532660   -3.620690
     35          1           0       -2.614540   -3.196620   -3.883060
     36          1           0       -4.804140   -2.823660   -2.813450
 ---------------------------------------------------------------------
                    Distance matrix (angstroms):
                    1          2          3          4          5
     1  C    0.000000
     2  C    1.511469   0.000000
     3  O    2.423450   1.434561   0.000000
     4  C    2.909974   2.382311   1.360669   0.000000
     5  O    2.833601   2.711915   2.287034   1.226111   0.000000
     6  N    4.142046   3.565415   2.230028   1.377734   2.328596
     7  N    4.701148   3.799156   2.387274   2.188400   3.319224
     8  C    6.000768   5.160738   3.738657   3.434644   4.473104
     9  O    6.543388   5.935359   4.504319   4.012940   4.934844
    10  O    6.862373   5.798811   4.466521   4.363190   5.401884
    11  C    8.238809   7.218703   5.866667   5.691430   6.688299
    12  C    8.914350   7.949239   6.597411   6.141214   6.947664
    13  C    9.624396   8.820147   7.424973   6.815729   7.540125
    14  C   10.463123   9.701014   8.345118   7.582576   8.139749
    15  C   10.658613   9.808750   8.536884   7.752156   8.209298
    16  C   10.052983   9.063101   7.856368   7.195703   7.698975
    17  C    9.173555   8.109988   6.867873   6.378957   7.058168
    18  C    1.402838   2.544063   2.831211   2.688934   2.328624
    19  C    2.432144   3.826402   4.203312   3.997560   3.492757
    20  C    2.810601   4.321842   5.026913   5.101408   4.645175
    21  C    2.433320   3.812451   4.819565   5.226359   4.914237
    22  C    1.403591   2.522509   3.684214   4.309254   4.169490
    23  H    2.130777   1.095651   2.050583   2.621945   2.639159
    24  H    2.148445   1.095623   2.113006   3.323954   3.794155
    25  H    8.888268   7.763370   6.483313   6.473419   7.507071
    26  H    8.378815   7.491804   6.098577   5.926666   6.958030
    27  H    9.697060   8.987115   7.560150   6.994611   7.776141
    28  H   11.117351  10.459384   9.090489   8.263427   8.769789
    29  H   11.439237  10.633156   9.398724   8.535112   8.880154
    30  H   10.422639   9.386086   8.279461   7.623529   8.030910
    31  H    8.878842   7.695628   6.548452   6.211902   6.917398
    32  H    2.167373   2.767152   2.534210   1.918768   1.531802
    33  H    3.414857   4.698230   4.844370   4.378230   3.790903
    34  H    3.897440   5.408706   6.081842   6.086466   5.574463
    35  H    3.416316   4.677925   5.776837   6.273297   5.970806
    36  H    2.168268   2.731574   4.045504   4.896387   4.874172
                    6          7          8          9         10
     6  N    0.000000
     7  N    1.253611   0.000000
     8  C    2.187664   1.377174   0.000000
     9  O    2.652460   2.328862   1.226809   0.000000
    10  O    3.293792   2.230303   1.361032   2.287471   0.000000
    11  C    4.505511   3.564902   2.381924   2.710914   1.434181
    12  C    4.922553   4.253874   3.095876   3.181392   2.424349
    13  C    5.506971   5.059877   3.802933   3.415657   3.523713
    14  C    6.332412   6.056297   4.918289   4.516641   4.690313
    15  C    6.634730   6.361321   5.403702   5.266476   5.016142
    16  C    6.185932   5.766226   4.952791   5.137000   4.331163
    17  C    5.334493   4.705758   3.844934   4.199854   3.027079
    18  C    3.785319   4.656483   5.831030   6.144406   6.886527
    19  C    4.966758   5.915864   6.996994   7.149339   8.133478
    20  C    6.159217   6.991966   8.131631   8.350579   9.208516
    21  C    6.393918   7.035476   8.269723   8.663864   9.207081
    22  C    5.526820   6.015194   7.309545   7.854958   8.126478
    23  H    3.881703   4.150266   5.523031   6.373733   6.046092
    24  H    4.342512   4.316551   5.624797   6.471364   6.111209
    25  H    5.384863   4.324369   3.292471   3.741406   2.112676
    26  H    4.660792   3.807683   2.494737   2.395426   2.050238
    27  H    5.631419   5.205553   3.866336   3.209106   3.786870
    28  H    6.990605   6.824150   5.663328   5.068623   5.587096
    29  H    7.469570   7.298633   6.400289   6.222694   6.068616
    30  H    6.753967   6.361688   5.717200   6.030212   5.044630
    31  H    5.324318   4.570973   3.938697   4.580148   2.917344
    32  H    2.876690   3.898905   4.997431   5.249662   6.107294
    33  H    5.155148   6.223788   7.170410   7.154532   8.390204
    34  H    7.083933   7.965080   9.052345   9.181577  10.176153
    35  H    7.446648   8.035125   9.274937   9.687468  10.176248
    36  H    6.106982   6.414493   7.728967   8.390809   8.402745
                   11         12         13         14         15
    11  C    0.000000
    12  C    1.511617   0.000000
    13  C    2.544621   1.402634   0.000000
    14  C    3.826704   2.431934   1.396655   0.000000
    15  C    4.321836   2.810461   2.417492   1.393150   0.000000
    16  C    3.812183   2.433323   2.787909   2.411218   1.392737
    17  C    2.522108   1.403606   2.412690   2.786232   2.416111
    18  C    8.183441   8.707364   9.236027   9.983969  10.246724
    19  C    9.374796   9.861159  10.269559  10.971152  11.292604
    20  C   10.488488  11.071467  11.541514  12.291457  12.604297
    21  C   10.549529  11.249484  11.868625  12.695081  12.950503
    22  C    9.506427  10.253512  10.986975  11.853145  12.050514
    23  H    7.477432   8.065782   8.989627   9.762246   9.716573
    24  H    7.514814   8.395728   9.347923  10.314265  10.435600
    25  H    1.095214   2.148021   3.223411   4.422629   4.794580
    26  H    1.096141   2.130860   2.600482   3.994411   4.794989
    27  H    2.768241   2.167453   1.088295   2.146189   3.395781
    28  H    4.698677   3.414632   2.155732   1.087025   2.152836
    29  H    5.408920   3.897521   3.402884   2.153976   1.087117
    30  H    4.677559   3.416401   3.875009   3.396564   2.152560
    31  H    2.730784   2.168422   3.406412   3.874406   3.394252
    32  H    7.358490   7.775131   8.247448   8.946753   9.212698
    33  H    9.545419   9.917352  10.183639  10.802662  11.171253
    34  H   11.421824  11.976152  12.371945  13.090274  13.438428
    35  H   11.524156  12.270069  12.913482  13.760847  14.013445
    36  H    9.799028  10.625965  11.462206  12.372843  12.524003
                   16         17         18         19         20
    16  C    0.000000
    17  C    1.396370   0.000000
    18  C    9.804132   9.037954   0.000000
    19  C   10.954207  10.248151   1.396800   0.000000
    20  C   12.207494  11.448815   2.417649   1.393153   0.000000
    21  C   12.417542  11.568086   2.788029   2.411245   1.392786
    22  C   11.416985  10.511757   2.412923   2.786466   2.416343
    23  H    8.898079   8.039301   3.026584   4.275726   4.776161
    24  H    9.620442   8.573291   3.402572   4.556219   4.802890
    25  H    4.148812   2.836512   8.967791  10.201347  11.253194
    26  H    4.563739   3.411001   8.237306   9.340332  10.454186
    27  H    3.875975   3.406454   9.259155  10.220947  11.479578
    28  H    3.396407   3.873253  10.532923  11.428000  12.772414
    29  H    2.153734   3.401820  10.968751  11.968085  13.299778
    30  H    1.087112   2.156203  10.228781  11.400196  12.629343
    31  H    2.145276   1.088380   8.900717  10.180707  11.310512
    32  H    8.823133   8.109727   1.088053   2.146266   3.395786
    33  H   10.960384  10.347513   2.155827   1.087049   2.152888
    34  H   13.107310  12.386764   3.402835   2.153794   1.086898
    35  H   13.455004  12.583930   3.875071   3.396528   2.152541
    36  H   11.794082  10.831817   3.406453   3.874402   3.394239
                   21         22         23         24         25
    21  C    0.000000
    22  C    1.396481   0.000000
    23  H    4.264257   3.011152   0.000000
    24  H    4.024104   2.646338   1.765755   0.000000
    25  H   11.209164  10.099207   8.004379   7.932683   0.000000
    26  H   10.585451   9.625760   7.885675   7.784094   1.765527
    27  H   11.851366  11.032751   9.280089   9.490612   3.472724
    28  H   13.269528  12.507716  10.559588  11.110457   5.314947
    29  H   13.697732  12.835133  10.480580  11.307070   5.861502
    30  H   12.794348  11.763980   9.099692   9.941124   4.905641
    31  H   11.305288  10.168637   7.558336   8.074572   2.804328
    32  H    3.875857   3.406382   3.155190   3.762208   8.203872
    33  H    3.396484   3.873512   5.106088   5.507383  10.443845
    34  H    2.153615   3.401835   5.843057   5.867562  12.214910
    35  H    1.087054   2.156190   5.088598   4.711769  12.145389
    36  H    2.145199   1.088143   3.129169   2.442498  10.290746
                   26         27         28         29         30
    26  H    0.000000
    27  H    2.365873   0.000000
    28  H    4.673422   2.465679   0.000000
    29  H    5.862126   4.290621   2.480308   0.000000
    30  H    5.524293   4.963045   4.294259   2.480180   0.000000
    31  H    3.783715   4.318544   4.961410   4.289390   2.465368
    32  H    7.421414   8.293250   9.479178   9.918085   9.271685
    33  H    9.451671  10.096308  11.167057  11.790495  11.438723
    34  H   11.337451  12.268634  13.513034  14.103867  13.543597
    35  H   11.555472  12.885453  14.342470  14.767322  13.817082
    36  H    9.972515  11.540149  13.087314  13.337071  12.099206
                   31         32         33         34         35
    31  H    0.000000
    32  H    8.044760   0.000000
    33  H   10.388574   2.465856   0.000000
    34  H   12.293671   4.290488   2.480255   0.000000
    35  H   12.286333   4.962870   4.294284   2.480096   0.000000
    36  H   10.391657   4.318299   4.961431   4.289188   2.465261
                   36
    36  H    0.000000
 Stoichiometry    C16H14N2O4
 Framework group  C1[X(C16H14N2O4)]
 Deg. of freedom   102
 Full point group                 C1      NOp   1
 Largest Abelian subgroup         C1      NOp   1
 Largest concise Abelian subgroup C1      NOp   1
                         Standard orientation:                         
 ---------------------------------------------------------------------
 Center     Atomic      Atomic             Coordinates (Angstroms)
 Number     Number       Type             X           Y           Z
 ---------------------------------------------------------------------
      1          6           0        4.366532   -0.434466    0.362594
      2          6           0        3.289419   -1.347512    0.901771
      3          8           0        2.022564   -1.046800    0.299595
      4          6           0        1.531188    0.207189    0.493192
      5          8           0        2.100619    1.078114    1.141719
      6          7           0        0.330234    0.327003   -0.171265
      7          7           0       -0.282451   -0.763600   -0.253384
      8          6           0       -1.499659   -0.636366   -0.884908
      9          8           0       -1.795486    0.180640   -1.750961
     10          8           0       -2.362561   -1.558561   -0.377597
     11          6           0       -3.696689   -1.556292   -0.903880
     12          6           0       -4.526318   -0.472008   -0.255013
     13          6           0       -5.107867    0.558613   -1.008008
     14          6           0       -5.880396    1.543656   -0.388705
     15          6           0       -6.096337    1.500629    0.986936
     16          6           0       -5.550410    0.466200    1.743002
     17          6           0       -4.774855   -0.517298    1.125672
     18          6           0        4.075612    0.866683   -0.073677
     19          6           0        5.088367    1.697915   -0.557857
     20          6           0        6.405734    1.246186   -0.594768
     21          6           0        6.713948   -0.032401   -0.136433
     22          6           0        5.702057   -0.865886    0.344751
     23          1           0        3.191974   -1.174150    1.979223
     24          1           0        3.582655   -2.394128    0.763939
     25          1           0       -4.194827   -2.525230   -0.792029
     26          1           0       -3.627002   -1.346543   -1.977507
     27          1           0       -4.958690    0.605997   -2.084989
     28          1           0       -6.313409    2.345547   -0.981235
     29          1           0       -6.692947    2.271181    1.468734
     30          1           0       -5.726912    0.425689    2.814924
     31          1           0       -4.360999   -1.319139    1.734231
     32          1           0        3.054674    1.241848   -0.045457
     33          1           0        4.847809    2.698891   -0.906933
     34          1           0        7.192003    1.891759   -0.977343
     35          1           0        7.743015   -0.382209   -0.154949
     36          1           0        5.965121   -1.859524    0.701875
 ---------------------------------------------------------------------
 Rotational constants (GHZ):           0.9130705           0.0922610           0.0905748
 Standard basis: 6-31G(d) (6D, 7F)
 There are   358 symmetry adapted cartesian basis functions of A   symmetry.
 There are   358 symmetry adapted basis functions of A   symmetry.
   358 basis functions,   672 primitive gaussians,   358 cartesian basis functions
    78 alpha electrons       78 beta electrons
       nuclear repulsion energy      1616.5864607181 Hartrees.
 NAtoms=   36 NActive=   36 NUniq=   36 SFac= 1.00D+00 NAtFMM=   60 NAOKFM=F Big=F
 Integral buffers will be    131072 words long.
 Raffenetti 2 integral format.
 Two-electron integral symmetry is turned on.
 One-electron integrals computed using PRISM.
 NBasis=   358 RedAO= T EigKep=  4.52D-04  NBF=   358
 NBsUse=   358 1.00D-06 EigRej= -1.00D+00 NBFU=   358
 ExpMin= 1.61D-01 ExpMax= 5.48D+03 ExpMxC= 8.25D+02 IAcc=3 IRadAn=         5 AccDes= 0.00D+00
 Harris functional with IExCor=  402 and IRadAn=       5 diagonalized for initial guess.
 HarFok:  IExCor=  402 AccDes= 0.00D+00 IRadAn=         5 IDoV= 1 UseB2=F ITyADJ=14
 ICtDFT=  3500011 ScaDFX=  1.000000  1.000000  1.000000  1.000000
 FoFCou: FMM=F IPFlag=           0 FMFlag=      100000 FMFlg1=           0
         NFxFlg=           0 DoJE=T BraDBF=F KetDBF=T FulRan=T
         wScrn=  0.000000 ICntrl=       500 IOpCl=  0 I1Cent=   200000004 NGrid=           0
         NMat0=    1 NMatS0=      1 NMatT0=    0 NMatD0=    1 NMtDS0=    0 NMtDT0=    0
 Petite list used in FoFCou.
 Gradient too large for Newton-Raphson -- use scaled steepest descent instead.
 Gradient too large for Newton-Raphson -- use scaled steepest descent instead.
 Gradient too large for Newton-Raphson -- use scaled steepest descent instead.
     Accept linear search using points  1 and  2.
 Gradient too large for Newton-Raphson -- use scaled steepest descent instead.
     Accept linear search using points  2 and  3.
 Gradient too large for Newton-Raphson -- use scaled steepest descent instead.
 Gradient too large for Newton-Raphson -- use scaled steepest descent instead.
     Accept linear search using points  1 and  2.
 Gradient too large for Newton-Raphson -- use scaled steepest descent instead.
     Accept linear search using points  2 and  3.
 LinEq1:  Iter=  0 NonCon=     1 RMS=7.20D-05 Max=7.44D-03 NDo=     1
 AX will form     1 AO Fock derivatives at one time.
 LinEq1:  Iter=  1 NonCon=     1 RMS=9.06D-05 Max=5.34D-03 NDo=     1
 LinEq1:  Iter=  2 NonCon=     1 RMS=1.60D-05 Max=8.57D-04 NDo=     1
 LinEq1:  Iter=  3 NonCon=     1 RMS=2.07D-05 Max=1.33D-03 NDo=     1
 LinEq1:  Iter=  4 NonCon=     1 RMS=8.15D-06 Max=5.55D-04 NDo=     1
 LinEq1:  Iter=  5 NonCon=     1 RMS=6.99D-06 Max=3.73D-04 NDo=     1
 LinEq1:  Iter=  6 NonCon=     1 RMS=5.91D-06 Max=3.17D-04 NDo=     1
 LinEq1:  Iter=  7 NonCon=     1 RMS=3.25D-06 Max=9.51D-05 NDo=     1
 LinEq1:  Iter=  8 NonCon=     1 RMS=2.39D-06 Max=7.56D-05 NDo=     1
 LinEq1:  Iter=  9 NonCon=     1 RMS=1.15D-06 Max=3.64D-05 NDo=     1
 LinEq1:  Iter= 10 NonCon=     1 RMS=6.85D-07 Max=2.24D-05 NDo=     1
 LinEq1:  Iter= 11 NonCon=     1 RMS=4.90D-07 Max=1.96D-05 NDo=     1
 LinEq1:  Iter= 12 NonCon=     1 RMS=2.50D-07 Max=6.86D-06 NDo=     1
 LinEq1:  Iter= 13 NonCon=     1 RMS=1.22D-07 Max=4.47D-06 NDo=     1
 LinEq1:  Iter= 14 NonCon=     1 RMS=7.46D-08 Max=2.63D-06 NDo=     1
 LinEq1:  Iter= 15 NonCon=     1 RMS=4.40D-08 Max=1.69D-06 NDo=     1
 LinEq1:  Iter= 16 NonCon=     1 RMS=2.59D-08 Max=8.07D-07 NDo=     1
 LinEq1:  Iter= 17 NonCon=     1 RMS=1.46D-08 Max=5.47D-07 NDo=     1
 LinEq1:  Iter= 18 NonCon=     1 RMS=6.21D-09 Max=2.43D-07 NDo=     1
 LinEq1:  Iter= 19 NonCon=     0 RMS=3.31D-09 Max=1.02D-07 NDo=     1
 Linear equations converged to 2.090D-08 2.090D-07 after    19 iterations.
 Restarting incremental Fock formation.
     Accept linear search using points  1 and  2.
     Minimum is close to point  2 DX= -4.01D-03 DF= -5.74D-10 DXR=  4.02D-03 DFR=  1.62D-05 which will be used.
 LinEq1:  Iter=  0 NonCon=     1 RMS=8.28D-07 Max=9.39D-05 NDo=     1
 LinEq1:  Iter=  1 NonCon=     1 RMS=5.13D-07 Max=2.58D-05 NDo=     1
 LinEq1:  Iter=  2 NonCon=     1 RMS=4.99D-07 Max=2.09D-05 NDo=     1
 LinEq1:  Iter=  3 NonCon=     1 RMS=2.44D-07 Max=7.71D-06 NDo=     1
 LinEq1:  Iter=  4 NonCon=     1 RMS=1.72D-07 Max=4.09D-06 NDo=     1
 LinEq1:  Iter=  5 NonCon=     1 RMS=1.01D-07 Max=3.56D-06 NDo=     1
 LinEq1:  Iter=  6 NonCon=     1 RMS=8.82D-08 Max=3.08D-06 NDo=     1
 LinEq1:  Iter=  7 NonCon=     1 RMS=6.59D-08 Max=3.10D-06 NDo=     1
 LinEq1:  Iter=  8 NonCon=     1 RMS=4.23D-08 Max=1.75D-06 NDo=     1
 LinEq1:  Iter=  9 NonCon=     1 RMS=3.24D-08 Max=1.39D-06 NDo=     1
 LinEq1:  Iter= 10 NonCon=     1 RMS=2.18D-08 Max=7.31D-07 NDo=     1
 LinEq1:  Iter= 11 NonCon=     1 RMS=1.55D-08 Max=9.65D-07 NDo=     1
 LinEq1:  Iter= 12 NonCon=     1 RMS=1.29D-08 Max=7.10D-07 NDo=     1
 LinEq1:  Iter= 13 NonCon=     1 RMS=7.09D-09 Max=4.56D-07 NDo=     1
 LinEq1:  Iter= 14 NonCon=     1 RMS=4.34D-09 Max=2.03D-07 NDo=     1
 LinEq1:  Iter= 15 NonCon=     1 RMS=1.77D-09 Max=5.18D-08 NDo=     1
 LinEq1:  Iter= 16 NonCon=     1 RMS=1.08D-09 Max=4.13D-08 NDo=     1
 LinEq1:  Iter= 17 NonCon=     1 RMS=6.34D-10 Max=2.19D-08 NDo=     1
 LinEq1:  Iter= 18 NonCon=     1 RMS=3.24D-10 Max=1.29D-08 NDo=     1
 LinEq1:  Iter= 19 NonCon=     1 RMS=2.07D-10 Max=8.77D-09 NDo=     1
 LinEq1:  Iter= 20 NonCon=     0 RMS=1.09D-10 Max=4.13D-09 NDo=     1
 Linear equations converged to 5.744D-10 5.744D-09 after    20 iterations.
 SCF Done:  E(RB3LYP) =  -1028.40701571     a.u. after   10 cycles
            Convg  =    0.8259D-08                    61 Fock formations.
              S**2 =  0.0000                  -V/T =  2.0089
 DoSCS=F DFT=T ScalE2(SS,OS)=  1.000000  1.000000
 Range of M.O.s used for correlation:     1   358
 NBasis=   358 NAE=    78 NBE=    78 NFC=     0 NFV=     0
 NROrb=    358 NOA=    78 NOB=    78 NVA=   280 NVB=   280

 **** Warning!!: The smallest alpha delta epsilon is  0.96562817D-01

 Symmetrizing basis deriv contribution to polar:
 IMax=3 JMax=2 DiffMx= 0.00D+00
 G2DrvN: will do    37 centers at a time, making    1 passes.
 Calling FoFCou, ICntrl=  3107 FMM=F I1Cent=   0 AccDes= 0.00D+00.
 End of G2Drv F.D. properties file   721 does not exist.
 End of G2Drv F.D. properties file   722 does not exist.
 End of G2Drv F.D. properties file   788 does not exist.
          IDoAtm=111111111111111111111111111111111111
          Differentiating once with respect to electric field.
                with respect to dipole field.
          Differentiating once with respect to nuclear coordinates.
 CalDSu exits because no D1Ps are significant.
          There are   111 degrees of freedom in the 1st order CPHF.  IDoFFX=6 NUNeed=     3.
    108 vectors produced by pass  0 Test12= 2.18D-14 1.00D-09 XBig12= 3.09D+02 8.98D+00.
 AX will form   108 AO Fock derivatives at one time.
    108 vectors produced by pass  1 Test12= 2.18D-14 1.00D-09 XBig12= 8.08D+01 1.50D+00.
    108 vectors produced by pass  2 Test12= 2.18D-14 1.00D-09 XBig12= 9.00D-01 1.19D-01.
    108 vectors produced by pass  3 Test12= 2.18D-14 1.00D-09 XBig12= 8.07D-03 1.12D-02.
    108 vectors produced by pass  4 Test12= 2.18D-14 1.00D-09 XBig12= 1.99D-05 3.91D-04.
     95 vectors produced by pass  5 Test12= 2.18D-14 1.00D-09 XBig12= 2.50D-08 1.19D-05.
     21 vectors produced by pass  6 Test12= 2.18D-14 1.00D-09 XBig12= 2.56D-11 3.51D-07.
      3 vectors produced by pass  7 Test12= 2.18D-14 1.00D-09 XBig12= 2.19D-14 1.10D-08.
 InvSVY:  IOpt=1 It=  1 EMax= 1.07D-14
 Solved reduced A of dimension   659 with   111 vectors.
 Isotropic polarizability for W=    0.000000      198.52 Bohr**3.
 End of Minotr F.D. properties file   721 does not exist.
 End of Minotr F.D. properties file   722 does not exist.
 End of Minotr F.D. properties file   788 does not exist.

 **********************************************************************

            Population analysis using the SCF density.

 **********************************************************************

 Orbital symmetries:
       Occupied  (A) (A) (A) (A) (A) (A) (A) (A) (A) (A) (A) (A)
                 (A) (A) (A) (A) (A) (A) (A) (A) (A) (A) (A) (A)
                 (A) (A) (A) (A) (A) (A) (A) (A) (A) (A) (A) (A)
                 (A) (A) (A) (A) (A) (A) (A) (A) (A) (A) (A) (A)
                 (A) (A) (A) (A) (A) (A) (A) (A) (A) (A) (A) (A)
                 (A) (A) (A) (A) (A) (A) (A) (A) (A) (A) (A) (A)
                 (A) (A) (A) (A) (A) (A)
       Virtual   (A) (A) (A) (A) (A) (A) (A) (A) (A) (A) (A) (A)
                 (A) (A) (A) (A) (A) (A) (A) (A) (A) (A) (A) (A)
                 (A) (A) (A) (A) (A) (A) (A) (A) (A) (A) (A) (A)
                 (A) (A) (A) (A) (A) (A) (A) (A) (A) (A) (A) (A)
                 (A) (A) (A) (A) (A) (A) (A) (A) (A) (A) (A) (A)
                 (A) (A) (A) (A) (A) (A) (A) (A) (A) (A) (A) (A)
                 (A) (A) (A) (A) (A) (A) (A) (A) (A) (A) (A) (A)
                 (A) (A) (A) (A) (A) (A) (A) (A) (A) (A) (A) (A)
                 (A) (A) (A) (A) (A) (A) (A) (A) (A) (A) (A) (A)
                 (A) (A) (A) (A) (A) (A) (A) (A) (A) (A) (A) (A)
                 (A) (A) (A) (A) (A) (A) (A) (A) (A) (A) (A) (A)
                 (A) (A) (A) (A) (A) (A) (A) (A) (A) (A) (A) (A)
                 (A) (A) (A) (A) (A) (A) (A) (A) (A) (A) (A) (A)
                 (A) (A) (A) (A) (A) (A) (A) (A) (A) (A) (A) (A)
                 (A) (A) (A) (A) (A) (A) (A) (A) (A) (A) (A) (A)
                 (A) (A) (A) (A) (A) (A) (A) (A) (A) (A) (A) (A)
                 (A) (A) (A) (A) (A) (A) (A) (A) (A) (A) (A) (A)
                 (A) (A) (A) (A) (A) (A) (A) (A) (A) (A) (A) (A)
                 (A) (A) (A) (A) (A) (A) (A) (A) (A) (A) (A) (A)
                 (A) (A) (A) (A) (A) (A) (A) (A) (A) (A) (A) (A)
                 (A) (A) (A) (A) (A) (A) (A) (A) (A) (A) (A) (A)
                 (A) (A) (A) (A) (A) (A) (A) (A) (A) (A) (A) (A)
                 (A) (A) (A) (A) (A) (A) (A) (A) (A) (A) (A) (A)
                 (A) (A) (A) (A)
 The electronic state is 1-A.
 Alpha  occ. eigenvalues --  -19.21541 -19.21495 -19.17828 -19.16049 -14.43284
 Alpha  occ. eigenvalues --  -14.43032 -10.36509 -10.35686 -10.26102 -10.25963
 Alpha  occ. eigenvalues --  -10.20412 -10.19869 -10.19603 -10.19597 -10.19462
 Alpha  occ. eigenvalues --  -10.19408 -10.19353 -10.19043 -10.18721 -10.18450
 Alpha  occ. eigenvalues --  -10.18228 -10.17216  -1.15290  -1.12827  -1.07286
 Alpha  occ. eigenvalues --   -1.05225  -1.02788  -0.86265  -0.85518  -0.84055
 Alpha  occ. eigenvalues --   -0.78272  -0.76890  -0.74829  -0.74002  -0.71661
 Alpha  occ. eigenvalues --   -0.69913  -0.63896  -0.61133  -0.60699  -0.60279
 Alpha  occ. eigenvalues --   -0.59052  -0.56203  -0.55447  -0.54105  -0.52517
 Alpha  occ. eigenvalues --   -0.51936  -0.49808  -0.49226  -0.48322  -0.47792
 Alpha  occ. eigenvalues --   -0.46963  -0.46538  -0.46188  -0.45127  -0.43799
 Alpha  occ. eigenvalues --   -0.43130  -0.42626  -0.42281  -0.41958  -0.40281
 Alpha  occ. eigenvalues --   -0.38517  -0.37198  -0.37038  -0.36562  -0.36308
 Alpha  occ. eigenvalues --   -0.35481  -0.35273  -0.34336  -0.33645  -0.32536
 Alpha  occ. eigenvalues --   -0.31511  -0.30948  -0.29015  -0.26843  -0.25365
 Alpha  occ. eigenvalues --   -0.25259  -0.24420  -0.23867
 Alpha virt. eigenvalues --   -0.14211  -0.01265  -0.00842  -0.00417   0.00044
 Alpha virt. eigenvalues --    0.01489   0.03491   0.09062   0.09685   0.11113
 Alpha virt. eigenvalues --    0.11429   0.11666   0.12100   0.12850   0.13955
 Alpha virt. eigenvalues --    0.14665   0.15373   0.15918   0.16270   0.17727
 Alpha virt. eigenvalues --    0.17750   0.18729   0.19169   0.20305   0.21562
 Alpha virt. eigenvalues --    0.22214   0.23887   0.24024   0.25083   0.27992
 Alpha virt. eigenvalues --    0.30253   0.30721   0.30941   0.31522   0.31982
 Alpha virt. eigenvalues --    0.32731   0.33452   0.33740   0.34535   0.36280
 Alpha virt. eigenvalues --    0.39107   0.42949   0.45730   0.47730   0.47888
 Alpha virt. eigenvalues --    0.49211   0.50044   0.50751   0.52251   0.53376
 Alpha virt. eigenvalues --    0.53645   0.53905   0.54165   0.54941   0.55345
 Alpha virt. eigenvalues --    0.56069   0.56387   0.57284   0.58247   0.59080
 Alpha virt. eigenvalues --    0.59233   0.59526   0.59947   0.60262   0.60617
 Alpha virt. eigenvalues --    0.61005   0.61133   0.61466   0.61962   0.62081
 Alpha virt. eigenvalues --    0.62298   0.63585   0.64040   0.64829   0.64995
 Alpha virt. eigenvalues --    0.66614   0.67757   0.68788   0.69342   0.69824
 Alpha virt. eigenvalues --    0.71418   0.72149   0.73156   0.74200   0.76141
 Alpha virt. eigenvalues --    0.76378   0.78454   0.80165   0.80443   0.82489
 Alpha virt. eigenvalues --    0.82991   0.83528   0.83587   0.83918   0.84251
 Alpha virt. eigenvalues --    0.84712   0.85537   0.85987   0.86548   0.88920
 Alpha virt. eigenvalues --    0.89109   0.89956   0.90779   0.90956   0.92093
 Alpha virt. eigenvalues --    0.92428   0.93864   0.94813   0.95079   0.96435
 Alpha virt. eigenvalues --    0.97956   0.98409   1.00109   1.01128   1.02145
 Alpha virt. eigenvalues --    1.05423   1.06889   1.07484   1.08772   1.09231
 Alpha virt. eigenvalues --    1.10766   1.10944   1.12851   1.13521   1.14199
 Alpha virt. eigenvalues --    1.16688   1.16741   1.18401   1.19269   1.20428
 Alpha virt. eigenvalues --    1.21870   1.23091   1.25619   1.26318   1.27421
 Alpha virt. eigenvalues --    1.30508   1.32466   1.36586   1.37549   1.38820
 Alpha virt. eigenvalues --    1.39938   1.41628   1.42367   1.43621   1.43905
 Alpha virt. eigenvalues --    1.44623   1.45730   1.46704   1.47391   1.47961
 Alpha virt. eigenvalues --    1.48483   1.49074   1.50467   1.50909   1.51090
 Alpha virt. eigenvalues --    1.51859   1.55043   1.58161   1.62075   1.64029
 Alpha virt. eigenvalues --    1.66554   1.68780   1.70843   1.71066   1.73462
 Alpha virt. eigenvalues --    1.75419   1.77587   1.77747   1.78568   1.79748
 Alpha virt. eigenvalues --    1.80409   1.81618   1.82955   1.83967   1.84573
 Alpha virt. eigenvalues --    1.87122   1.87377   1.87542   1.89100   1.90543
 Alpha virt. eigenvalues --    1.90755   1.91613   1.92442   1.94463   1.95208
 Alpha virt. eigenvalues --    1.96446   1.96934   1.99815   2.00486   2.01610
 Alpha virt. eigenvalues --    2.03098   2.03368   2.05439   2.06858   2.07653
 Alpha virt. eigenvalues --    2.09720   2.10005   2.11522   2.13303   2.13773
 Alpha virt. eigenvalues --    2.14711   2.15071   2.16514   2.17339   2.18577
 Alpha virt. eigenvalues --    2.21351   2.23374   2.25134   2.26439   2.27674
 Alpha virt. eigenvalues --    2.29879   2.30562   2.31033   2.31737   2.33691
 Alpha virt. eigenvalues --    2.34039   2.36118   2.38023   2.38429   2.43537
 Alpha virt. eigenvalues --    2.46528   2.47401   2.47778   2.54198   2.57074
 Alpha virt. eigenvalues --    2.57385   2.58018   2.59499   2.62335   2.64891
 Alpha virt. eigenvalues --    2.65427   2.66055   2.66372   2.68682   2.69825
 Alpha virt. eigenvalues --    2.70753   2.72748   2.72940   2.73767   2.75393
 Alpha virt. eigenvalues --    2.75866   2.78010   2.78878   2.80020   2.83759
 Alpha virt. eigenvalues --    2.85133   2.87828   2.90153   2.94428   2.96655
 Alpha virt. eigenvalues --    3.04878   3.06010   3.07609   3.11091   3.19558
 Alpha virt. eigenvalues --    3.23776   3.40225   3.41432   3.78793   3.91218
 Alpha virt. eigenvalues --    4.00128   4.03110   4.08591   4.09803   4.11260
 Alpha virt. eigenvalues --    4.12238   4.13593   4.16810   4.19272   4.24532
 Alpha virt. eigenvalues --    4.30218   4.32476   4.34287   4.34960   4.36817
 Alpha virt. eigenvalues --    4.42208   4.43373   4.48265   4.69982   4.70614
          Condensed to atoms (all electrons):
               1          2          3          4          5          6
     1  C    4.783759   0.321202  -0.030196  -0.008233  -0.012676  -0.000241
     2  C    0.321202   5.010491   0.187181  -0.017394   0.013629   0.005287
     3  O   -0.030196   0.187181   8.229234   0.287085  -0.080850  -0.104149
     4  C   -0.008233  -0.017394   0.287085   4.313064   0.433672   0.247722
     5  O   -0.012676   0.013629  -0.080850   0.433672   8.243364  -0.057437
     6  N   -0.000241   0.005287  -0.104149   0.247722  -0.057437   6.964461
     7  N    0.000026   0.000311  -0.009960  -0.053197   0.001261   0.218317
     8  C    0.000001   0.000016  -0.000085   0.004422  -0.000148  -0.049799
     9  O   -0.000000   0.000000  -0.000006   0.000620   0.000001   0.001424
    10  O   -0.000000   0.000000   0.000001  -0.000197   0.000000   0.001691
    11  C    0.000000   0.000000   0.000000   0.000002  -0.000000  -0.000043
    12  C    0.000000  -0.000000  -0.000000  -0.000000  -0.000000   0.000046
    13  C    0.000000  -0.000000   0.000000  -0.000000   0.000000   0.000001
    14  C   -0.000000   0.000000   0.000000   0.000000   0.000000   0.000000
    15  C   -0.000000   0.000000   0.000000   0.000000   0.000000  -0.000000
    16  C   -0.000000  -0.000000   0.000000   0.000000  -0.000000   0.000000
    17  C    0.000000  -0.000000  -0.000000  -0.000000  -0.000000   0.000002
    18  C    0.552640  -0.062324  -0.001931   0.013985  -0.088542  -0.001623
    19  C   -0.029185   0.007280   0.000124  -0.000031   0.002564  -0.000010
    20  C   -0.036303   0.000314  -0.000007  -0.000037  -0.000047  -0.000000
    21  C   -0.018513   0.005633  -0.000042  -0.000016   0.000005  -0.000000
    22  C    0.534909  -0.055906   0.001930   0.000180  -0.000549  -0.000005
    23  H   -0.037450   0.355494  -0.037263  -0.003710   0.006853  -0.000121
    24  H   -0.039272   0.370449  -0.022343   0.002853   0.000169  -0.000111
    25  H    0.000000  -0.000000   0.000000  -0.000000   0.000000  -0.000001
    26  H    0.000000   0.000000   0.000000  -0.000001  -0.000000  -0.000009
    27  H   -0.000000   0.000000   0.000000  -0.000000   0.000000  -0.000000
    28  H   -0.000000   0.000000  -0.000000  -0.000000  -0.000000  -0.000000
    29  H   -0.000000  -0.000000   0.000000   0.000000  -0.000000   0.000000
    30  H   -0.000000   0.000000  -0.000000   0.000000   0.000000  -0.000000
    31  H    0.000000   0.000000   0.000000  -0.000000   0.000000  -0.000001
    32  H   -0.045655  -0.013287   0.001231  -0.001763  -0.016453  -0.005222
    33  H    0.004121  -0.000194   0.000003   0.000124   0.000033  -0.000000
    34  H    0.000748   0.000010  -0.000000  -0.000000   0.000001   0.000000
    35  H    0.003909  -0.000158   0.000000   0.000000  -0.000000   0.000000
    36  H   -0.051414  -0.009132   0.000039   0.000007  -0.000004  -0.000000
               7          8          9         10         11         12
     1  C    0.000026   0.000001  -0.000000  -0.000000   0.000000   0.000000
     2  C    0.000311   0.000016   0.000000   0.000000   0.000000  -0.000000
     3  O   -0.009960  -0.000085  -0.000006   0.000001   0.000000  -0.000000
     4  C   -0.053197   0.004422   0.000620  -0.000197   0.000002  -0.000000
     5  O    0.001261  -0.000148   0.000001   0.000000  -0.000000  -0.000000
     6  N    0.218317  -0.049799   0.001424   0.001691  -0.000043   0.000046
     7  N    6.963927   0.246391  -0.077337  -0.089186   0.004251  -0.000818
     8  C    0.246391   4.234392   0.532552   0.294020  -0.018345  -0.003448
     9  O   -0.077337   0.532552   8.040367  -0.077137  -0.003607  -0.000783
    10  O   -0.089186   0.294020  -0.077137   8.223808   0.193748  -0.050337
    11  C    0.004251  -0.018345  -0.003607   0.193748   5.014701   0.346777
    12  C   -0.000818  -0.003448  -0.000783  -0.050337   0.346777   4.735332
    13  C    0.000007   0.001056   0.001239  -0.000453  -0.046261   0.553104
    14  C    0.000000  -0.000023  -0.000009  -0.000053   0.006010  -0.022792
    15  C    0.000000   0.000002   0.000003   0.000000   0.000388  -0.035056
    16  C   -0.000001  -0.000021  -0.000002   0.000119   0.005199  -0.021385
    17  C   -0.000102   0.000229   0.000052   0.003836  -0.066968   0.528615
    18  C   -0.000014   0.000000   0.000000   0.000000  -0.000000  -0.000000
    19  C    0.000000  -0.000000   0.000000   0.000000   0.000000  -0.000000
    20  C    0.000000   0.000000  -0.000000   0.000000  -0.000000  -0.000000
    21  C   -0.000000   0.000000  -0.000000   0.000000  -0.000000  -0.000000
    22  C    0.000000  -0.000000   0.000000  -0.000000  -0.000000   0.000000
    23  H   -0.000107  -0.000000   0.000000  -0.000000   0.000000   0.000000
    24  H    0.000090  -0.000000   0.000000  -0.000000   0.000000  -0.000000
    25  H   -0.000060   0.003594   0.000288  -0.029635   0.367168  -0.035097
    26  H    0.000209  -0.008592   0.015083  -0.030546   0.352030  -0.037772
    27  H    0.000003  -0.000017   0.000790   0.000043  -0.010087  -0.040020
    28  H    0.000000   0.000001  -0.000002   0.000001  -0.000161   0.003869
    29  H    0.000000  -0.000000   0.000000  -0.000000   0.000008   0.000705
    30  H    0.000000   0.000000  -0.000000   0.000001  -0.000182   0.003805
    31  H   -0.000001   0.000131   0.000001   0.002447  -0.007983  -0.047868
    32  H    0.000604  -0.000016   0.000001   0.000000  -0.000000  -0.000000
    33  H   -0.000000   0.000000   0.000000  -0.000000   0.000000   0.000000
    34  H   -0.000000   0.000000   0.000000  -0.000000   0.000000   0.000000
    35  H   -0.000000  -0.000000   0.000000  -0.000000  -0.000000   0.000000
    36  H    0.000000   0.000000   0.000000   0.000000   0.000000   0.000000
              13         14         15         16         17         18
     1  C    0.000000  -0.000000  -0.000000  -0.000000   0.000000   0.552640
     2  C   -0.000000   0.000000   0.000000  -0.000000  -0.000000  -0.062324
     3  O    0.000000   0.000000   0.000000   0.000000  -0.000000  -0.001931
     4  C   -0.000000   0.000000   0.000000   0.000000  -0.000000   0.013985
     5  O    0.000000   0.000000   0.000000  -0.000000  -0.000000  -0.088542
     6  N    0.000001   0.000000  -0.000000   0.000000   0.000002  -0.001623
     7  N    0.000007   0.000000   0.000000  -0.000001  -0.000102  -0.000014
     8  C    0.001056  -0.000023   0.000002  -0.000021   0.000229   0.000000
     9  O    0.001239  -0.000009   0.000003  -0.000002   0.000052   0.000000
    10  O   -0.000453  -0.000053   0.000000   0.000119   0.003836   0.000000
    11  C   -0.046261   0.006010   0.000388   0.005199  -0.066968  -0.000000
    12  C    0.553104  -0.022792  -0.035056  -0.021385   0.528615  -0.000000
    13  C    4.922077   0.525897  -0.035341  -0.044201  -0.041265  -0.000000
    14  C    0.525897   4.863468   0.552201  -0.027836  -0.045327  -0.000000
    15  C   -0.035341   0.552201   4.844874   0.549810  -0.034991   0.000000
    16  C   -0.044201  -0.027836   0.549810   4.854331   0.533955   0.000000
    17  C   -0.041265  -0.045327  -0.034991   0.533955   4.957836  -0.000000
    18  C   -0.000000  -0.000000   0.000000   0.000000  -0.000000   5.007379
    19  C   -0.000000   0.000000  -0.000000  -0.000000  -0.000000   0.516300
    20  C    0.000000  -0.000000   0.000000   0.000000  -0.000000  -0.030963
    21  C   -0.000000   0.000000   0.000000   0.000000  -0.000000  -0.047065
    22  C   -0.000000   0.000000  -0.000000   0.000000  -0.000000  -0.032583
    23  H    0.000000   0.000000  -0.000000  -0.000000   0.000000  -0.002050
    24  H   -0.000000  -0.000000   0.000000   0.000000  -0.000000   0.002752
    25  H    0.002857  -0.000243   0.000022  -0.000048  -0.006088   0.000000
    26  H   -0.004788   0.000089  -0.000007  -0.000117   0.006233   0.000000
    27  H    0.355134  -0.044613   0.004745   0.000385   0.005825   0.000000
    28  H   -0.039045   0.358129  -0.043110   0.004630   0.000777  -0.000000
    29  H    0.004725  -0.042940   0.358986  -0.043103   0.004791   0.000000
    30  H    0.000829   0.004619  -0.042731   0.357986  -0.040488   0.000000
    31  H    0.005276   0.000448   0.004795  -0.042444   0.358672   0.000000
    32  H    0.000000   0.000000  -0.000000  -0.000000  -0.000000   0.338003
    33  H    0.000000   0.000000  -0.000000  -0.000000   0.000000  -0.036317
    34  H    0.000000   0.000000   0.000000   0.000000   0.000000   0.005143
    35  H    0.000000   0.000000   0.000000   0.000000   0.000000   0.000667
    36  H   -0.000000   0.000000  -0.000000  -0.000000   0.000000   0.005528
              19         20         21         22         23         24
     1  C   -0.029185  -0.036303  -0.018513   0.534909  -0.037450  -0.039272
     2  C    0.007280   0.000314   0.005633  -0.055906   0.355494   0.370449
     3  O    0.000124  -0.000007  -0.000042   0.001930  -0.037263  -0.022343
     4  C   -0.000031  -0.000037  -0.000016   0.000180  -0.003710   0.002853
     5  O    0.002564  -0.000047   0.000005  -0.000549   0.006853   0.000169
     6  N   -0.000010  -0.000000  -0.000000  -0.000005  -0.000121  -0.000111
     7  N    0.000000   0.000000  -0.000000   0.000000  -0.000107   0.000090
     8  C   -0.000000   0.000000   0.000000  -0.000000  -0.000000  -0.000000
     9  O    0.000000  -0.000000  -0.000000   0.000000   0.000000   0.000000
    10  O    0.000000   0.000000   0.000000  -0.000000  -0.000000  -0.000000
    11  C    0.000000  -0.000000  -0.000000  -0.000000   0.000000   0.000000
    12  C   -0.000000  -0.000000  -0.000000   0.000000   0.000000  -0.000000
    13  C   -0.000000   0.000000  -0.000000  -0.000000   0.000000  -0.000000
    14  C    0.000000  -0.000000   0.000000   0.000000   0.000000  -0.000000
    15  C   -0.000000   0.000000   0.000000  -0.000000  -0.000000   0.000000
    16  C   -0.000000   0.000000   0.000000   0.000000  -0.000000   0.000000
    17  C   -0.000000  -0.000000  -0.000000  -0.000000   0.000000  -0.000000
    18  C    0.516300  -0.030963  -0.047065  -0.032583  -0.002050   0.002752
    19  C    4.913771   0.543621  -0.026388  -0.047536  -0.000070  -0.000096
    20  C    0.543621   4.848466   0.553014  -0.035683   0.000027   0.000007
    21  C   -0.026388   0.553014   4.857140   0.531743  -0.000213   0.000070
    22  C   -0.047536  -0.035683   0.531743   4.959542  -0.000084  -0.001773
    23  H   -0.000070   0.000027  -0.000213  -0.000084   0.577452  -0.039150
    24  H   -0.000096   0.000007   0.000070  -0.001773  -0.039150   0.544155
    25  H   -0.000000   0.000000   0.000000  -0.000000  -0.000000   0.000000
    26  H   -0.000000   0.000000   0.000000  -0.000000   0.000000  -0.000000
    27  H   -0.000000   0.000000   0.000000  -0.000000  -0.000000  -0.000000
    28  H    0.000000   0.000000   0.000000  -0.000000  -0.000000   0.000000
    29  H   -0.000000   0.000000   0.000000   0.000000   0.000000  -0.000000
    30  H    0.000000   0.000000   0.000000   0.000000  -0.000000   0.000000
    31  H   -0.000000   0.000000   0.000000  -0.000000  -0.000000  -0.000000
    32  H   -0.029355   0.004641   0.000460   0.005214   0.000189  -0.000256
    33  H    0.355908  -0.044723   0.004403   0.000998   0.000002   0.000003
    34  H   -0.042872   0.356718  -0.044994   0.004929  -0.000000  -0.000000
    35  H    0.004743  -0.042925   0.357569  -0.041295   0.000005  -0.000006
    36  H    0.000413   0.005063  -0.043253   0.355557   0.000342   0.005429
              25         26         27         28         29         30
     1  C    0.000000   0.000000  -0.000000  -0.000000  -0.000000  -0.000000
     2  C   -0.000000   0.000000   0.000000   0.000000  -0.000000   0.000000
     3  O    0.000000   0.000000   0.000000  -0.000000   0.000000  -0.000000
     4  C   -0.000000  -0.000001  -0.000000  -0.000000   0.000000   0.000000
     5  O    0.000000  -0.000000   0.000000  -0.000000  -0.000000   0.000000
     6  N   -0.000001  -0.000009  -0.000000  -0.000000   0.000000  -0.000000
     7  N   -0.000060   0.000209   0.000003   0.000000   0.000000   0.000000
     8  C    0.003594  -0.008592  -0.000017   0.000001  -0.000000   0.000000
     9  O    0.000288   0.015083   0.000790  -0.000002   0.000000  -0.000000
    10  O   -0.029635  -0.030546   0.000043   0.000001  -0.000000   0.000001
    11  C    0.367168   0.352030  -0.010087  -0.000161   0.000008  -0.000182
    12  C   -0.035097  -0.037772  -0.040020   0.003869   0.000705   0.003805
    13  C    0.002857  -0.004788   0.355134  -0.039045   0.004725   0.000829
    14  C   -0.000243   0.000089  -0.044613   0.358129  -0.042940   0.004619
    15  C    0.000022  -0.000007   0.004745  -0.043110   0.358986  -0.042731
    16  C   -0.000048  -0.000117   0.000385   0.004630  -0.043103   0.357986
    17  C   -0.006088   0.006233   0.005825   0.000777   0.004791  -0.040488
    18  C    0.000000   0.000000   0.000000  -0.000000   0.000000   0.000000
    19  C   -0.000000  -0.000000  -0.000000   0.000000  -0.000000   0.000000
    20  C    0.000000   0.000000   0.000000   0.000000   0.000000   0.000000
    21  C    0.000000   0.000000   0.000000   0.000000   0.000000   0.000000
    22  C   -0.000000  -0.000000  -0.000000  -0.000000   0.000000   0.000000
    23  H   -0.000000   0.000000  -0.000000  -0.000000   0.000000  -0.000000
    24  H    0.000000  -0.000000  -0.000000   0.000000  -0.000000   0.000000
    25  H    0.552290  -0.035352   0.000127   0.000004  -0.000000  -0.000001
    26  H   -0.035352   0.559903   0.007098  -0.000006  -0.000000   0.000003
    27  H    0.000127   0.007098   0.586287  -0.005524  -0.000178   0.000016
    28  H    0.000004  -0.000006  -0.005524   0.590881  -0.005666  -0.000189
    29  H   -0.000000  -0.000000  -0.000178  -0.005666   0.595077  -0.005612
    30  H   -0.000001   0.000003   0.000016  -0.000189  -0.005612   0.593860
    31  H    0.001865   0.000156  -0.000160   0.000017  -0.000185  -0.005556
    32  H    0.000000  -0.000000  -0.000000   0.000000  -0.000000   0.000000
    33  H   -0.000000  -0.000000  -0.000000  -0.000000   0.000000  -0.000000
    34  H   -0.000000  -0.000000  -0.000000   0.000000   0.000000   0.000000
    35  H   -0.000000  -0.000000   0.000000   0.000000   0.000000   0.000000
    36  H   -0.000000  -0.000000  -0.000000   0.000000   0.000000  -0.000000
              31         32         33         34         35         36
     1  C    0.000000  -0.045655   0.004121   0.000748   0.003909  -0.051414
     2  C    0.000000  -0.013287  -0.000194   0.000010  -0.000158  -0.009132
     3  O    0.000000   0.001231   0.000003  -0.000000   0.000000   0.000039
     4  C   -0.000000  -0.001763   0.000124  -0.000000   0.000000   0.000007
     5  O    0.000000  -0.016453   0.000033   0.000001  -0.000000  -0.000004
     6  N   -0.000001  -0.005222  -0.000000   0.000000   0.000000  -0.000000
     7  N   -0.000001   0.000604  -0.000000  -0.000000  -0.000000   0.000000
     8  C    0.000131  -0.000016   0.000000   0.000000  -0.000000   0.000000
     9  O    0.000001   0.000001   0.000000   0.000000   0.000000   0.000000
    10  O    0.002447   0.000000  -0.000000  -0.000000  -0.000000   0.000000
    11  C   -0.007983  -0.000000   0.000000   0.000000  -0.000000   0.000000
    12  C   -0.047868  -0.000000   0.000000   0.000000   0.000000   0.000000
    13  C    0.005276   0.000000   0.000000   0.000000   0.000000  -0.000000
    14  C    0.000448   0.000000   0.000000   0.000000   0.000000   0.000000
    15  C    0.004795  -0.000000  -0.000000   0.000000   0.000000  -0.000000
    16  C   -0.042444  -0.000000  -0.000000   0.000000   0.000000  -0.000000
    17  C    0.358672  -0.000000   0.000000   0.000000   0.000000   0.000000
    18  C    0.000000   0.338003  -0.036317   0.005143   0.000667   0.005528
    19  C   -0.000000  -0.029355   0.355908  -0.042872   0.004743   0.000413
    20  C    0.000000   0.004641  -0.044723   0.356718  -0.042925   0.005063
    21  C    0.000000   0.000460   0.004403  -0.044994   0.357569  -0.043253
    22  C   -0.000000   0.005214   0.000998   0.004929  -0.041295   0.355557
    23  H   -0.000000   0.000189   0.000002  -0.000000   0.000005   0.000342
    24  H   -0.000000  -0.000256   0.000003  -0.000000  -0.000006   0.005429
    25  H    0.001865   0.000000  -0.000000  -0.000000  -0.000000  -0.000000
    26  H    0.000156  -0.000000  -0.000000  -0.000000  -0.000000  -0.000000
    27  H   -0.000160  -0.000000  -0.000000  -0.000000   0.000000  -0.000000
    28  H    0.000017   0.000000  -0.000000   0.000000   0.000000   0.000000
    29  H   -0.000185  -0.000000   0.000000   0.000000   0.000000   0.000000
    30  H   -0.005556   0.000000  -0.000000   0.000000   0.000000  -0.000000
    31  H    0.594784  -0.000000  -0.000000  -0.000000   0.000000  -0.000000
    32  H   -0.000000   0.574186  -0.006196  -0.000171   0.000012  -0.000161
    33  H   -0.000000  -0.006196   0.595284  -0.005470  -0.000193   0.000018
    34  H   -0.000000  -0.000171  -0.005470   0.605965  -0.005826  -0.000189
    35  H    0.000000   0.000012  -0.000193  -0.005826   0.601111  -0.005903
    36  H   -0.000000  -0.000161   0.000018  -0.000189  -0.005903   0.618684
 Mulliken charges:
               1
     1  C    0.107824
     2  C   -0.118902
     3  O   -0.419996
     4  C    0.780841
     5  O   -0.444847
     6  N   -0.220176
     7  N   -0.204616
     8  C    0.763687
     9  O   -0.433538
    10  O   -0.442172
    11  C   -0.136645
    12  C    0.123123
    13  C   -0.160849
    14  C   -0.127025
    15  C   -0.124592
    16  C   -0.127259
    17  C   -0.165593
    18  C   -0.138985
    19  C   -0.169180
    20  C   -0.121183
    21  C   -0.129552
    22  C   -0.179587
    23  H    0.179854
    24  H    0.177030
    25  H    0.178313
    26  H    0.176386
    27  H    0.140145
    28  H    0.135395
    29  H    0.133392
    30  H    0.133640
    31  H    0.135604
    32  H    0.193994
    33  H    0.132196
    34  H    0.126007
    35  H    0.128291
    36  H    0.118975
 Sum of Mulliken charges =  -0.00000
 Mulliken charges with hydrogens summed into heavy atoms:
               1
     1  C    0.107824
     2  C    0.237982
     3  O   -0.419996
     4  C    0.780841
     5  O   -0.444847
     6  N   -0.220176
     7  N   -0.204616
     8  C    0.763687
     9  O   -0.433538
    10  O   -0.442172
    11  C    0.218054
    12  C    0.123123
    13  C   -0.020704
    14  C    0.008370
    15  C    0.008800
    16  C    0.006382
    17  C   -0.029989
    18  C    0.055009
    19  C   -0.036985
    20  C    0.004824
    21  C   -0.001261
    22  C   -0.060612
 APT charges:
               1
     1  C   -0.033331
     2  C    0.542556
     3  O   -0.756222
     4  C    0.948786
     5  O   -0.488606
     6  N   -0.027789
     7  N   -0.341068
     8  C    1.382829
     9  O   -0.667939
    10  O   -1.022410
    11  C    0.695054
    12  C   -0.056240
    13  C   -0.033482
    14  C   -0.007147
    15  C   -0.005606
    16  C   -0.021782
    17  C   -0.036466
    18  C   -0.128552
    19  C    0.023850
    20  C   -0.039265
    21  C   -0.029096
    22  C   -0.024960
    23  H   -0.063462
    24  H   -0.011546
    25  H   -0.050114
    26  H   -0.019689
    27  H    0.032889
    28  H    0.015656
    29  H    0.015183
    30  H    0.013475
    31  H    0.030737
    32  H    0.132612
    33  H    0.017850
    34  H   -0.000986
    35  H    0.006969
    36  H    0.007313
 Sum of APT charges =  -0.00000
 APT charges with hydrogens summed into heavy atoms:
               1
     1  C   -0.033331
     2  C    0.467548
     3  O   -0.756222
     4  C    0.948786
     5  O   -0.488606
     6  N   -0.027789
     7  N   -0.341068
     8  C    1.382829
     9  O   -0.667939
    10  O   -1.022410
    11  C    0.625251
    12  C   -0.056240
    13  C   -0.000593
    14  C    0.008508
    15  C    0.009576
    16  C   -0.008307
    17  C   -0.005728
    18  C    0.004060
    19  C    0.041700
    20  C   -0.040251
    21  C   -0.022126
    22  C   -0.017648
 Electronic spatial extent (au):  <R**2>=          11453.8597
 Charge=             -0.0000 electrons
 Dipole moment (field-independent basis, Debye):
    X=             -1.0442    Y=             -2.3218    Z=              0.7467  Tot=              2.6531
 Quadrupole moment (field-independent basis, Debye-Ang):
   XX=           -103.0810   YY=           -119.5979   ZZ=           -123.0995
   XY=             -4.5822   XZ=             -1.1000   YZ=             -2.1990
 Traceless Quadrupole moment (field-independent basis, Debye-Ang):
   XX=             12.1785   YY=             -4.3384   ZZ=             -7.8400
   XY=             -4.5822   XZ=             -1.1000   YZ=             -2.1990
 Octapole moment (field-independent basis, Debye-Ang**2):
  XXX=             15.4687  YYY=             -8.9962  ZZZ=              8.0846  XYY=             -3.9489
  XXY=             -0.6229  XXZ=             -2.5139  XZZ=            -30.8386  YZZ=            -10.6723
  YYZ=             -6.9079  XYZ=            -27.6778
 Hexadecapole moment (field-independent basis, Debye-Ang**3):
 XXXX=         -13215.2777 YYYY=           -936.0856 ZZZZ=           -684.1893 XXXY=           -256.8336
 XXXZ=            -69.5256 YYYX=             -0.3722 YYYZ=            -10.4736 ZZZX=              9.5610
 ZZZY=              5.9194 XXYY=          -2253.7790 XXZZ=          -2393.6696 YYZZ=           -270.3173
 XXYZ=            -68.5292 YYXZ=             10.7136 ZZXY=            -11.0979
 N-N= 1.616586460718D+03 E-N=-5.628917978367D+03  KE= 1.019329278337D+03
  Exact polarizability: 282.357  -7.770 172.424  -4.009 -16.801 140.794
 Approx polarizability: 340.110 -10.818 317.276  -1.931 -32.962 244.876
 Calling FoFJK, ICntrl=    100127 FMM=F ISym2X=0 I1Cent= 0 IOpClX= 0 NMat=1 NMatS=1 NMatT=0.
 ***** Axes restored to original set *****
 -------------------------------------------------------------------
 Center     Atomic                   Forces (Hartrees/Bohr)
 Number     Number              X              Y              Z
 -------------------------------------------------------------------
      1        6           0.005413363   -0.009608948   -0.005726604
      2        6           0.024520077   -0.010277878    0.006914975
      3        8           0.004965791   -0.001036262   -0.000708169
      4        6          -0.021831100   -0.060161665    0.005513029
      5        8          -0.047810110    0.037623217    0.043465429
      6        7           0.001319302    0.039298008    0.011057611
      7        7           0.006193579   -0.034810032    0.004186337
      8        6          -0.008200912    0.078984169    0.007974787
      9        8          -0.014072672   -0.023213358    0.000490085
     10        8           0.000581870   -0.019712836   -0.008727098
     11        6           0.015683169    0.026671351   -0.003480186
     12        6          -0.003431854    0.004166936    0.007329257
     13        6           0.001105864   -0.001095174   -0.001058092
     14        6          -0.000966787    0.000411421   -0.001145458
     15        6           0.001599879    0.002271827    0.001941218
     16        6          -0.001178940   -0.002987811   -0.001254689
     17        6           0.001242047   -0.000094792    0.002289504
     18        6           0.017123483    0.003140026   -0.027406463
     19        6          -0.002767592   -0.004817835   -0.001702973
     20        6           0.004797028   -0.000356297   -0.000628552
     21        6          -0.001702454   -0.001687669    0.000921678
     22        6           0.000401167    0.001632121   -0.000180210
     23        1          -0.002262431   -0.000181352    0.002794981
     24        1          -0.005023640    0.013690853    0.000450994
     25        1           0.002390804   -0.016743349   -0.000961719
     26        1          -0.001992045   -0.000663929    0.000096199
     27        1          -0.000015846   -0.002786070   -0.000317161
     28        1          -0.000275004   -0.000258038   -0.000596229
     29        1          -0.000183892    0.000027302   -0.000110665
     30        1          -0.000369476   -0.000220834   -0.000472102
     31        1           0.000556193    0.000107477   -0.002111232
     32        1           0.027136622   -0.018260013   -0.038681027
     33        1          -0.000780903    0.000422935    0.000326963
     34        1           0.000176362   -0.000531925   -0.000284738
     35        1          -0.000762561    0.000050013   -0.000008418
     36        1          -0.001578383    0.001008413   -0.000191262
 -------------------------------------------------------------------
 Cartesian Forces:  Max     0.078984169 RMS     0.015655893
 FormGI is forming the generalized inverse of G from B-inverse, IUseBI=4.

 GradGradGradGradGradGradGradGradGradGradGradGradGradGradGradGradGradGrad
 Berny optimization.
 Internal  Forces:  Max     0.213568179 RMS     0.034863371
 Search for a local minimum.
 Step number   1 out of a maximum of  180
 All quantities printed in internal units (Hartrees-Bohrs-Radians)
 Mixed Optimization -- RFO/linear search
 Second derivative matrix not updated -- analytic derivatives used.
 ITU=  0
     Eigenvalues ---   -0.22395  -0.05715  -0.01519  -0.00377  -0.00221
     Eigenvalues ---   -0.00132  -0.00013   0.00566   0.01542   0.01552
     Eigenvalues ---    0.01704   0.01750   0.01765   0.02061   0.02206
     Eigenvalues ---    0.02228   0.02340   0.02397   0.02504   0.02624
     Eigenvalues ---    0.02647   0.02663   0.02763   0.02772   0.02837
     Eigenvalues ---    0.03666   0.05934   0.06145   0.06716   0.07500
     Eigenvalues ---    0.07677   0.09311   0.09983   0.10401   0.10506
     Eigenvalues ---    0.10999   0.11122   0.11237   0.11661   0.11802
     Eigenvalues ---    0.11827   0.12043   0.12542   0.12561   0.12863
     Eigenvalues ---    0.13017   0.13885   0.17769   0.18027   0.18840
     Eigenvalues ---    0.19206   0.19438   0.19559   0.19579   0.20650
     Eigenvalues ---    0.20975   0.21522   0.22575   0.23708   0.25524
     Eigenvalues ---    0.27321   0.28271   0.28880   0.28948   0.30158
     Eigenvalues ---    0.30704   0.30761   0.32299   0.33538   0.33638
     Eigenvalues ---    0.33821   0.34005   0.35299   0.35431   0.35558
     Eigenvalues ---    0.35592   0.35753   0.35898   0.35920   0.35930
     Eigenvalues ---    0.35963   0.36128   0.36161   0.36903   0.39730
     Eigenvalues ---    0.41482   0.41669   0.41980   0.43984   0.45947
     Eigenvalues ---    0.47214   0.47351   0.47401   0.47789   0.49505
     Eigenvalues ---    0.51253   0.51369   0.63852   0.77385   0.79005
     Eigenvalues ---    0.82192   3.57794
 RFO step:  Lambda=-2.29551044D-01 EMin=-2.23950670D-01
 I=     1 Eig=   -2.24D-01 Dot1= -1.78D-02
 I=     1 Stepn= -6.00D-01 RXN=   6.00D-01 EDone=F
 I=     2 Eig=   -5.72D-02 Dot1= -8.30D-04
 I=     2 Stepn= -3.00D-01 RXN=   6.71D-01 EDone=F
 I=     3 Eig=   -1.52D-02 Dot1=  1.00D-03
 I=     3 Stepn=  1.50D-01 RXN=   6.87D-01 EDone=F
 Mixed    3 eigenvectors in step.  Raw Step.Grad=  1.97D-02.
 RFO eigenvector is Hessian eigenvector with negative curvature.
[...]
    97    N    7  py     Val( 2p)     1.24028
    98    N    7  py     Ryd( 3p)     0.00434
    99    N    7  pz     Val( 2p)     1.40762
   100    N    7  pz     Ryd( 3p)     0.00449
   101    N    7  dxy    Ryd( 3d)     0.00157
   102    N    7  dxz    Ryd( 3d)     0.00090
   103    N    7  dyz    Ryd( 3d)     0.00218
   104    N    7  dx2y2  Ryd( 3d)     0.00212
   105    N    7  dz2    Ryd( 3d)     0.00093
 
   106    C    8  S      Cor( 1S)     1.99950
   107    C    8  S      Val( 2S)     0.73042
   108    C    8  S      Ryd( 3S)     0.00399
   109    C    8  S      Ryd( 4S)     0.00046
   110    C    8  px     Val( 2p)     0.79635
   111    C    8  px     Ryd( 3p)     0.00614
   112    C    8  py     Val( 2p)     0.78940
   113    C    8  py     Ryd( 3p)     0.00400
   114    C    8  pz     Val( 2p)     0.71538
   115    C    8  pz     Ryd( 3p)     0.02339
   116    C    8  dxy    Ryd( 3d)     0.00148
   117    C    8  dxz    Ryd( 3d)     0.00404
   118    C    8  dyz    Ryd( 3d)     0.00302
   119    C    8  dx2y2  Ryd( 3d)     0.00121
   120    C    8  dz2    Ryd( 3d)     0.00258
 
   121    O    9  S      Cor( 1S)     1.99977
   122    O    9  S      Val( 2S)     1.70706
   123    O    9  S      Ryd( 3S)     0.00088
   124    O    9  S      Ryd( 4S)     0.00013
   125    O    9  px     Val( 2p)     1.74701
   126    O    9  px     Ryd( 3p)     0.00137
   127    O    9  py     Val( 2p)     1.48239
   128    O    9  py     Ryd( 3p)     0.00077
   129    O    9  pz     Val( 2p)     1.60233
   130    O    9  pz     Ryd( 3p)     0.00050
   131    O    9  dxy    Ryd( 3d)     0.00049
   132    O    9  dxz    Ryd( 3d)     0.00513
   133    O    9  dyz    Ryd( 3d)     0.00487
   134    O    9  dx2y2  Ryd( 3d)     0.00038
   135    O    9  dz2    Ryd( 3d)     0.00614
 
   136    O   10  S      Cor( 1S)     1.99973
   137    O   10  S      Val( 2S)     1.62920
   138    O   10  S      Ryd( 3S)     0.00200
   139    O   10  S      Ryd( 4S)     0.00010
   140    O   10  px     Val( 2p)     1.42897
   141    O   10  px     Ryd( 3p)     0.00097
   142    O   10  py     Val( 2p)     1.76535
   143    O   10  py     Ryd( 3p)     0.00181
   144    O   10  pz     Val( 2p)     1.68746
   145    O   10  pz     Ryd( 3p)     0.00150
   146    O   10  dxy    Ryd( 3d)     0.00029
   147    O   10  dxz    Ryd( 3d)     0.00154
   148    O   10  dyz    Ryd( 3d)     0.00200
   149    O   10  dx2y2  Ryd( 3d)     0.00059
   150    O   10  dz2    Ryd( 3d)     0.00147
 
   151    C   11  S      Cor( 1S)     1.99912
   152    C   11  S      Val( 2S)     1.03264
   153    C   11  S      Ryd( 3S)     0.00119
   154    C   11  S      Ryd( 4S)     0.00005
   155    C   11  px     Val( 2p)     0.71422
   156    C   11  px     Ryd( 3p)     0.00285
   157    C   11  py     Val( 2p)     1.10631
   158    C   11  py     Ryd( 3p)     0.00136
   159    C   11  pz     Val( 2p)     1.25200
   160    C   11  pz     Ryd( 3p)     0.00758
   161    C   11  dxy    Ryd( 3d)     0.00127
   162    C   11  dxz    Ryd( 3d)     0.00110
   163    C   11  dyz    Ryd( 3d)     0.00098
   164    C   11  dx2y2  Ryd( 3d)     0.00170
   165    C   11  dz2    Ryd( 3d)     0.00106
 
   166    C   12  S      Cor( 1S)     1.99901
   167    C   12  S      Val( 2S)     0.88903
   168    C   12  S      Ryd( 3S)     0.00070
   169    C   12  S      Ryd( 4S)     0.00006
   170    C   12  px     Val( 2p)     1.03088
   171    C   12  px     Ryd( 3p)     0.00191
   172    C   12  py     Val( 2p)     1.06138
   173    C   12  py     Ryd( 3p)     0.00460
   174    C   12  pz     Val( 2p)     1.09647
   175    C   12  pz     Ryd( 3p)     0.00443
   176    C   12  dxy    Ryd( 3d)     0.00036
   177    C   12  dxz    Ryd( 3d)     0.00057
   178    C   12  dyz    Ryd( 3d)     0.00075
   179    C   12  dx2y2  Ryd( 3d)     0.00053
   180    C   12  dz2    Ryd( 3d)     0.00060
 
   181    C   13  S      Cor( 1S)     1.99903
   182    C   13  S      Val( 2S)     0.95732
   183    C   13  S      Ryd( 3S)     0.00062
   184    C   13  S      Ryd( 4S)     0.00004
   185    C   13  px     Val( 2p)     0.98581
   186    C   13  px     Ryd( 3p)     0.00092
   187    C   13  py     Val( 2p)     1.10917
   188    C   13  py     Ryd( 3p)     0.00424
   189    C   13  pz     Val( 2p)     1.14702
   190    C   13  pz     Ryd( 3p)     0.00474
   191    C   13  dxy    Ryd( 3d)     0.00047
   192    C   13  dxz    Ryd( 3d)     0.00044
   193    C   13  dyz    Ryd( 3d)     0.00084
   194    C   13  dx2y2  Ryd( 3d)     0.00044
   195    C   13  dz2    Ryd( 3d)     0.00061
 
   196    C   14  S      Cor( 1S)     1.99910
   197    C   14  S      Val( 2S)     0.96236
   198    C   14  S      Ryd( 3S)     0.00058
   199    C   14  S      Ryd( 4S)     0.00003
   200    C   14  px     Val( 2p)     0.99778
   201    C   14  px     Ryd( 3p)     0.00084
   202    C   14  py     Val( 2p)     1.07642
   203    C   14  py     Ryd( 3p)     0.00440
   204    C   14  pz     Val( 2p)     1.17962
   205    C   14  pz     Ryd( 3p)     0.00522
   206    C   14  dxy    Ryd( 3d)     0.00046
   207    C   14  dxz    Ryd( 3d)     0.00037
   208    C   14  dyz    Ryd( 3d)     0.00073
   209    C   14  dx2y2  Ryd( 3d)     0.00043
   210    C   14  dz2    Ryd( 3d)     0.00078
 
   211    C   15  S      Cor( 1S)     1.99910
   212    C   15  S      Val( 2S)     0.96502
   213    C   15  S      Ryd( 3S)     0.00053
   214    C   15  S      Ryd( 4S)     0.00003
   215    C   15  px     Val( 2p)     0.99730
   216    C   15  px     Ryd( 3p)     0.00090
   217    C   15  py     Val( 2p)     1.18275
   218    C   15  py     Ryd( 3p)     0.00486
   219    C   15  pz     Val( 2p)     1.06518
   220    C   15  pz     Ryd( 3p)     0.00436
   221    C   15  dxy    Ryd( 3d)     0.00041
   222    C   15  dxz    Ryd( 3d)     0.00052
   223    C   15  dyz    Ryd( 3d)     0.00063
   224    C   15  dx2y2  Ryd( 3d)     0.00061
   225    C   15  dz2    Ryd( 3d)     0.00062
 
   226    C   16  S      Cor( 1S)     1.99910
   227    C   16  S      Val( 2S)     0.96157
   228    C   16  S      Ryd( 3S)     0.00058
   229    C   16  S      Ryd( 4S)     0.00003
   230    C   16  px     Val( 2p)     1.00604
   231    C   16  px     Ryd( 3p)     0.00089
   232    C   16  py     Val( 2p)     1.10176
   233    C   16  py     Ryd( 3p)     0.00452
   234    C   16  pz     Val( 2p)     1.14827
   235    C   16  pz     Ryd( 3p)     0.00505
   236    C   16  dxy    Ryd( 3d)     0.00045
   237    C   16  dxz    Ryd( 3d)     0.00044
   238    C   16  dyz    Ryd( 3d)     0.00082
   239    C   16  dx2y2  Ryd( 3d)     0.00043
   240    C   16  dz2    Ryd( 3d)     0.00062
 
   241    C   17  S      Cor( 1S)     1.99903
   242    C   17  S      Val( 2S)     0.95420
   243    C   17  S      Ryd( 3S)     0.00062
   244    C   17  S      Ryd( 4S)     0.00005
   245    C   17  px     Val( 2p)     0.99057
   246    C   17  px     Ryd( 3p)     0.00080
   247    C   17  py     Val( 2p)     1.08081
   248    C   17  py     Ryd( 3p)     0.00393
   249    C   17  pz     Val( 2p)     1.17395
   250    C   17  pz     Ryd( 3p)     0.00500
   251    C   17  dxy    Ryd( 3d)     0.00048
   252    C   17  dxz    Ryd( 3d)     0.00035
   253    C   17  dyz    Ryd( 3d)     0.00076
   254    C   17  dx2y2  Ryd( 3d)     0.00043
   255    C   17  dz2    Ryd( 3d)     0.00076
 
   256    C   18  S      Cor( 1S)     1.99903
   257    C   18  S      Val( 2S)     0.95753
   258    C   18  S      Ryd( 3S)     0.00062
   259    C   18  S      Ryd( 4S)     0.00004
   260    C   18  px     Val( 2p)     1.00668
   261    C   18  px     Ryd( 3p)     0.00154
   262    C   18  py     Val( 2p)     1.07912
   263    C   18  py     Ryd( 3p)     0.00359
   264    C   18  pz     Val( 2p)     1.15563
   265    C   18  pz     Ryd( 3p)     0.00480
   266    C   18  dxy    Ryd( 3d)     0.00046
   267    C   18  dxz    Ryd( 3d)     0.00051
   268    C   18  dyz    Ryd( 3d)     0.00074
   269    C   18  dx2y2  Ryd( 3d)     0.00044
   270    C   18  dz2    Ryd( 3d)     0.00064
 
   271    C   19  S      Cor( 1S)     1.99910
   272    C   19  S      Val( 2S)     0.96251
   273    C   19  S      Ryd( 3S)     0.00058
   274    C   19  S      Ryd( 4S)     0.00003
   275    C   19  px     Val( 2p)     1.00897
   276    C   19  px     Ryd( 3p)     0.00139
   277    C   19  py     Val( 2p)     1.07203
   278    C   19  py     Ryd( 3p)     0.00391
   279    C   19  pz     Val( 2p)     1.17277
   280    C   19  pz     Ryd( 3p)     0.00518
   281    C   19  dxy    Ryd( 3d)     0.00042
   282    C   19  dxz    Ryd( 3d)     0.00042
   283    C   19  dyz    Ryd( 3d)     0.00072
   284    C   19  dx2y2  Ryd( 3d)     0.00046
   285    C   19  dz2    Ryd( 3d)     0.00074
 
   286    C   20  S      Cor( 1S)     1.99910
   287    C   20  S      Val( 2S)     0.96535
   288    C   20  S      Ryd( 3S)     0.00053
   289    C   20  S      Ryd( 4S)     0.00003
   290    C   20  px     Val( 2p)     1.02534
   291    C   20  px     Ryd( 3p)     0.00152
   292    C   20  py     Val( 2p)     1.15514
   293    C   20  py     Ryd( 3p)     0.00426
   294    C   20  pz     Val( 2p)     1.06292
   295    C   20  pz     Ryd( 3p)     0.00433
   296    C   20  dxy    Ryd( 3d)     0.00056
   297    C   20  dxz    Ryd( 3d)     0.00054
   298    C   20  dyz    Ryd( 3d)     0.00060
   299    C   20  dx2y2  Ryd( 3d)     0.00046
   300    C   20  dz2    Ryd( 3d)     0.00063
 
   301    C   21  S      Cor( 1S)     1.99910
   302    C   21  S      Val( 2S)     0.96186
   303    C   21  S      Ryd( 3S)     0.00058
   304    C   21  S      Ryd( 4S)     0.00003
   305    C   21  px     Val( 2p)     1.02254
   306    C   21  px     Ryd( 3p)     0.00147
   307    C   21  py     Val( 2p)     1.07676
   308    C   21  py     Ryd( 3p)     0.00391
   309    C   21  pz     Val( 2p)     1.15619
   310    C   21  pz     Ryd( 3p)     0.00508
   311    C   21  dxy    Ryd( 3d)     0.00045
   312    C   21  dxz    Ryd( 3d)     0.00051
   313    C   21  dyz    Ryd( 3d)     0.00072
   314    C   21  dx2y2  Ryd( 3d)     0.00043
   315    C   21  dz2    Ryd( 3d)     0.00065
 
   316    C   22  S      Cor( 1S)     1.99903
   317    C   22  S      Val( 2S)     0.95446
   318    C   22  S      Ryd( 3S)     0.00062
   319    C   22  S      Ryd( 4S)     0.00005
   320    C   22  px     Val( 2p)     1.00294
   321    C   22  px     Ryd( 3p)     0.00132
   322    C   22  py     Val( 2p)     1.07497
   323    C   22  py     Ryd( 3p)     0.00351
   324    C   22  pz     Val( 2p)     1.16644
   325    C   22  pz     Ryd( 3p)     0.00491
   326    C   22  dxy    Ryd( 3d)     0.00043
   327    C   22  dxz    Ryd( 3d)     0.00041
   328    C   22  dyz    Ryd( 3d)     0.00075
   329    C   22  dx2y2  Ryd( 3d)     0.00048
   330    C   22  dz2    Ryd( 3d)     0.00071
 
   331    H   23  S      Val( 1S)     0.75508
   332    H   23  S      Ryd( 2S)     0.00215
 
   333    H   24  S      Val( 1S)     0.75701
   334    H   24  S      Ryd( 2S)     0.00119
 
   335    H   25  S      Val( 1S)     0.75750
   336    H   25  S      Ryd( 2S)     0.00114
 
   337    H   26  S      Val( 1S)     0.75581
   338    H   26  S      Ryd( 2S)     0.00222
 
   339    H   27  S      Val( 1S)     0.74690
   340    H   27  S      Ryd( 2S)     0.00135
 
   341    H   28  S      Val( 1S)     0.75898
   342    H   28  S      Ryd( 2S)     0.00084
 
   343    H   29  S      Val( 1S)     0.76070
   344    H   29  S      Ryd( 2S)     0.00082
 
   345    H   30  S      Val( 1S)     0.75979
   346    H   30  S      Ryd( 2S)     0.00085
 
   347    H   31  S      Val( 1S)     0.76196
   348    H   31  S      Ryd( 2S)     0.00106
 
   349    H   32  S      Val( 1S)     0.74713
   350    H   32  S      Ryd( 2S)     0.00141
 
   351    H   33  S      Val( 1S)     0.75837
   352    H   33  S      Ryd( 2S)     0.00083
 
   353    H   34  S      Val( 1S)     0.76011
   354    H   34  S      Ryd( 2S)     0.00082
 
   355    H   35  S      Val( 1S)     0.75922
   356    H   35  S      Ryd( 2S)     0.00084
 
   357    H   36  S      Val( 1S)     0.76124
   358    H   36  S      Ryd( 2S)     0.00106


 Summary of Natural Population Analysis:                  
                                                          
                                       Natural Population 
                Natural  -----------------------------------------------
    Atom  No    Charge         Core      Valence    Rydberg      Total
 -----------------------------------------------------------------------
      C    1   -0.09157      1.99901     4.07803    0.01454     6.09157
      C    2   -0.12515      1.99912     4.10703    0.01900     6.12515
      O    3   -0.52048      1.99973     6.50840    0.01235     8.52048
      C    4    0.92284      1.99950     3.02710    0.05055     5.07716
      O    5   -0.55197      1.99977     6.53157    0.02064     8.55197
      N    6   -0.21244      1.99938     5.18688    0.02618     7.21244
      N    7   -0.21743      1.99938     5.19163    0.02641     7.21743
      C    8    0.91862      1.99950     3.03156    0.05032     5.08138
      O    9   -0.55921      1.99977     6.53878    0.02066     8.55921
      O   10   -0.52299      1.99973     6.51098    0.01228     8.52299
      C   11   -0.12342      1.99912     4.10518    0.01912     6.12342
      C   12   -0.09127      1.99901     4.07776    0.01450     6.09127
      C   13   -0.21170      1.99903     4.19931    0.01335     6.21170
      C   14   -0.22911      1.99910     4.21618    0.01383     6.22911
      C   15   -0.22282      1.99910     4.21025    0.01347     6.22282
      C   16   -0.23057      1.99910     4.21764    0.01383     6.23057
      C   17   -0.21173      1.99903     4.19953    0.01317     6.21173
      C   18   -0.21137      1.99903     4.19895    0.01339     6.21137
      C   19   -0.22924      1.99910     4.21628    0.01386     6.22924
      C   20   -0.22132      1.99910     4.20875    0.01347     6.22132
      C   21   -0.23028      1.99910     4.21734    0.01384     6.23028
      C   22   -0.21102      1.99903     4.19881    0.01318     6.21102
      H   23    0.24277      0.00000     0.75508    0.00215     0.75723
      H   24    0.24180      0.00000     0.75701    0.00119     0.75820
      H   25    0.24136      0.00000     0.75750    0.00114     0.75864
      H   26    0.24197      0.00000     0.75581    0.00222     0.75803
      H   27    0.25175      0.00000     0.74690    0.00135     0.74825
      H   28    0.24019      0.00000     0.75898    0.00084     0.75981
      H   29    0.23847      0.00000     0.76070    0.00082     0.76153
      H   30    0.23936      0.00000     0.75979    0.00085     0.76064
      H   31    0.23698      0.00000     0.76196    0.00106     0.76302
      H   32    0.25146      0.00000     0.74713    0.00141     0.74854
      H   33    0.24080      0.00000     0.75837    0.00083     0.75920
      H   34    0.23907      0.00000     0.76011    0.00082     0.76093
      H   35    0.23994      0.00000     0.75922    0.00084     0.76006
      H   36    0.23770      0.00000     0.76124    0.00106     0.76230
 =======================================================================
   * Total *    0.00000     43.98374   111.57773    0.43853   156.00000

                                 Natural Population      
 --------------------------------------------------------
   Core                      43.98374 ( 99.9630% of  44)
   Valence                  111.57773 ( 99.6230% of 112)
   Natural Minimal Basis    155.56147 ( 99.7189% of 156)
   Natural Rydberg Basis      0.43853 (  0.2811% of 156)
 --------------------------------------------------------

    Atom  No          Natural Electron Configuration
 ----------------------------------------------------------------------------
      C    1      [core]2S( 0.89)2p( 3.19)3p( 0.01)
      C    2      [core]2S( 1.03)2p( 3.07)3p( 0.01)3d( 0.01)
      O    3      [core]2S( 1.63)2p( 4.88)3d( 0.01)
      C    4      [core]2S( 0.73)2p( 2.30)3p( 0.03)3d( 0.01)
      O    5      [core]2S( 1.71)2p( 4.82)3d( 0.02)
      N    6      [core]2S( 1.39)2p( 3.80)3S( 0.01)3p( 0.01)3d( 0.01)
      N    7      [core]2S( 1.39)2p( 3.80)3S( 0.01)3p( 0.01)3d( 0.01)
      C    8      [core]2S( 0.73)2p( 2.30)3p( 0.03)3d( 0.01)
      O    9      [core]2S( 1.71)2p( 4.83)3d( 0.02)
      O   10      [core]2S( 1.63)2p( 4.88)3d( 0.01)
      C   11      [core]2S( 1.03)2p( 3.07)3p( 0.01)3d( 0.01)
      C   12      [core]2S( 0.89)2p( 3.19)3p( 0.01)
      C   13      [core]2S( 0.96)2p( 3.24)3p( 0.01)
      C   14      [core]2S( 0.96)2p( 3.25)3p( 0.01)
      C   15      [core]2S( 0.97)2p( 3.25)3p( 0.01)
      C   16      [core]2S( 0.96)2p( 3.26)3p( 0.01)
      C   17      [core]2S( 0.95)2p( 3.25)3p( 0.01)
      C   18      [core]2S( 0.96)2p( 3.24)3p( 0.01)
      C   19      [core]2S( 0.96)2p( 3.25)3p( 0.01)
      C   20      [core]2S( 0.97)2p( 3.24)3p( 0.01)
      C   21      [core]2S( 0.96)2p( 3.26)3p( 0.01)
      C   22      [core]2S( 0.95)2p( 3.24)3p( 0.01)
      H   23            1S( 0.76)
      H   24            1S( 0.76)
      H   25            1S( 0.76)
      H   26            1S( 0.76)
      H   27            1S( 0.75)
      H   28            1S( 0.76)
      H   29            1S( 0.76)
      H   30            1S( 0.76)
      H   31            1S( 0.76)
      H   32            1S( 0.75)
      H   33            1S( 0.76)
      H   34            1S( 0.76)
      H   35            1S( 0.76)
      H   36            1S( 0.76)


 NBO analysis skipped by request.
 1\1\GINC-DELLA-R2C1N2\SP\RB3LYP TD-FC\6-31G(d)\C16H14N2O4\BJS4\22-Aug-
 2020\0\\# TD(NStates=10, Root=1) B3LYP/6-31G* scf=qc volume pop=NPA de
 nsity=current Geom=AllCheck Guess=Read\\Title Card Required\\0,1\C,0,-
 4.0495779323,-0.6858875413,-2.1280471798\C,0,-5.5493115831,-0.70056290
 76,-2.2549056967\O,0,-6.1429802621,0.566413686,-1.8093224018\C,0,-6.46
 77520814,0.6465894518,-0.5226214314\O,0,-6.3572869969,-0.1957232467,0.
 333740379\N,0,-6.9023283034,1.9908516934,-0.2025153115\N,0,-8.09633158
 17,2.1972341248,-0.4897172497\C,0,-8.5313504121,3.5413810278,-0.165620
 6345\O,0,-8.7901120966,4.3341882778,-1.0374313215\O,0,-8.6916362119,3.
 6762618713,1.1474810506\C,0,-9.2513533243,4.9531708534,1.6064752805\C,
 0,-8.1726294383,5.9616523708,1.8980671682\C,0,-7.7360428141,6.84758424
 7,0.9037746687\C,0,-6.7310188999,7.7745855303,1.1796011477\C,0,-6.1528
 242853,7.824686949,2.4497451566\C,0,-6.5818092952,6.944515876,3.445219
 6437\C,0,-7.5872766133,6.0183973948,3.1691287512\C,0,-3.4276078951,-1.
 1514515662,-0.9614837116\C,0,-2.0376562397,-1.1260740077,-0.8470267363
 \C,0,-1.2567368083,-0.6355153303,-1.8955924635\C,0,-1.8690973991,-0.16
 91359339,-3.0606944832\C,0,-3.2587513189,-0.1952397548,-3.1748254823\H
 ,0,-6.0009193471,-1.5074918302,-1.6756563667\H,0,-5.8653371577,-0.7714
 269131,-3.2968133505\H,0,-9.7991335996,4.6776388286,2.5091023294\H,0,-
 9.9466418762,5.3088028888,0.8437678733\H,0,-8.1802145212,6.7983524728,
 -0.0860902033\H,0,-6.4001239335,8.4586542535,0.4029006569\H,0,-5.37122
 93545,8.5487614626,2.6639167214\H,0,-6.1359541285,6.9808589763,4.43545
 70384\H,0,-7.9218954451,5.3336495613,3.9450914438\H,0,-4.0385340051,-1
 .522539518,-0.1437756114\H,0,-1.5643722223,-1.4907427906,0.0605588036\
 H,0,-0.1738045918,-0.6185228752,-1.8061293435\H,0,-1.2653530781,0.2114
 145866,-3.8800709002\H,0,-3.7352749461,0.1666078309,-4.0831282338\\Ver
 sion=ES64L-G16RevA.03\State=1-A\HF=-1028.4826391\RMSD=8.013e-10\Dipole
 =0.7032003,0.1668844,0.0907681\Quadrupole=0.4426569,0.1273943,-0.57005
 12,-3.5027461,-5.7735512,9.4010285\PG=C01 [X(C16H14N2O4)]\\@


 Everywhere is walking distance if you have the time.
                                    -- Steven Wright
 Job cpu time:       0 days  0 hours 44 minutes  0.4 seconds.
 Elapsed time:       0 days  0 hours  8 minutes 50.0 seconds.
 File lengths (MBytes):  RWF=   1047 Int=      0 D2E=      0 Chk=    268 Scr=      1
 Normal termination of Gaussian 16 at Sat Aug 22 17:51:27 2020.
