 Entering Gaussian System, Link 0=g16
 Input=azadicarboxylate_2_conf27123.com
 Output=azadicarboxylate_2_conf27123.log
 Initial command:
 /opt/export//g16/l1.exe "/scratch/bjs4/job.3309/Gau-3311.inp" -scrdir="/scratch/bjs4/job.3309/"
 Entering Link 1 = /opt/export//g16/l1.exe PID=      3312.
  
 Copyright (c) 1988,1990,1992,1993,1995,1998,2003,2009,2016,
            Gaussian, Inc.  All Rights Reserved.
  
 This is part of the Gaussian(R) 16 program.  It is based on
 the Gaussian(R) 09 system (copyright 2009, Gaussian, Inc.),
 the Gaussian(R) 03 system (copyright 2003, Gaussian, Inc.),
 the Gaussian(R) 98 system (copyright 1998, Gaussian, Inc.),
 the Gaussian(R) 94 system (copyright 1995, Gaussian, Inc.),
 the Gaussian 92(TM) system (copyright 1992, Gaussian, Inc.),
 the Gaussian 90(TM) system (copyright 1990, Gaussian, Inc.),
 the Gaussian 88(TM) system (copyright 1988, Gaussian, Inc.),
 the Gaussian 86(TM) system (copyright 1986, Carnegie Mellon
 University), and the Gaussian 82(TM) system (copyright 1983,
 Carnegie Mellon University). Gaussian is a federally registered
 trademark of Gaussian, Inc.
  
 This software contains proprietary and confidential information,
 including trade secrets, belonging to Gaussian, Inc.
  
 This software is provided under written license and may be
 used, copied, transmitted, or stored only in accord with that
 written license.
  
 The following legend is applicable only to US Government
 contracts under FAR:
  
                    RESTRICTED RIGHTS LEGEND
  
 Use, reproduction and disclosure by the US Government is
 subject to restrictions as set forth in subparagraphs (a)
 and (c) of the Commercial Computer Software - Restricted
 Rights clause in FAR 52.227-19.
  
 Gaussian, Inc.
 340 Quinnipiac St., Bldg. 40, Wallingford CT 06492
  
  
 ---------------------------------------------------------------
 Warning -- This program may not be used in any manner that
 competes with the business of Gaussian, Inc. or will provide
 assistance to any competitor of Gaussian, Inc.  The licensee
 of this program is prohibited from giving any competitor of
 Gaussian, Inc. access to this program.  By using this program,
 the user acknowledges that Gaussian, Inc. is engaged in the
 business of creating and licensing software in the field of
 computational chemistry and represents and warrants to the
 licensee that it is not a competitor of Gaussian, Inc. and that
 it will not use this program in any manner prohibited above.
 ---------------------------------------------------------------
  

 Cite this work as:
 Gaussian 16, Revision A.03,
 M. J. Frisch, G. W. Trucks, H. B. Schlegel, G. E. Scuseria, 
 M. A. Robb, J. R. Cheeseman, G. Scalmani, V. Barone, 
 G. A. Petersson, H. Nakatsuji, X. Li, M. Caricato, A. V. Marenich, 
 J. Bloino, B. G. Janesko, R. Gomperts, B. Mennucci, H. P. Hratchian, 
 J. V. Ortiz, A. F. Izmaylov, J. L. Sonnenberg, D. Williams-Young, 
 F. Ding, F. Lipparini, F. Egidi, J. Goings, B. Peng, A. Petrone, 
 T. Henderson, D. Ranasinghe, V. G. Zakrzewski, J. Gao, N. Rega, 
 G. Zheng, W. Liang, M. Hada, M. Ehara, K. Toyota, R. Fukuda, 
 J. Hasegawa, M. Ishida, T. Nakajima, Y. Honda, O. Kitao, H. Nakai, 
 T. Vreven, K. Throssell, J. A. Montgomery, Jr., J. E. Peralta, 
 F. Ogliaro, M. J. Bearpark, J. J. Heyd, E. N. Brothers, K. N. Kudin, 
 V. N. Staroverov, T. A. Keith, R. Kobayashi, J. Normand, 
 K. Raghavachari, A. P. Rendell, J. C. Burant, S. S. Iyengar, 
 J. Tomasi, M. Cossi, J. M. Millam, M. Klene, C. Adamo, R. Cammi, 
 J. W. Ochterski, R. L. Martin, K. Morokuma, O. Farkas, 
 J. B. Foresman, and D. J. Fox, Gaussian, Inc., Wallingford CT, 2016.
 
 ******************************************
 Gaussian 16:  ES64L-G16RevA.03 25-Dec-2016
                22-Aug-2020 
 ******************************************
 %nprocshared=4
 Will use up to    4 processors via shared memory.
 %Mem=8GB
 %Chk=azadicarboxylate_2_conf271.chk
 ---------------------------------
 # opt=CalcAll B3LYP/6-31G* scf=qc
 ---------------------------------
 1/10=4,18=20,19=15,26=3,38=1/1,3;
 2/9=110,12=2,17=6,18=5,40=1/2;
 3/5=1,6=6,7=1,11=2,25=1,30=1,71=2,74=-5,140=1/1,2,3;
 4//1;
 5/5=2,8=3,38=5/8;
 8/6=4,10=90,11=11/1;
 11/6=1,8=1,9=11,15=111,16=1/1,2,10;
 10/6=1/2;
 6/7=2,8=2,9=2,10=2,18=1,28=1/1;
 7/10=1,25=1/1,2,3,16;
 1/10=4,18=20,19=15,26=3/3(3);
 2/9=110/2;
 7/8=1,9=1,25=1,44=-1/16;
 99//99;
 2/9=110/2;
 3/5=1,6=6,7=1,11=2,25=1,30=1,71=2,74=-5,140=1/1,2,3;
 4/5=5,16=3,69=1/1;
 5/5=2,8=3,38=5/8;
 8/6=4,10=90,11=11/1;
 11/6=1,8=1,9=11,15=111,16=1/1,2,10;
 10/6=1/2;
 7/10=1,25=1/1,2,3,16;
 1/10=4,18=20,19=15,26=3/3(-8);
 2/9=110/2;
 6/7=2,8=2,9=2,10=2,18=1,19=2,28=1/1;
 7/8=1,9=1,25=1,44=-1/16;
 99//99;
 -------------------
 Title Card Required
 -------------------
 Symbolic Z-matrix:
 Charge =  0 Multiplicity = 1
 C                     5.67813  -1.48035  -0.35605 
 C                     5.50972   0.02981  -0.48965 
 C                     4.10492   0.36075  -0.98374 
 O1                    5.68323   0.65714   0.79504 
 C2                    4.6047    0.6255    1.633 
 O3                    3.53428   0.10185   1.34169 
 N4                    4.9196    1.2612    2.8145 
 N5                    6.1396    1.1728    3.0913 
 C6                    6.4621    1.8155    4.2661 
 O7                    7.35585   1.51411   5.05003 
 O8                    5.61887   2.87525   4.45052 
 C                     5.82413   3.65577   5.64319 
 C                     5.1803    2.95893   6.83754 
 C                     7.32874   3.78447   5.85673 
 H                     5.51445  -1.98192  -1.31503 
 H                     4.97444  -1.88815   0.37794 
 H                     6.68226  -1.73476  -0.00335 
 H                     6.23057   0.43395  -1.21122 
 H                     3.34488   0.02519  -0.26931 
 H                     3.90432  -0.10804  -1.95286 
 H                     3.98103   1.44375  -1.09092 
 H                     5.40807   4.66262   5.51638 
 H                     5.56276   1.93824   6.94732 
 H                     4.0967    2.87584   6.70617 
 H                     5.37159   3.50716   7.76502 
 H                     7.80089   2.79935   5.9454 
 H                     7.55358   4.36162   6.75965 
 H                     7.79653   4.2826    5.00101 
 

 GradGradGradGradGradGradGradGradGradGradGradGradGradGradGradGradGradGrad
 Berny optimization.
 Initialization pass.
                           ----------------------------
                           !    Initial Parameters    !
                           ! (Angstroms and Degrees)  !
 --------------------------                            --------------------------
 ! Name  Definition              Value          Derivative Info.                !
 --------------------------------------------------------------------------------
 ! R1    R(1,2)                  1.5254         calculate D2E/DX2 analytically  !
 ! R2    R(1,15)                 1.0945         calculate D2E/DX2 analytically  !
 ! R3    R(1,16)                 1.0955         calculate D2E/DX2 analytically  !
 ! R4    R(1,17)                 1.0943         calculate D2E/DX2 analytically  !
 ! R5    R(2,3)                  1.5255         calculate D2E/DX2 analytically  !
 ! R6    R(2,4)                  1.4402         calculate D2E/DX2 analytically  !
 ! R7    R(2,18)                 1.0971         calculate D2E/DX2 analytically  !
 ! R8    R(3,19)                 1.0958         calculate D2E/DX2 analytically  !
 ! R9    R(3,20)                 1.0951         calculate D2E/DX2 analytically  !
 ! R10   R(3,21)                 1.0953         calculate D2E/DX2 analytically  !
 ! R11   R(4,5)                  1.3662         calculate D2E/DX2 analytically  !
 ! R12   R(5,6)                  1.2267         calculate D2E/DX2 analytically  !
 ! R13   R(5,7)                  1.3781         calculate D2E/DX2 analytically  !
 ! R14   R(7,8)                  1.2541         calculate D2E/DX2 analytically  !
 ! R15   R(8,9)                  1.3774         calculate D2E/DX2 analytically  !
 ! R16   R(9,10)                 1.2264         calculate D2E/DX2 analytically  !
 ! R17   R(9,11)                 1.3668         calculate D2E/DX2 analytically  !
 ! R18   R(11,12)                1.4401         calculate D2E/DX2 analytically  !
 ! R19   R(12,13)                1.5253         calculate D2E/DX2 analytically  !
 ! R20   R(12,14)                1.5251         calculate D2E/DX2 analytically  !
 ! R21   R(12,22)                1.0968         calculate D2E/DX2 analytically  !
 ! R22   R(13,23)                1.0955         calculate D2E/DX2 analytically  !
 ! R23   R(13,24)                1.0947         calculate D2E/DX2 analytically  !
 ! R24   R(13,25)                1.0942         calculate D2E/DX2 analytically  !
 ! R25   R(14,26)                1.096          calculate D2E/DX2 analytically  !
 ! R26   R(14,27)                1.095          calculate D2E/DX2 analytically  !
 ! R27   R(14,28)                1.0951         calculate D2E/DX2 analytically  !
 ! A1    A(2,1,15)             111.1265         calculate D2E/DX2 analytically  !
 ! A2    A(2,1,16)             110.8721         calculate D2E/DX2 analytically  !
 ! A3    A(2,1,17)             111.0828         calculate D2E/DX2 analytically  !
 ! A4    A(15,1,16)            108.6854         calculate D2E/DX2 analytically  !
 ! A5    A(15,1,17)            108.2453         calculate D2E/DX2 analytically  !
 ! A6    A(16,1,17)            106.674          calculate D2E/DX2 analytically  !
 ! A7    A(1,2,3)              110.1704         calculate D2E/DX2 analytically  !
 ! A8    A(1,2,4)              109.8658         calculate D2E/DX2 analytically  !
 ! A9    A(1,2,18)             110.4726         calculate D2E/DX2 analytically  !
 ! A10   A(3,2,4)              107.7806         calculate D2E/DX2 analytically  !
 ! A11   A(3,2,18)             108.1877         calculate D2E/DX2 analytically  !
 ! A12   A(4,2,18)             110.309          calculate D2E/DX2 analytically  !
 ! A13   A(2,3,19)             111.1701         calculate D2E/DX2 analytically  !
 ! A14   A(2,3,20)             111.2511         calculate D2E/DX2 analytically  !
 ! A15   A(2,3,21)             110.509          calculate D2E/DX2 analytically  !
 ! A16   A(19,3,20)            108.5933         calculate D2E/DX2 analytically  !
 ! A17   A(19,3,21)            106.7465         calculate D2E/DX2 analytically  !
 ! A18   A(20,3,21)            108.4185         calculate D2E/DX2 analytically  !
 ! A19   A(2,4,5)              116.2282         calculate D2E/DX2 analytically  !
 ! A20   A(4,5,6)              123.5796         calculate D2E/DX2 analytically  !
 ! A21   A(4,5,7)              109.5593         calculate D2E/DX2 analytically  !
 ! A22   A(6,5,7)              126.8611         calculate D2E/DX2 analytically  !
 ! A23   A(5,7,8)              112.2711         calculate D2E/DX2 analytically  !
 ! A24   A(7,8,9)              112.5273         calculate D2E/DX2 analytically  !
 ! A25   A(8,9,10)             126.9509         calculate D2E/DX2 analytically  !
 ! A26   A(8,9,11)             109.4156         calculate D2E/DX2 analytically  !
 ! A27   A(10,9,11)            123.6334         calculate D2E/DX2 analytically  !
 ! A28   A(9,11,12)            116.363          calculate D2E/DX2 analytically  !
 ! A29   A(11,12,13)           109.9209         calculate D2E/DX2 analytically  !
 ! A30   A(11,12,14)           107.5967         calculate D2E/DX2 analytically  !
 ! A31   A(11,12,22)           110.3486         calculate D2E/DX2 analytically  !
 ! A32   A(13,12,14)           110.2023         calculate D2E/DX2 analytically  !
 ! A33   A(13,12,22)           110.4752         calculate D2E/DX2 analytically  !
 ! A34   A(14,12,22)           108.2379         calculate D2E/DX2 analytically  !
 ! A35   A(12,13,23)           110.9011         calculate D2E/DX2 analytically  !
 ! A36   A(12,13,24)           111.0099         calculate D2E/DX2 analytically  !
 ! A37   A(12,13,25)           111.1623         calculate D2E/DX2 analytically  !
 ! A38   A(23,13,24)           106.6716         calculate D2E/DX2 analytically  !
 ! A39   A(23,13,25)           108.713          calculate D2E/DX2 analytically  !
 ! A40   A(24,13,25)           108.2274         calculate D2E/DX2 analytically  !
 ! A41   A(12,14,26)           111.1292         calculate D2E/DX2 analytically  !
 ! A42   A(12,14,27)           111.255          calculate D2E/DX2 analytically  !
 ! A43   A(12,14,28)           110.5118         calculate D2E/DX2 analytically  !
 ! A44   A(26,14,27)           108.578          calculate D2E/DX2 analytically  !
 ! A45   A(26,14,28)           106.7413         calculate D2E/DX2 analytically  !
 ! A46   A(27,14,28)           108.475          calculate D2E/DX2 analytically  !
 ! D1    D(15,1,2,3)            59.3505         calculate D2E/DX2 analytically  !
 ! D2    D(15,1,2,4)           177.947          calculate D2E/DX2 analytically  !
 ! D3    D(15,1,2,18)          -60.1273         calculate D2E/DX2 analytically  !
 ! D4    D(16,1,2,3)           -61.6412         calculate D2E/DX2 analytically  !
 ! D5    D(16,1,2,4)            56.9553         calculate D2E/DX2 analytically  !
 ! D6    D(16,1,2,18)          178.881          calculate D2E/DX2 analytically  !
 ! D7    D(17,1,2,3)           179.9272         calculate D2E/DX2 analytically  !
 ! D8    D(17,1,2,4)           -61.4763         calculate D2E/DX2 analytically  !
 ! D9    D(17,1,2,18)           60.4494         calculate D2E/DX2 analytically  !
 ! D10   D(1,2,3,19)            62.2005         calculate D2E/DX2 analytically  !
 ! D11   D(1,2,3,20)           -58.963          calculate D2E/DX2 analytically  !
 ! D12   D(1,2,3,21)          -179.4554         calculate D2E/DX2 analytically  !
 ! D13   D(4,2,3,19)           -57.6662         calculate D2E/DX2 analytically  !
 ! D14   D(4,2,3,20)          -178.8297         calculate D2E/DX2 analytically  !
 ! D15   D(4,2,3,21)            60.6779         calculate D2E/DX2 analytically  !
 ! D16   D(18,2,3,19)         -176.9426         calculate D2E/DX2 analytically  !
 ! D17   D(18,2,3,20)           61.8939         calculate D2E/DX2 analytically  !
 ! D18   D(18,2,3,21)          -58.5985         calculate D2E/DX2 analytically  !
 ! D19   D(1,2,4,5)            -80.4705         calculate D2E/DX2 analytically  !
 ! D20   D(3,2,4,5)             39.5887         calculate D2E/DX2 analytically  !
 ! D21   D(18,2,4,5)           157.5063         calculate D2E/DX2 analytically  !
 ! D22   D(2,4,5,6)             -0.0004         calculate D2E/DX2 analytically  !
 ! D23   D(2,4,5,7)           -179.9502         calculate D2E/DX2 analytically  !
 ! D24   D(4,5,7,8)            -29.6473         calculate D2E/DX2 analytically  !
 ! D25   D(6,5,7,8)            150.405          calculate D2E/DX2 analytically  !
 ! D26   D(5,7,8,9)            179.5215         calculate D2E/DX2 analytically  !
 ! D27   D(7,8,9,10)           149.6472         calculate D2E/DX2 analytically  !
 ! D28   D(7,8,9,11)           -30.2712         calculate D2E/DX2 analytically  !
 ! D29   D(8,9,11,12)          179.9216         calculate D2E/DX2 analytically  !
 ! D30   D(10,9,11,12)           0.0            calculate D2E/DX2 analytically  !
 ! D31   D(9,11,12,13)         -80.4706         calculate D2E/DX2 analytically  !
 ! D32   D(9,11,12,14)          39.5483         calculate D2E/DX2 analytically  !
 ! D33   D(9,11,12,22)         157.4403         calculate D2E/DX2 analytically  !
 ! D34   D(11,12,13,23)         55.7915         calculate D2E/DX2 analytically  !
 ! D35   D(11,12,13,24)        -62.6089         calculate D2E/DX2 analytically  !
 ! D36   D(11,12,13,25)        176.8622         calculate D2E/DX2 analytically  !
 ! D37   D(14,12,13,23)        -62.6324         calculate D2E/DX2 analytically  !
 ! D38   D(14,12,13,24)        178.9672         calculate D2E/DX2 analytically  !
 ! D39   D(14,12,13,25)         58.4383         calculate D2E/DX2 analytically  !
 ! D40   D(22,12,13,23)        177.8054         calculate D2E/DX2 analytically  !
 ! D41   D(22,12,13,24)         59.405          calculate D2E/DX2 analytically  !
 ! D42   D(22,12,13,25)        -61.1239         calculate D2E/DX2 analytically  !
 ! D43   D(11,12,14,26)        -58.2604         calculate D2E/DX2 analytically  !
 ! D44   D(11,12,14,27)       -179.379          calculate D2E/DX2 analytically  !
 ! D45   D(11,12,14,28)         60.053          calculate D2E/DX2 analytically  !
 ! D46   D(13,12,14,26)         61.5799         calculate D2E/DX2 analytically  !
 ! D47   D(13,12,14,27)        -59.5387         calculate D2E/DX2 analytically  !
 ! D48   D(13,12,14,28)        179.8934         calculate D2E/DX2 analytically  !
 ! D49   D(22,12,14,26)       -177.5094         calculate D2E/DX2 analytically  !
 ! D50   D(22,12,14,27)         61.3721         calculate D2E/DX2 analytically  !
 ! D51   D(22,12,14,28)        -59.1959         calculate D2E/DX2 analytically  !
 --------------------------------------------------------------------------------
 Trust Radius=3.00D-01 FncErr=1.00D-07 GrdErr=1.00D-06 EigMax=2.50D+02 EigMin=1.00D-04
 Number of steps in this run=    134 maximum allowed number of steps=    168.
 GradGradGradGradGradGradGradGradGradGradGradGradGradGradGradGradGradGrad

                          Input orientation:                          
 ---------------------------------------------------------------------
 Center     Atomic      Atomic             Coordinates (Angstroms)
 Number     Number       Type             X           Y           Z
 ---------------------------------------------------------------------
      1          6           0        5.678130   -1.480350   -0.356050
      2          6           0        5.509720    0.029810   -0.489650
      3          6           0        4.104920    0.360750   -0.983740
      4          8           0        5.683230    0.657140    0.795040
      5          6           0        4.604700    0.625500    1.633000
      6          8           0        3.534280    0.101850    1.341690
      7          7           0        4.919600    1.261200    2.814500
      8          7           0        6.139600    1.172800    3.091300
      9          6           0        6.462100    1.815500    4.266100
     10          8           0        7.355850    1.514110    5.050030
     11          8           0        5.618870    2.875250    4.450520
     12          6           0        5.824130    3.655770    5.643190
     13          6           0        5.180300    2.958930    6.837540
     14          6           0        7.328740    3.784470    5.856730
     15          1           0        5.514450   -1.981920   -1.315030
     16          1           0        4.974440   -1.888150    0.377940
     17          1           0        6.682260   -1.734760   -0.003350
     18          1           0        6.230570    0.433950   -1.211220
     19          1           0        3.344880    0.025190   -0.269310
     20          1           0        3.904320   -0.108040   -1.952860
     21          1           0        3.981030    1.443750   -1.090920
     22          1           0        5.408070    4.662620    5.516380
     23          1           0        5.562760    1.938240    6.947320
     24          1           0        4.096700    2.875840    6.706170
     25          1           0        5.371590    3.507160    7.765020
     26          1           0        7.800890    2.799350    5.945400
     27          1           0        7.553580    4.361620    6.759650
     28          1           0        7.796530    4.282600    5.001010
 ---------------------------------------------------------------------
                    Distance matrix (angstroms):
                    1          2          3          4          5
     1  C    0.000000
     2  C    1.525383   0.000000
     3  C    2.501726   1.525487   0.000000
     4  O    2.427735   1.440166   2.396449   0.000000
     5  C    3.089203   2.383181   2.677163   1.366164   0.000000
     6  O    3.159394   2.694691   2.408378   2.285861   1.226731
     7  N    4.259560   3.575188   3.987623   2.241927   1.378121
     8  N    4.374515   3.811349   4.626586   2.397288   2.186800
     9  C    5.730751   5.168450   5.935774   3.741216   3.435004
    10  O    6.403689   6.024898   6.950192   4.651558   4.475997
    11  O    6.486746   5.702081   6.176240   4.276294   3.745442
    12  C    7.898856   7.131491   7.597963   5.702297   5.172153
    13  C    8.467749   7.897846   8.311402   6.485598   5.732665
    14  C    8.309120   7.594922   8.301018   6.173216   5.936277
    15  H    1.094535   2.174473   2.754021   3.383123   4.039451
    16  H    1.095546   2.172051   2.769077   2.674856   2.833782
    17  H    1.094257   2.173717   3.463381   2.712319   3.544675
    18  H    2.168191   1.097095   2.139040   2.091524   3.281727
    19  H    2.778170   2.176029   1.095752   2.645767   2.359301
    20  H    2.753078   2.176533   1.095079   3.361692   3.726527
    21  H    3.459847   2.167405   1.095320   2.659527   2.911741
    22  H    8.502614   7.585885   7.902901   6.197631   5.659009
    23  H    8.064693   7.678114   8.216781   6.285402   5.557262
    24  H    8.447027   7.866151   8.090764   6.510082   5.573073
    25  H    9.535250   8.958271   9.383238   7.536601   6.818633
    26  H    7.907605   7.370867   8.223135   5.966553   5.791204
    27  H    9.395696   8.688745   9.373383   7.266220   6.995500
    28  H    8.148454   7.311845   8.051467   5.941396   5.908100
                    6          7          8          9         10
     6  O    0.000000
     7  N    2.330745   0.000000
     8  N    3.315986   1.254126   0.000000
     9  C    4.478940   2.189451   1.377398   0.000000
    10  O    5.509143   3.316153   2.330747   1.226447   0.000000
    11  O    4.658550   2.402228   2.239860   1.366791   2.286747
    12  C    6.031307   3.814922   3.574466   2.385367   2.699021
    13  C    6.409107   4.374369   4.259675   3.092369   3.164761
    14  C    6.953071   4.628824   3.985283   2.675446   2.409571
    15  H    3.914247   5.284382   5.455164   6.816704   7.491793
    16  H    2.638745   3.982240   4.253156   5.572068   6.250993
    17  H    3.884848   4.474710   4.280799   5.557069   6.045290
    18  H    3.727951   4.313862   4.366446   5.653611   6.452616
    19  H    1.623906   3.676595   4.518979   5.787246   6.826430
    20  H    3.321904   5.062937   5.663972   6.994120   7.974014
    21  H    2.813871   4.020764   4.714213   5.915367   7.007541
    22  H    6.460631   4.371317   4.312191   3.283332   3.731547
    23  H    6.237800   4.237008   3.973353   2.830692   2.644762
    24  H    6.065392   4.292939   4.487880   3.559969   3.901175
    25  H    7.498734   5.454932   5.280410   4.036504   3.909054
    26  H    6.831882   4.524409   3.681228   2.362280   1.628370
    27  H    7.978390   5.666980   5.062085   3.727177   3.327193
    28  H    7.002576   4.710245   4.007900   2.899548   2.803772
                   11         12         13         14         15
    11  O    0.000000
    12  C    1.440071   0.000000
    13  C    2.428417   1.525311   0.000000
    14  C    2.393275   1.525128   2.501859   0.000000
    15  H    7.539534   8.960819   9.538766   9.379608   0.000000
    16  H    6.300093   7.692846   8.078552   8.230339   1.779481
    17  H    6.497688   7.853510   8.431156   8.075913   1.773520
    18  H    6.195920   7.584738   8.500655   7.898600   2.521910
    19  H    5.964115   7.367866   7.904613   8.217767   3.135132
    20  H    7.269317   8.692060   9.397104   9.373792   2.551621
    21  H    5.953089   7.323816   8.160545   8.059527   3.759896
    22  H    2.091694   1.096783   2.167926   2.139149   9.530445
    23  H    2.667423   2.172321   1.095507   2.777884   9.145295
    24  H    2.721205   2.173070   1.094692   3.463126   9.484065
    25  H    3.383248   2.174636   1.094243   2.747528  10.611207
    26  H    2.646061   2.175400   2.772881   1.096015   8.989004
    27  H    3.359238   2.176167   2.757909   1.094952  10.468954
    28  H    2.650637   2.166950   3.459712   1.095088   9.183924
                   16         17         18         19         20
    16  H    0.000000
    17  H    1.756576   0.000000
    18  H    3.081467   2.523148   0.000000
    19  H    2.595240   3.782362   3.062921   0.000000
    20  H    3.121951   3.763477   2.501044   1.779063   0.000000
    21  H    3.774383   4.310728   2.468724   1.758420   1.776760
    22  H    8.336917   8.545025   7.988664   7.696539   8.989439
    23  H    7.625230   7.940782   8.322898   7.788357   9.281750
    24  H    7.969474   8.541687   8.555775   7.572896   9.160751
    25  H    9.156203   9.462724   9.526560   8.987888  10.471855
    26  H    7.807566   7.562877   7.699236   8.134778   9.274626
    27  H    9.297194   9.146760   8.983970   9.269523  10.450014
    28  H    8.210671   7.905304   7.473696   8.106726   9.098534
                   21         22         23         24         25
    21  H    0.000000
    22  H    7.486921   0.000000
    23  H    8.207295   3.081195   0.000000
    24  H    7.928359   2.515527   1.756866   0.000000
    25  H    9.198858   2.528399   1.779519   1.773435   0.000000
    26  H    8.120270   3.062911   2.598957   3.782280   3.116651
    27  H    9.105412   2.497906   3.141871   3.763034   2.549892
    28  H    7.728436   2.472805   3.778078   4.309906   3.757844
                   26         27         28
    26  H    0.000000
    27  H    1.779003   0.000000
    28  H    1.758386   1.777100   0.000000
 Stoichiometry    C8H14N2O4
 Framework group  C1[X(C8H14N2O4)]
 Deg. of freedom    78
 Full point group                 C1      NOp   1
 Largest Abelian subgroup         C1      NOp   1
 Largest concise Abelian subgroup C1      NOp   1
                         Standard orientation:                         
 ---------------------------------------------------------------------
 Center     Atomic      Atomic             Coordinates (Angstroms)
 Number     Number       Type             X           Y           Z
 ---------------------------------------------------------------------
      1          6           0        4.080093   -1.127704   -0.764909
      2          6           0        3.515986   -0.586584    0.544964
      3          6           0        4.071282    0.807199    0.820873
      4          8           0        2.082803   -0.478755    0.453120
      5          6           0        1.600477    0.623878   -0.193384
      6          8           0        2.316955    1.492586   -0.680082
      7          7           0        0.222819    0.588832   -0.200297
      8          7           0       -0.222848   -0.583425   -0.194960
      9          6           0       -1.599626   -0.624556   -0.191203
     10          8           0       -2.312584   -1.493721   -0.681523
     11          8           0       -2.085320    0.476983    0.455970
     12          6           0       -3.518467    0.585861    0.545625
     13          6           0       -4.081305    1.129365   -0.763723
     14          6           0       -4.070774   -0.809533    0.817372
     15          1           0        5.172642   -1.183948   -0.730567
     16          1           0        3.787694   -0.492095   -1.607954
     17          1           0        3.692012   -2.128622   -0.976936
     18          1           0        3.795949   -1.238561    1.381722
     19          1           0        3.773088    1.513998    0.038450
     20          1           0        5.164613    0.794066    0.881315
     21          1           0        3.677123    1.197262    1.765444
     22          1           0       -3.799938    1.235558    1.383242
     23          1           0       -3.771810    0.506919   -1.610428
     24          1           0       -3.707293    2.138755   -0.962718
     25          1           0       -5.174544    1.168369   -0.737782
     26          1           0       -3.778367   -1.510900    0.027542
     27          1           0       -5.163494   -0.797468    0.886199
     28          1           0       -3.668312   -1.205489    1.755701
 ---------------------------------------------------------------------
 Rotational constants (GHZ):           1.9673012           0.2811990           0.2669687
 Standard basis: 6-31G(d) (6D, 7F)
 There are   238 symmetry adapted cartesian basis functions of A   symmetry.
 There are   238 symmetry adapted basis functions of A   symmetry.
   238 basis functions,   448 primitive gaussians,   238 cartesian basis functions
    54 alpha electrons       54 beta electrons
       nuclear repulsion energy       941.8431959409 Hartrees.
 NAtoms=   28 NActive=   28 NUniq=   28 SFac= 1.00D+00 NAtFMM=   60 NAOKFM=F Big=F
 Integral buffers will be    131072 words long.
 Raffenetti 2 integral format.
 Two-electron integral symmetry is turned on.
 One-electron integrals computed using PRISM.
 NBasis=   238 RedAO= T EigKep=  1.82D-03  NBF=   238
 NBsUse=   238 1.00D-06 EigRej= -1.00D+00 NBFU=   238
 ExpMin= 1.61D-01 ExpMax= 5.48D+03 ExpMxC= 8.25D+02 IAcc=3 IRadAn=         5 AccDes= 0.00D+00
 Harris functional with IExCor=  402 and IRadAn=       5 diagonalized for initial guess.
 HarFok:  IExCor=  402 AccDes= 0.00D+00 IRadAn=         5 IDoV= 1 UseB2=F ITyADJ=14
 ICtDFT=  3500011 ScaDFX=  1.000000  1.000000  1.000000  1.000000
 FoFCou: FMM=F IPFlag=           0 FMFlag=      100000 FMFlg1=           0
         NFxFlg=           0 DoJE=T BraDBF=F KetDBF=T FulRan=T
         wScrn=  0.000000 ICntrl=       500 IOpCl=  0 I1Cent=   200000004 NGrid=           0
         NMat0=    1 NMatS0=      1 NMatT0=    0 NMatD0=    1 NMtDS0=    0 NMtDT0=    0
 Petite list used in FoFCou.
 Keep R1 ints in memory in canonical form, NReq=411287410.
 Gradient too large for Newton-Raphson -- use scaled steepest descent instead.
     Minimum is close to point  2 DX=  2.20D-03 DF= -2.13D-05 DXR=  7.27D-03 DFR=  5.28D-05 which will be used.
 Gradient too large for Newton-Raphson -- use scaled steepest descent instead.
     Minimum is close to point  3 DX=  2.81D-04 DF= -2.51D-08 DXR=  7.03D-04 DFR=  4.83D-07 which will be used.
 Gradient too large for Newton-Raphson -- use scaled steepest descent instead.
 Gradient too large for Newton-Raphson -- use scaled steepest descent instead.
 Gradient too large for Newton-Raphson -- use scaled steepest descent instead.
     Minimum is close to point  2 DX=  1.68D-03 DF= -1.59D-08 DXR=  4.17D-03 DFR=  1.74D-05 which will be used.
 Gradient too large for Newton-Raphson -- use scaled steepest descent instead.
 Gradient too large for Newton-Raphson -- use scaled steepest descent instead.
     Minimum is close to point  2 DX=  3.26D-03 DF= -7.14D-09 DXR=  8.07D-03 DFR=  6.52D-05 which will be used.
 Gradient too large for Newton-Raphson -- use scaled steepest descent instead.
 LinEq1:  Iter=  0 NonCon=     1 RMS=8.18D-05 Max=5.70D-03 NDo=     1
 AX will form     1 AO Fock derivatives at one time.
 LinEq1:  Iter=  1 NonCon=     1 RMS=9.58D-05 Max=3.75D-03 NDo=     1
 LinEq1:  Iter=  2 NonCon=     1 RMS=1.41D-05 Max=4.88D-04 NDo=     1
 LinEq1:  Iter=  3 NonCon=     1 RMS=6.69D-06 Max=2.28D-04 NDo=     1
 LinEq1:  Iter=  4 NonCon=     1 RMS=3.01D-06 Max=7.87D-05 NDo=     1
 LinEq1:  Iter=  5 NonCon=     1 RMS=2.20D-06 Max=4.31D-05 NDo=     1
 LinEq1:  Iter=  6 NonCon=     1 RMS=1.24D-06 Max=3.10D-05 NDo=     1
 LinEq1:  Iter=  7 NonCon=     1 RMS=1.20D-06 Max=2.26D-05 NDo=     1
 LinEq1:  Iter=  8 NonCon=     1 RMS=5.68D-07 Max=1.22D-05 NDo=     1
 LinEq1:  Iter=  9 NonCon=     1 RMS=4.55D-07 Max=1.27D-05 NDo=     1
 LinEq1:  Iter= 10 NonCon=     1 RMS=3.71D-07 Max=8.47D-06 NDo=     1
 LinEq1:  Iter= 11 NonCon=     1 RMS=1.69D-07 Max=3.89D-06 NDo=     1
 LinEq1:  Iter= 12 NonCon=     1 RMS=7.40D-08 Max=3.18D-06 NDo=     1
 LinEq1:  Iter= 13 NonCon=     1 RMS=2.78D-08 Max=1.20D-06 NDo=     1
 LinEq1:  Iter= 14 NonCon=     1 RMS=1.20D-08 Max=4.48D-07 NDo=     1
 LinEq1:  Iter= 15 NonCon=     0 RMS=6.38D-09 Max=1.40D-07 NDo=     1
 Linear equations converged to 1.410D-08 1.410D-07 after    15 iterations.
     Accept linear search using points  1 and  2.
     Minimum is close to point  2 DX= -3.64D-03 DF= -3.45D-10 DXR=  3.65D-03 DFR=  1.34D-05 which will be used.
 LinEq1:  Iter=  0 NonCon=     1 RMS=5.99D-07 Max=5.04D-05 NDo=     1
 LinEq1:  Iter=  1 NonCon=     1 RMS=5.47D-07 Max=2.00D-05 NDo=     1
 LinEq1:  Iter=  2 NonCon=     1 RMS=3.72D-07 Max=1.53D-05 NDo=     1
 LinEq1:  Iter=  3 NonCon=     1 RMS=1.53D-07 Max=3.44D-06 NDo=     1
 LinEq1:  Iter=  4 NonCon=     1 RMS=1.14D-07 Max=2.91D-06 NDo=     1
 LinEq1:  Iter=  5 NonCon=     1 RMS=5.28D-08 Max=1.35D-06 NDo=     1
 LinEq1:  Iter=  6 NonCon=     1 RMS=1.88D-08 Max=4.78D-07 NDo=     1
 LinEq1:  Iter=  7 NonCon=     1 RMS=1.06D-08 Max=2.63D-07 NDo=     1
 LinEq1:  Iter=  8 NonCon=     1 RMS=1.02D-08 Max=2.82D-07 NDo=     1
 LinEq1:  Iter=  9 NonCon=     1 RMS=5.31D-09 Max=1.23D-07 NDo=     1
 LinEq1:  Iter= 10 NonCon=     1 RMS=3.44D-09 Max=1.00D-07 NDo=     1
 LinEq1:  Iter= 11 NonCon=     1 RMS=3.09D-09 Max=7.94D-08 NDo=     1
 LinEq1:  Iter= 12 NonCon=     1 RMS=1.41D-09 Max=6.74D-08 NDo=     1
 LinEq1:  Iter= 13 NonCon=     1 RMS=6.04D-10 Max=2.41D-08 NDo=     1
 LinEq1:  Iter= 14 NonCon=     1 RMS=3.64D-10 Max=1.34D-08 NDo=     1
 LinEq1:  Iter= 15 NonCon=     1 RMS=2.05D-10 Max=4.55D-09 NDo=     1
 LinEq1:  Iter= 16 NonCon=     0 RMS=1.16D-10 Max=1.78D-09 NDo=     1
 Linear equations converged to 2.765D-10 2.765D-09 after    16 iterations.
 SCF Done:  E(RB3LYP) =  -723.562472781     a.u. after   11 cycles
            Convg  =    0.2464D-08                    55 Fock formations.
              S**2 =  0.0000                  -V/T =  2.0083
 DoSCS=F DFT=T ScalE2(SS,OS)=  1.000000  1.000000
 Range of M.O.s used for correlation:     1   238
 NBasis=   238 NAE=    54 NBE=    54 NFC=     0 NFV=     0
 NROrb=    238 NOA=    54 NOB=    54 NVA=   184 NVB=   184
 Symmetrizing basis deriv contribution to polar:
 IMax=3 JMax=2 DiffMx= 0.00D+00
 G2DrvN: will do    29 centers at a time, making    1 passes.
 Calling FoFCou, ICntrl=  3107 FMM=F I1Cent=   0 AccDes= 0.00D+00.
 End of G2Drv F.D. properties file   721 does not exist.
 End of G2Drv F.D. properties file   722 does not exist.
 End of G2Drv F.D. properties file   788 does not exist.
          IDoAtm=1111111111111111111111111111
          Differentiating once with respect to electric field.
                with respect to dipole field.
          Differentiating once with respect to nuclear coordinates.
 Keep R1 ints in memory in canonical form, NReq=411298527.
          There are    87 degrees of freedom in the 1st order CPHF.  IDoFFX=6 NUNeed=     3.
     84 vectors produced by pass  0 Test12= 1.14D-14 1.15D-09 XBig12= 1.61D+02 6.86D+00.
 AX will form    84 AO Fock derivatives at one time.
     84 vectors produced by pass  1 Test12= 1.14D-14 1.15D-09 XBig12= 1.93D+01 1.06D+00.
     84 vectors produced by pass  2 Test12= 1.14D-14 1.15D-09 XBig12= 4.99D-01 1.27D-01.
     84 vectors produced by pass  3 Test12= 1.14D-14 1.15D-09 XBig12= 1.70D-03 7.72D-03.
     84 vectors produced by pass  4 Test12= 1.14D-14 1.15D-09 XBig12= 2.44D-06 1.62D-04.
     51 vectors produced by pass  5 Test12= 1.14D-14 1.15D-09 XBig12= 2.07D-09 5.48D-06.
      6 vectors produced by pass  6 Test12= 1.14D-14 1.15D-09 XBig12= 1.71D-12 1.18D-07.
      3 vectors produced by pass  7 Test12= 1.14D-14 1.15D-09 XBig12= 1.35D-15 3.40D-09.
 InvSVY:  IOpt=1 It=  1 EMax= 4.00D-15
 Solved reduced A of dimension   480 with    87 vectors.
 Isotropic polarizability for W=    0.000000      120.15 Bohr**3.
 End of Minotr F.D. properties file   721 does not exist.
 End of Minotr F.D. properties file   722 does not exist.
 End of Minotr F.D. properties file   788 does not exist.

 **********************************************************************

            Population analysis using the SCF density.

 **********************************************************************

 Orbital symmetries:
       Occupied  (A) (A) (A) (A) (A) (A) (A) (A) (A) (A) (A) (A)
                 (A) (A) (A) (A) (A) (A) (A) (A) (A) (A) (A) (A)
                 (A) (A) (A) (A) (A) (A) (A) (A) (A) (A) (A) (A)
                 (A) (A) (A) (A) (A) (A) (A) (A) (A) (A) (A) (A)
                 (A) (A) (A) (A) (A) (A)
       Virtual   (A) (A) (A) (A) (A) (A) (A) (A) (A) (A) (A) (A)
                 (A) (A) (A) (A) (A) (A) (A) (A) (A) (A) (A) (A)
                 (A) (A) (A) (A) (A) (A) (A) (A) (A) (A) (A) (A)
                 (A) (A) (A) (A) (A) (A) (A) (A) (A) (A) (A) (A)
                 (A) (A) (A) (A) (A) (A) (A) (A) (A) (A) (A) (A)
                 (A) (A) (A) (A) (A) (A) (A) (A) (A) (A) (A) (A)
                 (A) (A) (A) (A) (A) (A) (A) (A) (A) (A) (A) (A)
                 (A) (A) (A) (A) (A) (A) (A) (A) (A) (A) (A) (A)
                 (A) (A) (A) (A) (A) (A) (A) (A) (A) (A) (A) (A)
                 (A) (A) (A) (A) (A) (A) (A) (A) (A) (A) (A) (A)
                 (A) (A) (A) (A) (A) (A) (A) (A) (A) (A) (A) (A)
                 (A) (A) (A) (A) (A) (A) (A) (A) (A) (A) (A) (A)
                 (A) (A) (A) (A) (A) (A) (A) (A) (A) (A) (A) (A)
                 (A) (A) (A) (A) (A) (A) (A) (A) (A) (A) (A) (A)
                 (A) (A) (A) (A) (A) (A) (A) (A) (A) (A) (A) (A)
                 (A) (A) (A) (A)
 The electronic state is 1-A.
 Alpha  occ. eigenvalues --  -19.20664 -19.20647 -19.16861 -19.16860 -14.43270
 Alpha  occ. eigenvalues --  -14.43220 -10.36287 -10.36279 -10.25629 -10.25628
 Alpha  occ. eigenvalues --  -10.18496 -10.18482 -10.15999 -10.15990  -1.15079
 Alpha  occ. eigenvalues --   -1.12646  -1.06669  -1.04045  -1.03969  -0.85081
 Alpha  occ. eigenvalues --   -0.79300  -0.77581  -0.69394  -0.69285  -0.66002
 Alpha  occ. eigenvalues --   -0.64437  -0.62006  -0.53589  -0.52863  -0.52237
 Alpha  occ. eigenvalues --   -0.51774  -0.49268  -0.49059  -0.48425  -0.47678
 Alpha  occ. eigenvalues --   -0.43508  -0.43399  -0.42805  -0.42778  -0.41323
 Alpha  occ. eigenvalues --   -0.40526  -0.39055  -0.37432  -0.37049  -0.36890
 Alpha  occ. eigenvalues --   -0.36056  -0.36043  -0.34286  -0.34020  -0.31275
 Alpha  occ. eigenvalues --   -0.30943  -0.29317  -0.28154  -0.25728
 Alpha virt. eigenvalues --   -0.14227   0.00493   0.03379   0.09710   0.09791
 Alpha virt. eigenvalues --    0.11348   0.12130   0.13384   0.13596   0.15514
 Alpha virt. eigenvalues --    0.15671   0.15992   0.16198   0.17594   0.17711
 Alpha virt. eigenvalues --    0.19199   0.19350   0.19658   0.20482   0.22347
 Alpha virt. eigenvalues --    0.22493   0.23388   0.24258   0.27084   0.27156
 Alpha virt. eigenvalues --    0.27286   0.34307   0.35554   0.36972   0.46603
 Alpha virt. eigenvalues --    0.48977   0.49149   0.49774   0.50872   0.51692
 Alpha virt. eigenvalues --    0.51711   0.53357   0.53841   0.54016   0.55378
 Alpha virt. eigenvalues --    0.56231   0.57455   0.61643   0.61930   0.62754
 Alpha virt. eigenvalues --    0.63461   0.63771   0.65492   0.68301   0.68656
 Alpha virt. eigenvalues --    0.68831   0.71411   0.72096   0.73190   0.75857
 Alpha virt. eigenvalues --    0.75964   0.79331   0.79694   0.80821   0.81472
 Alpha virt. eigenvalues --    0.82376   0.84679   0.85063   0.87988   0.88054
 Alpha virt. eigenvalues --    0.89167   0.89181   0.90136   0.90560   0.90755
 Alpha virt. eigenvalues --    0.92878   0.94197   0.94583   0.95148   0.96815
 Alpha virt. eigenvalues --    0.98712   0.98889   0.99335   1.02061   1.05593
 Alpha virt. eigenvalues --    1.06968   1.07675   1.10008   1.13690   1.14742
 Alpha virt. eigenvalues --    1.17719   1.20616   1.21250   1.26935   1.31190
 Alpha virt. eigenvalues --    1.33421   1.35354   1.37669   1.41321   1.41966
 Alpha virt. eigenvalues --    1.43255   1.44424   1.46781   1.47488   1.47939
 Alpha virt. eigenvalues --    1.49640   1.54225   1.54371   1.61837   1.63669
 Alpha virt. eigenvalues --    1.65669   1.66058   1.71933   1.72527   1.75580
 Alpha virt. eigenvalues --    1.75807   1.76762   1.78633   1.79183   1.79371
 Alpha virt. eigenvalues --    1.81162   1.84355   1.85490   1.86219   1.88156
 Alpha virt. eigenvalues --    1.89842   1.90618   1.90940   1.93967   1.94871
 Alpha virt. eigenvalues --    1.96101   2.00315   2.01858   2.04514   2.05272
 Alpha virt. eigenvalues --    2.06857   2.11028   2.11629   2.13602   2.14093
 Alpha virt. eigenvalues --    2.17738   2.18825   2.24484   2.24648   2.25421
 Alpha virt. eigenvalues --    2.25773   2.26185   2.28649   2.33299   2.33436
 Alpha virt. eigenvalues --    2.42229   2.42914   2.44180   2.47004   2.48583
 Alpha virt. eigenvalues --    2.50540   2.54130   2.54165   2.56180   2.61891
 Alpha virt. eigenvalues --    2.63244   2.64771   2.69227   2.71346   2.73432
 Alpha virt. eigenvalues --    2.74212   2.76513   2.86806   2.87708   2.94359
 Alpha virt. eigenvalues --    2.96598   3.05644   3.08933   3.17972   3.21432
 Alpha virt. eigenvalues --    3.79631   3.90466   4.03550   4.07972   4.15898
 Alpha virt. eigenvalues --    4.22191   4.25272   4.30057   4.31958   4.33967
 Alpha virt. eigenvalues --    4.42530   4.42691   4.55637   4.57627
          Condensed to atoms (all electrons):
               1          2          3          4          5          6
     1  C    5.147478   0.370072  -0.059523  -0.043541  -0.003826  -0.003243
     2  C    0.370072   4.717871   0.371558   0.200339  -0.019371  -0.000263
     3  C   -0.059523   0.371558   5.295386  -0.039112  -0.009449  -0.077081
     4  O   -0.043541   0.200339  -0.039112   8.256455   0.293217  -0.080214
     5  C   -0.003826  -0.019371  -0.009449   0.293217   4.233848   0.491723
     6  O   -0.003243  -0.000263  -0.077081  -0.080214   0.491723   8.179261
     7  N   -0.000305   0.004907  -0.001808  -0.102766   0.248019  -0.055001
     8  N    0.000015  -0.000017   0.000113  -0.007715  -0.051175   0.000387
     9  C   -0.000001  -0.000015   0.000003   0.000571   0.003116  -0.000125
    10  O   -0.000000   0.000000   0.000000   0.000004  -0.000125   0.000000
    11  O   -0.000000   0.000000   0.000000  -0.000030   0.000579   0.000003
    12  C   -0.000000   0.000000  -0.000000   0.000000  -0.000015   0.000000
    13  C    0.000000  -0.000000   0.000000  -0.000000  -0.000001  -0.000000
    14  C    0.000000  -0.000000   0.000000   0.000000   0.000003   0.000000
    15  H    0.362596  -0.024140  -0.002914   0.003099   0.000081   0.000040
    16  H    0.375109  -0.027247  -0.008302  -0.005550   0.004658   0.005076
    17  H    0.366911  -0.028721   0.005631   0.000637  -0.000106   0.000109
    18  H   -0.050644   0.393748  -0.051023  -0.031445   0.002451  -0.000197
    19  H   -0.005001  -0.027834   0.379110  -0.000563  -0.007875  -0.002415
    20  H   -0.003017  -0.028701   0.347992   0.002685   0.001038   0.002427
    21  H    0.006036  -0.032788   0.360843  -0.000734   0.002582   0.000074
    22  H   -0.000000   0.000000  -0.000000  -0.000000  -0.000000   0.000000
    23  H   -0.000000   0.000000  -0.000000  -0.000000  -0.000001  -0.000000
    24  H   -0.000000   0.000000   0.000000  -0.000000   0.000001   0.000000
    25  H   -0.000000   0.000000  -0.000000   0.000000   0.000000   0.000000
    26  H   -0.000000   0.000000  -0.000000  -0.000000   0.000001  -0.000000
    27  H    0.000000  -0.000000   0.000000   0.000000  -0.000000  -0.000000
    28  H    0.000000  -0.000000   0.000000   0.000000  -0.000001  -0.000000
               7          8          9         10         11         12
     1  C   -0.000305   0.000015  -0.000001  -0.000000  -0.000000  -0.000000
     2  C    0.004907  -0.000017  -0.000015   0.000000   0.000000   0.000000
     3  C   -0.001808   0.000113   0.000003   0.000000   0.000000  -0.000000
     4  O   -0.102766  -0.007715   0.000571   0.000004  -0.000030   0.000000
     5  C    0.248019  -0.051175   0.003116  -0.000125   0.000579  -0.000015
     6  O   -0.055001   0.000387  -0.000125   0.000000   0.000003   0.000000
     7  N    6.991395   0.201393  -0.050560   0.000345  -0.007179  -0.000034
     8  N    0.201393   6.991524   0.248688  -0.054909  -0.103443   0.004932
     9  C   -0.050560   0.248688   4.232383   0.492212   0.292960  -0.019242
    10  O    0.000345  -0.054909   0.492212   8.177415  -0.080228  -0.000185
    11  O   -0.007179  -0.103443   0.292960  -0.080228   8.257941   0.200158
    12  C   -0.000034   0.004932  -0.019242  -0.000185   0.200158   4.717433
    13  C    0.000017  -0.000298  -0.003766  -0.003157  -0.043326   0.369803
    14  C    0.000113  -0.001812  -0.009431  -0.076336  -0.039574   0.371870
    15  H    0.000004   0.000001   0.000000   0.000000   0.000000   0.000000
    16  H   -0.000109  -0.000008  -0.000001  -0.000000  -0.000000   0.000000
    17  H   -0.000013   0.000015   0.000001   0.000000  -0.000000   0.000000
    18  H   -0.000223   0.000076  -0.000000   0.000000  -0.000000   0.000000
    19  H    0.000213  -0.000027   0.000001  -0.000000  -0.000000   0.000000
    20  H    0.000018  -0.000001  -0.000000  -0.000000   0.000000  -0.000000
    21  H    0.000008  -0.000022  -0.000001  -0.000000   0.000000  -0.000000
    22  H    0.000075  -0.000225   0.002417  -0.000204  -0.031419   0.393732
    23  H   -0.000005  -0.000121   0.004712   0.004987  -0.005685  -0.027065
    24  H    0.000014  -0.000011  -0.000105   0.000108   0.000644  -0.028687
    25  H    0.000001   0.000004   0.000078   0.000033   0.003099  -0.024214
    26  H   -0.000028   0.000223  -0.007768  -0.002332  -0.000545  -0.027843
    27  H   -0.000001   0.000018   0.001050   0.002428   0.002708  -0.028592
    28  H   -0.000021  -0.000002   0.002574  -0.000032  -0.000766  -0.032795
              13         14         15         16         17         18
     1  C    0.000000   0.000000   0.362596   0.375109   0.366911  -0.050644
     2  C   -0.000000  -0.000000  -0.024140  -0.027247  -0.028721   0.393748
     3  C    0.000000   0.000000  -0.002914  -0.008302   0.005631  -0.051023
     4  O   -0.000000   0.000000   0.003099  -0.005550   0.000637  -0.031445
     5  C   -0.000001   0.000003   0.000081   0.004658  -0.000106   0.002451
     6  O   -0.000000   0.000000   0.000040   0.005076   0.000109  -0.000197
     7  N    0.000017   0.000113   0.000004  -0.000109  -0.000013  -0.000223
     8  N   -0.000298  -0.001812   0.000001  -0.000008   0.000015   0.000076
     9  C   -0.003766  -0.009431   0.000000  -0.000001   0.000001  -0.000000
    10  O   -0.003157  -0.076336   0.000000  -0.000000   0.000000   0.000000
    11  O   -0.043326  -0.039574   0.000000  -0.000000  -0.000000  -0.000000
    12  C    0.369803   0.371870   0.000000   0.000000   0.000000   0.000000
    13  C    5.147163  -0.059509  -0.000000  -0.000000  -0.000000  -0.000000
    14  C   -0.059509   5.293976  -0.000000  -0.000000   0.000000  -0.000000
    15  H   -0.000000  -0.000000   0.556894  -0.026170  -0.027080  -0.000233
    16  H   -0.000000  -0.000000  -0.026170   0.537485  -0.031425   0.004559
    17  H   -0.000000   0.000000  -0.027080  -0.031425   0.559305  -0.003866
    18  H   -0.000000  -0.000000  -0.000233   0.004559  -0.003866   0.582275
    19  H   -0.000000  -0.000000   0.000144   0.003130  -0.000056   0.004228
    20  H    0.000000   0.000000   0.002289   0.000187   0.000008  -0.000996
    21  H    0.000000   0.000000  -0.000017   0.000073  -0.000211  -0.004750
    22  H   -0.050769  -0.050966   0.000000   0.000000   0.000000   0.000000
    23  H    0.374969  -0.008132   0.000000   0.000000   0.000000   0.000000
    24  H    0.366897   0.005630   0.000000   0.000000   0.000000   0.000000
    25  H    0.362742  -0.003078   0.000000   0.000000   0.000000   0.000000
    26  H   -0.005048   0.379142   0.000000   0.000000   0.000000  -0.000000
    27  H   -0.002943   0.347651  -0.000000  -0.000000  -0.000000  -0.000000
    28  H    0.006046   0.361335  -0.000000  -0.000000  -0.000000  -0.000000
              19         20         21         22         23         24
     1  C   -0.005001  -0.003017   0.006036  -0.000000  -0.000000  -0.000000
     2  C   -0.027834  -0.028701  -0.032788   0.000000   0.000000   0.000000
     3  C    0.379110   0.347992   0.360843  -0.000000  -0.000000   0.000000
     4  O   -0.000563   0.002685  -0.000734  -0.000000  -0.000000  -0.000000
     5  C   -0.007875   0.001038   0.002582  -0.000000  -0.000001   0.000001
     6  O   -0.002415   0.002427   0.000074   0.000000  -0.000000   0.000000
     7  N    0.000213   0.000018   0.000008   0.000075  -0.000005   0.000014
     8  N   -0.000027  -0.000001  -0.000022  -0.000225  -0.000121  -0.000011
     9  C    0.000001  -0.000000  -0.000001   0.002417   0.004712  -0.000105
    10  O   -0.000000  -0.000000  -0.000000  -0.000204   0.004987   0.000108
    11  O   -0.000000   0.000000   0.000000  -0.031419  -0.005685   0.000644
    12  C    0.000000  -0.000000  -0.000000   0.393732  -0.027065  -0.028687
    13  C   -0.000000   0.000000   0.000000  -0.050769   0.374969   0.366897
    14  C   -0.000000   0.000000   0.000000  -0.050966  -0.008132   0.005630
    15  H    0.000144   0.002289  -0.000017   0.000000   0.000000   0.000000
    16  H    0.003130   0.000187   0.000073   0.000000   0.000000   0.000000
    17  H   -0.000056   0.000008  -0.000211   0.000000   0.000000   0.000000
    18  H    0.004228  -0.000996  -0.004750   0.000000   0.000000   0.000000
    19  H    0.453429  -0.019021  -0.028598  -0.000000   0.000000   0.000000
    20  H   -0.019021   0.586305  -0.024710  -0.000000  -0.000000  -0.000000
    21  H   -0.028598  -0.024710   0.582268  -0.000000  -0.000000  -0.000000
    22  H   -0.000000  -0.000000  -0.000000   0.582335   0.004552  -0.003990
    23  H    0.000000  -0.000000  -0.000000   0.004552   0.537430  -0.031320
    24  H    0.000000  -0.000000  -0.000000  -0.003990  -0.031320   0.559679
    25  H    0.000000  -0.000000  -0.000000  -0.000083  -0.026103  -0.027244
    26  H   -0.000000  -0.000000   0.000000   0.004241   0.003119  -0.000050
    27  H   -0.000000   0.000000   0.000000  -0.001112   0.000172   0.000002
    28  H    0.000000   0.000000   0.000000  -0.004682   0.000064  -0.000211
              25         26         27         28
     1  C   -0.000000  -0.000000   0.000000   0.000000
     2  C    0.000000   0.000000  -0.000000  -0.000000
     3  C   -0.000000  -0.000000   0.000000   0.000000
     4  O    0.000000  -0.000000   0.000000   0.000000
     5  C    0.000000   0.000001  -0.000000  -0.000001
     6  O    0.000000  -0.000000  -0.000000  -0.000000
     7  N    0.000001  -0.000028  -0.000001  -0.000021
     8  N    0.000004   0.000223   0.000018  -0.000002
     9  C    0.000078  -0.007768   0.001050   0.002574
    10  O    0.000033  -0.002332   0.002428  -0.000032
    11  O    0.003099  -0.000545   0.002708  -0.000766
    12  C   -0.024214  -0.027843  -0.028592  -0.032795
    13  C    0.362742  -0.005048  -0.002943   0.006046
    14  C   -0.003078   0.379142   0.347651   0.361335
    15  H    0.000000   0.000000  -0.000000  -0.000000
    16  H    0.000000   0.000000  -0.000000  -0.000000
    17  H    0.000000   0.000000  -0.000000  -0.000000
    18  H    0.000000  -0.000000  -0.000000  -0.000000
    19  H    0.000000  -0.000000  -0.000000   0.000000
    20  H   -0.000000  -0.000000   0.000000   0.000000
    21  H   -0.000000   0.000000   0.000000   0.000000
    22  H   -0.000083   0.004241  -0.001112  -0.004682
    23  H   -0.026103   0.003119   0.000172   0.000064
    24  H   -0.027244  -0.000050   0.000002  -0.000211
    25  H    0.556646   0.000152   0.002310  -0.000012
    26  H    0.000152   0.454341  -0.019161  -0.028727
    27  H    0.002310  -0.019161   0.586957  -0.024674
    28  H   -0.000012  -0.028727  -0.024674   0.581703
 Mulliken charges:
               1
     1  C   -0.459115
     2  C    0.130602
     3  C   -0.511424
     4  O   -0.445337
     5  C    0.810626
     6  O   -0.460564
     7  N   -0.228471
     8  N   -0.227604
     9  C    0.810246
    10  O   -0.460024
    11  O   -0.445898
    12  C    0.130743
    13  C   -0.458819
    14  C   -0.510884
    15  H    0.155406
    16  H    0.168532
    17  H    0.158859
    18  H    0.156041
    19  H    0.251137
    20  H    0.133496
    21  H    0.139945
    22  H    0.156100
    23  H    0.168426
    24  H    0.158644
    25  H    0.155667
    26  H    0.250283
    27  H    0.133186
    28  H    0.140200
 Sum of Mulliken charges =   0.00000
 Mulliken charges with hydrogens summed into heavy atoms:
               1
     1  C    0.023682
     2  C    0.286643
     3  C    0.013154
     4  O   -0.445337
     5  C    0.810626
     6  O   -0.460564
     7  N   -0.228471
     8  N   -0.227604
     9  C    0.810246
    10  O   -0.460024
    11  O   -0.445898
    12  C    0.286843
    13  C    0.023918
    14  C    0.012785
 APT charges:
               1
     1  C   -0.014209
     2  C    0.594195
     3  C   -0.126396
     4  O   -0.821093
     5  C    1.127551
     6  O   -0.617842
     7  N   -0.171372
     8  N   -0.176759
     9  C    1.133307
    10  O   -0.621063
    11  O   -0.822120
    12  C    0.594645
    13  C   -0.013774
    14  C   -0.125388
    15  H   -0.004772
    16  H    0.012349
    17  H   -0.015535
    18  H   -0.055801
    19  H    0.147999
    20  H   -0.022679
    21  H   -0.030833
    22  H   -0.056003
    23  H    0.012029
    24  H   -0.016151
    25  H   -0.004579
    26  H    0.147527
    27  H   -0.023072
    28  H   -0.030158
 Sum of APT charges =   0.00000
 APT charges with hydrogens summed into heavy atoms:
               1
     1  C   -0.022168
     2  C    0.538394
     3  C   -0.031910
     4  O   -0.821093
     5  C    1.127551
     6  O   -0.617842
     7  N   -0.171372
     8  N   -0.176759
     9  C    1.133307
    10  O   -0.621063
    11  O   -0.822120
    12  C    0.538642
    13  C   -0.022476
    14  C   -0.031091
 Electronic spatial extent (au):  <R**2>=           4218.3480
 Charge=              0.0000 electrons
 Dipole moment (field-independent basis, Debye):
    X=             -0.0072    Y=             -0.0001    Z=              1.0583  Tot=              1.0583
 Quadrupole moment (field-independent basis, Debye-Ang):
   XX=            -69.9478   YY=            -88.5377   ZZ=            -81.7782
   XY=             -9.1170   XZ=             -0.0026   YZ=              0.0063
 Traceless Quadrupole moment (field-independent basis, Debye-Ang):
   XX=             10.1401   YY=             -8.4498   ZZ=             -1.6903
   XY=             -9.1170   XZ=             -0.0026   YZ=              0.0063
 Octapole moment (field-independent basis, Debye-Ang**2):
  XXX=             -0.2376  YYY=              0.0167  ZZZ=             -1.5644  XYY=              0.0030
  XXY=              0.0097  XXZ=              8.0791  XZZ=             -0.0100  YZZ=             -0.0120
  YYZ=              6.1140  XYZ=              4.2049
 Hexadecapole moment (field-independent basis, Debye-Ang**3):
 XXXX=          -4418.8466 YYYY=           -537.5862 ZZZZ=           -302.1240 XXXY=           -115.0128
 XXXZ=              0.0405 YYYX=            -12.4358 YYYZ=              0.0460 ZZZX=             -0.0438
 ZZZY=              0.0016 XXYY=           -887.7359 XXZZ=           -840.0527 YYZZ=           -140.4291
 XXYZ=             -0.0008 YYXZ=             -0.0466 ZZXY=             -5.3556
 N-N= 9.418431959409D+02 E-N=-3.572800011734D+03  KE= 7.175774408236D+02
  Exact polarizability: 176.657   9.137 100.757   0.029   0.011  83.043
 Approx polarizability: 207.337  34.383 177.553   0.005   0.015 125.267
 Calling FoFJK, ICntrl=    100127 FMM=F ISym2X=0 I1Cent= 0 IOpClX= 0 NMat=1 NMatS=1 NMatT=0.
 ***** Axes restored to original set *****
 -------------------------------------------------------------------
 Center     Atomic                   Forces (Hartrees/Bohr)
 Number     Number              X              Y              Z
 -------------------------------------------------------------------
      1        6           0.008932666   -0.004146602    0.007300845
      2        6          -0.029544684   -0.012931452   -0.013094888
      3        6          -0.011150381    0.003353938   -0.029226407
      4        8          -0.005528947    0.002721066    0.004022132
      5        6           0.007408778   -0.034455425   -0.061652367
      6        8           0.017411546    0.014039371    0.073649069
      7        7          -0.004910906    0.011688637    0.031576025
      8        7           0.002930763   -0.023683265   -0.024437932
      9        6          -0.007074847    0.040547621    0.058379400
     10        8          -0.025168181   -0.051074800   -0.050899871
     11        8           0.004759585   -0.004084450   -0.003618640
     12        6           0.026639941   -0.003661079    0.022547519
     13        6          -0.011593786   -0.005244699   -0.001982469
     14        6           0.016855397    0.022478631    0.014019206
     15        1          -0.000371448    0.001654754   -0.000502984
     16        1          -0.001888432    0.000805064   -0.002704155
     17        1           0.002105764    0.000009947   -0.001036119
     18        1           0.005221889    0.004037589    0.011849841
     19        1           0.006287592    0.000337276   -0.029067426
     20        1           0.004929120    0.001841715   -0.003818796
     21        1           0.001024115    0.001808608   -0.002753721
     22        1          -0.005857596   -0.006619626   -0.010220793
     23        1           0.002631499    0.002048071    0.001015414
     24        1          -0.001484138    0.001411929    0.000230584
     25        1           0.000993105    0.001119340   -0.000981674
     26        1          -0.000513801    0.026854779    0.012478515
     27        1          -0.003243183    0.005654358   -0.000620705
     28        1           0.000198570    0.003488702   -0.000449603
 -------------------------------------------------------------------
 Cartesian Forces:  Max     0.073649069 RMS     0.019317591
 FormGI is forming the generalized inverse of G from B-inverse, IUseBI=4.

 GradGradGradGradGradGradGradGradGradGradGradGradGradGradGradGradGradGrad
 Berny optimization.
 Internal  Forces:  Max     0.215024997 RMS     0.037320996
 Search for a local minimum.
 Step number   1 out of a maximum of  134
 All quantities printed in internal units (Hartrees-Bohrs-Radians)
 Mixed Optimization -- RFO/linear search
 Second derivative matrix not updated -- analytic derivatives used.
 ITU=  0
     Eigenvalues ---   -0.10944  -0.10789  -0.02259  -0.02210  -0.00445
     Eigenvalues ---   -0.00234  -0.00179  -0.00152   0.00280   0.00285
     Eigenvalues ---    0.03476   0.03489   0.04363   0.04367   0.04601
     Eigenvalues ---    0.04606   0.04724   0.04731   0.04824   0.04832
     Eigenvalues ---    0.06506   0.06516   0.06975   0.08201   0.08213
     Eigenvalues ---    0.09631   0.09741   0.11208   0.12371   0.12399
     Eigenvalues ---    0.12666   0.12871   0.13072   0.13888   0.13936
     Eigenvalues ---    0.14501   0.14541   0.15338   0.15401   0.17294
     Eigenvalues ---    0.17426   0.19089   0.20354   0.23656   0.24131
     Eigenvalues ---    0.27037   0.27105   0.27830   0.28181   0.29112
     Eigenvalues ---    0.29680   0.31171   0.31322   0.32766   0.32770
     Eigenvalues ---    0.32978   0.33022   0.33852   0.33883   0.34073
     Eigenvalues ---    0.34095   0.34272   0.34288   0.34441   0.34463
     Eigenvalues ---    0.34843   0.34863   0.35218   0.35294   0.36991
     Eigenvalues ---    0.37580   0.58347   0.65238   0.76424   0.76709
     Eigenvalues ---    0.82835   2.55905   2.57285
 RFO step:  Lambda=-1.14402563D-01 EMin=-1.09441116D-01
 I=     1 Eig=   -1.09D-01 Dot1= -5.60D-03
 I=     1 Stepn= -6.00D-01 RXN=   6.00D-01 EDone=F
 I=     2 Eig=   -1.08D-01 Dot1=  1.75D-03
 I=     2 Stepn=  3.00D-01 RXN=   6.71D-01 EDone=F
 I=     3 Eig=   -2.26D-02 Dot1=  1.47D-04
 I=     3 Stepn=  1.50D-01 RXN=   6.87D-01 EDone=F
 Mixed    3 eigenvectors in step.  Raw Step.Grad=  7.49D-03.
 RFO eigenvector is Hessian eigenvector with negative curvature.
 Taking step of  6.00D-01 in eigenvector direction(s).  Step.Grad= -2.97D-03.
 Linear search not attempted -- first point.
 Iteration  1 RMS(Cart)=  0.25849706 RMS(Int)=  0.02528566
 Iteration  2 RMS(Cart)=  0.13014864 RMS(Int)=  0.00430655
 Iteration  3 RMS(Cart)=  0.00822779 RMS(Int)=  0.00061182
 Iteration  4 RMS(Cart)=  0.00002292 RMS(Int)=  0.00061175
 Iteration  5 RMS(Cart)=  0.00000002 RMS(Int)=  0.00061175
 Variable       Old X    -DE/DX   Delta X   Delta X   Delta X     New X
                                 (Linear)    (Quad)   (Total)
    R1        2.88256   0.00290   0.00000   0.00237   0.00237   2.88492
    R2        2.06837  -0.00026   0.00000  -0.00080  -0.00080   2.06757
    R3        2.07028  -0.00090   0.00000   0.00558   0.00558   2.07587
    R4        2.06785   0.00160   0.00000   0.00008   0.00008   2.06792
    R5        2.88275   0.02160   0.00000  -0.02194  -0.02194   2.86081
    R6        2.72152   0.05939   0.00000   0.00355   0.00355   2.72507
    R7        2.07321  -0.00288   0.00000   0.00084   0.00084   2.07404
    R8        2.07067  -0.02342   0.00000  -0.00530  -0.00530   2.06537
    R9        2.06940   0.00169   0.00000   0.00136   0.00136   2.07076
   R10        2.06985   0.00194   0.00000  -0.00192  -0.00192   2.06794
   R11        2.58168   0.02042   0.00000   0.00149   0.00149   2.58316
   R12        2.31819  -0.03868   0.00000  -0.01121  -0.01121   2.30698
   R13        2.60427   0.04887   0.00000   0.01807   0.01807   2.62235
   R14        2.36996   0.00283   0.00000  -0.00555  -0.00555   2.36440
   R15        2.60290   0.04872   0.00000   0.01336   0.01336   2.61626
   R16        2.31765  -0.03832   0.00000  -0.00782  -0.00782   2.30983
   R17        2.58286   0.01993   0.00000  -0.00206  -0.00206   2.58080
   R18        2.72134   0.05912   0.00000   0.00278   0.00278   2.72412
   R19        2.88242   0.00295   0.00000   0.00255   0.00255   2.88497
   R20        2.88207   0.02161   0.00000  -0.01815  -0.01815   2.86392
   R21        2.07262  -0.00267   0.00000   0.00066   0.00066   2.07328
   R22        2.07021  -0.00089   0.00000   0.00430   0.00430   2.07451
   R23        2.06867   0.00133   0.00000   0.00006   0.00006   2.06873
   R24        2.06782  -0.00010   0.00000  -0.00064  -0.00064   2.06718
   R25        2.07117  -0.02335   0.00000  -0.00243  -0.00243   2.06874
   R26        2.06916   0.00180   0.00000   0.00097   0.00097   2.07013
   R27        2.06942   0.00202   0.00000  -0.00165  -0.00165   2.06777
    A1        1.93952  -0.00289   0.00000   0.00178   0.00177   1.94129
    A2        1.93508  -0.00069   0.00000  -0.00777  -0.00776   1.92732
    A3        1.93876   0.00045   0.00000   0.00851   0.00850   1.94726
    A4        1.89692   0.00060   0.00000   0.00019   0.00019   1.89710
    A5        1.88924   0.00075   0.00000  -0.00017  -0.00020   1.88903
    A6        1.86181   0.00201   0.00000  -0.00269  -0.00267   1.85914
    A7        1.92284  -0.00341   0.00000  -0.06659  -0.06585   1.85699
    A8        1.91752  -0.02765   0.00000  -0.01994  -0.01879   1.89873
    A9        1.92811   0.01549   0.00000   0.00473   0.00535   1.93346
   A10        1.88113   0.07140   0.00000   0.05800   0.05664   1.93777
   A11        1.88823  -0.02898   0.00000   0.04168   0.04100   1.92923
   A12        1.92525  -0.02560   0.00000  -0.01629  -0.01805   1.90721
   A13        1.94028   0.02188   0.00000  -0.04184  -0.04192   1.89837
   A14        1.94170  -0.01134   0.00000  -0.01136  -0.01161   1.93009
   A15        1.92875  -0.00169   0.00000   0.03041   0.03061   1.95935
   A16        1.89531  -0.00714   0.00000   0.01637   0.01585   1.91116
   A17        1.86308  -0.00245   0.00000   0.01028   0.01065   1.87373
   A18        1.89226   0.00060   0.00000  -0.00231  -0.00228   1.88998
   A19        2.02857   0.21502   0.00000   0.08307   0.08307   2.11163
   A20        2.15687   0.07598   0.00000   0.05983   0.05797   2.21484
   A21        1.91217  -0.00591   0.00000  -0.03691  -0.03864   1.87353
   A22        2.21414  -0.07007   0.00000  -0.02301  -0.02462   2.18952
   A23        1.95950   0.02208   0.00000   0.00121   0.00121   1.96071
   A24        1.96397   0.02017   0.00000   0.00147   0.00147   1.96544
   A25        2.21571  -0.06982   0.00000  -0.01596  -0.01659   2.19912
   A26        1.90966  -0.00562   0.00000  -0.02371  -0.02436   1.88530
   A27        2.15781   0.07542   0.00000   0.03975   0.03907   2.19688
   A28        2.03092   0.21288   0.00000   0.06903   0.06903   2.09995
   A29        1.91848  -0.02765   0.00000  -0.01693  -0.01603   1.90245
   A30        1.87792   0.07148   0.00000   0.05166   0.05066   1.92858
   A31        1.92595  -0.02563   0.00000  -0.01463  -0.01600   1.90995
   A32        1.92339  -0.00370   0.00000  -0.05831  -0.05775   1.86564
   A33        1.92816   0.01557   0.00000   0.00361   0.00407   1.93223
   A34        1.88911  -0.02878   0.00000   0.03605   0.03551   1.92462
   A35        1.93559  -0.00074   0.00000  -0.00779  -0.00779   1.92780
   A36        1.93749   0.00068   0.00000   0.00714   0.00714   1.94463
   A37        1.94015  -0.00298   0.00000   0.00178   0.00176   1.94191
   A38        1.86177   0.00194   0.00000  -0.00227  -0.00226   1.85951
   A39        1.89740   0.00061   0.00000   0.00130   0.00130   1.89870
   A40        1.88892   0.00072   0.00000  -0.00025  -0.00027   1.88866
   A41        1.93957   0.02149   0.00000  -0.03319  -0.03326   1.90631
   A42        1.94177  -0.01122   0.00000  -0.01140  -0.01159   1.93017
   A43        1.92879  -0.00154   0.00000   0.02766   0.02781   1.95661
   A44        1.89504  -0.00705   0.00000   0.01142   0.01101   1.90605
   A45        1.86299  -0.00231   0.00000   0.00842   0.00869   1.87168
   A46        1.89325   0.00051   0.00000  -0.00168  -0.00164   1.89160
    D1        1.03586  -0.03234   0.00000  -0.00540  -0.00563   1.03023
    D2        3.10576   0.03628   0.00000   0.01284   0.01329   3.11906
    D3       -1.04942  -0.00402   0.00000  -0.01773  -0.01797  -1.06738
    D4       -1.07584  -0.03068   0.00000  -0.00156  -0.00180  -1.07764
    D5        0.99406   0.03794   0.00000   0.01667   0.01713   1.01119
    D6        3.12206  -0.00235   0.00000  -0.01390  -0.01413   3.10793
    D7        3.14032  -0.03304   0.00000   0.00135   0.00113   3.14145
    D8       -1.07296   0.03558   0.00000   0.01958   0.02006  -1.05291
    D9        1.05504  -0.00471   0.00000  -0.01099  -0.01120   1.04384
   D10        1.08560  -0.00407   0.00000  -0.02720  -0.02712   1.05848
   D11       -1.02910  -0.00224   0.00000  -0.01144  -0.01174  -1.04084
   D12       -3.13209   0.00566   0.00000  -0.02141  -0.02166   3.12944
   D13       -1.00647  -0.01194   0.00000   0.00042   0.00168  -1.00478
   D14       -3.12117  -0.01011   0.00000   0.01619   0.01706  -3.10410
   D15        1.05903  -0.00221   0.00000   0.00621   0.00714   1.06617
   D16       -3.08823  -0.00525   0.00000  -0.03550  -0.03612  -3.12435
   D17        1.08025  -0.00342   0.00000  -0.01973  -0.02074   1.05951
   D18       -1.02274   0.00448   0.00000  -0.02971  -0.03067  -1.05340
   D19       -1.40448   0.01998   0.00000  -0.12082  -0.12029  -1.52476
   D20        0.69095   0.04288   0.00000  -0.17805  -0.17789   0.51306
   D21        2.74900   0.03572   0.00000  -0.10282  -0.10351   2.64549
   D22       -0.00001   0.02990   0.00000  -0.30194  -0.30339  -0.30339
   D23       -3.14072   0.02009   0.00000  -0.19945  -0.19801   2.94445
   D24       -0.51744  -0.00076   0.00000  -0.07527  -0.07363  -0.59107
   D25        2.62506  -0.01106   0.00000   0.03140   0.02976   2.65482
   D26        3.13324  -0.00214   0.00000  -0.01009  -0.01009   3.12315
   D27        2.61184  -0.01060   0.00000   0.01944   0.01879   2.63063
   D28       -0.52833  -0.00121   0.00000  -0.04627  -0.04562  -0.57395
   D29        3.14022   0.02010   0.00000  -0.09581  -0.09519   3.04503
   D30       -0.00000   0.02926   0.00000  -0.15883  -0.15944  -0.15944
   D31       -1.40448   0.01963   0.00000  -0.14222  -0.14182  -1.54629
   D32        0.69025   0.04225   0.00000  -0.19140  -0.19127   0.49898
   D33        2.74785   0.03542   0.00000  -0.12583  -0.12636   2.62150
   D34        0.97375   0.03801   0.00000   0.01456   0.01490   0.98864
   D35       -1.09273   0.03563   0.00000   0.01782   0.01818  -1.07455
   D36        3.08683   0.03626   0.00000   0.01211   0.01244   3.09927
   D37       -1.09314  -0.03054   0.00000  -0.00285  -0.00302  -1.09616
   D38        3.12357  -0.03292   0.00000   0.00041   0.00026   3.12382
   D39        1.01994  -0.03229   0.00000  -0.00531  -0.00548   1.01446
   D40        3.10329  -0.00232   0.00000  -0.01271  -0.01290   3.09039
   D41        1.03681  -0.00470   0.00000  -0.00945  -0.00962   1.02719
   D42       -1.06681  -0.00407   0.00000  -0.01516  -0.01535  -1.08216
   D43       -1.01684  -0.01187   0.00000  -0.00493  -0.00395  -1.02079
   D44       -3.13075  -0.00997   0.00000   0.01117   0.01184  -3.11891
   D45        1.04812  -0.00212   0.00000   0.00225   0.00298   1.05111
   D46        1.07477  -0.00418   0.00000  -0.02776  -0.02770   1.04707
   D47       -1.03915  -0.00229   0.00000  -0.01166  -0.01190  -1.05105
   D48        3.13973   0.00557   0.00000  -0.02057  -0.02077   3.11897
   D49       -3.09812  -0.00536   0.00000  -0.03601  -0.03649  -3.13462
   D50        1.07114  -0.00347   0.00000  -0.01991  -0.02069   1.05045
   D51       -1.03316   0.00438   0.00000  -0.02882  -0.02956  -1.06272
         Item               Value     Threshold  Converged?
 Maximum Force            0.215025     0.000450     NO 
 RMS     Force            0.037321     0.000300     NO 
 Maximum Displacement     1.094098     0.001800     NO 
 RMS     Displacement     0.374597     0.001200     NO 
 Predicted change in Energy=-2.539690D-02
 GradGradGradGradGradGradGradGradGradGradGradGradGradGradGradGradGradGrad

                          Input orientation:                          
 ---------------------------------------------------------------------
 Center     Atomic      Atomic             Coordinates (Angstroms)
 Number     Number       Type             X           Y           Z
 ---------------------------------------------------------------------
      1          6           0        5.932609   -1.212968   -0.326967
      2          6           0        5.352307    0.184851   -0.526893
      3          6           0        3.917459   -0.007403   -0.969685
      4          8           0        5.416352    0.897753    0.724970
      5          6           0        4.407163    0.801756    1.641964
      6          8           0        3.271079    0.401912    1.442493
      7          7           0        4.863760    1.373566    2.821041
      8          7           0        6.089306    1.190976    2.994733
      9          6           0        6.555513    1.779243    4.158063
     10          8           0        7.496573    1.388858    4.833376
     11          8           0        5.832248    2.917156    4.375275
     12          6           0        6.019044    3.678295    5.585157
     13          6           0        5.079216    3.140071    6.661134
     14          6           0        7.431190    3.506276    6.107706
     15          1           0        5.882632   -1.798382   -1.249934
     16          1           0        5.382525   -1.747604    0.459338
     17          1           0        6.977178   -1.172413   -0.003364
     18          1           0        5.919319    0.736712   -1.287507
     19          1           0        3.376246   -0.543008   -0.185624
     20          1           0        3.875549   -0.582581   -1.901453
     21          1           0        3.402058    0.944478   -1.130266
     22          1           0        5.814009    4.737425    5.385403
     23          1           0        5.252651    2.067873    6.820626
     24          1           0        4.030552    3.245547    6.365153
     25          1           0        5.220986    3.664917    7.610380
     26          1           0        7.619621    2.444134    6.294216
     27          1           0        7.567963    4.065660    7.039601
     28          1           0        8.181131    3.847079    5.387462
 ---------------------------------------------------------------------
                    Distance matrix (angstroms):
                    1          2          3          4          5
     1  C    0.000000
     2  C    1.526636   0.000000
     3  C    2.434605   1.513874   0.000000
     4  O    2.414174   1.442044   2.436769   0.000000
     5  C    3.203559   2.444956   2.777635   1.366952   0.000000
     6  O    3.580861   2.873518   2.530602   2.315793   1.220800
     7  N    4.212191   3.586137   4.143931   2.219295   1.387685
     8  N    4.103315   3.735947   4.676499   2.385513   2.193418
     9  C    5.427415   5.092995   6.036988   3.723015   3.449876
    10  O    5.987038   5.897456   6.959534   4.631144   4.480430
    11  O    6.259319   5.632680   6.386553   4.192336   3.738553
    12  C    7.673665   7.071481   7.808135   5.631702   5.140176
    13  C    8.277124   7.776608   8.335806   6.354502   5.577763
    14  C    8.119238   7.705291   8.647641   6.311720   6.033409
    15  H    1.094109   2.176521   2.673584   3.374434   4.159423
    16  H    1.098501   2.169780   2.686414   2.658876   2.974756
    17  H    1.094298   2.180929   3.413635   2.692998   3.634477
    18  H    2.173491   1.097537   2.159204   2.080619   3.297370
    19  H    2.646472   2.133321   1.092948   2.658384   2.492239
    20  H    2.666062   2.158514   1.095801   3.385788   3.841198
    21  H    3.421045   2.178202   1.094305   2.738880   2.952264
    22  H    8.249389   7.476252   8.154596   6.051516   5.610886
    23  H    7.893944   7.585627   8.171808   6.209106   5.397818
    24  H    8.263210   7.656056   8.024607   6.264522   5.331272
    25  H    9.343535   8.851176   9.423514   7.423222   6.669482
    26  H    7.749870   7.534759   8.513536   6.185644   5.887338
    27  H    9.208943   8.787584   9.698695   7.385095   7.055368
    28  H    7.957049   7.509577   8.570253   6.171009   6.127445
                    6          7          8          9         10
     6  O    0.000000
     7  N    2.319729   0.000000
     8  N    3.312776   1.251188   0.000000
     9  C    4.478714   2.194135   1.384465   0.000000
    10  O    5.506991   3.313824   2.323825   1.222310   0.000000
    11  O    4.635435   2.395054   2.225235   1.365700   2.305543
    12  C    5.953795   3.779787   3.591933   2.435322   2.826621
    13  C    6.164503   4.232408   4.273377   3.208842   3.500152
    14  C    6.979099   4.684262   4.105102   2.747828   2.472176
    15  H    4.348639   5.260437   5.195784   6.519095   7.054783
    16  H    3.169419   3.948223   3.945000   5.243579   5.782629
    17  H    4.278337   4.350380   3.919504   5.119331   5.497629
    18  H    3.818137   4.289517   4.309621   5.580847   6.354387
    19  H    1.885390   3.863416   4.525712   5.862440   6.774921
    20  H    3.537878   5.206248   5.658521   7.034071   7.896601
    21  H    2.632607   4.234798   4.929268   6.213496   7.247589
    22  H    6.388248   4.335259   4.285836   3.287405   3.787962
    23  H    5.968783   4.077987   4.013278   2.978254   3.073339
    24  H    5.735473   4.093810   4.451905   3.660152   4.219826
    25  H    7.245148   5.321247   5.308348   4.153940   4.250940
    26  H    6.827864   4.561122   3.846928   2.477409   1.806323
    27  H    7.950717   5.688263   5.177952   3.815235   3.469553
    28  H    7.179177   4.869264   4.141952   2.903446   2.611223
                   11         12         13         14         15
    11  O    0.000000
    12  C    1.441540   0.000000
    13  C    2.417002   1.526659   0.000000
    14  C    2.430019   1.515521   2.443803   0.000000
    15  H    7.340423   8.759627   9.360491   9.201755   0.000000
    16  H    6.107111   7.491299   7.902129   7.981500   1.781656
    17  H    6.099829   7.461833   8.161820   7.709827   1.773078
    18  H    6.068692   7.476387   8.346425   8.040237   2.535637
    19  H    6.229485   7.622709   7.958848   8.511479   2.998448
    20  H    7.448097   8.876878   9.414077   9.669951   2.435371
    21  H    6.333109   7.708390   8.266765   8.670926   3.700115
    22  H    2.081843   1.097132   2.172314   2.157017   9.313924
    23  H    2.652726   2.169609   1.097783   2.706159   8.970995
    24  H    2.704360   2.179395   1.094726   3.420321   9.319923
    25  H    3.376195   2.176833   1.093906   2.677349  10.430272
    26  H    2.664730   2.141907   2.659439   1.094732   8.827813
    27  H    3.380888   2.159771   2.682129   1.095466  10.292897
    28  H    2.721494   2.177658   3.426949   1.094216   9.011623
                   16         17         18         19         20
    16  H    0.000000
    17  H    1.757230   0.000000
    18  H    3.084062   2.532360   0.000000
    19  H    2.427382   3.660065   3.052712   0.000000
    20  H    3.033412   3.683849   2.508876   1.787439   0.000000
    21  H    3.700864   4.304953   2.530710   1.762280   1.775059
    22  H    8.155238   8.081952   7.781036   8.053695   9.228129
    23  H    7.418943   7.748566   8.243680   7.708769   9.219326
    24  H    7.850990   8.292103   8.271934   7.595653   9.111277
    25  H    8.969887   9.189835   9.393319   9.049164  10.503638
    26  H    7.524698   7.290519   7.955429   8.301661   9.505161
    27  H    9.048207   8.797147   9.118150   9.540135  10.732312
    28  H    7.963610   7.463632   7.703596   8.568493   9.554486
                   21         22         23         24         25
    21  H    0.000000
    22  H    7.915674   0.000000
    23  H    8.240352   3.082450   0.000000
    24  H    7.865827   2.523159   1.757241   0.000000
    25  H    9.333176   2.540172   1.781927   1.773018   0.000000
    26  H    8.669472   3.057018   2.453820   3.678139   2.996005
    27  H    9.687274   2.502797   3.065905   3.693337   2.448405
    28  H    8.587515   2.529029   3.714234   4.306393   3.706347
                   26         27         28
    26  H    0.000000
    27  H    1.785388   0.000000
    28  H    1.762314   1.775758   0.000000
 Stoichiometry    C8H14N2O4
 Framework group  C1[X(C8H14N2O4)]
 Deg. of freedom    78
 Full point group                 C1      NOp   1
 Largest Abelian subgroup         C1      NOp   1
 Largest concise Abelian subgroup C1      NOp   1
                         Standard orientation:                         
 ---------------------------------------------------------------------
 Center     Atomic      Atomic             Coordinates (Angstroms)
 Number     Number       Type             X           Y           Z
 ---------------------------------------------------------------------
      1          6           0        3.822302   -1.455953   -0.568567
      2          6           0        3.490234   -0.532303    0.600715
      3          6           0        4.294996    0.732240    0.388340
      4          8           0        2.075406   -0.253881    0.585390
      5          6           0        1.570106    0.783133   -0.147979
      6          8           0        2.191058    1.731611   -0.600926
      7          7           0        0.190056    0.639619   -0.171171
      8          7           0       -0.163208   -0.560633   -0.179581
      9          6           0       -1.539545   -0.710435   -0.179154
     10          8           0       -2.161000   -1.642100   -0.668885
     11          8           0       -2.076754    0.322860    0.534179
     12          6           0       -3.506499    0.493152    0.603955
     13          6           0       -3.961999    1.357486   -0.569132
     14          6           0       -4.207580   -0.843220    0.464674
     15          1           0        4.893443   -1.675401   -0.608243
[...]
   XX=            -57.5291   YY=            -88.2724   ZZ=            -80.4458
   XY=              0.0041   XZ=              2.8881   YZ=              0.0085
 Traceless Quadrupole moment (field-independent basis, Debye-Ang):
   XX=             17.8867   YY=            -12.8567   ZZ=             -5.0300
   XY=              0.0041   XZ=              2.8881   YZ=              0.0085
 Octapole moment (field-independent basis, Debye-Ang**2):
  XXX=             -0.0108  YYY=             10.9628  ZZZ=             -0.0018  XYY=             -0.0095
  XXY=             43.9591  XXZ=             -0.0462  XZZ=              0.0076  YZZ=              0.3054
  YYZ=             -0.0106  XYZ=             -3.6152
 Hexadecapole moment (field-independent basis, Debye-Ang**3):
 XXXX=          -4621.4349 YYYY=           -445.9162 ZZZZ=           -442.9390 XXXY=              0.0354
 XXXZ=             27.9059 YYYX=              0.0279 YYYZ=             -0.0096 ZZZX=             -7.8773
 ZZZY=             -0.0170 XXYY=           -938.5638 XXZZ=           -919.2490 YYZZ=           -146.8210
 XXYZ=              0.0176 YYXZ=              7.6543 ZZXY=             -0.0259
 N-N= 9.109238775795D+02 E-N=-3.511084154798D+03  KE= 7.171534249185D+02
 Evaluate density.
 Using the total density.
 Monte-Carlo method of calculating molar volume:
 based on  0.001 e/bohr**3 density envelope.
 Number of points per bohr**3 =   20 CutOff= 1.00D-04
 Using the CI density.
 There are       412 points.  Will hold       412 in memory.
 LenV=  1073585238 MDV=  1073741824.
 Box volume = 8766.250 fraction occupied=0.187
 Integrated density= 6.8888415435657350D+01 error=-3.9111584564342650D+01
 Molar volume = 1638.353 bohr**3/mol (146.205 cm**3/mol)
 Recommended a0 for SCRF calculation =  4.76 angstrom (  8.99 bohr)
 ******************************Gaussian NBO Version 3.1******************************
             N A T U R A L   A T O M I C   O R B I T A L   A N D
          N A T U R A L   B O N D   O R B I T A L   A N A L Y S I S
 ******************************Gaussian NBO Version 3.1******************************
       /RESON  / : Allow strongly delocalized NBO set

 Analyzing the CI density

 Job title: Title Card Required                                             

 Storage needed:    172550 in NPA (1073737624 available)


 NATURAL POPULATIONS:  Natural atomic orbital occupancies 
                                                          
   NAO  Atom  No  lang   Type(AO)    Occupancy
 --------------------------------------------
     1    C    1  S      Cor( 1S)     1.99939
     2    C    1  S      Val( 2S)     1.10905
     3    C    1  S      Ryd( 3S)     0.00041
     4    C    1  S      Ryd( 4S)     0.00002
     5    C    1  px     Val( 2p)     1.22459
     6    C    1  px     Ryd( 3p)     0.00130
     7    C    1  py     Val( 2p)     1.22731
     8    C    1  py     Ryd( 3p)     0.00129
     9    C    1  pz     Val( 2p)     1.14096
    10    C    1  pz     Ryd( 3p)     0.00172
    11    C    1  dxy    Ryd( 3d)     0.00034
    12    C    1  dxz    Ryd( 3d)     0.00067
    13    C    1  dyz    Ryd( 3d)     0.00043
    14    C    1  dx2y2  Ryd( 3d)     0.00101
    15    C    1  dz2    Ryd( 3d)     0.00078
 
    16    C    2  S      Cor( 1S)     1.99912
    17    C    2  S      Val( 2S)     0.97455
    18    C    2  S      Ryd( 3S)     0.00090
    19    C    2  S      Ryd( 4S)     0.00005
    20    C    2  px     Val( 2p)     0.69190
    21    C    2  px     Ryd( 3p)     0.00415
    22    C    2  py     Val( 2p)     1.18260
    23    C    2  py     Ryd( 3p)     0.00502
    24    C    2  pz     Val( 2p)     1.04867
    25    C    2  pz     Ryd( 3p)     0.00199
    26    C    2  dxy    Ryd( 3d)     0.00082
    27    C    2  dxz    Ryd( 3d)     0.00125
    28    C    2  dyz    Ryd( 3d)     0.00064
    29    C    2  dx2y2  Ryd( 3d)     0.00218
    30    C    2  dz2    Ryd( 3d)     0.00127
 
    31    C    3  S      Cor( 1S)     1.99939
    32    C    3  S      Val( 2S)     1.10910
    33    C    3  S      Ryd( 3S)     0.00042
    34    C    3  S      Ryd( 4S)     0.00002
    35    C    3  px     Val( 2p)     1.20309
    36    C    3  px     Ryd( 3p)     0.00139
    37    C    3  py     Val( 2p)     1.26204
    38    C    3  py     Ryd( 3p)     0.00160
    39    C    3  pz     Val( 2p)     1.12864
    40    C    3  pz     Ryd( 3p)     0.00145
    41    C    3  dxy    Ryd( 3d)     0.00039
    42    C    3  dxz    Ryd( 3d)     0.00056
    43    C    3  dyz    Ryd( 3d)     0.00062
    44    C    3  dx2y2  Ryd( 3d)     0.00094
    45    C    3  dz2    Ryd( 3d)     0.00072
 
    46    O    4  S      Cor( 1S)     1.99972
    47    O    4  S      Val( 2S)     1.61708
    48    O    4  S      Ryd( 3S)     0.00197
    49    O    4  S      Ryd( 4S)     0.00011
    50    O    4  px     Val( 2p)     1.52915
    51    O    4  px     Ryd( 3p)     0.00121
    52    O    4  py     Val( 2p)     1.61364
    53    O    4  py     Ryd( 3p)     0.00121
    54    O    4  pz     Val( 2p)     1.76166
    55    O    4  pz     Ryd( 3p)     0.00179
    56    O    4  dxy    Ryd( 3d)     0.00142
    57    O    4  dxz    Ryd( 3d)     0.00044
    58    O    4  dyz    Ryd( 3d)     0.00167
    59    O    4  dx2y2  Ryd( 3d)     0.00134
    60    O    4  dz2    Ryd( 3d)     0.00083
 
    61    C    5  S      Cor( 1S)     1.99951
    62    C    5  S      Val( 2S)     0.73174
    63    C    5  S      Ryd( 3S)     0.00412
    64    C    5  S      Ryd( 4S)     0.00046
    65    C    5  px     Val( 2p)     0.80460
    66    C    5  px     Ryd( 3p)     0.00956
    67    C    5  py     Val( 2p)     0.71025
    68    C    5  py     Ryd( 3p)     0.02116
    69    C    5  pz     Val( 2p)     0.78138
    70    C    5  pz     Ryd( 3p)     0.00468
    71    C    5  dxy    Ryd( 3d)     0.00341
    72    C    5  dxz    Ryd( 3d)     0.00146
    73    C    5  dyz    Ryd( 3d)     0.00292
    74    C    5  dx2y2  Ryd( 3d)     0.00380
    75    C    5  dz2    Ryd( 3d)     0.00073
 
    76    O    6  S      Cor( 1S)     1.99977
    77    O    6  S      Val( 2S)     1.70726
    78    O    6  S      Ryd( 3S)     0.00085
    79    O    6  S      Ryd( 4S)     0.00013
    80    O    6  px     Val( 2p)     1.70819
    81    O    6  px     Ryd( 3p)     0.00112
    82    O    6  py     Val( 2p)     1.62320
    83    O    6  py     Ryd( 3p)     0.00071
    84    O    6  pz     Val( 2p)     1.48648
    85    O    6  pz     Ryd( 3p)     0.00069
    86    O    6  dxy    Ryd( 3d)     0.00503
    87    O    6  dxz    Ryd( 3d)     0.00135
    88    O    6  dyz    Ryd( 3d)     0.00406
    89    O    6  dx2y2  Ryd( 3d)     0.00495
    90    O    6  dz2    Ryd( 3d)     0.00159
 
    91    N    7  S      Cor( 1S)     1.99939
    92    N    7  S      Val( 2S)     1.39549
    93    N    7  S      Ryd( 3S)     0.00622
    94    N    7  S      Ryd( 4S)     0.00003
    95    N    7  px     Val( 2p)     1.12101
    96    N    7  px     Ryd( 3p)     0.00370
    97    N    7  py     Val( 2p)     1.45202
    98    N    7  py     Ryd( 3p)     0.00462
    99    N    7  pz     Val( 2p)     1.23136
   100    N    7  pz     Ryd( 3p)     0.00446
   101    N    7  dxy    Ryd( 3d)     0.00095
   102    N    7  dxz    Ryd( 3d)     0.00147
   103    N    7  dyz    Ryd( 3d)     0.00239
   104    N    7  dx2y2  Ryd( 3d)     0.00072
   105    N    7  dz2    Ryd( 3d)     0.00212
 
   106    N    8  S      Cor( 1S)     1.99939
   107    N    8  S      Val( 2S)     1.39547
   108    N    8  S      Ryd( 3S)     0.00622
   109    N    8  S      Ryd( 4S)     0.00003
   110    N    8  px     Val( 2p)     1.12101
   111    N    8  px     Ryd( 3p)     0.00370
   112    N    8  py     Val( 2p)     1.45203
   113    N    8  py     Ryd( 3p)     0.00462
   114    N    8  pz     Val( 2p)     1.23137
   115    N    8  pz     Ryd( 3p)     0.00446
   116    N    8  dxy    Ryd( 3d)     0.00095
   117    N    8  dxz    Ryd( 3d)     0.00147
   118    N    8  dyz    Ryd( 3d)     0.00239
   119    N    8  dx2y2  Ryd( 3d)     0.00072
   120    N    8  dz2    Ryd( 3d)     0.00212
 
   121    C    9  S      Cor( 1S)     1.99951
   122    C    9  S      Val( 2S)     0.73174
   123    C    9  S      Ryd( 3S)     0.00412
   124    C    9  S      Ryd( 4S)     0.00046
   125    C    9  px     Val( 2p)     0.80460
   126    C    9  px     Ryd( 3p)     0.00955
   127    C    9  py     Val( 2p)     0.71034
   128    C    9  py     Ryd( 3p)     0.02115
   129    C    9  pz     Val( 2p)     0.78128
   130    C    9  pz     Ryd( 3p)     0.00469
   131    C    9  dxy    Ryd( 3d)     0.00341
   132    C    9  dxz    Ryd( 3d)     0.00146
   133    C    9  dyz    Ryd( 3d)     0.00292
   134    C    9  dx2y2  Ryd( 3d)     0.00380
   135    C    9  dz2    Ryd( 3d)     0.00074
 
   136    O   10  S      Cor( 1S)     1.99977
   137    O   10  S      Val( 2S)     1.70726
   138    O   10  S      Ryd( 3S)     0.00085
   139    O   10  S      Ryd( 4S)     0.00013
   140    O   10  px     Val( 2p)     1.70819
   141    O   10  px     Ryd( 3p)     0.00112
   142    O   10  py     Val( 2p)     1.62296
   143    O   10  py     Ryd( 3p)     0.00071
   144    O   10  pz     Val( 2p)     1.48671
   145    O   10  pz     Ryd( 3p)     0.00068
   146    O   10  dxy    Ryd( 3d)     0.00503
   147    O   10  dxz    Ryd( 3d)     0.00135
   148    O   10  dyz    Ryd( 3d)     0.00406
   149    O   10  dx2y2  Ryd( 3d)     0.00495
   150    O   10  dz2    Ryd( 3d)     0.00159
 
   151    O   11  S      Cor( 1S)     1.99972
   152    O   11  S      Val( 2S)     1.61708
   153    O   11  S      Ryd( 3S)     0.00197
   154    O   11  S      Ryd( 4S)     0.00011
   155    O   11  px     Val( 2p)     1.52911
   156    O   11  px     Ryd( 3p)     0.00121
   157    O   11  py     Val( 2p)     1.61386
   158    O   11  py     Ryd( 3p)     0.00121
   159    O   11  pz     Val( 2p)     1.76147
   160    O   11  pz     Ryd( 3p)     0.00178
   161    O   11  dxy    Ryd( 3d)     0.00142
   162    O   11  dxz    Ryd( 3d)     0.00044
   163    O   11  dyz    Ryd( 3d)     0.00167
   164    O   11  dx2y2  Ryd( 3d)     0.00134
   165    O   11  dz2    Ryd( 3d)     0.00083
 
   166    C   12  S      Cor( 1S)     1.99912
   167    C   12  S      Val( 2S)     0.97455
   168    C   12  S      Ryd( 3S)     0.00090
   169    C   12  S      Ryd( 4S)     0.00005
   170    C   12  px     Val( 2p)     0.69187
   171    C   12  px     Ryd( 3p)     0.00415
   172    C   12  py     Val( 2p)     1.18253
   173    C   12  py     Ryd( 3p)     0.00502
   174    C   12  pz     Val( 2p)     1.04876
   175    C   12  pz     Ryd( 3p)     0.00199
   176    C   12  dxy    Ryd( 3d)     0.00082
   177    C   12  dxz    Ryd( 3d)     0.00125
   178    C   12  dyz    Ryd( 3d)     0.00064
   179    C   12  dx2y2  Ryd( 3d)     0.00218
   180    C   12  dz2    Ryd( 3d)     0.00126
 
   181    C   13  S      Cor( 1S)     1.99939
   182    C   13  S      Val( 2S)     1.10905
   183    C   13  S      Ryd( 3S)     0.00041
   184    C   13  S      Ryd( 4S)     0.00002
   185    C   13  px     Val( 2p)     1.22458
   186    C   13  px     Ryd( 3p)     0.00130
   187    C   13  py     Val( 2p)     1.22700
   188    C   13  py     Ryd( 3p)     0.00129
   189    C   13  pz     Val( 2p)     1.14129
   190    C   13  pz     Ryd( 3p)     0.00172
   191    C   13  dxy    Ryd( 3d)     0.00034
   192    C   13  dxz    Ryd( 3d)     0.00067
   193    C   13  dyz    Ryd( 3d)     0.00043
   194    C   13  dx2y2  Ryd( 3d)     0.00101
   195    C   13  dz2    Ryd( 3d)     0.00078
 
   196    C   14  S      Cor( 1S)     1.99939
   197    C   14  S      Val( 2S)     1.10910
   198    C   14  S      Ryd( 3S)     0.00042
   199    C   14  S      Ryd( 4S)     0.00002
   200    C   14  px     Val( 2p)     1.20312
   201    C   14  px     Ryd( 3p)     0.00139
   202    C   14  py     Val( 2p)     1.26213
   203    C   14  py     Ryd( 3p)     0.00160
   204    C   14  pz     Val( 2p)     1.12852
   205    C   14  pz     Ryd( 3p)     0.00145
   206    C   14  dxy    Ryd( 3d)     0.00039
   207    C   14  dxz    Ryd( 3d)     0.00056
   208    C   14  dyz    Ryd( 3d)     0.00063
   209    C   14  dx2y2  Ryd( 3d)     0.00094
   210    C   14  dz2    Ryd( 3d)     0.00072
 
   211    H   15  S      Val( 1S)     0.75878
   212    H   15  S      Ryd( 2S)     0.00075
 
   213    H   16  S      Val( 1S)     0.74615
   214    H   16  S      Ryd( 2S)     0.00135
 
   215    H   17  S      Val( 1S)     0.75527
   216    H   17  S      Ryd( 2S)     0.00106
 
   217    H   18  S      Val( 1S)     0.75307
   218    H   18  S      Ryd( 2S)     0.00168
 
   219    H   19  S      Val( 1S)     0.74646
   220    H   19  S      Ryd( 2S)     0.00146
 
   221    H   20  S      Val( 1S)     0.75696
   222    H   20  S      Ryd( 2S)     0.00073
 
   223    H   21  S      Val( 1S)     0.75611
   224    H   21  S      Ryd( 2S)     0.00106
 
   225    H   22  S      Val( 1S)     0.75307
   226    H   22  S      Ryd( 2S)     0.00168
 
   227    H   23  S      Val( 1S)     0.74615
   228    H   23  S      Ryd( 2S)     0.00135
 
   229    H   24  S      Val( 1S)     0.75527
   230    H   24  S      Ryd( 2S)     0.00106
 
   231    H   25  S      Val( 1S)     0.75878
   232    H   25  S      Ryd( 2S)     0.00075
 
   233    H   26  S      Val( 1S)     0.74646
   234    H   26  S      Ryd( 2S)     0.00146
 
   235    H   27  S      Val( 1S)     0.75696
   236    H   27  S      Ryd( 2S)     0.00073
 
   237    H   28  S      Val( 1S)     0.75611
   238    H   28  S      Ryd( 2S)     0.00106


 Summary of Natural Population Analysis:                  
                                                          
                                       Natural Population 
                Natural  -----------------------------------------------
    Atom  No    Charge         Core      Valence    Rydberg      Total
 -----------------------------------------------------------------------
      C    1   -0.70929      1.99939     4.70192    0.00798     6.70929
      C    2    0.08488      1.99912     3.89772    0.01827     5.91512
      C    3   -0.71036      1.99939     4.70287    0.00810     6.71036
      O    4   -0.53325      1.99972     6.52153    0.01199     8.53325
      C    5    0.92023      1.99951     3.02797    0.05229     5.07977
      O    6   -0.54539      1.99977     6.52513    0.02049     8.54539
      N    7   -0.22596      1.99939     5.19988    0.02669     7.22596
      N    8   -0.22596      1.99939     5.19989    0.02669     7.22596
      C    9    0.92024      1.99951     3.02796    0.05229     5.07976
      O   10   -0.54537      1.99977     6.52511    0.02049     8.54537
      O   11   -0.53324      1.99972     6.52152    0.01199     8.53324
      C   12    0.08488      1.99912     3.89773    0.01827     5.91512
      C   13   -0.70929      1.99939     4.70192    0.00798     6.70929
      C   14   -0.71036      1.99939     4.70287    0.00810     6.71036
      H   15    0.24048      0.00000     0.75878    0.00075     0.75952
      H   16    0.25250      0.00000     0.74615    0.00135     0.74750
      H   17    0.24367      0.00000     0.75527    0.00106     0.75633
      H   18    0.24524      0.00000     0.75307    0.00168     0.75476
      H   19    0.25207      0.00000     0.74646    0.00146     0.74793
      H   20    0.24231      0.00000     0.75696    0.00073     0.75769
      H   21    0.24283      0.00000     0.75611    0.00106     0.75717
      H   22    0.24524      0.00000     0.75307    0.00168     0.75476
      H   23    0.25250      0.00000     0.74615    0.00135     0.74750
      H   24    0.24367      0.00000     0.75527    0.00106     0.75633
      H   25    0.24048      0.00000     0.75878    0.00075     0.75952
      H   26    0.25207      0.00000     0.74646    0.00146     0.74793
      H   27    0.24231      0.00000     0.75696    0.00073     0.75769
      H   28    0.24283      0.00000     0.75611    0.00106     0.75717
 =======================================================================
   * Total *   -0.00000     27.99259    79.69964    0.30778   108.00000

                                 Natural Population      
 --------------------------------------------------------
   Core                      27.99259 ( 99.9735% of  28)
   Valence                   79.69964 ( 99.6245% of  80)
   Natural Minimal Basis    107.69222 ( 99.7150% of 108)
   Natural Rydberg Basis      0.30778 (  0.2850% of 108)
 --------------------------------------------------------

    Atom  No          Natural Electron Configuration
 ----------------------------------------------------------------------------
      C    1      [core]2S( 1.11)2p( 3.59)
      C    2      [core]2S( 0.97)2p( 2.92)3p( 0.01)3d( 0.01)
      C    3      [core]2S( 1.11)2p( 3.59)
      O    4      [core]2S( 1.62)2p( 4.90)3d( 0.01)
      C    5      [core]2S( 0.73)2p( 2.30)3p( 0.04)3d( 0.01)
      O    6      [core]2S( 1.71)2p( 4.82)3d( 0.02)
      N    7      [core]2S( 1.40)2p( 3.80)3S( 0.01)3p( 0.01)3d( 0.01)
      N    8      [core]2S( 1.40)2p( 3.80)3S( 0.01)3p( 0.01)3d( 0.01)
      C    9      [core]2S( 0.73)2p( 2.30)3p( 0.04)3d( 0.01)
      O   10      [core]2S( 1.71)2p( 4.82)3d( 0.02)
      O   11      [core]2S( 1.62)2p( 4.90)3d( 0.01)
      C   12      [core]2S( 0.97)2p( 2.92)3p( 0.01)3d( 0.01)
      C   13      [core]2S( 1.11)2p( 3.59)
      C   14      [core]2S( 1.11)2p( 3.59)
      H   15            1S( 0.76)
      H   16            1S( 0.75)
      H   17            1S( 0.76)
      H   18            1S( 0.75)
      H   19            1S( 0.75)
      H   20            1S( 0.76)
      H   21            1S( 0.76)
      H   22            1S( 0.75)
      H   23            1S( 0.75)
      H   24            1S( 0.76)
      H   25            1S( 0.76)
      H   26            1S( 0.75)
      H   27            1S( 0.76)
      H   28            1S( 0.76)


 NBO analysis skipped by request.
 1\1\GINC-DELLA-R2C3N6\SP\RB3LYP TD-FC\6-31G(d)\C8H14N2O4\BJS4\22-Aug-2
 020\0\\# TD(NStates=10, Root=1) B3LYP/6-31G* scf=qc volume pop=NPA den
 sity=current Geom=AllCheck Guess=Read\\Title Card Required\\0,1\C,0,5.
 9821686131,-1.0168602998,-0.8407542208\C,0,5.0689633968,0.1902547987,-
 0.6548056464\C,0,3.6113436452,-0.0514278285,-1.0328442842\O,0,5.181482
 7581,0.7333080533,0.7113681798\C,0,4.7882473817,0.0025398587,1.7482843
 422\O,0,4.3260950018,-1.1111111597,1.7702039568\N,0,4.8708014831,0.798
 2715355,2.9611739887\N,0,6.0210303431,0.8408513167,3.4355538694\C,0,6.
 0824530551,1.5385090061,4.7085799133\O,0,6.1717810617,0.9274327517,5.7
 443840089\O,0,6.1304059335,2.8482952895,4.4940786326\C,0,6.3253389004,
 3.7714875832,5.6270927803\C,0,5.1400996796,3.7197192761,6.5853089015\C
 ,0,7.6842876366,3.5562695072,6.2850612017\H,0,6.0192469777,-1.27873061
 01,-1.9042166686\H,0,5.6184934907,-1.8806919595,-0.2802484132\H,0,6.99
 98958874,-0.7824777678,-0.5125259633\H,0,5.4579190887,1.0295830503,-1.
 2380705705\H,0,3.1880224926,-0.8883976651,-0.4734981879\H,0,3.55177076
 59,-0.2798477144,-2.1029208218\H,0,3.0107756018,0.8442522545,-0.843501
 1592\H,0,6.3256933317,4.7329526213,5.1059968704\H,0,5.1129322841,2.775
 620406,7.1335538839\H,0,4.199212983,3.8411967683,6.0390364197\H,0,5.22
 42432422,4.5414976616,7.3053812021\H,0,7.7212163174,2.6059384664,6.821
 8088232\H,0,7.8701326621,4.3679416998,6.9974085392\H,0,8.4821859849,3.
 5738031003,5.535510422\\Version=ES64L-G16RevA.03\State=1-A\HF=-723.645
 7335\RMSD=2.732e-13\Dipole=0.2748061,1.270264,-0.7788619\Quadrupole=-4
 .0268096,-3.4232014,7.450011,0.0080248,1.9635369,10.006784\PG=C01 [X(C
 8H14N2O4)]\\@


 THE ONLY TROUBLE WITH A SURE THING IS THE UNCERTAINTY.
     -- FROM A TEABAG (BELONGING TO W.H.?)
 Job cpu time:       0 days  0 hours 21 minutes  4.8 seconds.
 Elapsed time:       0 days  0 hours  5 minutes 29.1 seconds.
 File lengths (MBytes):  RWF=    524 Int=      0 D2E=      0 Chk=    268 Scr=      1
 Normal termination of Gaussian 16 at Sat Aug 22 14:15:49 2020.
