 Entering Gaussian System, Link 0=g16
 Input=azadicarboxylate_5_conf13123.com
 Output=azadicarboxylate_5_conf13123.log
 Initial command:
 /opt/export//g16/l1.exe "/scratch/bjs4/job.1656/Gau-1658.inp" -scrdir="/scratch/bjs4/job.1656/"
 Entering Link 1 = /opt/export//g16/l1.exe PID=      1659.
  
 Copyright (c) 1988,1990,1992,1993,1995,1998,2003,2009,2016,
            Gaussian, Inc.  All Rights Reserved.
  
 This is part of the Gaussian(R) 16 program.  It is based on
 the Gaussian(R) 09 system (copyright 2009, Gaussian, Inc.),
 the Gaussian(R) 03 system (copyright 2003, Gaussian, Inc.),
 the Gaussian(R) 98 system (copyright 1998, Gaussian, Inc.),
 the Gaussian(R) 94 system (copyright 1995, Gaussian, Inc.),
 the Gaussian 92(TM) system (copyright 1992, Gaussian, Inc.),
 the Gaussian 90(TM) system (copyright 1990, Gaussian, Inc.),
 the Gaussian 88(TM) system (copyright 1988, Gaussian, Inc.),
 the Gaussian 86(TM) system (copyright 1986, Carnegie Mellon
 University), and the Gaussian 82(TM) system (copyright 1983,
 Carnegie Mellon University). Gaussian is a federally registered
 trademark of Gaussian, Inc.
  
 This software contains proprietary and confidential information,
 including trade secrets, belonging to Gaussian, Inc.
  
 This software is provided under written license and may be
 used, copied, transmitted, or stored only in accord with that
 written license.
  
 The following legend is applicable only to US Government
 contracts under FAR:
  
                    RESTRICTED RIGHTS LEGEND
  
 Use, reproduction and disclosure by the US Government is
 subject to restrictions as set forth in subparagraphs (a)
 and (c) of the Commercial Computer Software - Restricted
 Rights clause in FAR 52.227-19.
  
 Gaussian, Inc.
 340 Quinnipiac St., Bldg. 40, Wallingford CT 06492
  
  
 ---------------------------------------------------------------
 Warning -- This program may not be used in any manner that
 competes with the business of Gaussian, Inc. or will provide
 assistance to any competitor of Gaussian, Inc.  The licensee
 of this program is prohibited from giving any competitor of
 Gaussian, Inc. access to this program.  By using this program,
 the user acknowledges that Gaussian, Inc. is engaged in the
 business of creating and licensing software in the field of
 computational chemistry and represents and warrants to the
 licensee that it is not a competitor of Gaussian, Inc. and that
 it will not use this program in any manner prohibited above.
 ---------------------------------------------------------------
  

 Cite this work as:
 Gaussian 16, Revision A.03,
 M. J. Frisch, G. W. Trucks, H. B. Schlegel, G. E. Scuseria, 
 M. A. Robb, J. R. Cheeseman, G. Scalmani, V. Barone, 
 G. A. Petersson, H. Nakatsuji, X. Li, M. Caricato, A. V. Marenich, 
 J. Bloino, B. G. Janesko, R. Gomperts, B. Mennucci, H. P. Hratchian, 
 J. V. Ortiz, A. F. Izmaylov, J. L. Sonnenberg, D. Williams-Young, 
 F. Ding, F. Lipparini, F. Egidi, J. Goings, B. Peng, A. Petrone, 
 T. Henderson, D. Ranasinghe, V. G. Zakrzewski, J. Gao, N. Rega, 
 G. Zheng, W. Liang, M. Hada, M. Ehara, K. Toyota, R. Fukuda, 
 J. Hasegawa, M. Ishida, T. Nakajima, Y. Honda, O. Kitao, H. Nakai, 
 T. Vreven, K. Throssell, J. A. Montgomery, Jr., J. E. Peralta, 
 F. Ogliaro, M. J. Bearpark, J. J. Heyd, E. N. Brothers, K. N. Kudin, 
 V. N. Staroverov, T. A. Keith, R. Kobayashi, J. Normand, 
 K. Raghavachari, A. P. Rendell, J. C. Burant, S. S. Iyengar, 
 J. Tomasi, M. Cossi, J. M. Millam, M. Klene, C. Adamo, R. Cammi, 
 J. W. Ochterski, R. L. Martin, K. Morokuma, O. Farkas, 
 J. B. Foresman, and D. J. Fox, Gaussian, Inc., Wallingford CT, 2016.
 
 ******************************************
 Gaussian 16:  ES64L-G16RevA.03 25-Dec-2016
                22-Aug-2020 
 ******************************************
 %nprocshared=5
 Will use up to    5 processors via shared memory.
 %Mem=10GB
 %Chk=azadicarboxylate_5_conf131.chk
 ---------------------------------
 # opt=CalcAll B3LYP/6-31G* scf=qc
 ---------------------------------
 1/10=4,18=20,19=15,26=3,38=1/1,3;
 2/9=110,12=2,17=6,18=5,40=1/2;
 3/5=1,6=6,7=1,11=2,25=1,30=1,71=2,74=-5,140=1/1,2,3;
 4//1;
 5/5=2,8=3,38=5/8;
 8/6=4,10=90,11=11/1;
 11/6=1,8=1,9=11,15=111,16=1/1,2,10;
 10/6=1/2;
 6/7=2,8=2,9=2,10=2,18=1,28=1/1;
 7/10=1,25=1/1,2,3,16;
 1/10=4,18=20,19=15,26=3/3(3);
 2/9=110/2;
 7/8=1,9=1,25=1,44=-1/16;
 99//99;
 2/9=110/2;
 3/5=1,6=6,7=1,11=2,25=1,30=1,71=2,74=-5,140=1/1,2,3;
 4/5=5,16=3,69=1/1;
 5/5=2,8=3,38=5/8;
 8/6=4,10=90,11=11/1;
 11/6=1,8=1,9=11,15=111,16=1/1,2,10;
 10/6=1/2;
 7/10=1,25=1/1,2,3,16;
 1/10=4,18=20,19=15,26=3/3(-8);
 2/9=110/2;
 6/7=2,8=2,9=2,10=2,18=1,19=2,28=1/1;
 7/8=1,9=1,25=1,44=-1/16;
 99//99;
 -------------------
 Title Card Required
 -------------------
 Symbolic Z-matrix:
 Charge =  0 Multiplicity = 1
 C2                    0.8141    0.1461    0.0473 
 O3                    0.32284  -0.85872  -0.47078 
 N4                    0.2028    1.3863    0.0651 
 N5                   -1.0496    1.3066    0.0658 
 C6                   -1.6625    2.5457    0.0392 
 O7                   -2.75879   2.78511   0.54932 
 N8                   -0.9467    3.55611  -0.60731 
 C                     0.34202   3.25799  -1.22054 
 C                     0.42841   3.85     -2.62545 
 C                     0.10626   5.34304  -2.6201 
 C                    -1.23602   5.61201  -1.93975 
 C                    -1.30797   4.97346  -0.55245 
 N1                    2.07155   0.08743   0.65865 
 C                     2.80842  -1.1712    0.68427 
 C                     4.26337  -0.95929   0.27293 
 C                     4.92422   0.13357   1.1108 
 C                     4.10099   1.42136   1.08021 
 C                     2.6407    1.17086   1.45736 
 H                     0.52138   2.18031  -1.26749 
 H                     1.11905   3.69044  -0.57805 
 H                    -0.28268   3.33226  -3.28131 
 H                     1.42944   3.68576  -3.04 
 H                     0.08305   5.72065  -3.64882 
 H                     0.9007    5.88778  -2.09585 
 H                    -2.03974   5.20473  -2.56561 
 H                    -1.40193   6.69238  -1.8627 
 H                    -2.30598   5.12114  -0.13153 
 H                    -0.59443   5.46209   0.12281 
 H                     2.34908  -1.91675   0.02833 
 H                     2.75563  -1.56073   1.70836 
 H                     4.30277  -0.67213  -0.78542 
 H                     4.8214   -1.89655   0.37503 
 H                     5.93443   0.32975   0.73325 
 H                     5.02983  -0.21163   2.14643 
 H                     4.14406   1.84706   0.07009 
 H                     4.54168   2.15843   1.76078 
 H                     2.0696    2.09666   1.35074 
 H                     2.57237   0.86605   2.50909 
 

 GradGradGradGradGradGradGradGradGradGradGradGradGradGradGradGradGradGrad
 Berny optimization.
 Initialization pass.
                           ----------------------------
                           !    Initial Parameters    !
                           ! (Angstroms and Degrees)  !
 --------------------------                            --------------------------
 ! Name  Definition              Value          Derivative Info.                !
 --------------------------------------------------------------------------------
 ! R1    R(1,2)                  1.2326         calculate D2E/DX2 analytically  !
 ! R2    R(1,3)                  1.3828         calculate D2E/DX2 analytically  !
 ! R3    R(1,13)                 1.3994         calculate D2E/DX2 analytically  !
 ! R4    R(3,4)                  1.2549         calculate D2E/DX2 analytically  !
 ! R5    R(4,5)                  1.3827         calculate D2E/DX2 analytically  !
 ! R6    R(5,6)                  1.2326         calculate D2E/DX2 analytically  !
 ! R7    R(5,7)                  1.3969         calculate D2E/DX2 analytically  !
 ! R8    R(7,8)                  1.458          calculate D2E/DX2 analytically  !
 ! R9    R(7,12)                 1.4637         calculate D2E/DX2 analytically  !
 ! R10   R(8,9)                  1.527          calculate D2E/DX2 analytically  !
 ! R11   R(8,19)                 1.0935         calculate D2E/DX2 analytically  !
 ! R12   R(8,20)                 1.0971         calculate D2E/DX2 analytically  !
 ! R13   R(9,10)                 1.5274         calculate D2E/DX2 analytically  !
 ! R14   R(9,21)                 1.0972         calculate D2E/DX2 analytically  !
 ! R15   R(9,22)                 1.0959         calculate D2E/DX2 analytically  !
 ! R16   R(10,11)                1.5287         calculate D2E/DX2 analytically  !
 ! R17   R(10,23)                1.0961         calculate D2E/DX2 analytically  !
 ! R18   R(10,24)                1.0967         calculate D2E/DX2 analytically  !
 ! R19   R(11,12)                1.5289         calculate D2E/DX2 analytically  !
 ! R20   R(11,25)                1.0971         calculate D2E/DX2 analytically  !
 ! R21   R(11,26)                1.0957         calculate D2E/DX2 analytically  !
 ! R22   R(12,27)                1.0932         calculate D2E/DX2 analytically  !
 ! R23   R(12,28)                1.0972         calculate D2E/DX2 analytically  !
 ! R24   R(13,14)                1.4587         calculate D2E/DX2 analytically  !
 ! R25   R(13,18)                1.4614         calculate D2E/DX2 analytically  !
 ! R26   R(14,15)                1.5268         calculate D2E/DX2 analytically  !
 ! R27   R(14,29)                1.0941         calculate D2E/DX2 analytically  !
 ! R28   R(14,30)                1.0969         calculate D2E/DX2 analytically  !
 ! R29   R(15,16)                1.5274         calculate D2E/DX2 analytically  !
 ! R30   R(15,31)                1.0973         calculate D2E/DX2 analytically  !
 ! R31   R(15,32)                1.0956         calculate D2E/DX2 analytically  !
 ! R32   R(16,17)                1.5287         calculate D2E/DX2 analytically  !
 ! R33   R(16,33)                1.0962         calculate D2E/DX2 analytically  !
 ! R34   R(16,34)                1.0967         calculate D2E/DX2 analytically  !
 ! R35   R(17,18)                1.5289         calculate D2E/DX2 analytically  !
 ! R36   R(17,35)                1.097          calculate D2E/DX2 analytically  !
 ! R37   R(17,36)                1.0957         calculate D2E/DX2 analytically  !
 ! R38   R(18,37)                1.093          calculate D2E/DX2 analytically  !
 ! R39   R(18,38)                1.0971         calculate D2E/DX2 analytically  !
 ! A1    A(2,1,3)              124.0794         calculate D2E/DX2 analytically  !
 ! A2    A(2,1,13)             120.5006         calculate D2E/DX2 analytically  !
 ! A3    A(3,1,13)             115.4173         calculate D2E/DX2 analytically  !
 ! A4    A(1,3,4)              112.5961         calculate D2E/DX2 analytically  !
 ! A5    A(3,4,5)              112.6722         calculate D2E/DX2 analytically  !
 ! A6    A(4,5,6)              124.0797         calculate D2E/DX2 analytically  !
 ! A7    A(4,5,7)              115.467          calculate D2E/DX2 analytically  !
 ! A8    A(6,5,7)              120.4505         calculate D2E/DX2 analytically  !
 ! A9    A(5,7,8)              119.98           calculate D2E/DX2 analytically  !
 ! A10   A(5,7,12)             123.8214         calculate D2E/DX2 analytically  !
 ! A11   A(8,7,12)             115.59           calculate D2E/DX2 analytically  !
 ! A12   A(7,8,9)              110.9594         calculate D2E/DX2 analytically  !
 ! A13   A(7,8,19)             111.38           calculate D2E/DX2 analytically  !
 ! A14   A(7,8,20)             107.405          calculate D2E/DX2 analytically  !
 ! A15   A(9,8,19)             109.4693         calculate D2E/DX2 analytically  !
 ! A16   A(9,8,20)             110.238          calculate D2E/DX2 analytically  !
 ! A17   A(19,8,20)            107.3044         calculate D2E/DX2 analytically  !
 ! A18   A(8,9,10)             111.3348         calculate D2E/DX2 analytically  !
 ! A19   A(8,9,21)             109.2904         calculate D2E/DX2 analytically  !
 ! A20   A(8,9,22)             109.9756         calculate D2E/DX2 analytically  !
 ! A21   A(10,9,21)            109.066          calculate D2E/DX2 analytically  !
 ! A22   A(10,9,22)            109.9068         calculate D2E/DX2 analytically  !
 ! A23   A(21,9,22)            107.1676         calculate D2E/DX2 analytically  !
 ! A24   A(9,10,11)            111.0227         calculate D2E/DX2 analytically  !
 ! A25   A(9,10,23)            109.7512         calculate D2E/DX2 analytically  !
 ! A26   A(9,10,24)            109.5377         calculate D2E/DX2 analytically  !
 ! A27   A(11,10,23)           109.785          calculate D2E/DX2 analytically  !
 ! A28   A(11,10,24)           109.6284         calculate D2E/DX2 analytically  !
 ! A29   A(23,10,24)           107.0299         calculate D2E/DX2 analytically  !
 ! A30   A(10,11,12)           111.8186         calculate D2E/DX2 analytically  !
 ! A31   A(10,11,25)           108.9083         calculate D2E/DX2 analytically  !
 ! A32   A(10,11,26)           109.738          calculate D2E/DX2 analytically  !
 ! A33   A(12,11,25)           109.1549         calculate D2E/DX2 analytically  !
 ! A34   A(12,11,26)           109.9294         calculate D2E/DX2 analytically  !
 ! A35   A(25,11,26)           107.171          calculate D2E/DX2 analytically  !
 ! A36   A(7,12,11)            111.0268         calculate D2E/DX2 analytically  !
 ! A37   A(7,12,27)            111.7517         calculate D2E/DX2 analytically  !
 ! A38   A(7,12,28)            107.085          calculate D2E/DX2 analytically  !
 ! A39   A(11,12,27)           109.629          calculate D2E/DX2 analytically  !
 ! A40   A(11,12,28)           109.9886         calculate D2E/DX2 analytically  !
 ! A41   A(27,12,28)           107.2524         calculate D2E/DX2 analytically  !
 ! A42   A(1,13,14)            119.8518         calculate D2E/DX2 analytically  !
 ! A43   A(1,13,18)            123.8917         calculate D2E/DX2 analytically  !
 ! A44   A(14,13,18)           115.6803         calculate D2E/DX2 analytically  !
 ! A45   A(13,14,15)           110.9103         calculate D2E/DX2 analytically  !
 ! A46   A(13,14,29)           111.4291         calculate D2E/DX2 analytically  !
 ! A47   A(13,14,30)           107.3669         calculate D2E/DX2 analytically  !
 ! A48   A(15,14,29)           109.4594         calculate D2E/DX2 analytically  !
 ! A49   A(15,14,30)           110.2842         calculate D2E/DX2 analytically  !
 ! A50   A(29,14,30)           107.3087         calculate D2E/DX2 analytically  !
 ! A51   A(14,15,16)           111.335          calculate D2E/DX2 analytically  !
 ! A52   A(14,15,31)           109.2925         calculate D2E/DX2 analytically  !
 ! A53   A(14,15,32)           109.971          calculate D2E/DX2 analytically  !
 ! A54   A(16,15,31)           109.0438         calculate D2E/DX2 analytically  !
 ! A55   A(16,15,32)           109.9136         calculate D2E/DX2 analytically  !
 ! A56   A(31,15,32)           107.1858         calculate D2E/DX2 analytically  !
 ! A57   A(15,16,17)           111.0236         calculate D2E/DX2 analytically  !
 ! A58   A(15,16,33)           109.7455         calculate D2E/DX2 analytically  !
 ! A59   A(15,16,34)           109.5385         calculate D2E/DX2 analytically  !
 ! A60   A(17,16,33)           109.7932         calculate D2E/DX2 analytically  !
 ! A61   A(17,16,34)           109.6267         calculate D2E/DX2 analytically  !
 ! A62   A(33,16,34)           107.0272         calculate D2E/DX2 analytically  !
 ! A63   A(16,17,18)           111.8013         calculate D2E/DX2 analytically  !
 ! A64   A(16,17,35)           108.9157         calculate D2E/DX2 analytically  !
 ! A65   A(16,17,36)           109.7332         calculate D2E/DX2 analytically  !
 ! A66   A(18,17,35)           109.1614         calculate D2E/DX2 analytically  !
 ! A67   A(18,17,36)           109.9463         calculate D2E/DX2 analytically  !
 ! A68   A(35,17,36)           107.1628         calculate D2E/DX2 analytically  !
 ! A69   A(13,18,17)           111.0163         calculate D2E/DX2 analytically  !
 ! A70   A(13,18,37)           111.7867         calculate D2E/DX2 analytically  !
 ! A71   A(13,18,38)           107.0792         calculate D2E/DX2 analytically  !
 ! A72   A(17,18,37)           109.6471         calculate D2E/DX2 analytically  !
 ! A73   A(17,18,38)           109.9672         calculate D2E/DX2 analytically  !
 ! A74   A(37,18,38)           107.2352         calculate D2E/DX2 analytically  !
 ! D1    D(2,1,3,4)             29.6471         calculate D2E/DX2 analytically  !
 ! D2    D(13,1,3,4)          -150.9426         calculate D2E/DX2 analytically  !
 ! D3    D(2,1,13,14)            0.0001         calculate D2E/DX2 analytically  !
 ! D4    D(2,1,13,18)         -170.91           calculate D2E/DX2 analytically  !
 ! D5    D(3,1,13,14)         -179.433          calculate D2E/DX2 analytically  !
 ! D6    D(3,1,13,18)            9.6569         calculate D2E/DX2 analytically  !
 ! D7    D(1,3,4,5)           -178.0064         calculate D2E/DX2 analytically  !
 ! D8    D(3,4,5,6)           -149.6469         calculate D2E/DX2 analytically  !
 ! D9    D(3,4,5,7)             29.741          calculate D2E/DX2 analytically  !
 ! D10   D(4,5,7,8)              1.2938         calculate D2E/DX2 analytically  !
 ! D11   D(4,5,7,12)          -169.359          calculate D2E/DX2 analytically  !
 ! D12   D(6,5,7,8)           -179.2942         calculate D2E/DX2 analytically  !
 ! D13   D(6,5,7,12)            10.0529         calculate D2E/DX2 analytically  !
 ! D14   D(5,7,8,9)            133.4707         calculate D2E/DX2 analytically  !
 ! D15   D(5,7,8,19)            11.245          calculate D2E/DX2 analytically  !
 ! D16   D(5,7,8,20)          -105.9798         calculate D2E/DX2 analytically  !
 ! D17   D(12,7,8,9)           -55.1334         calculate D2E/DX2 analytically  !
 ! D18   D(12,7,8,19)         -177.3591         calculate D2E/DX2 analytically  !
 ! D19   D(12,7,8,20)           65.4161         calculate D2E/DX2 analytically  !
 ! D20   D(5,7,12,11)         -134.8054         calculate D2E/DX2 analytically  !
 ! D21   D(5,7,12,27)          -12.0635         calculate D2E/DX2 analytically  !
 ! D22   D(5,7,12,28)          105.1102         calculate D2E/DX2 analytically  !
 ! D23   D(8,7,12,11)           54.1685         calculate D2E/DX2 analytically  !
 ! D24   D(8,7,12,27)          176.9104         calculate D2E/DX2 analytically  !
 ! D25   D(8,7,12,28)          -65.9158         calculate D2E/DX2 analytically  !
 ! D26   D(7,8,9,10)            53.458          calculate D2E/DX2 analytically  !
 ! D27   D(7,8,9,21)           -67.0898         calculate D2E/DX2 analytically  !
 ! D28   D(7,8,9,22)           175.5251         calculate D2E/DX2 analytically  !
 ! D29   D(19,8,9,10)          176.7887         calculate D2E/DX2 analytically  !
 ! D30   D(19,8,9,21)           56.241          calculate D2E/DX2 analytically  !
 ! D31   D(19,8,9,22)          -61.1441         calculate D2E/DX2 analytically  !
 ! D32   D(20,8,9,10)          -65.3987         calculate D2E/DX2 analytically  !
 ! D33   D(20,8,9,21)          174.0536         calculate D2E/DX2 analytically  !
 ! D34   D(20,8,9,22)           56.6685         calculate D2E/DX2 analytically  !
 ! D35   D(8,9,10,11)          -53.1496         calculate D2E/DX2 analytically  !
 ! D36   D(8,9,10,23)         -174.7027         calculate D2E/DX2 analytically  !
 ! D37   D(8,9,10,24)           68.0646         calculate D2E/DX2 analytically  !
 ! D38   D(21,9,10,11)          67.5301         calculate D2E/DX2 analytically  !
 ! D39   D(21,9,10,23)         -54.023          calculate D2E/DX2 analytically  !
 ! D40   D(21,9,10,24)        -171.2557         calculate D2E/DX2 analytically  !
 ! D41   D(22,9,10,11)        -175.2566         calculate D2E/DX2 analytically  !
 ! D42   D(22,9,10,23)          63.1903         calculate D2E/DX2 analytically  !
 ! D43   D(22,9,10,24)         -54.0424         calculate D2E/DX2 analytically  !
 ! D44   D(9,10,11,12)          52.4209         calculate D2E/DX2 analytically  !
 ! D45   D(9,10,11,25)         -68.2921         calculate D2E/DX2 analytically  !
 ! D46   D(9,10,11,26)         174.6785         calculate D2E/DX2 analytically  !
 ! D47   D(23,10,11,12)        173.9542         calculate D2E/DX2 analytically  !
 ! D48   D(23,10,11,25)         53.2413         calculate D2E/DX2 analytically  !
 ! D49   D(23,10,11,26)        -63.7881         calculate D2E/DX2 analytically  !
 ! D50   D(24,10,11,12)        -68.74           calculate D2E/DX2 analytically  !
 ! D51   D(24,10,11,25)        170.547          calculate D2E/DX2 analytically  !
 ! D52   D(24,10,11,26)         53.5176         calculate D2E/DX2 analytically  !
 ! D53   D(10,11,12,7)         -51.6945         calculate D2E/DX2 analytically  !
 ! D54   D(10,11,12,27)       -175.6545         calculate D2E/DX2 analytically  !
 ! D55   D(10,11,12,28)         66.6485         calculate D2E/DX2 analytically  !
 ! D56   D(25,11,12,7)          68.8749         calculate D2E/DX2 analytically  !
 ! D57   D(25,11,12,27)        -55.0852         calculate D2E/DX2 analytically  !
 ! D58   D(25,11,12,28)       -172.7821         calculate D2E/DX2 analytically  !
 ! D59   D(26,11,12,7)        -173.8426         calculate D2E/DX2 analytically  !
 ! D60   D(26,11,12,27)         62.1974         calculate D2E/DX2 analytically  !
 ! D61   D(26,11,12,28)        -55.4995         calculate D2E/DX2 analytically  !
 ! D62   D(1,13,14,15)         133.2489         calculate D2E/DX2 analytically  !
 ! D63   D(1,13,14,29)          11.0361         calculate D2E/DX2 analytically  !
 ! D64   D(1,13,14,30)        -106.1981         calculate D2E/DX2 analytically  !
 ! D65   D(18,13,14,15)        -55.1182         calculate D2E/DX2 analytically  !
 ! D66   D(18,13,14,29)       -177.331          calculate D2E/DX2 analytically  !
 ! D67   D(18,13,14,30)         65.4348         calculate D2E/DX2 analytically  !
 ! D68   D(1,13,18,17)        -134.553          calculate D2E/DX2 analytically  !
 ! D69   D(1,13,18,37)         -11.7704         calculate D2E/DX2 analytically  !
 ! D70   D(1,13,18,38)         105.3984         calculate D2E/DX2 analytically  !
 ! D71   D(14,13,18,17)         54.1921         calculate D2E/DX2 analytically  !
 ! D72   D(14,13,18,37)        176.9748         calculate D2E/DX2 analytically  !
 ! D73   D(14,13,18,38)        -65.8565         calculate D2E/DX2 analytically  !
 ! D74   D(13,14,15,16)         53.3818         calculate D2E/DX2 analytically  !
 ! D75   D(13,14,15,31)        -67.1398         calculate D2E/DX2 analytically  !
 ! D76   D(13,14,15,32)        175.4546         calculate D2E/DX2 analytically  !
 ! D77   D(29,14,15,16)        176.7348         calculate D2E/DX2 analytically  !
 ! D78   D(29,14,15,31)         56.2133         calculate D2E/DX2 analytically  !
 ! D79   D(29,14,15,32)        -61.1924         calculate D2E/DX2 analytically  !
 ! D80   D(30,14,15,16)        -65.4259         calculate D2E/DX2 analytically  !
 ! D81   D(30,14,15,31)        174.0526         calculate D2E/DX2 analytically  !
 ! D82   D(30,14,15,32)         56.6469         calculate D2E/DX2 analytically  !
 ! D83   D(14,15,16,17)        -53.1543         calculate D2E/DX2 analytically  !
 ! D84   D(14,15,16,33)       -174.7145         calculate D2E/DX2 analytically  !
 ! D85   D(14,15,16,34)         68.0589         calculate D2E/DX2 analytically  !
 ! D86   D(31,15,16,17)         67.5135         calculate D2E/DX2 analytically  !
 ! D87   D(31,15,16,33)        -54.0468         calculate D2E/DX2 analytically  !
 ! D88   D(31,15,16,34)       -171.2733         calculate D2E/DX2 analytically  !
 ! D89   D(32,15,16,17)       -175.2603         calculate D2E/DX2 analytically  !
 ! D90   D(32,15,16,33)         63.1794         calculate D2E/DX2 analytically  !
 ! D91   D(32,15,16,34)        -54.0472         calculate D2E/DX2 analytically  !
 ! D92   D(15,16,17,18)         52.4337         calculate D2E/DX2 analytically  !
 ! D93   D(15,16,17,35)        -68.2813         calculate D2E/DX2 analytically  !
 ! D94   D(15,16,17,36)        174.6977         calculate D2E/DX2 analytically  !
 ! D95   D(33,16,17,18)        173.966          calculate D2E/DX2 analytically  !
 ! D96   D(33,16,17,35)         53.251          calculate D2E/DX2 analytically  !
 ! D97   D(33,16,17,36)        -63.7699         calculate D2E/DX2 analytically  !
 ! D98   D(34,16,17,18)        -68.7277         calculate D2E/DX2 analytically  !
 ! D99   D(34,16,17,35)        170.5574         calculate D2E/DX2 analytically  !
 ! D100  D(34,16,17,36)         53.5364         calculate D2E/DX2 analytically  !
 ! D101  D(16,17,18,13)        -51.7103         calculate D2E/DX2 analytically  !
 ! D102  D(16,17,18,37)       -175.7204         calculate D2E/DX2 analytically  !
 ! D103  D(16,17,18,38)         66.6055         calculate D2E/DX2 analytically  !
 ! D104  D(35,17,18,13)         68.8616         calculate D2E/DX2 analytically  !
 ! D105  D(35,17,18,37)        -55.1486         calculate D2E/DX2 analytically  !
 ! D106  D(35,17,18,38)       -172.8227         calculate D2E/DX2 analytically  !
 ! D107  D(36,17,18,13)       -173.8522         calculate D2E/DX2 analytically  !
 ! D108  D(36,17,18,37)         62.1376         calculate D2E/DX2 analytically  !
 ! D109  D(36,17,18,38)        -55.5365         calculate D2E/DX2 analytically  !
 --------------------------------------------------------------------------------
 Trust Radius=3.00D-01 FncErr=1.00D-07 GrdErr=1.00D-06 EigMax=2.50D+02 EigMin=1.00D-04
 Number of steps in this run=    228 maximum allowed number of steps=    228.
 GradGradGradGradGradGradGradGradGradGradGradGradGradGradGradGradGradGrad

                          Input orientation:                          
 ---------------------------------------------------------------------
 Center     Atomic      Atomic             Coordinates (Angstroms)
 Number     Number       Type             X           Y           Z
 ---------------------------------------------------------------------
      1          6           0        0.814100    0.146100    0.047300
      2          8           0        0.322840   -0.858720   -0.470780
      3          7           0        0.202800    1.386300    0.065100
      4          7           0       -1.049600    1.306600    0.065800
      5          6           0       -1.662500    2.545700    0.039200
      6          8           0       -2.758790    2.785110    0.549320
      7          7           0       -0.946700    3.556110   -0.607310
      8          6           0        0.342020    3.257990   -1.220540
      9          6           0        0.428410    3.850000   -2.625450
     10          6           0        0.106260    5.343040   -2.620100
     11          6           0       -1.236020    5.612010   -1.939750
     12          6           0       -1.307970    4.973460   -0.552450
     13          7           0        2.071550    0.087430    0.658650
     14          6           0        2.808420   -1.171200    0.684270
     15          6           0        4.263370   -0.959290    0.272930
     16          6           0        4.924220    0.133570    1.110800
     17          6           0        4.100990    1.421360    1.080210
     18          6           0        2.640700    1.170860    1.457360
     19          1           0        0.521380    2.180310   -1.267490
     20          1           0        1.119050    3.690440   -0.578050
     21          1           0       -0.282680    3.332260   -3.281310
     22          1           0        1.429440    3.685760   -3.040000
     23          1           0        0.083050    5.720650   -3.648820
     24          1           0        0.900700    5.887780   -2.095850
     25          1           0       -2.039740    5.204730   -2.565610
     26          1           0       -1.401930    6.692380   -1.862700
     27          1           0       -2.305980    5.121140   -0.131530
     28          1           0       -0.594430    5.462090    0.122810
     29          1           0        2.349080   -1.916750    0.028330
     30          1           0        2.755630   -1.560730    1.708360
     31          1           0        4.302770   -0.672130   -0.785420
     32          1           0        4.821400   -1.896550    0.375030
     33          1           0        5.934430    0.329750    0.733250
     34          1           0        5.029830   -0.211630    2.146430
     35          1           0        4.144060    1.847060    0.070090
     36          1           0        4.541680    2.158430    1.760780
     37          1           0        2.069600    2.096660    1.350740
     38          1           0        2.572370    0.866050    2.509090
 ---------------------------------------------------------------------
                    Distance matrix (angstroms):
                    1          2          3          4          5
     1  C    0.000000
     2  O    1.232642   0.000000
     3  N    1.382787   2.311210   0.000000
     4  N    2.195559   2.619183   1.254934   0.000000
     5  C    3.448433   3.973881   2.196411   1.382651   0.000000
     6  O    4.470116   4.880015   3.310914   2.311085   1.232636
     7  N    3.893212   4.595769   2.545891   2.350311   1.396880
     8  C    3.393249   4.184472   2.274967   2.720147   2.472327
     9  C    4.583800   5.179362   3.655103   3.987007   3.629527
    10  C    5.884237   6.567215   4.782825   4.984267   4.245645
    11  C    6.166647   6.816030   4.893491   4.753266   3.674287
    12  C    5.307192   6.056446   3.941004   3.727580   2.523838
    13  N    1.399418   2.286657   2.351934   3.402855   4.513307
    14  C    2.473524   2.758603   3.703165   4.626696   5.849836
    15  C    3.629085   4.011358   4.693955   5.779689   6.888797
    16  C    4.245501   4.965756   4.995461   6.176937   7.095885
    17  C    3.673804   4.677473   4.028345   5.250788   5.963695
    18  C    2.524850   3.634473   2.815699   3.946287   4.734859
    19  H    2.439748   3.147994   1.583585   2.238082   2.571047
    20  H    3.611981   4.619558   2.561682   3.286378   3.070578
    21  H    4.736474   5.082327   3.901399   3.986804   3.680811
    22  H    4.737009   5.336455   4.053863   4.631634   4.510133
    23  H    6.728398   7.310646   5.709127   5.879212   5.169985
    24  H    6.129232   6.963479   5.041834   5.428039   4.722069
    25  H    6.368786   6.836338   5.150731   4.806258   3.741361
    26  H    7.170263   7.869650   5.869076   5.731481   4.569472
    27  H    5.875194   6.540987   4.503518   4.020963   2.660095
    28  H    5.499946   6.414544   4.153429   4.180733   3.106943
    29  H    2.571356   2.339698   3.939290   4.684273   6.000529
    30  H    3.072772   3.340649   4.231103   5.039778   6.258493
    31  H    3.678823   3.996706   4.665862   5.769559   6.827802
    32  H    4.509798   4.693562   5.674912   6.695105   7.866850
    33  H    5.169336   5.861066   5.866371   7.083530   7.943896
    34  H    4.722997   5.424414   5.494136   6.602538   7.538605
    35  H    3.739307   4.713333   3.968105   5.221707   5.848520
    36  H    4.569501   5.646385   4.722012   5.904319   6.450245
    37  H    2.660812   3.886306   2.375379   3.464776   3.981249
    38  H    3.109703   4.112766   3.443633   4.391175   5.182249
                    6          7          8          9         10
     6  O    0.000000
     7  N    2.283835   0.000000
     8  C    3.601533   1.457987   0.000000
     9  C    4.622921   2.459713   1.526994   0.000000
    10  C    4.979633   2.890185   2.522258   1.527409   0.000000
    11  C    4.062716   2.466947   2.923847   2.518966   1.528704
    12  C    2.847394   1.463696   2.472175   2.928226   2.532156
    13  N    5.533680   4.769091   4.071250   5.257581   6.498769
    14  C    6.831137   6.173861   5.415640   6.467700   7.788187
    15  C    7.962892   6.950431   5.949192   6.799764   8.085206
    16  C    8.147059   7.009521   6.016120   6.927028   8.016915
    17  C    7.014146   5.734462   4.774570   5.754829   6.710420
    18  C    5.708313   4.777208   4.100145   5.361096   6.360515
    19  H    3.798170   2.117527   1.093512   2.154197   3.464786
    20  H    4.138626   2.070320   1.097079   2.166631   2.815457
    21  H    4.593933   2.764291   2.154655   1.097204   2.152141
    22  H    5.588887   3.403062   2.162384   1.095850   2.161874
    23  H    5.858142   3.872519   3.468184   2.160067   1.096081
    24  H    5.478627   3.326458   2.827382   2.157795   1.096683
    25  H    4.009287   2.783455   3.357349   2.816139   2.151143
    26  H    4.788076   3.408728   3.904967   3.465697   2.160789
    27  H    2.475001   2.126812   3.416017   3.913096   3.472913
    28  H    3.468802   2.071214   2.745830   3.346337   2.833495
    29  H    6.961986   6.420156   5.689104   6.632264   8.046675
    30  H    7.116075   6.726933   6.133843   7.312582   8.568359
    31  H    7.974940   6.742898   5.596670   6.232659   7.560358
    32  H    8.911094   7.997967   7.012843   7.830969   9.144124
    33  H    9.035192   7.717283   6.608096   7.347740   8.387228
    34  H    8.496694   7.582734   6.734264   7.774364   8.821321
    35  H    6.982760   5.412537   4.255815   5.008369   5.980203
    36  H    7.426791   6.138703   5.266350   6.246552   7.000486
    37  H    4.942630   3.880982   3.308278   4.645190   5.491927
    38  H    5.995395   5.415923   4.960441   6.313796   7.241114
                   11         12         13         14         15
    11  C    0.000000
    12  C    1.528896   0.000000
    13  N    6.943536   6.063102   0.000000
    14  C    8.321954   7.498733   1.458692   0.000000
    15  C    8.849928   8.180379   2.459365   1.526757   0.000000
    16  C    8.790206   8.064188   2.888649   2.522095   1.527446
    17  C    7.427340   6.673818   2.464895   2.923846   2.519040
    18  C    6.803905   5.838758   1.461400   2.472052   2.928049
    19  H    3.913688   3.414600   3.239319   4.502504   5.121764
    20  H    3.330617   2.745400   3.926622   5.299336   5.677227
    21  H    2.811743   3.345360   5.620908   6.749954   7.191425
    22  H    3.467804   3.916566   5.200028   6.273901   6.370491
    23  H    2.161636   3.475735   7.364890   8.584923   8.802090
    24  H    2.160090   2.845398   6.527038   7.822893   7.987555
    25  H    1.097061   2.154481   7.313366   8.644007   9.261838
    26  H    1.095747   2.163393   7.877032   9.276314   9.757284
    27  H    2.157644   1.093164   6.717543   8.149611   8.960557
    28  H    2.165241   1.097212   6.023416   7.476307   8.053253
    29  H    8.567877   7.822168   2.119213   1.094119   2.154313
    30  H    8.982771   8.019959   2.070335   1.096942   2.166903
    31  H    8.455832   7.962874   2.764166   2.154563   1.097323
    32  H    9.921140   9.253455   3.402689   2.161909   1.095572
    33  H    9.298524   8.698817   3.871192   3.468024   2.160083
    34  H    9.480112   8.621880   3.324808   2.827251   2.157883
    35  H    6.867282   6.315581   2.781726   3.357238   2.816199
    36  H    7.681338   6.891577   3.406651   3.905061   3.465737
    37  H    5.840559   4.827638   2.125088   3.415984   3.913200
    38  H    7.537914   6.426576   2.069106   2.745191   3.345409
                   16         17         18         19         20
    16  C    0.000000
    17  C    1.528740   0.000000
    18  C    2.531904   1.528869   0.000000
    19  H    5.406515   4.347563   3.596570   0.000000
    20  H    5.475660   4.097623   3.578630   1.764378   0.000000
    21  H    7.525560   6.472322   5.972671   2.455397   3.066065
    22  H    6.485421   5.407478   5.293215   2.496546   2.481443
    23  H    8.792404   7.549269   7.301728   4.289158   3.824222
    24  H    7.718954   6.346505   6.156479   3.817774   2.679496
    25  H    9.366397   8.081736   7.373121   4.170320   4.027583
    26  H    9.585399   8.168629   7.606105   4.940868   4.125204
    27  H    8.871022   7.497063   6.526785   4.234720   3.738598
    28  H    7.734646   6.268260   5.537305   3.734708   2.562413
    29  H    3.465097   3.913901   3.414748   4.669640   5.772456
    30  H    2.816117   3.331280   2.745504   5.276641   5.956580
    31  H    2.151977   2.811404   3.345019   4.761062   5.404729
    32  H    2.161786   3.467679   3.916107   6.148889   6.769802
    33  H    1.096155   2.161827   3.475695   6.060416   6.016779
    34  H    1.096743   2.160145   2.845002   6.140224   6.159800
    35  H    2.151226   1.097004   2.154497   3.876079   3.601225
    36  H    2.160757   1.095744   2.163581   5.033260   4.419454
    37  H    3.472773   2.157721   1.092991   3.042879   2.676548
    38  H    2.832480   2.164889   1.097139   4.494040   4.429419
                   21         22         23         24         25
    21  H    0.000000
    22  H    1.764808   0.000000
    23  H    2.444019   2.514797   0.000000
    24  H    3.055550   2.453544   1.763009   0.000000
    25  H    2.665639   3.816743   2.438392   3.055065   0.000000
    26  H    3.815178   4.294468   2.517866   2.450274   1.764649
    27  H    4.149090   4.947007   4.293973   3.837849   2.450024
    28  H    4.027580   4.153886   3.840706   2.709073   3.063129
    29  H    6.740325   6.453565   8.774178   8.217094   8.758181
    30  H    7.620334   7.199400   9.426588   8.566976   9.329193
    31  H    6.579586   5.685979   8.177575   7.504913   8.828023
    32  H    8.170735   7.370889   9.831839   9.059411  10.302950
    33  H    7.986502   6.767212   9.083116   8.014608   9.911372
    34  H    8.381067   7.419671   9.656475   8.499968  10.075669
    35  H    5.747498   4.519141   6.732518   5.615879   7.514003
    36  H    7.076369   5.921677   7.863369   6.483701   8.444684
    37  H    5.340020   4.713135   6.486546   5.255274   6.471829
    38  H    6.911023   6.328464   8.227011   7.015535   8.114695
                   26         27         28         29         30
    26  H    0.000000
    27  H    2.506602   0.000000
    28  H    2.471421   1.763615   0.000000
    29  H    9.579311   8.439611   7.944838   0.000000
    30  H    9.907149   8.582102   7.940836   1.764804   0.000000
    31  H    9.377641   8.812782   7.901652   2.455234   3.066299
    32  H   10.840064  10.015195   9.140263   2.496593   2.481522
    33  H   10.052074   9.571291   8.327038   4.289337   3.824856
    34  H   10.252122   9.351024   8.241264   3.818403   2.680291
    35  H    7.613856   7.236247   5.960244   4.170127   4.027989
    36  H    8.307395   7.697333   6.322716   4.941252   4.126121
    37  H    6.595329   5.521803   4.464413   4.234895   3.738319
    38  H    8.297815   6.991206   6.070135   3.734703   2.562033
                   31         32         33         34         35
    31  H    0.000000
    32  H    1.764887   0.000000
    33  H    2.443857   2.514671   0.000000
    34  H    3.055556   2.453621   1.763086   0.000000
    35  H    2.665221   3.816595   2.438736   3.055156   0.000000
    36  H    3.814745   4.294346   2.517864   2.450347   1.764507
    37  H    4.149268   4.946730   4.294203   3.837224   2.450663
    38  H    4.026671   4.152626   3.839879   2.707771   3.062893
                   36         37         38
    36  H    0.000000
    37  H    2.506617   0.000000
    38  H    2.471517   1.763222   0.000000
 Stoichiometry    C12H20N4O2
 Framework group  C1[X(C12H20N4O2)]
 Deg. of freedom   108
 Full point group                 C1      NOp   1
 Largest Abelian subgroup         C1      NOp   1
 Largest concise Abelian subgroup C1      NOp   1
                         Standard orientation:                         
 ---------------------------------------------------------------------
 Center     Atomic      Atomic             Coordinates (Angstroms)
 Number     Number       Type             X           Y           Z
 ---------------------------------------------------------------------
      1          6           0        1.292895    1.180729    0.533047
      2          8           0        1.493981    1.973563    1.455211
      3          7           0        0.045374    0.911677    0.000691
      4          7           0       -0.735276    1.890815    0.082737
      5          6           0       -1.996494    1.609554   -0.409142
      6          8           0       -2.737009    2.445939   -0.930188
      7          7           0       -2.402604    0.277912   -0.294787
      8          6           0       -1.524824   -0.699758    0.337186
      9          6           0       -2.294057   -1.556773    1.339941
     10          6           0       -3.524824   -2.193694    0.697662
     11          6           0       -4.398227   -1.137782    0.020052
     12          6           0       -3.592953   -0.269705   -0.947160
     13          7           0        2.355659    0.472859   -0.039512
     14          6           0        3.712563    0.673041    0.456998
     15          6           0        4.414435   -0.664519    0.679023
     16          6           0        4.362810   -1.534189   -0.575609
     17          6           0        2.926944   -1.688830   -1.077031
     18          6           0        2.237508   -0.335409   -1.251301
     19          1           0       -0.684895   -0.214091    0.841581
     20          1           0       -1.107763   -1.329178   -0.458724
     21          1           0       -2.613047   -0.930479    2.182472
     22          1           0       -1.639499   -2.336255    1.745957
     23          1           0       -4.107660   -2.724005    1.459544
     24          1           0       -3.208313   -2.939535   -0.041430
     25          1           0       -4.845230   -0.498047    0.791072
     26          1           0       -5.221950   -1.625520   -0.513103
     27          1           0       -4.232292    0.519286   -1.351814
     28          1           0       -3.246644   -0.874560   -1.794565
     29          1           0        3.716690    1.245979    1.389103
     30          1           0        4.251446    1.265459   -0.292619
     31          1           0        3.926066   -1.197586    1.504524
     32          1           0        5.456101   -0.496112    0.973722
     33          1           0        4.789004   -2.520832   -0.360092
     34          1           0        4.980589   -1.082080   -1.360970
     35          1           0        2.361138   -2.290873   -0.355349
     36          1           0        2.923581   -2.235108   -2.026885
     37          1           0        1.193574   -0.488777   -1.536446
     38          1           0        2.716619    0.227477   -2.062058
 ---------------------------------------------------------------------
 Rotational constants (GHZ):           0.7444944           0.2247645           0.1958991
 Standard basis: 6-31G(d) (6D, 7F)
 There are   310 symmetry adapted cartesian basis functions of A   symmetry.
 There are   310 symmetry adapted basis functions of A   symmetry.
   310 basis functions,   584 primitive gaussians,   310 cartesian basis functions
    68 alpha electrons       68 beta electrons
       nuclear repulsion energy      1395.7025489209 Hartrees.
 NAtoms=   38 NActive=   38 NUniq=   38 SFac= 1.00D+00 NAtFMM=   60 NAOKFM=F Big=F
 Integral buffers will be    131072 words long.
 Raffenetti 2 integral format.
 Two-electron integral symmetry is turned on.
 One-electron integrals computed using PRISM.
 NBasis=   310 RedAO= T EigKep=  1.88D-03  NBF=   310
 NBsUse=   310 1.00D-06 EigRej= -1.00D+00 NBFU=   310
 ExpMin= 1.61D-01 ExpMax= 5.48D+03 ExpMxC= 8.25D+02 IAcc=3 IRadAn=         5 AccDes= 0.00D+00
 Harris functional with IExCor=  402 and IRadAn=       5 diagonalized for initial guess.
 HarFok:  IExCor=  402 AccDes= 0.00D+00 IRadAn=         5 IDoV= 1 UseB2=F ITyADJ=14
 ICtDFT=  3500011 ScaDFX=  1.000000  1.000000  1.000000  1.000000
 FoFCou: FMM=F IPFlag=           0 FMFlag=      100000 FMFlg1=           0
         NFxFlg=           0 DoJE=T BraDBF=F KetDBF=T FulRan=T
         wScrn=  0.000000 ICntrl=       500 IOpCl=  0 I1Cent=   200000004 NGrid=           0
         NMat0=    1 NMatS0=      1 NMatT0=    0 NMatD0=    1 NMtDS0=    0 NMtDT0=    0
 Petite list used in FoFCou.
 Gradient too large for Newton-Raphson -- use scaled steepest descent instead.
     Minimum is close to point  2 DX=  3.13D-02 DF= -4.09D-03 DXR=  9.44D-02 DFR=  8.99D-03 which will be used.
 Gradient too large for Newton-Raphson -- use scaled steepest descent instead.
     Minimum is close to point  3 DX=  1.57D-03 DF= -5.72D-07 DXR=  3.12D-03 DFR=  9.73D-06 which will be used.
 Gradient too large for Newton-Raphson -- use scaled steepest descent instead.
     Accept linear search using points  1 and  2.
 Gradient too large for Newton-Raphson -- use scaled steepest descent instead.
     Accept linear search using points  2 and  3.
 Gradient too large for Newton-Raphson -- use scaled steepest descent instead.
     Accept linear search using points  1 and  2.
 Gradient too large for Newton-Raphson -- use scaled steepest descent instead.
     Accept linear search using points  1 and  2.
 Gradient too large for Newton-Raphson -- use scaled steepest descent instead.
 LinEq1:  Iter=  0 NonCon=     1 RMS=4.25D-05 Max=1.77D-03 NDo=     1
 AX will form     1 AO Fock derivatives at one time.
 LinEq1:  Iter=  1 NonCon=     1 RMS=7.68D-05 Max=4.67D-03 NDo=     1
 LinEq1:  Iter=  2 NonCon=     1 RMS=1.21D-05 Max=7.43D-04 NDo=     1
 LinEq1:  Iter=  3 NonCon=     1 RMS=1.16D-05 Max=4.08D-04 NDo=     1
 LinEq1:  Iter=  4 NonCon=     1 RMS=5.72D-06 Max=2.40D-04 NDo=     1
 LinEq1:  Iter=  5 NonCon=     1 RMS=5.69D-06 Max=2.38D-04 NDo=     1
 LinEq1:  Iter=  6 NonCon=     1 RMS=3.44D-06 Max=1.61D-04 NDo=     1
 LinEq1:  Iter=  7 NonCon=     1 RMS=2.91D-06 Max=1.63D-04 NDo=     1
 LinEq1:  Iter=  8 NonCon=     1 RMS=2.66D-06 Max=1.39D-04 NDo=     1
 LinEq1:  Iter=  9 NonCon=     1 RMS=1.44D-06 Max=4.46D-05 NDo=     1
 LinEq1:  Iter= 10 NonCon=     1 RMS=6.42D-07 Max=1.74D-05 NDo=     1
 LinEq1:  Iter= 11 NonCon=     1 RMS=2.68D-07 Max=9.00D-06 NDo=     1
 LinEq1:  Iter= 12 NonCon=     1 RMS=1.46D-07 Max=5.50D-06 NDo=     1
 LinEq1:  Iter= 13 NonCon=     1 RMS=7.60D-08 Max=2.27D-06 NDo=     1
 LinEq1:  Iter= 14 NonCon=     1 RMS=3.98D-08 Max=1.75D-06 NDo=     1
 LinEq1:  Iter= 15 NonCon=     1 RMS=2.09D-08 Max=7.13D-07 NDo=     1
 LinEq1:  Iter= 16 NonCon=     0 RMS=6.09D-09 Max=1.56D-07 NDo=     1
 Linear equations converged to 1.814D-08 1.814D-07 after    16 iterations.
     Minimum is close to point  2 DX=  1.23D-03 DF= -3.24D-11 DXR=  1.23D-03 DFR=  1.51D-06 which will be used.
 LinEq1:  Iter=  0 NonCon=     1 RMS=1.56D-07 Max=1.13D-05 NDo=     1
 LinEq1:  Iter=  1 NonCon=     1 RMS=1.92D-07 Max=1.79D-05 NDo=     1
 LinEq1:  Iter=  2 NonCon=     1 RMS=1.31D-07 Max=7.29D-06 NDo=     1
 LinEq1:  Iter=  3 NonCon=     1 RMS=5.72D-08 Max=1.43D-06 NDo=     1
 LinEq1:  Iter=  4 NonCon=     1 RMS=5.03D-08 Max=2.22D-06 NDo=     1
 LinEq1:  Iter=  5 NonCon=     1 RMS=3.64D-08 Max=1.34D-06 NDo=     1
 LinEq1:  Iter=  6 NonCon=     1 RMS=1.99D-08 Max=4.99D-07 NDo=     1
 LinEq1:  Iter=  7 NonCon=     1 RMS=7.76D-09 Max=2.54D-07 NDo=     1
 LinEq1:  Iter=  8 NonCon=     1 RMS=5.36D-09 Max=2.13D-07 NDo=     1
 LinEq1:  Iter=  9 NonCon=     1 RMS=5.31D-09 Max=2.86D-07 NDo=     1
 LinEq1:  Iter= 10 NonCon=     1 RMS=2.79D-09 Max=1.80D-07 NDo=     1
 LinEq1:  Iter= 11 NonCon=     1 RMS=1.75D-09 Max=1.07D-07 NDo=     1
 LinEq1:  Iter= 12 NonCon=     1 RMS=8.58D-10 Max=3.63D-08 NDo=     1
 LinEq1:  Iter= 13 NonCon=     1 RMS=4.33D-10 Max=1.22D-08 NDo=     1
 LinEq1:  Iter= 14 NonCon=     1 RMS=2.38D-10 Max=1.04D-08 NDo=     1
 LinEq1:  Iter= 15 NonCon=     1 RMS=1.14D-10 Max=5.43D-09 NDo=     1
 LinEq1:  Iter= 16 NonCon=     1 RMS=5.56D-11 Max=3.12D-09 NDo=     1
 LinEq1:  Iter= 17 NonCon=     0 RMS=2.10D-11 Max=8.88D-10 NDo=     1
 Linear equations converged to 1.268D-10 1.268D-09 after    17 iterations.
 Restarting incremental Fock formation.
 SCF Done:  E(RB3LYP) =  -838.696550014     a.u. after   10 cycles
            Convg  =    0.3910D-09                    54 Fock formations.
              S**2 =  0.0000                  -V/T =  2.0089
 DoSCS=F DFT=T ScalE2(SS,OS)=  1.000000  1.000000
 Range of M.O.s used for correlation:     1   310
 NBasis=   310 NAE=    68 NBE=    68 NFC=     0 NFV=     0
 NROrb=    310 NOA=    68 NOB=    68 NVA=   242 NVB=   242
 Symmetrizing basis deriv contribution to polar:
 IMax=3 JMax=2 DiffMx= 0.00D+00
 G2DrvN: will do    39 centers at a time, making    1 passes.
 Calling FoFCou, ICntrl=  3107 FMM=F I1Cent=   0 AccDes= 0.00D+00.
 End of G2Drv F.D. properties file   721 does not exist.
 End of G2Drv F.D. properties file   722 does not exist.
 End of G2Drv F.D. properties file   788 does not exist.
          IDoAtm=11111111111111111111111111111111111111
          Differentiating once with respect to electric field.
                with respect to dipole field.
          Differentiating once with respect to nuclear coordinates.
 Keep R1 ints in memory in canonical form, NReq=1176942805.
          There are   117 degrees of freedom in the 1st order CPHF.  IDoFFX=6 NUNeed=     3.
    114 vectors produced by pass  0 Test12= 1.65D-14 1.00D-09 XBig12= 1.68D+02 5.75D+00.
 AX will form   114 AO Fock derivatives at one time.
    114 vectors produced by pass  1 Test12= 1.65D-14 1.00D-09 XBig12= 2.71D+01 1.09D+00.
    114 vectors produced by pass  2 Test12= 1.65D-14 1.00D-09 XBig12= 4.12D-01 1.35D-01.
    114 vectors produced by pass  3 Test12= 1.65D-14 1.00D-09 XBig12= 2.44D-03 4.95D-03.
    114 vectors produced by pass  4 Test12= 1.65D-14 1.00D-09 XBig12= 3.53D-06 1.32D-04.
     69 vectors produced by pass  5 Test12= 1.65D-14 1.00D-09 XBig12= 2.72D-09 3.52D-06.
     12 vectors produced by pass  6 Test12= 1.65D-14 1.00D-09 XBig12= 1.84D-12 1.09D-07.
      3 vectors produced by pass  7 Test12= 1.65D-14 1.00D-09 XBig12= 1.23D-15 3.00D-09.
 InvSVY:  IOpt=1 It=  1 EMax= 7.11D-15
 Solved reduced A of dimension   654 with   117 vectors.
 Isotropic polarizability for W=    0.000000      164.05 Bohr**3.
 End of Minotr F.D. properties file   721 does not exist.
 End of Minotr F.D. properties file   722 does not exist.
 End of Minotr F.D. properties file   788 does not exist.

 **********************************************************************

            Population analysis using the SCF density.

 **********************************************************************

 Orbital symmetries:
       Occupied  (A) (A) (A) (A) (A) (A) (A) (A) (A) (A) (A) (A)
                 (A) (A) (A) (A) (A) (A) (A) (A) (A) (A) (A) (A)
                 (A) (A) (A) (A) (A) (A) (A) (A) (A) (A) (A) (A)
                 (A) (A) (A) (A) (A) (A) (A) (A) (A) (A) (A) (A)
                 (A) (A) (A) (A) (A) (A) (A) (A) (A) (A) (A) (A)
                 (A) (A) (A) (A) (A) (A) (A) (A)
       Virtual   (A) (A) (A) (A) (A) (A) (A) (A) (A) (A) (A) (A)
                 (A) (A) (A) (A) (A) (A) (A) (A) (A) (A) (A) (A)
                 (A) (A) (A) (A) (A) (A) (A) (A) (A) (A) (A) (A)
                 (A) (A) (A) (A) (A) (A) (A) (A) (A) (A) (A) (A)
                 (A) (A) (A) (A) (A) (A) (A) (A) (A) (A) (A) (A)
                 (A) (A) (A) (A) (A) (A) (A) (A) (A) (A) (A) (A)
                 (A) (A) (A) (A) (A) (A) (A) (A) (A) (A) (A) (A)
                 (A) (A) (A) (A) (A) (A) (A) (A) (A) (A) (A) (A)
                 (A) (A) (A) (A) (A) (A) (A) (A) (A) (A) (A) (A)
                 (A) (A) (A) (A) (A) (A) (A) (A) (A) (A) (A) (A)
                 (A) (A) (A) (A) (A) (A) (A) (A) (A) (A) (A) (A)
                 (A) (A) (A) (A) (A) (A) (A) (A) (A) (A) (A) (A)
                 (A) (A) (A) (A) (A) (A) (A) (A) (A) (A) (A) (A)
                 (A) (A) (A) (A) (A) (A) (A) (A) (A) (A) (A) (A)
                 (A) (A) (A) (A) (A) (A) (A) (A) (A) (A) (A) (A)
                 (A) (A) (A) (A) (A) (A) (A) (A) (A) (A) (A) (A)
                 (A) (A) (A) (A) (A) (A) (A) (A) (A) (A) (A) (A)
                 (A) (A) (A) (A) (A) (A) (A) (A) (A) (A) (A) (A)
                 (A) (A) (A) (A) (A) (A) (A) (A) (A) (A) (A) (A)
                 (A) (A) (A) (A) (A) (A) (A) (A) (A) (A) (A) (A)
                 (A) (A)
 The electronic state is 1-A.
 Alpha  occ. eigenvalues --  -19.12179 -19.11836 -14.40966 -14.40416 -14.38046
 Alpha  occ. eigenvalues --  -14.36890 -10.31478 -10.30931 -10.23392 -10.22622
 Alpha  occ. eigenvalues --  -10.22557 -10.21903 -10.19902 -10.19611 -10.19510
 Alpha  occ. eigenvalues --  -10.19053 -10.18839 -10.18673  -1.10196  -1.04265
 Alpha  occ. eigenvalues --   -1.01047  -0.94845  -0.93930  -0.82812  -0.80829
 Alpha  occ. eigenvalues --   -0.79141  -0.77369  -0.77081  -0.69262  -0.66814
 Alpha  occ. eigenvalues --   -0.64863  -0.64539  -0.61306  -0.58912  -0.57060
 Alpha  occ. eigenvalues --   -0.56253  -0.54463  -0.50068  -0.48869  -0.47481
 Alpha  occ. eigenvalues --   -0.47294  -0.46904  -0.46316  -0.45663  -0.44565
 Alpha  occ. eigenvalues --   -0.44304  -0.43497  -0.43331  -0.42795  -0.41300
 Alpha  occ. eigenvalues --   -0.40758  -0.40212  -0.39193  -0.37102  -0.36877
 Alpha  occ. eigenvalues --   -0.36320  -0.35810  -0.34648  -0.33901  -0.33813
 Alpha  occ. eigenvalues --   -0.33465  -0.32999  -0.32543  -0.27747  -0.26811
 Alpha  occ. eigenvalues --   -0.24839  -0.23935  -0.22961
 Alpha virt. eigenvalues --   -0.11619   0.03648   0.05356   0.07423   0.08612
 Alpha virt. eigenvalues --    0.10075   0.10371   0.11552   0.12596   0.13035
 Alpha virt. eigenvalues --    0.13425   0.14063   0.14290   0.15408   0.15613
 Alpha virt. eigenvalues --    0.15954   0.16057   0.16249   0.16408   0.16705
 Alpha virt. eigenvalues --    0.17133   0.17847   0.18636   0.19135   0.19949
 Alpha virt. eigenvalues --    0.21698   0.21844   0.22450   0.23096   0.23770
 Alpha virt. eigenvalues --    0.24733   0.25211   0.25736   0.26036   0.26863
 Alpha virt. eigenvalues --    0.27401   0.29435   0.31022   0.34299   0.37801
 Alpha virt. eigenvalues --    0.40818   0.42926   0.48444   0.49221   0.49650
 Alpha virt. eigenvalues --    0.50736   0.51180   0.52043   0.52922   0.53480
 Alpha virt. eigenvalues --    0.54269   0.54528   0.55353   0.56593   0.57256
 Alpha virt. eigenvalues --    0.59633   0.60119   0.60320   0.62113   0.62305
 Alpha virt. eigenvalues --    0.63260   0.63386   0.64370   0.64639   0.65249
 Alpha virt. eigenvalues --    0.66893   0.67785   0.69769   0.70764   0.71123
 Alpha virt. eigenvalues --    0.72728   0.73699   0.75520   0.77048   0.77502
 Alpha virt. eigenvalues --    0.78763   0.80041   0.80410   0.81053   0.82018
 Alpha virt. eigenvalues --    0.82997   0.83084   0.83845   0.85005   0.85590
 Alpha virt. eigenvalues --    0.86142   0.86693   0.86968   0.87392   0.87549
 Alpha virt. eigenvalues --    0.88524   0.89639   0.90395   0.91203   0.91694
 Alpha virt. eigenvalues --    0.92453   0.93638   0.94130   0.94483   0.95005
 Alpha virt. eigenvalues --    0.95828   0.96604   0.99541   0.99716   1.00644
 Alpha virt. eigenvalues --    1.02066   1.03963   1.04556   1.07791   1.09359
 Alpha virt. eigenvalues --    1.11239   1.13439   1.13903   1.16633   1.18134
 Alpha virt. eigenvalues --    1.19923   1.20659   1.24724   1.27809   1.29229
 Alpha virt. eigenvalues --    1.32063   1.34310   1.34684   1.36674   1.37583
 Alpha virt. eigenvalues --    1.39457   1.39774   1.41575   1.42151   1.44377
 Alpha virt. eigenvalues --    1.46752   1.52327   1.53626   1.55175   1.56801
 Alpha virt. eigenvalues --    1.58029   1.58676   1.60721   1.62698   1.66299
 Alpha virt. eigenvalues --    1.66590   1.68705   1.70898   1.73427   1.74844
 Alpha virt. eigenvalues --    1.75572   1.77976   1.78660   1.80899   1.82065
 Alpha virt. eigenvalues --    1.82579   1.84404   1.85987   1.86203   1.87539
 Alpha virt. eigenvalues --    1.88811   1.90490   1.91113   1.91792   1.92806
 Alpha virt. eigenvalues --    1.93801   1.95120   1.95887   1.97585   1.98046
 Alpha virt. eigenvalues --    1.98894   2.00074   2.00398   2.00713   2.01065
 Alpha virt. eigenvalues --    2.02159   2.04922   2.06359   2.09303   2.10926
 Alpha virt. eigenvalues --    2.14162   2.15324   2.15678   2.16009   2.18189
 Alpha virt. eigenvalues --    2.20296   2.26098   2.26837   2.29060   2.29151
 Alpha virt. eigenvalues --    2.31240   2.32468   2.33064   2.33594   2.35265
 Alpha virt. eigenvalues --    2.35597   2.36752   2.38305   2.39380   2.40136
 Alpha virt. eigenvalues --    2.40727   2.42878   2.45671   2.47005   2.53308
 Alpha virt. eigenvalues --    2.55456   2.57124   2.59053   2.59393   2.61878
 Alpha virt. eigenvalues --    2.62573   2.64045   2.64882   2.68614   2.69871
 Alpha virt. eigenvalues --    2.70557   2.71434   2.73531   2.74400   2.76569
 Alpha virt. eigenvalues --    2.78822   2.82302   2.85904   2.94480   2.95139
 Alpha virt. eigenvalues --    3.08522   3.13900   3.22307   3.25222   3.85548
 Alpha virt. eigenvalues --    3.99727   4.00883   4.09645   4.15234   4.16688
 Alpha virt. eigenvalues --    4.17671   4.18161   4.25583   4.26591   4.39399
 Alpha virt. eigenvalues --    4.42406   4.50044   4.54145   4.54647   4.55431
 Alpha virt. eigenvalues --    4.56717   4.62000
          Condensed to atoms (all electrons):
               1          2          3          4          5          6
     1  C    4.325348   0.576003   0.172159  -0.053893   0.003980  -0.000203
     2  O    0.576003   8.072740  -0.085467   0.000773   0.000617   0.000001
     3  N    0.172159  -0.085467   7.368839   0.170757  -0.032021   0.001895
     4  N   -0.053893   0.000773   0.170757   7.010588   0.231936  -0.069682
     5  C    0.003980   0.000617  -0.032021   0.231936   4.276376   0.591071
     6  O   -0.000203   0.000001   0.001895  -0.069682   0.591071   8.066300
     7  N    0.000461  -0.000012  -0.006606  -0.110867   0.279105  -0.110871
     8  C    0.002634  -0.000226  -0.104509  -0.007956  -0.030467   0.002766
     9  C    0.000022   0.000006   0.006278  -0.001001   0.000774  -0.000069
    10  C    0.000002  -0.000000  -0.000121  -0.000031  -0.000025  -0.000007
    11  C    0.000000  -0.000000   0.000023  -0.000159   0.000900   0.000022
    12  C    0.000024  -0.000000  -0.001077   0.004843  -0.018047  -0.001028
    13  N    0.305706  -0.101829  -0.105816   0.002341  -0.000202   0.000001
    14  C   -0.027321  -0.004727   0.003854  -0.000110   0.000002  -0.000000
    15  C    0.001753   0.000366  -0.000077  -0.000001   0.000000   0.000000
    16  C   -0.000247  -0.000016  -0.000020   0.000000  -0.000000   0.000000
    17  C    0.000625  -0.000062   0.000088  -0.000023  -0.000001   0.000000
    18  C   -0.027794   0.002415  -0.004679   0.000401  -0.000025  -0.000000
    19  H    0.008614   0.000013  -0.052811  -0.008245  -0.012331  -0.000113
    20  H   -0.000615   0.000004  -0.003316   0.001999   0.000252  -0.000027
    21  H   -0.000018  -0.000000  -0.000163   0.000210   0.000456  -0.000024
    22  H    0.000003   0.000000  -0.000033   0.000011  -0.000045   0.000001
    23  H    0.000000   0.000000   0.000002   0.000000   0.000010   0.000000
    24  H   -0.000000   0.000000  -0.000007   0.000001  -0.000019   0.000000
    25  H   -0.000000   0.000000  -0.000005   0.000000   0.000568   0.000042
    26  H   -0.000000   0.000000  -0.000000   0.000002  -0.000051  -0.000005
    27  H    0.000001  -0.000000  -0.000031   0.000482  -0.001130   0.014129
    28  H   -0.000004   0.000000  -0.000054  -0.000038   0.000580   0.000821
    29  H   -0.002445   0.017166   0.000671  -0.000016  -0.000000  -0.000000
    30  H    0.001150   0.000999  -0.000189   0.000023  -0.000000  -0.000000
    31  H    0.000799   0.000033  -0.000017   0.000000  -0.000000  -0.000000
    32  H   -0.000050  -0.000008   0.000001   0.000000   0.000000  -0.000000
    33  H    0.000011   0.000000   0.000000  -0.000000  -0.000000   0.000000
    34  H   -0.000009   0.000000  -0.000001   0.000000  -0.000000  -0.000000
    35  H    0.000590  -0.000013   0.000029   0.000001  -0.000000  -0.000000
    36  H   -0.000029   0.000001  -0.000001   0.000000  -0.000000  -0.000000
    37  H   -0.010295   0.000129   0.014789  -0.000583   0.000018   0.000001
    38  H    0.001892   0.000021  -0.000321   0.000125   0.000002  -0.000000
               7          8          9         10         11         12
     1  C    0.000461   0.002634   0.000022   0.000002   0.000000   0.000024
     2  O   -0.000012  -0.000226   0.000006  -0.000000  -0.000000  -0.000000
     3  N   -0.006606  -0.104509   0.006278  -0.000121   0.000023  -0.001077
     4  N   -0.110867  -0.007956  -0.001001  -0.000031  -0.000159   0.004843
     5  C    0.279105  -0.030467   0.000774  -0.000025   0.000900  -0.018047
     6  O   -0.110871   0.002766  -0.000069  -0.000007   0.000022  -0.001028
     7  N    7.088409   0.291539  -0.055077  -0.013091  -0.044439   0.277974
     8  C    0.291539   5.001483   0.338770  -0.032963  -0.013341  -0.041469
     9  C   -0.055077   0.338770   5.096248   0.368055  -0.044813  -0.017759
    10  C   -0.013091  -0.032963   0.368055   5.020762   0.382177  -0.039722
    11  C   -0.044439  -0.013341  -0.044813   0.382177   5.027046   0.373196
    12  C    0.277974  -0.041469  -0.017759  -0.039722   0.373196   4.916491
    13  N    0.000013  -0.000295  -0.000003  -0.000000  -0.000000  -0.000000
    14  C    0.000000  -0.000006   0.000000  -0.000000   0.000000   0.000000
    15  C   -0.000000  -0.000000   0.000000  -0.000000  -0.000000   0.000000
    16  C   -0.000000   0.000000  -0.000000   0.000000   0.000000   0.000000
    17  C    0.000000  -0.000022   0.000000   0.000000  -0.000000   0.000000
    18  C    0.000012  -0.000180  -0.000001   0.000000  -0.000000   0.000002
    19  H   -0.026686   0.392504  -0.032938   0.003987   0.000157   0.003681
    20  H   -0.056255   0.373679  -0.053483  -0.006428  -0.001227  -0.001413
    21  H    0.000535  -0.036985   0.369759  -0.041887  -0.003965  -0.000554
    22  H    0.004249  -0.030451   0.363023  -0.033777   0.005228   0.000103
    23  H   -0.000117   0.004599  -0.032478   0.372845  -0.033288   0.004804
    24  H   -0.000956  -0.004436  -0.042173   0.369939  -0.042218  -0.003242
    25  H   -0.000556  -0.000611  -0.003949  -0.042321   0.372569  -0.037942
    26  H    0.004133   0.000071   0.005088  -0.034497   0.364896  -0.032125
    27  H   -0.032427   0.003912  -0.000026   0.004015  -0.028127   0.373641
    28  H   -0.056431  -0.003339  -0.000996  -0.006624  -0.048530   0.374858
    29  H    0.000000   0.000000  -0.000000   0.000000   0.000000   0.000000
    30  H    0.000000   0.000000  -0.000000   0.000000  -0.000000  -0.000000
    31  H    0.000000   0.000001  -0.000000   0.000000   0.000000  -0.000000
    32  H    0.000000   0.000000  -0.000000   0.000000  -0.000000   0.000000
    33  H   -0.000000   0.000000   0.000000  -0.000000  -0.000000   0.000000
    34  H    0.000000  -0.000000  -0.000000   0.000000  -0.000000  -0.000000
    35  H   -0.000000   0.000053  -0.000009  -0.000000   0.000000  -0.000000
    36  H   -0.000000   0.000002  -0.000000   0.000000  -0.000000  -0.000000
    37  H    0.000053  -0.000295   0.000040  -0.000002   0.000000  -0.000018
    38  H   -0.000001   0.000001  -0.000000  -0.000000  -0.000000  -0.000000
              13         14         15         16         17         18
     1  C    0.305706  -0.027321   0.001753  -0.000247   0.000625  -0.027794
     2  O   -0.101829  -0.004727   0.000366  -0.000016  -0.000062   0.002415
     3  N   -0.105816   0.003854  -0.000077  -0.000020   0.000088  -0.004679
     4  N    0.002341  -0.000110  -0.000001   0.000000  -0.000023   0.000401
     5  C   -0.000202   0.000002   0.000000  -0.000000  -0.000001  -0.000025
     6  O    0.000001  -0.000000   0.000000   0.000000   0.000000  -0.000000
     7  N    0.000013   0.000000  -0.000000  -0.000000   0.000000   0.000012
     8  C   -0.000295  -0.000006  -0.000000   0.000000  -0.000022  -0.000180
     9  C   -0.000003   0.000000   0.000000  -0.000000   0.000000  -0.000001
    10  C   -0.000000  -0.000000  -0.000000   0.000000   0.000000   0.000000
    11  C   -0.000000   0.000000  -0.000000   0.000000  -0.000000  -0.000000
    12  C   -0.000000   0.000000   0.000000   0.000000   0.000000   0.000002
    13  N    7.040154   0.284571  -0.047058  -0.013946  -0.053429   0.288556
    14  C    0.284571   4.929131   0.373318  -0.039530  -0.012710  -0.042210
    15  C   -0.047058   0.373318   5.026911   0.378780  -0.045916  -0.013237
    16  C   -0.013946  -0.039530   0.378780   5.009856   0.387379  -0.041806
    17  C   -0.053429  -0.012710  -0.045916   0.387379   5.047663   0.366179
    18  C    0.288556  -0.042210  -0.013237  -0.041806   0.366179   4.944278
    19  H   -0.000244   0.000018  -0.000004   0.000001   0.000023   0.000195
    20  H    0.000031  -0.000001  -0.000000   0.000001  -0.000010  -0.000127
    21  H    0.000000  -0.000000   0.000000   0.000000  -0.000000  -0.000000
    22  H    0.000001  -0.000000  -0.000000  -0.000000  -0.000001   0.000000
    23  H    0.000000  -0.000000   0.000000  -0.000000   0.000000  -0.000000
    24  H    0.000000   0.000000  -0.000000   0.000000  -0.000000  -0.000000
    25  H    0.000000  -0.000000  -0.000000  -0.000000  -0.000000  -0.000000
    26  H   -0.000000  -0.000000   0.000000   0.000000  -0.000000   0.000000
    27  H   -0.000000   0.000000  -0.000000  -0.000000  -0.000000   0.000000
    28  H   -0.000000  -0.000000  -0.000000   0.000000  -0.000000  -0.000001
    29  H   -0.031418   0.372306  -0.028100   0.004001   0.000057   0.003702
    30  H   -0.054127   0.373937  -0.047107  -0.006616  -0.001835  -0.002695
    31  H   -0.000499  -0.038900   0.371885  -0.043175  -0.004589  -0.000305
    32  H    0.004250  -0.032105   0.367843  -0.033657   0.005099   0.000049
    33  H   -0.000108   0.004974  -0.033208   0.374487  -0.033291   0.004867
    34  H   -0.000845  -0.003643  -0.041638   0.371900  -0.042566  -0.003224
    35  H    0.000790  -0.000895  -0.003795  -0.042479   0.366958  -0.037825
    36  H    0.004177  -0.000010   0.005214  -0.033523   0.363268  -0.029909
    37  H   -0.028432   0.003703   0.000050   0.004159  -0.027214   0.371842
    38  H   -0.055899  -0.003755  -0.000957  -0.006576  -0.052756   0.371313
              19         20         21         22         23         24
     1  C    0.008614  -0.000615  -0.000018   0.000003   0.000000  -0.000000
     2  O    0.000013   0.000004  -0.000000   0.000000   0.000000   0.000000
     3  N   -0.052811  -0.003316  -0.000163  -0.000033   0.000002  -0.000007
     4  N   -0.008245   0.001999   0.000210   0.000011   0.000000   0.000001
     5  C   -0.012331   0.000252   0.000456  -0.000045   0.000010  -0.000019
     6  O   -0.000113  -0.000027  -0.000024   0.000001   0.000000   0.000000
     7  N   -0.026686  -0.056255   0.000535   0.004249  -0.000117  -0.000956
     8  C    0.392504   0.373679  -0.036985  -0.030451   0.004599  -0.004436
     9  C   -0.032938  -0.053483   0.369759   0.363023  -0.032478  -0.042173
    10  C    0.003987  -0.006428  -0.041887  -0.033777   0.372845   0.369939
    11  C    0.000157  -0.001227  -0.003965   0.005228  -0.033288  -0.042218
    12  C    0.003681  -0.001413  -0.000554   0.000103   0.004804  -0.003242
    13  N   -0.000244   0.000031   0.000000   0.000001   0.000000   0.000000
    14  C    0.000018  -0.000001  -0.000000  -0.000000  -0.000000   0.000000
    15  C   -0.000004  -0.000000   0.000000  -0.000000   0.000000  -0.000000
    16  C    0.000001   0.000001   0.000000  -0.000000  -0.000000   0.000000
    17  C    0.000023  -0.000010  -0.000000  -0.000001   0.000000  -0.000000
    18  C    0.000195  -0.000127  -0.000000   0.000000  -0.000000  -0.000000
    19  H    0.551355  -0.036964  -0.004436  -0.002137  -0.000144   0.000007
    20  H   -0.036964   0.627672   0.006255  -0.001137  -0.000123   0.005502
    21  H   -0.004436   0.006255   0.594327  -0.032663  -0.005328   0.006213
    22  H   -0.002137  -0.001137  -0.032663   0.599916  -0.002540  -0.004425
    23  H   -0.000144  -0.000123  -0.005328  -0.002540   0.596467  -0.036234
    24  H    0.000007   0.005502   0.006213  -0.004425  -0.036234   0.616689
    25  H   -0.000013   0.000222   0.004938  -0.000012  -0.005243   0.006115
    26  H    0.000007   0.000070   0.000013  -0.000151  -0.002545  -0.004381
    27  H   -0.000141  -0.000167  -0.000032   0.000010  -0.000139  -0.000056
    28  H   -0.000055   0.008130   0.000233   0.000038  -0.000123   0.005124
    29  H    0.000005  -0.000000   0.000000  -0.000000  -0.000000   0.000000
    30  H    0.000001   0.000000  -0.000000   0.000000  -0.000000   0.000000
    31  H    0.000005   0.000000  -0.000000   0.000000  -0.000000  -0.000000
    32  H   -0.000000   0.000000  -0.000000   0.000000  -0.000000   0.000000
    33  H   -0.000000  -0.000000   0.000000  -0.000000   0.000000   0.000000
    34  H    0.000000   0.000000  -0.000000   0.000000   0.000000  -0.000000
    35  H    0.000023   0.000239   0.000000   0.000015   0.000000   0.000000
    36  H   -0.000001  -0.000001   0.000000  -0.000000  -0.000000   0.000000
    37  H   -0.000675   0.002086   0.000001  -0.000001   0.000000  -0.000000
    38  H    0.000000   0.000010   0.000000   0.000000   0.000000   0.000000
              25         26         27         28         29         30
     1  C   -0.000000  -0.000000   0.000001  -0.000004  -0.002445   0.001150
     2  O    0.000000   0.000000  -0.000000   0.000000   0.017166   0.000999
     3  N   -0.000005  -0.000000  -0.000031  -0.000054   0.000671  -0.000189
     4  N    0.000000   0.000002   0.000482  -0.000038  -0.000016   0.000023
     5  C    0.000568  -0.000051  -0.001130   0.000580  -0.000000  -0.000000
     6  O    0.000042  -0.000005   0.014129   0.000821  -0.000000  -0.000000
     7  N   -0.000556   0.004133  -0.032427  -0.056431   0.000000   0.000000
     8  C   -0.000611   0.000071   0.003912  -0.003339   0.000000   0.000000
     9  C   -0.003949   0.005088  -0.000026  -0.000996  -0.000000  -0.000000
    10  C   -0.042321  -0.034497   0.004015  -0.006624   0.000000   0.000000
    11  C    0.372569   0.364896  -0.028127  -0.048530   0.000000  -0.000000
    12  C   -0.037942  -0.032125   0.373641   0.374858   0.000000  -0.000000
    13  N    0.000000  -0.000000  -0.000000  -0.000000  -0.031418  -0.054127
    14  C   -0.000000  -0.000000   0.000000  -0.000000   0.372306   0.373937
    15  C   -0.000000   0.000000  -0.000000  -0.000000  -0.028100  -0.047107
    16  C   -0.000000   0.000000  -0.000000   0.000000   0.004001  -0.006616
    17  C   -0.000000  -0.000000  -0.000000  -0.000000   0.000057  -0.001835
    18  C   -0.000000   0.000000   0.000000  -0.000001   0.003702  -0.002695
    19  H   -0.000013   0.000007  -0.000141  -0.000055   0.000005   0.000001
    20  H    0.000222   0.000070  -0.000167   0.008130  -0.000000   0.000000
    21  H    0.004938   0.000013  -0.000032   0.000233   0.000000  -0.000000
    22  H   -0.000012  -0.000151   0.000010   0.000038  -0.000000   0.000000
    23  H   -0.005243  -0.002545  -0.000139  -0.000123  -0.000000  -0.000000
    24  H    0.006115  -0.004381  -0.000056   0.005124   0.000000   0.000000
    25  H    0.586700  -0.031766  -0.004578   0.006030  -0.000000   0.000000
    26  H   -0.031766   0.593069  -0.001133  -0.001359  -0.000000  -0.000000
    27  H   -0.004578  -0.001133   0.512150  -0.032985   0.000000  -0.000000
    28  H    0.006030  -0.001359  -0.032985   0.611032  -0.000000   0.000000
    29  H   -0.000000  -0.000000   0.000000  -0.000000   0.502978  -0.031188
    30  H    0.000000  -0.000000  -0.000000   0.000000  -0.031188   0.602494
    31  H    0.000000  -0.000000  -0.000000   0.000000  -0.004333   0.006035
    32  H    0.000000   0.000000   0.000000   0.000000  -0.001456  -0.001567
    33  H   -0.000000   0.000000  -0.000000  -0.000000  -0.000139  -0.000094
    34  H    0.000000  -0.000000   0.000000   0.000000  -0.000048   0.005236
    35  H    0.000000   0.000000  -0.000000   0.000000  -0.000033   0.000236
    36  H    0.000000   0.000000   0.000000   0.000000   0.000009   0.000045
    37  H   -0.000000  -0.000000  -0.000000   0.000002  -0.000141  -0.000151
    38  H    0.000000   0.000000  -0.000000   0.000000  -0.000186   0.008077
              31         32         33         34         35         36
     1  C    0.000799  -0.000050   0.000011  -0.000009   0.000590  -0.000029
     2  O    0.000033  -0.000008   0.000000   0.000000  -0.000013   0.000001
     3  N   -0.000017   0.000001   0.000000  -0.000001   0.000029  -0.000001
     4  N    0.000000   0.000000  -0.000000   0.000000   0.000001   0.000000
     5  C   -0.000000   0.000000  -0.000000  -0.000000  -0.000000  -0.000000
     6  O   -0.000000  -0.000000   0.000000  -0.000000  -0.000000  -0.000000
     7  N    0.000000   0.000000  -0.000000   0.000000  -0.000000  -0.000000
     8  C    0.000001   0.000000   0.000000  -0.000000   0.000053   0.000002
     9  C   -0.000000  -0.000000   0.000000  -0.000000  -0.000009  -0.000000
    10  C    0.000000   0.000000  -0.000000   0.000000  -0.000000   0.000000
    11  C    0.000000  -0.000000  -0.000000  -0.000000   0.000000  -0.000000
    12  C   -0.000000   0.000000   0.000000  -0.000000  -0.000000  -0.000000
    13  N   -0.000499   0.004250  -0.000108  -0.000845   0.000790   0.004177
    14  C   -0.038900  -0.032105   0.004974  -0.003643  -0.000895  -0.000010
    15  C    0.371885   0.367843  -0.033208  -0.041638  -0.003795   0.005214
    16  C   -0.043175  -0.033657   0.374487   0.371900  -0.042479  -0.033523
    17  C   -0.004589   0.005099  -0.033291  -0.042566   0.366958   0.363268
    18  C   -0.000305   0.000049   0.004867  -0.003224  -0.037825  -0.029909
    19  H    0.000005  -0.000000  -0.000000   0.000000   0.000023  -0.000001
    20  H    0.000000   0.000000  -0.000000   0.000000   0.000239  -0.000001
    21  H   -0.000000  -0.000000   0.000000  -0.000000   0.000000   0.000000
    22  H    0.000000   0.000000  -0.000000   0.000000   0.000015  -0.000000
    23  H   -0.000000  -0.000000   0.000000   0.000000   0.000000  -0.000000
    24  H   -0.000000   0.000000   0.000000  -0.000000   0.000000   0.000000
    25  H    0.000000   0.000000  -0.000000   0.000000   0.000000   0.000000
    26  H   -0.000000   0.000000   0.000000  -0.000000   0.000000   0.000000
    27  H   -0.000000   0.000000  -0.000000   0.000000  -0.000000   0.000000
    28  H    0.000000   0.000000  -0.000000   0.000000   0.000000   0.000000
    29  H   -0.004333  -0.001456  -0.000139  -0.000048  -0.000033   0.000009
    30  H    0.006035  -0.001567  -0.000094   0.005236   0.000236   0.000045
    31  H    0.593747  -0.031977  -0.005021   0.006109   0.005117  -0.000005
    32  H   -0.031977   0.585294  -0.002555  -0.004357  -0.000008  -0.000147
    33  H   -0.005021  -0.002555   0.591325  -0.035199  -0.005358  -0.002425
    34  H    0.006109  -0.004357  -0.035199   0.606406   0.006160  -0.004398
    35  H    0.005117  -0.000008  -0.005358   0.006160   0.601011  -0.032218
    36  H   -0.000005  -0.000147  -0.002425  -0.004398  -0.032218   0.590062
    37  H   -0.000036   0.000009  -0.000139  -0.000064  -0.005002  -0.001504
    38  H    0.000231   0.000049  -0.000112   0.005084   0.006341  -0.001356
              37         38
     1  C   -0.010295   0.001892
     2  O    0.000129   0.000021
     3  N    0.014789  -0.000321
     4  N   -0.000583   0.000125
     5  C    0.000018   0.000002
     6  O    0.000001  -0.000000
     7  N    0.000053  -0.000001
     8  C   -0.000295   0.000001
     9  C    0.000040  -0.000000
    10  C   -0.000002  -0.000000
    11  C    0.000000  -0.000000
    12  C   -0.000018  -0.000000
    13  N   -0.028432  -0.055899
    14  C    0.003703  -0.003755
    15  C    0.000050  -0.000957
    16  C    0.004159  -0.006576
    17  C   -0.027214  -0.052756
    18  C    0.371842   0.371313
    19  H   -0.000675   0.000000
    20  H    0.002086   0.000010
    21  H    0.000001   0.000000
    22  H   -0.000001   0.000000
    23  H    0.000000   0.000000
    24  H   -0.000000   0.000000
    25  H   -0.000000   0.000000
    26  H   -0.000000   0.000000
    27  H   -0.000000  -0.000000
    28  H    0.000002   0.000000
    29  H   -0.000141  -0.000186
    30  H   -0.000151   0.008077
    31  H   -0.000036   0.000231
    32  H    0.000009   0.000049
    33  H   -0.000139  -0.000112
    34  H   -0.000064   0.005084
    35  H   -0.005002   0.006341
    36  H   -0.001504  -0.001356
    37  H    0.528323  -0.034125
    38  H   -0.034125   0.614195
 Mulliken charges:
               1
     1  C    0.721148
     2  O   -0.478926
     3  N   -0.342045
     4  N   -0.171889
     5  C    0.707719
     6  O   -0.495021
     7  N   -0.432090
     8  C   -0.104461
     9  C   -0.263289
    10  C   -0.270288
    11  C   -0.266107
    12  C   -0.135223
    13  N   -0.436441
    14  C   -0.139893
    15  C   -0.265021
    16  C   -0.268972
    17  C   -0.262912
    18  C   -0.149794
    19  H    0.217343
    20  H    0.135144
    21  H    0.143112
    22  H    0.134775
    23  H    0.139575
    24  H    0.128558
    25  H    0.149811
    26  H    0.140664
    27  H    0.192631
    28  H    0.143688
    29  H    0.198606
    30  H    0.147335
    31  H    0.144895
    32  H    0.145293
    33  H    0.141985
    34  H    0.135096
    35  H    0.140072
    36  H    0.142750
    37  H    0.183471
    38  H    0.148701
 Sum of Mulliken charges =  -0.00000
 Mulliken charges with hydrogens summed into heavy atoms:
               1
     1  C    0.721148
     2  O   -0.478926
     3  N   -0.342045
     4  N   -0.171889
     5  C    0.707719
     6  O   -0.495021
     7  N   -0.432090
     8  C    0.248026
     9  C    0.014598
    10  C   -0.002155
    11  C    0.024368
    12  C    0.201096
    13  N   -0.436441
    14  C    0.206048
    15  C    0.025168
    16  C    0.008109
    17  C    0.019911
    18  C    0.182378
 APT charges:
               1
     1  C    1.077626
     2  O   -0.728406
     3  N   -0.040427
     4  N   -0.222448
     5  C    0.997692
     6  O   -0.708923
     7  N   -0.748878
     8  C    0.328902
     9  C    0.061469
    10  C    0.116540
    11  C    0.097870
    12  C    0.392220
    13  N   -0.718550
    14  C    0.310268
    15  C    0.104093
    16  C    0.121126
    17  C    0.100773
    18  C    0.322938
    19  H   -0.029617
    20  H   -0.087476
    21  H   -0.039067
    22  H   -0.047885
    23  H   -0.060078
    24  H   -0.048448
    25  H   -0.033619
    26  H   -0.051259
    27  H    0.021959
    28  H   -0.084490
    29  H    0.033814
    30  H   -0.073002
    31  H   -0.035404
    32  H   -0.055040
    33  H   -0.052401
    34  H   -0.046374
    35  H   -0.040915
    36  H   -0.050882
    37  H   -0.003561
    38  H   -0.080141
 Sum of APT charges =  -0.00000
 APT charges with hydrogens summed into heavy atoms:
               1
     1  C    1.077626
     2  O   -0.728406
     3  N   -0.040427
     4  N   -0.222448
     5  C    0.997692
     6  O   -0.708923
     7  N   -0.748878
     8  C    0.211809
     9  C   -0.025483
    10  C    0.008015
    11  C    0.012992
    12  C    0.329688
    13  N   -0.718550
    14  C    0.271080
    15  C    0.013650
    16  C    0.022352
    17  C    0.008976
    18  C    0.239237
 Electronic spatial extent (au):  <R**2>=           5784.1264
 Charge=             -0.0000 electrons
 Dipole moment (field-independent basis, Debye):
    X=              2.3173    Y=             -6.4608    Z=             -1.2863  Tot=              6.9833
 Quadrupole moment (field-independent basis, Debye-Ang):
   XX=            -95.0664   YY=           -122.1835   ZZ=           -108.4708
   XY=              7.2719   XZ=             -5.4748   YZ=             -1.2830
 Traceless Quadrupole moment (field-independent basis, Debye-Ang):
   XX=             13.5072   YY=            -13.6099   ZZ=              0.1027
[...]
    53    N    4  py     Ryd( 3p)     0.00395
    54    N    4  pz     Val( 2p)     1.28905
    55    N    4  pz     Ryd( 3p)     0.00441
    56    N    4  dxy    Ryd( 3d)     0.00144
    57    N    4  dxz    Ryd( 3d)     0.00129
    58    N    4  dyz    Ryd( 3d)     0.00162
    59    N    4  dx2y2  Ryd( 3d)     0.00087
    60    N    4  dz2    Ryd( 3d)     0.00227
 
    61    C    5  S      Cor( 1S)     1.99934
    62    C    5  S      Val( 2S)     0.73329
    63    C    5  S      Ryd( 3S)     0.00442
    64    C    5  S      Ryd( 4S)     0.00039
    65    C    5  px     Val( 2p)     0.83335
    66    C    5  px     Ryd( 3p)     0.00872
    67    C    5  py     Val( 2p)     0.76672
    68    C    5  py     Ryd( 3p)     0.01952
    69    C    5  pz     Val( 2p)     0.82486
    70    C    5  pz     Ryd( 3p)     0.00378
    71    C    5  dxy    Ryd( 3d)     0.00313
    72    C    5  dxz    Ryd( 3d)     0.00169
    73    C    5  dyz    Ryd( 3d)     0.00229
    74    C    5  dx2y2  Ryd( 3d)     0.00208
    75    C    5  dz2    Ryd( 3d)     0.00077
 
    76    O    6  S      Cor( 1S)     1.99979
    77    O    6  S      Val( 2S)     1.70344
    78    O    6  S      Ryd( 3S)     0.00078
    79    O    6  S      Ryd( 4S)     0.00008
    80    O    6  px     Val( 2p)     1.71429
    81    O    6  px     Ryd( 3p)     0.00152
    82    O    6  py     Val( 2p)     1.58051
    83    O    6  py     Ryd( 3p)     0.00040
    84    O    6  pz     Val( 2p)     1.55530
    85    O    6  pz     Ryd( 3p)     0.00085
    86    O    6  dxy    Ryd( 3d)     0.00431
    87    O    6  dxz    Ryd( 3d)     0.00034
    88    O    6  dyz    Ryd( 3d)     0.00455
    89    O    6  dx2y2  Ryd( 3d)     0.00429
    90    O    6  dz2    Ryd( 3d)     0.00144
 
    91    N    7  S      Cor( 1S)     1.99928
    92    N    7  S      Val( 2S)     1.20582
    93    N    7  S      Ryd( 3S)     0.00167
    94    N    7  S      Ryd( 4S)     0.00006
    95    N    7  px     Val( 2p)     1.31713
    96    N    7  px     Ryd( 3p)     0.00191
    97    N    7  py     Val( 2p)     1.30268
    98    N    7  py     Ryd( 3p)     0.00163
    99    N    7  pz     Val( 2p)     1.63337
   100    N    7  pz     Ryd( 3p)     0.00452
   101    N    7  dxy    Ryd( 3d)     0.00071
   102    N    7  dxz    Ryd( 3d)     0.00063
   103    N    7  dyz    Ryd( 3d)     0.00043
   104    N    7  dx2y2  Ryd( 3d)     0.00068
   105    N    7  dz2    Ryd( 3d)     0.00062
 
   106    C    8  S      Cor( 1S)     1.99930
   107    C    8  S      Val( 2S)     1.01819
   108    C    8  S      Ryd( 3S)     0.00132
   109    C    8  S      Ryd( 4S)     0.00003
   110    C    8  px     Val( 2p)     1.18074
   111    C    8  px     Ryd( 3p)     0.00496
   112    C    8  py     Val( 2p)     0.86125
   113    C    8  py     Ryd( 3p)     0.00260
   114    C    8  pz     Val( 2p)     1.18587
   115    C    8  pz     Ryd( 3p)     0.00232
   116    C    8  dxy    Ryd( 3d)     0.00081
   117    C    8  dxz    Ryd( 3d)     0.00053
   118    C    8  dyz    Ryd( 3d)     0.00083
   119    C    8  dx2y2  Ryd( 3d)     0.00122
   120    C    8  dz2    Ryd( 3d)     0.00143
 
   121    C    9  S      Cor( 1S)     1.99932
   122    C    9  S      Val( 2S)     1.04080
   123    C    9  S      Ryd( 3S)     0.00066
   124    C    9  S      Ryd( 4S)     0.00002
   125    C    9  px     Val( 2p)     1.04135
   126    C    9  px     Ryd( 3p)     0.00180
   127    C    9  py     Val( 2p)     1.18650
   128    C    9  py     Ryd( 3p)     0.00325
   129    C    9  pz     Val( 2p)     1.19117
   130    C    9  pz     Ryd( 3p)     0.00228
   131    C    9  dxy    Ryd( 3d)     0.00051
   132    C    9  dxz    Ryd( 3d)     0.00065
   133    C    9  dyz    Ryd( 3d)     0.00029
   134    C    9  dx2y2  Ryd( 3d)     0.00092
   135    C    9  dz2    Ryd( 3d)     0.00112
 
   136    C   10  S      Cor( 1S)     1.99933
   137    C   10  S      Val( 2S)     1.03649
   138    C   10  S      Ryd( 3S)     0.00060
   139    C   10  S      Ryd( 4S)     0.00002
   140    C   10  px     Val( 2p)     1.13702
   141    C   10  px     Ryd( 3p)     0.00242
   142    C   10  py     Val( 2p)     1.04751
   143    C   10  py     Ryd( 3p)     0.00172
   144    C   10  pz     Val( 2p)     1.23331
   145    C   10  pz     Ryd( 3p)     0.00323
   146    C   10  dxy    Ryd( 3d)     0.00068
   147    C   10  dxz    Ryd( 3d)     0.00085
   148    C   10  dyz    Ryd( 3d)     0.00039
   149    C   10  dx2y2  Ryd( 3d)     0.00069
   150    C   10  dz2    Ryd( 3d)     0.00094
 
   151    C   11  S      Cor( 1S)     1.99932
   152    C   11  S      Val( 2S)     1.04092
   153    C   11  S      Ryd( 3S)     0.00063
   154    C   11  S      Ryd( 4S)     0.00002
   155    C   11  px     Val( 2p)     1.13934
   156    C   11  px     Ryd( 3p)     0.00307
   157    C   11  py     Val( 2p)     1.08863
   158    C   11  py     Ryd( 3p)     0.00189
   159    C   11  pz     Val( 2p)     1.19178
   160    C   11  pz     Ryd( 3p)     0.00231
   161    C   11  dxy    Ryd( 3d)     0.00089
   162    C   11  dxz    Ryd( 3d)     0.00056
   163    C   11  dyz    Ryd( 3d)     0.00039
   164    C   11  dx2y2  Ryd( 3d)     0.00053
   165    C   11  dz2    Ryd( 3d)     0.00111
 
   166    C   12  S      Cor( 1S)     1.99932
   167    C   12  S      Val( 2S)     1.01783
   168    C   12  S      Ryd( 3S)     0.00123
   169    C   12  S      Ryd( 4S)     0.00003
   170    C   12  px     Val( 2p)     0.91419
   171    C   12  px     Ryd( 3p)     0.00343
   172    C   12  py     Val( 2p)     1.12776
   173    C   12  py     Ryd( 3p)     0.00423
   174    C   12  pz     Val( 2p)     1.18395
   175    C   12  pz     Ryd( 3p)     0.00240
   176    C   12  dxy    Ryd( 3d)     0.00120
   177    C   12  dxz    Ryd( 3d)     0.00091
   178    C   12  dyz    Ryd( 3d)     0.00046
   179    C   12  dx2y2  Ryd( 3d)     0.00087
   180    C   12  dz2    Ryd( 3d)     0.00143
 
   181    N   13  S      Cor( 1S)     1.99928
   182    N   13  S      Val( 2S)     1.20582
   183    N   13  S      Ryd( 3S)     0.00167
   184    N   13  S      Ryd( 4S)     0.00006
   185    N   13  px     Val( 2p)     1.31713
   186    N   13  px     Ryd( 3p)     0.00191
   187    N   13  py     Val( 2p)     1.30268
   188    N   13  py     Ryd( 3p)     0.00163
   189    N   13  pz     Val( 2p)     1.63337
   190    N   13  pz     Ryd( 3p)     0.00452
   191    N   13  dxy    Ryd( 3d)     0.00071
   192    N   13  dxz    Ryd( 3d)     0.00063
   193    N   13  dyz    Ryd( 3d)     0.00043
   194    N   13  dx2y2  Ryd( 3d)     0.00068
   195    N   13  dz2    Ryd( 3d)     0.00062
 
   196    C   14  S      Cor( 1S)     1.99932
   197    C   14  S      Val( 2S)     1.01783
   198    C   14  S      Ryd( 3S)     0.00123
   199    C   14  S      Ryd( 4S)     0.00003
   200    C   14  px     Val( 2p)     0.91418
   201    C   14  px     Ryd( 3p)     0.00343
   202    C   14  py     Val( 2p)     1.12776
   203    C   14  py     Ryd( 3p)     0.00423
   204    C   14  pz     Val( 2p)     1.18395
   205    C   14  pz     Ryd( 3p)     0.00240
   206    C   14  dxy    Ryd( 3d)     0.00120
   207    C   14  dxz    Ryd( 3d)     0.00091
   208    C   14  dyz    Ryd( 3d)     0.00046
   209    C   14  dx2y2  Ryd( 3d)     0.00087
   210    C   14  dz2    Ryd( 3d)     0.00143
 
   211    C   15  S      Cor( 1S)     1.99932
   212    C   15  S      Val( 2S)     1.04092
   213    C   15  S      Ryd( 3S)     0.00063
   214    C   15  S      Ryd( 4S)     0.00002
   215    C   15  px     Val( 2p)     1.13934
   216    C   15  px     Ryd( 3p)     0.00307
   217    C   15  py     Val( 2p)     1.08863
   218    C   15  py     Ryd( 3p)     0.00189
   219    C   15  pz     Val( 2p)     1.19178
   220    C   15  pz     Ryd( 3p)     0.00231
   221    C   15  dxy    Ryd( 3d)     0.00089
   222    C   15  dxz    Ryd( 3d)     0.00056
   223    C   15  dyz    Ryd( 3d)     0.00039
   224    C   15  dx2y2  Ryd( 3d)     0.00053
   225    C   15  dz2    Ryd( 3d)     0.00111
 
   226    C   16  S      Cor( 1S)     1.99933
   227    C   16  S      Val( 2S)     1.03649
   228    C   16  S      Ryd( 3S)     0.00060
   229    C   16  S      Ryd( 4S)     0.00002
   230    C   16  px     Val( 2p)     1.13702
   231    C   16  px     Ryd( 3p)     0.00242
   232    C   16  py     Val( 2p)     1.04751
   233    C   16  py     Ryd( 3p)     0.00172
   234    C   16  pz     Val( 2p)     1.23331
   235    C   16  pz     Ryd( 3p)     0.00323
   236    C   16  dxy    Ryd( 3d)     0.00068
   237    C   16  dxz    Ryd( 3d)     0.00085
   238    C   16  dyz    Ryd( 3d)     0.00039
   239    C   16  dx2y2  Ryd( 3d)     0.00069
   240    C   16  dz2    Ryd( 3d)     0.00094
 
   241    C   17  S      Cor( 1S)     1.99932
   242    C   17  S      Val( 2S)     1.04080
   243    C   17  S      Ryd( 3S)     0.00066
   244    C   17  S      Ryd( 4S)     0.00002
   245    C   17  px     Val( 2p)     1.04135
   246    C   17  px     Ryd( 3p)     0.00180
   247    C   17  py     Val( 2p)     1.18650
   248    C   17  py     Ryd( 3p)     0.00325
   249    C   17  pz     Val( 2p)     1.19117
   250    C   17  pz     Ryd( 3p)     0.00228
   251    C   17  dxy    Ryd( 3d)     0.00051
   252    C   17  dxz    Ryd( 3d)     0.00065
   253    C   17  dyz    Ryd( 3d)     0.00029
   254    C   17  dx2y2  Ryd( 3d)     0.00092
   255    C   17  dz2    Ryd( 3d)     0.00112
 
   256    C   18  S      Cor( 1S)     1.99930
   257    C   18  S      Val( 2S)     1.01819
   258    C   18  S      Ryd( 3S)     0.00132
   259    C   18  S      Ryd( 4S)     0.00003
   260    C   18  px     Val( 2p)     1.18074
   261    C   18  px     Ryd( 3p)     0.00496
   262    C   18  py     Val( 2p)     0.86125
   263    C   18  py     Ryd( 3p)     0.00260
   264    C   18  pz     Val( 2p)     1.18587
   265    C   18  pz     Ryd( 3p)     0.00232
   266    C   18  dxy    Ryd( 3d)     0.00081
   267    C   18  dxz    Ryd( 3d)     0.00053
   268    C   18  dyz    Ryd( 3d)     0.00083
   269    C   18  dx2y2  Ryd( 3d)     0.00122
   270    C   18  dz2    Ryd( 3d)     0.00143
 
   271    H   19  S      Val( 1S)     0.72383
   272    H   19  S      Ryd( 2S)     0.00236
 
   273    H   20  S      Val( 1S)     0.77408
   274    H   20  S      Ryd( 2S)     0.00229
 
   275    H   21  S      Val( 1S)     0.76196
   276    H   21  S      Ryd( 2S)     0.00206
 
   277    H   22  S      Val( 1S)     0.75256
   278    H   22  S      Ryd( 2S)     0.00110
 
   279    H   23  S      Val( 1S)     0.75455
   280    H   23  S      Ryd( 2S)     0.00111
 
   281    H   24  S      Val( 1S)     0.77147
   282    H   24  S      Ryd( 2S)     0.00195
 
   283    H   25  S      Val( 1S)     0.76172
   284    H   25  S      Ryd( 2S)     0.00188
 
   285    H   26  S      Val( 1S)     0.75340
   286    H   26  S      Ryd( 2S)     0.00113
 
   287    H   27  S      Val( 1S)     0.73035
   288    H   27  S      Ryd( 2S)     0.00202
 
   289    H   28  S      Val( 1S)     0.77336
   290    H   28  S      Ryd( 2S)     0.00202
 
   291    H   29  S      Val( 1S)     0.73035
   292    H   29  S      Ryd( 2S)     0.00202
 
   293    H   30  S      Val( 1S)     0.77336
   294    H   30  S      Ryd( 2S)     0.00202
 
   295    H   31  S      Val( 1S)     0.76172
   296    H   31  S      Ryd( 2S)     0.00188
 
   297    H   32  S      Val( 1S)     0.75340
   298    H   32  S      Ryd( 2S)     0.00113
 
   299    H   33  S      Val( 1S)     0.75455
   300    H   33  S      Ryd( 2S)     0.00111
 
   301    H   34  S      Val( 1S)     0.77147
   302    H   34  S      Ryd( 2S)     0.00195
 
   303    H   35  S      Val( 1S)     0.76196
   304    H   35  S      Ryd( 2S)     0.00206
 
   305    H   36  S      Val( 1S)     0.75256
   306    H   36  S      Ryd( 2S)     0.00110
 
   307    H   37  S      Val( 1S)     0.72383
   308    H   37  S      Ryd( 2S)     0.00236
 
   309    H   38  S      Val( 1S)     0.77408
   310    H   38  S      Ryd( 2S)     0.00229


 Summary of Natural Population Analysis:                  
                                                          
                                       Natural Population 
                Natural  -----------------------------------------------
    Atom  No    Charge         Core      Valence    Rydberg      Total
 -----------------------------------------------------------------------
      C    1    0.79566      1.99934     3.15823    0.04676     5.20434
      O    2   -0.57188      1.99979     6.55353    0.01856     8.57188
      N    3   -0.24952      1.99941     5.22389    0.02622     7.24952
      N    4   -0.24952      1.99941     5.22389    0.02622     7.24952
      C    5    0.79566      1.99934     3.15823    0.04676     5.20434
      O    6   -0.57188      1.99979     6.55353    0.01856     8.57188
      N    7   -0.47116      1.99928     5.45900    0.01288     7.47116
      C    8   -0.26142      1.99930     4.24605    0.01606     6.26142
      C    9   -0.47064      1.99932     4.45982    0.01150     6.47064
      C   10   -0.46519      1.99933     4.45433    0.01154     6.46519
      C   11   -0.47141      1.99932     4.46068    0.01141     6.47141
      C   12   -0.25924      1.99932     4.24372    0.01620     6.25924
      N   13   -0.47116      1.99928     5.45900    0.01288     7.47116
      C   14   -0.25924      1.99932     4.24372    0.01620     6.25924
      C   15   -0.47141      1.99932     4.46068    0.01141     6.47141
      C   16   -0.46519      1.99933     4.45433    0.01154     6.46519
      C   17   -0.47064      1.99932     4.45982    0.01150     6.47064
      C   18   -0.26142      1.99930     4.24605    0.01606     6.26142
      H   19    0.27381      0.00000     0.72383    0.00236     0.72619
      H   20    0.22363      0.00000     0.77408    0.00229     0.77637
      H   21    0.23597      0.00000     0.76196    0.00206     0.76403
      H   22    0.24634      0.00000     0.75256    0.00110     0.75366
      H   23    0.24433      0.00000     0.75455    0.00111     0.75567
      H   24    0.22658      0.00000     0.77147    0.00195     0.77342
      H   25    0.23641      0.00000     0.76172    0.00188     0.76359
      H   26    0.24547      0.00000     0.75340    0.00113     0.75453
      H   27    0.26763      0.00000     0.73035    0.00202     0.73237
      H   28    0.22462      0.00000     0.77336    0.00202     0.77538
      H   29    0.26763      0.00000     0.73035    0.00202     0.73237
      H   30    0.22462      0.00000     0.77336    0.00202     0.77538
      H   31    0.23641      0.00000     0.76172    0.00188     0.76359
      H   32    0.24547      0.00000     0.75340    0.00113     0.75453
      H   33    0.24433      0.00000     0.75455    0.00111     0.75567
      H   34    0.22658      0.00000     0.77147    0.00195     0.77342
      H   35    0.23597      0.00000     0.76196    0.00206     0.76403
      H   36    0.24634      0.00000     0.75256    0.00110     0.75366
      H   37    0.27381      0.00000     0.72383    0.00236     0.72619
      H   38    0.22363      0.00000     0.77408    0.00229     0.77637
 =======================================================================
   * Total *   -0.00000     35.98882    99.63306    0.37812   136.00000

                                 Natural Population      
 --------------------------------------------------------
   Core                      35.98882 ( 99.9690% of  36)
   Valence                   99.63306 ( 99.6331% of 100)
   Natural Minimal Basis    135.62188 ( 99.7220% of 136)
   Natural Rydberg Basis      0.37812 (  0.2780% of 136)
 --------------------------------------------------------

    Atom  No          Natural Electron Configuration
 ----------------------------------------------------------------------------
      C    1      [core]2S( 0.73)2p( 2.42)3p( 0.03)3d( 0.01)
      O    2      [core]2S( 1.70)2p( 4.85)3d( 0.01)
      N    3      [core]2S( 1.40)2p( 3.82)3S( 0.01)3p( 0.01)3d( 0.01)
      N    4      [core]2S( 1.40)2p( 3.82)3S( 0.01)3p( 0.01)3d( 0.01)
      C    5      [core]2S( 0.73)2p( 2.42)3p( 0.03)3d( 0.01)
      O    6      [core]2S( 1.70)2p( 4.85)3d( 0.01)
      N    7      [core]2S( 1.21)2p( 4.25)3p( 0.01)
      C    8      [core]2S( 1.02)2p( 3.23)3p( 0.01)
      C    9      [core]2S( 1.04)2p( 3.42)3p( 0.01)
      C   10      [core]2S( 1.04)2p( 3.42)3p( 0.01)
      C   11      [core]2S( 1.04)2p( 3.42)3p( 0.01)
      C   12      [core]2S( 1.02)2p( 3.23)3p( 0.01)
      N   13      [core]2S( 1.21)2p( 4.25)3p( 0.01)
      C   14      [core]2S( 1.02)2p( 3.23)3p( 0.01)
      C   15      [core]2S( 1.04)2p( 3.42)3p( 0.01)
      C   16      [core]2S( 1.04)2p( 3.42)3p( 0.01)
      C   17      [core]2S( 1.04)2p( 3.42)3p( 0.01)
      C   18      [core]2S( 1.02)2p( 3.23)3p( 0.01)
      H   19            1S( 0.72)
      H   20            1S( 0.77)
      H   21            1S( 0.76)
      H   22            1S( 0.75)
      H   23            1S( 0.75)
      H   24            1S( 0.77)
      H   25            1S( 0.76)
      H   26            1S( 0.75)
      H   27            1S( 0.73)
      H   28            1S( 0.77)
      H   29            1S( 0.73)
      H   30            1S( 0.77)
      H   31            1S( 0.76)
      H   32            1S( 0.75)
      H   33            1S( 0.75)
      H   34            1S( 0.77)
      H   35            1S( 0.76)
      H   36            1S( 0.75)
      H   37            1S( 0.72)
      H   38            1S( 0.77)


 NBO analysis skipped by request.
 1\1\GINC-DELLA-R1C4N9\SP\RB3LYP TD-FC\6-31G(d)\C12H20N4O2\BJS4\22-Aug-
 2020\0\\# TD(NStates=10, Root=1) B3LYP/6-31G* scf=qc volume pop=NPA de
 nsity=current Geom=AllCheck Guess=Read\\Title Card Required\\0,1\C,0,2
 .3713095303,0.7447151359,-0.5806373466\O,0,2.4681195706,0.4492991274,-
 1.7611479307\N,0,1.9224874407,2.0898151832,-0.2180155489\N,0,0.7098346
 65,2.2577633825,-0.4376482109\C,0,0.2610138045,3.6028635536,-0.0750218
 47\O,0,0.1642180123,3.898281691,1.1054896133\N,0,-0.1199656516,4.35452
 64153,-1.1359944915\C,0,0.0580591237,3.95446758,-2.5367785491\C,0,-1.2
 68348137,4.0627511159,-3.300303536\C,0,-1.8941301731,5.4558111169,-3.1
 335529072\C,0,-2.040656527,5.8142556488,-1.6466055299\C,0,-0.701161833
 8,5.6808011188,-0.9115846232\N,0,2.7522713551,-0.0069496316,0.48034022
 45\C,0,3.333472966,-1.3332237884,0.2559406287\C,0,4.6729642496,-1.4666
 694354,0.9909694537\C,0,4.526428935,-1.1082165789,2.47791415\C,0,3.900
 6414554,0.2848425986,2.6446534616\C,0,2.5742376992,0.3931169198,1.8811
 211707\H,0,0.4511558147,2.9373668272,-2.5720910865\H,0,0.8096599333,4.
 6151829544,-2.9955551689\H,0,-1.9577278835,3.2975924291,-2.9198562153\
 H,0,-1.0898006565,3.8406911267,-4.3594192303\H,0,-2.8683716263,5.49833
 57811,-3.6349039618\H,0,-1.2539597193,6.2029154485,-3.6260253733\H,0,-
 2.7730917722,5.1462208117,-1.1744694455\H,0,-2.4144248062,6.838936032,
 -1.5292611811\H,0,-0.8096050343,5.8124675976,0.165671038\H,0,0.0054841
 887,6.4406359309,-1.2789457916\H,0,3.4419225369,-1.464896324,-0.821313
 6915\H,0,2.6268270915,-2.093058215,0.6233024483\H,0,5.4053997279,-0.79
 86348288,0.5188333828\H,0,5.0467367128,-2.4913491943,0.8736329623\H,0,
 5.5006679634,-1.1507350306,2.9792704319\H,0,3.8862584511,-1.8553200993
 ,2.9703877957\H,0,4.5900205988,1.0500012148,2.264204887\H,0,3.72208799
 ,0.5069085076,3.7037668997\H,0,2.181137158,1.4102165707,1.9164260041\H
 ,0,1.8226368464,-0.2675986939,2.3398971139\\Version=ES64L-G16RevA.03\S
 tate=1-A\HF=-838.7633037\RMSD=1.839e-09\Dipole=-0.0000131,-0.0000005,0
 .0000055\Quadrupole=0.0899472,4.7213719,-4.8113191,-7.2187532,8.101166
 7,-11.1200163\PG=C01 [X(C12H20N4O2)]\\@


 IF YOU GET CONFUSED, LOGIC OUT YOUR DILEMMA

           --  PICKER X-RAY CORP.    DIGITAL PRINTER MANUAL CA. 1964
 Job cpu time:       0 days  0 hours 48 minutes 40.5 seconds.
 Elapsed time:       0 days  0 hours  9 minutes 44.5 seconds.
 File lengths (MBytes):  RWF=    821 Int=      0 D2E=      0 Chk=    268 Scr=      1
 Normal termination of Gaussian 16 at Sat Aug 22 16:52:21 2020.
