 Entering Gaussian System, Link 0=g16
 Input=azadicarboxylate_4_conf9123.com
 Output=azadicarboxylate_4_conf9123.log
 Initial command:
 /opt/export//g16/l1.exe "/scratch/bjs4/job.110784/Gau-110786.inp" -scrdir="/scratch/bjs4/job.110784/"
 Entering Link 1 = /opt/export//g16/l1.exe PID=    110787.
  
 Copyright (c) 1988,1990,1992,1993,1995,1998,2003,2009,2016,
            Gaussian, Inc.  All Rights Reserved.
  
 This is part of the Gaussian(R) 16 program.  It is based on
 the Gaussian(R) 09 system (copyright 2009, Gaussian, Inc.),
 the Gaussian(R) 03 system (copyright 2003, Gaussian, Inc.),
 the Gaussian(R) 98 system (copyright 1998, Gaussian, Inc.),
 the Gaussian(R) 94 system (copyright 1995, Gaussian, Inc.),
 the Gaussian 92(TM) system (copyright 1992, Gaussian, Inc.),
 the Gaussian 90(TM) system (copyright 1990, Gaussian, Inc.),
 the Gaussian 88(TM) system (copyright 1988, Gaussian, Inc.),
 the Gaussian 86(TM) system (copyright 1986, Carnegie Mellon
 University), and the Gaussian 82(TM) system (copyright 1983,
 Carnegie Mellon University). Gaussian is a federally registered
 trademark of Gaussian, Inc.
  
 This software contains proprietary and confidential information,
 including trade secrets, belonging to Gaussian, Inc.
  
 This software is provided under written license and may be
 used, copied, transmitted, or stored only in accord with that
 written license.
  
 The following legend is applicable only to US Government
 contracts under FAR:
  
                    RESTRICTED RIGHTS LEGEND
  
 Use, reproduction and disclosure by the US Government is
 subject to restrictions as set forth in subparagraphs (a)
 and (c) of the Commercial Computer Software - Restricted
 Rights clause in FAR 52.227-19.
  
 Gaussian, Inc.
 340 Quinnipiac St., Bldg. 40, Wallingford CT 06492
  
  
 ---------------------------------------------------------------
 Warning -- This program may not be used in any manner that
 competes with the business of Gaussian, Inc. or will provide
 assistance to any competitor of Gaussian, Inc.  The licensee
 of this program is prohibited from giving any competitor of
 Gaussian, Inc. access to this program.  By using this program,
 the user acknowledges that Gaussian, Inc. is engaged in the
 business of creating and licensing software in the field of
 computational chemistry and represents and warrants to the
 licensee that it is not a competitor of Gaussian, Inc. and that
 it will not use this program in any manner prohibited above.
 ---------------------------------------------------------------
  

 Cite this work as:
 Gaussian 16, Revision A.03,
 M. J. Frisch, G. W. Trucks, H. B. Schlegel, G. E. Scuseria, 
 M. A. Robb, J. R. Cheeseman, G. Scalmani, V. Barone, 
 G. A. Petersson, H. Nakatsuji, X. Li, M. Caricato, A. V. Marenich, 
 J. Bloino, B. G. Janesko, R. Gomperts, B. Mennucci, H. P. Hratchian, 
 J. V. Ortiz, A. F. Izmaylov, J. L. Sonnenberg, D. Williams-Young, 
 F. Ding, F. Lipparini, F. Egidi, J. Goings, B. Peng, A. Petrone, 
 T. Henderson, D. Ranasinghe, V. G. Zakrzewski, J. Gao, N. Rega, 
 G. Zheng, W. Liang, M. Hada, M. Ehara, K. Toyota, R. Fukuda, 
 J. Hasegawa, M. Ishida, T. Nakajima, Y. Honda, O. Kitao, H. Nakai, 
 T. Vreven, K. Throssell, J. A. Montgomery, Jr., J. E. Peralta, 
 F. Ogliaro, M. J. Bearpark, J. J. Heyd, E. N. Brothers, K. N. Kudin, 
 V. N. Staroverov, T. A. Keith, R. Kobayashi, J. Normand, 
 K. Raghavachari, A. P. Rendell, J. C. Burant, S. S. Iyengar, 
 J. Tomasi, M. Cossi, J. M. Millam, M. Klene, C. Adamo, R. Cammi, 
 J. W. Ochterski, R. L. Martin, K. Morokuma, O. Farkas, 
 J. B. Foresman, and D. J. Fox, Gaussian, Inc., Wallingford CT, 2016.
 
 ******************************************
 Gaussian 16:  ES64L-G16RevA.03 25-Dec-2016
                22-Aug-2020 
 ******************************************
 %nprocshared=5
 Will use up to    5 processors via shared memory.
 %Mem=10GB
 %Chk=azadicarboxylate_4_conf91.chk
 ---------------------------------
 # opt=CalcAll B3LYP/6-31G* scf=qc
 ---------------------------------
 1/10=4,18=20,19=15,26=3,38=1/1,3;
 2/9=110,12=2,17=6,18=5,40=1/2;
 3/5=1,6=6,7=1,11=2,25=1,30=1,71=2,74=-5,140=1/1,2,3;
 4//1;
 5/5=2,8=3,38=5/8;
 8/6=4,10=90,11=11/1;
 11/6=1,8=1,9=11,15=111,16=1/1,2,10;
 10/6=1/2;
 6/7=2,8=2,9=2,10=2,18=1,28=1/1;
 7/10=1,25=1/1,2,3,16;
 1/10=4,18=20,19=15,26=3/3(3);
 2/9=110/2;
 7/8=1,9=1,25=1,44=-1/16;
 99//99;
 2/9=110/2;
 3/5=1,6=6,7=1,11=2,25=1,30=1,71=2,74=-5,140=1/1,2,3;
 4/5=5,16=3,69=1/1;
 5/5=2,8=3,38=5/8;
 8/6=4,10=90,11=11/1;
 11/6=1,8=1,9=11,15=111,16=1/1,2,10;
 10/6=1/2;
 7/10=1,25=1/1,2,3,16;
 1/10=4,18=20,19=15,26=3/3(-8);
 2/9=110/2;
 6/7=2,8=2,9=2,10=2,18=1,19=2,28=1/1;
 7/8=1,9=1,25=1,44=-1/16;
 99//99;
 -------------------
 Title Card Required
 -------------------
 Symbolic Z-matrix:
 Charge =  0 Multiplicity = 1
 C                    -2.83157  -0.33339  -2.37959 
 C                    -3.15662   0.01485  -0.94516 
 O1                   -3.74694   1.31968  -0.86218 
 C2                   -5.0001    1.3961   -0.3376 
 O3                   -5.64075   0.42951   0.06066 
 N4                   -5.3965    2.7153   -0.3106 
 N5                   -6.637     2.8452   -0.4364 
 C6                   -7.0368    4.1615   -0.3722 
 O7                   -8.11045   4.58306   0.0457 
 O8                   -6.05026   4.95121  -0.87767 
 C                    -6.30427   6.36224  -0.91414 
 C                    -7.50779   6.66744  -1.77632 
 C                    -8.2271    5.65055  -2.42122 
 C                    -9.34322   5.95476  -3.20378 
 C                    -9.76486   7.27592  -3.3365 
 C                    -9.07855   8.29287  -2.67732 
 C                    -7.96035   7.99055  -1.89752 
 C                    -1.58527  -0.02609  -2.94552 
 C                    -1.30169  -0.36723  -4.27001 
 C                    -2.25223  -1.03535  -5.03874 
 C                    -3.48257  -1.37395  -4.48066 
 C                    -3.76891  -1.03057  -3.15769 
 H                    -2.22345   0.03786  -0.37147 
 H                    -3.79156  -0.76263  -0.5061 
 H                    -5.43946   6.93663  -1.26298 
 H                    -6.51904   6.68496   0.11116 
 H                    -7.9197    4.61112  -2.3238 
 H                    -9.88342   5.15914  -3.71054 
 H                    -10.63024   7.51213  -3.95061 
 H                    -9.41285   9.323    -2.77162 
 H                    -7.44092   8.79968  -1.38755 
 H                    -0.82596   0.48797  -2.35982 
 H                    -0.33765  -0.11033  -4.70163 
 H                    -2.03262  -1.29494  -6.07108 
 H                    -4.22111  -1.90455  -5.07623 
 H                    -4.73454  -1.3082   -2.73993 
 

 GradGradGradGradGradGradGradGradGradGradGradGradGradGradGradGradGradGrad
 Berny optimization.
 Initialization pass.
                           ----------------------------
                           !    Initial Parameters    !
                           ! (Angstroms and Degrees)  !
 --------------------------                            --------------------------
 ! Name  Definition              Value          Derivative Info.                !
 --------------------------------------------------------------------------------
 ! R1    R(1,2)                  1.5115         calculate D2E/DX2 analytically  !
 ! R2    R(1,18)                 1.4028         calculate D2E/DX2 analytically  !
 ! R3    R(1,22)                 1.4036         calculate D2E/DX2 analytically  !
 ! R4    R(2,3)                  1.4346         calculate D2E/DX2 analytically  !
 ! R5    R(2,23)                 1.0957         calculate D2E/DX2 analytically  !
 ! R6    R(2,24)                 1.0956         calculate D2E/DX2 analytically  !
 ! R7    R(3,4)                  1.3607         calculate D2E/DX2 analytically  !
 ! R8    R(4,5)                  1.2261         calculate D2E/DX2 analytically  !
 ! R9    R(4,6)                  1.3777         calculate D2E/DX2 analytically  !
 ! R10   R(6,7)                  1.2536         calculate D2E/DX2 analytically  !
 ! R11   R(7,8)                  1.3772         calculate D2E/DX2 analytically  !
 ! R12   R(8,9)                  1.2268         calculate D2E/DX2 analytically  !
 ! R13   R(8,10)                 1.361          calculate D2E/DX2 analytically  !
 ! R14   R(10,11)                1.4342         calculate D2E/DX2 analytically  !
 ! R15   R(11,12)                1.5116         calculate D2E/DX2 analytically  !
 ! R16   R(11,25)                1.0952         calculate D2E/DX2 analytically  !
 ! R17   R(11,26)                1.0961         calculate D2E/DX2 analytically  !
 ! R18   R(12,13)                1.4026         calculate D2E/DX2 analytically  !
 ! R19   R(12,17)                1.4036         calculate D2E/DX2 analytically  !
 ! R20   R(13,14)                1.3967         calculate D2E/DX2 analytically  !
 ! R21   R(13,27)                1.0883         calculate D2E/DX2 analytically  !
 ! R22   R(14,15)                1.3931         calculate D2E/DX2 analytically  !
 ! R23   R(14,28)                1.087          calculate D2E/DX2 analytically  !
 ! R24   R(15,16)                1.3927         calculate D2E/DX2 analytically  !
 ! R25   R(15,29)                1.0871         calculate D2E/DX2 analytically  !
 ! R26   R(16,17)                1.3964         calculate D2E/DX2 analytically  !
 ! R27   R(16,30)                1.0871         calculate D2E/DX2 analytically  !
 ! R28   R(17,31)                1.0884         calculate D2E/DX2 analytically  !
 ! R29   R(18,19)                1.3968         calculate D2E/DX2 analytically  !
 ! R30   R(18,32)                1.0881         calculate D2E/DX2 analytically  !
 ! R31   R(19,20)                1.3931         calculate D2E/DX2 analytically  !
 ! R32   R(19,33)                1.087          calculate D2E/DX2 analytically  !
 ! R33   R(20,21)                1.3928         calculate D2E/DX2 analytically  !
 ! R34   R(20,34)                1.0869         calculate D2E/DX2 analytically  !
 ! R35   R(21,22)                1.3965         calculate D2E/DX2 analytically  !
 ! R36   R(21,35)                1.0871         calculate D2E/DX2 analytically  !
 ! R37   R(22,36)                1.0881         calculate D2E/DX2 analytically  !
 ! A1    A(2,1,18)             121.5635         calculate D2E/DX2 analytically  !
 ! A2    A(2,1,22)             119.7971         calculate D2E/DX2 analytically  !
 ! A3    A(18,1,22)            118.5847         calculate D2E/DX2 analytically  !
 ! A4    A(1,2,3)              110.6683         calculate D2E/DX2 analytically  !
 ! A5    A(1,2,23)             108.5779         calculate D2E/DX2 analytically  !
 ! A6    A(1,2,24)             109.9652         calculate D2E/DX2 analytically  !
 ! A7    A(3,2,23)             107.5229         calculate D2E/DX2 analytically  !
 ! A8    A(3,2,24)             112.5691         calculate D2E/DX2 analytically  !
 ! A9    A(23,2,24)            107.3768         calculate D2E/DX2 analytically  !
 ! A10   A(2,3,4)              116.8959         calculate D2E/DX2 analytically  !
 ! A11   A(3,4,5)              124.2061         calculate D2E/DX2 analytically  !
 ! A12   A(3,4,6)              109.0454         calculate D2E/DX2 analytically  !
 ! A13   A(5,4,6)              126.7373         calculate D2E/DX2 analytically  !
 ! A14   A(4,6,7)              112.4552         calculate D2E/DX2 analytically  !
 ! A15   A(6,7,8)              112.4347         calculate D2E/DX2 analytically  !
 ! A16   A(7,8,9)              126.7534         calculate D2E/DX2 analytically  !
 ! A17   A(7,8,10)             109.0772         calculate D2E/DX2 analytically  !
 ! A18   A(9,8,10)             124.1583         calculate D2E/DX2 analytically  !
 ! A19   A(8,10,11)            116.8676         calculate D2E/DX2 analytically  !
 ! A20   A(10,11,12)           110.7422         calculate D2E/DX2 analytically  !
 ! A21   A(10,11,25)           112.5963         calculate D2E/DX2 analytically  !
 ! A22   A(10,11,26)           107.4925         calculate D2E/DX2 analytically  !
 ! A23   A(12,11,25)           109.9455         calculate D2E/DX2 analytically  !
 ! A24   A(12,11,26)           108.5462         calculate D2E/DX2 analytically  !
 ! A25   A(25,11,26)           107.3516         calculate D2E/DX2 analytically  !
 ! A26   A(11,12,13)           121.6127         calculate D2E/DX2 analytically  !
 ! A27   A(11,12,17)           119.7546         calculate D2E/DX2 analytically  !
 ! A28   A(13,12,17)           118.5782         calculate D2E/DX2 analytically  !
 ! A29   A(12,13,14)           120.6322         calculate D2E/DX2 analytically  !
 ! A30   A(12,13,27)           120.4258         calculate D2E/DX2 analytically  !
 ! A31   A(14,13,27)           118.941          calculate D2E/DX2 analytically  !
 ! A32   A(13,14,15)           120.1189         calculate D2E/DX2 analytically  !
 ! A33   A(13,14,28)           119.9284         calculate D2E/DX2 analytically  !
 ! A34   A(15,14,28)           119.9528         calculate D2E/DX2 analytically  !
 ! A35   A(14,15,16)           119.8823         calculate D2E/DX2 analytically  !
 ! A36   A(14,15,29)           120.0525         calculate D2E/DX2 analytically  !
 ! A37   A(16,15,29)           120.0648         calculate D2E/DX2 analytically  !
 ! A38   A(15,16,17)           120.0552         calculate D2E/DX2 analytically  !
 ! A39   A(15,16,30)           119.9547         calculate D2E/DX2 analytically  !
 ! A40   A(17,16,30)           119.99           calculate D2E/DX2 analytically  !
 ! A41   A(12,17,16)           120.6974         calculate D2E/DX2 analytically  !
 ! A42   A(12,17,31)           120.4278         calculate D2E/DX2 analytically  !
 ! A43   A(16,17,31)           118.8742         calculate D2E/DX2 analytically  !
 ! A44   A(1,18,19)            120.6236         calculate D2E/DX2 analytically  !
 ! A45   A(1,18,32)            120.4192         calculate D2E/DX2 analytically  !
 ! A46   A(19,18,32)           118.9562         calculate D2E/DX2 analytically  !
 ! A47   A(18,19,20)           120.1213         calculate D2E/DX2 analytically  !
 ! A48   A(18,19,33)           119.9227         calculate D2E/DX2 analytically  !
 ! A49   A(20,19,33)           119.956          calculate D2E/DX2 analytically  !
 ! A50   A(19,20,21)           119.8816         calculate D2E/DX2 analytically  !
 ! A51   A(19,20,34)           120.0515         calculate D2E/DX2 analytically  !
 ! A52   A(21,20,34)           120.0666         calculate D2E/DX2 analytically  !
 ! A53   A(20,21,22)           120.0632         calculate D2E/DX2 analytically  !
 ! A54   A(20,21,35)           119.9532         calculate D2E/DX2 analytically  !
 ! A55   A(22,21,35)           119.9836         calculate D2E/DX2 analytically  !
 ! A56   A(1,22,21)            120.6893         calculate D2E/DX2 analytically  !
 ! A57   A(1,22,36)            120.4326         calculate D2E/DX2 analytically  !
 ! A58   A(21,22,36)           118.8773         calculate D2E/DX2 analytically  !
 ! D1    D(18,1,2,3)            90.3534         calculate D2E/DX2 analytically  !
 ! D2    D(18,1,2,23)          -27.4397         calculate D2E/DX2 analytically  !
 ! D3    D(18,1,2,24)         -144.6541         calculate D2E/DX2 analytically  !
 ! D4    D(22,1,2,3)           -92.3758         calculate D2E/DX2 analytically  !
 ! D5    D(22,1,2,23)          149.8311         calculate D2E/DX2 analytically  !
 ! D6    D(22,1,2,24)           32.6167         calculate D2E/DX2 analytically  !
 ! D7    D(2,1,18,19)          179.4497         calculate D2E/DX2 analytically  !
 ! D8    D(2,1,18,32)           -0.9256         calculate D2E/DX2 analytically  !
 ! D9    D(22,1,18,19)           2.1468         calculate D2E/DX2 analytically  !
 ! D10   D(22,1,18,32)        -178.2285         calculate D2E/DX2 analytically  !
 ! D11   D(2,1,22,21)         -179.3351         calculate D2E/DX2 analytically  !
 ! D12   D(2,1,22,36)            0.9782         calculate D2E/DX2 analytically  !
 ! D13   D(18,1,22,21)          -1.9833         calculate D2E/DX2 analytically  !
 ! D14   D(18,1,22,36)         178.33           calculate D2E/DX2 analytically  !
 ! D15   D(1,2,3,4)            120.0001         calculate D2E/DX2 analytically  !
 ! D16   D(23,2,3,4)          -121.5632         calculate D2E/DX2 analytically  !
 ! D17   D(24,2,3,4)            -3.5036         calculate D2E/DX2 analytically  !
 ! D18   D(2,3,4,5)             -0.0004         calculate D2E/DX2 analytically  !
 ! D19   D(2,3,4,6)            178.8513         calculate D2E/DX2 analytically  !
 ! D20   D(3,4,6,7)            149.6469         calculate D2E/DX2 analytically  !
 ! D21   D(5,4,6,7)            -31.5382         calculate D2E/DX2 analytically  !
 ! D22   D(4,6,7,8)            178.3141         calculate D2E/DX2 analytically  !
 ! D23   D(6,7,8,9)           -149.6469         calculate D2E/DX2 analytically  !
 ! D24   D(6,7,8,10)            31.5271         calculate D2E/DX2 analytically  !
 ! D25   D(7,8,10,11)          178.8629         calculate D2E/DX2 analytically  !
 ! D26   D(9,8,10,11)           -0.0004         calculate D2E/DX2 analytically  !
 ! D27   D(8,10,11,12)         -60.7054         calculate D2E/DX2 analytically  !
 ! D28   D(8,10,11,25)         175.7413         calculate D2E/DX2 analytically  !
 ! D29   D(8,10,11,26)          57.7163         calculate D2E/DX2 analytically  !
 ! D30   D(10,11,12,13)         -0.0007         calculate D2E/DX2 analytically  !
 ! D31   D(10,11,12,17)        177.2759         calculate D2E/DX2 analytically  !
 ! D32   D(25,11,12,13)        125.065          calculate D2E/DX2 analytically  !
 ! D33   D(25,11,12,17)        -57.6584         calculate D2E/DX2 analytically  !
 ! D34   D(26,11,12,13)       -117.7805         calculate D2E/DX2 analytically  !
 ! D35   D(26,11,12,17)         59.4961         calculate D2E/DX2 analytically  !
 ! D36   D(11,12,13,14)        179.439          calculate D2E/DX2 analytically  !
 ! D37   D(11,12,13,27)         -0.9223         calculate D2E/DX2 analytically  !
 ! D38   D(17,12,13,14)          2.1313         calculate D2E/DX2 analytically  !
 ! D39   D(17,12,13,27)       -178.23           calculate D2E/DX2 analytically  !
 ! D40   D(11,12,17,16)       -179.3178         calculate D2E/DX2 analytically  !
 ! D41   D(11,12,17,31)          0.974          calculate D2E/DX2 analytically  !
 ! D42   D(13,12,17,16)         -1.9588         calculate D2E/DX2 analytically  !
 ! D43   D(13,12,17,31)        178.333          calculate D2E/DX2 analytically  !
 ! D44   D(12,13,14,15)         -0.8832         calculate D2E/DX2 analytically  !
 ! D45   D(12,13,14,28)        179.0846         calculate D2E/DX2 analytically  !
 ! D46   D(27,13,14,15)        179.4728         calculate D2E/DX2 analytically  !
 ! D47   D(27,13,14,28)         -0.5595         calculate D2E/DX2 analytically  !
 ! D48   D(13,14,15,16)         -0.5833         calculate D2E/DX2 analytically  !
 ! D49   D(13,14,15,29)        179.6395         calculate D2E/DX2 analytically  !
 ! D50   D(28,14,15,16)        179.449          calculate D2E/DX2 analytically  !
 ! D51   D(28,14,15,29)         -0.3282         calculate D2E/DX2 analytically  !
 ! D52   D(14,15,16,17)          0.7559         calculate D2E/DX2 analytically  !
 ! D53   D(14,15,16,30)       -179.355          calculate D2E/DX2 analytically  !
 ! D54   D(29,15,16,17)       -179.467          calculate D2E/DX2 analytically  !
 ! D55   D(29,15,16,30)          0.4221         calculate D2E/DX2 analytically  !
 ! D56   D(15,16,17,12)          0.5346         calculate D2E/DX2 analytically  !
 ! D57   D(15,16,17,31)       -179.7528         calculate D2E/DX2 analytically  !
 ! D58   D(30,16,17,12)       -179.3545         calculate D2E/DX2 analytically  !
 ! D59   D(30,16,17,31)          0.3581         calculate D2E/DX2 analytically  !
 ! D60   D(1,18,19,20)          -0.8862         calculate D2E/DX2 analytically  !
 ! D61   D(1,18,19,33)         179.0816         calculate D2E/DX2 analytically  !
 ! D62   D(32,18,19,20)        179.4837         calculate D2E/DX2 analytically  !
 ! D63   D(32,18,19,33)         -0.5485         calculate D2E/DX2 analytically  !
 ! D64   D(18,19,20,21)         -0.5837         calculate D2E/DX2 analytically  !
 ! D65   D(18,19,20,34)        179.6312         calculate D2E/DX2 analytically  !
 ! D66   D(33,19,20,21)        179.4485         calculate D2E/DX2 analytically  !
 ! D67   D(33,19,20,34)         -0.3366         calculate D2E/DX2 analytically  !
 ! D68   D(19,20,21,22)          0.7474         calculate D2E/DX2 analytically  !
 ! D69   D(19,20,21,35)       -179.3557         calculate D2E/DX2 analytically  !
 ! D70   D(34,20,21,22)       -179.4676         calculate D2E/DX2 analytically  !
 ! D71   D(34,20,21,35)          0.4294         calculate D2E/DX2 analytically  !
 ! D72   D(20,21,22,1)           0.5558         calculate D2E/DX2 analytically  !
 ! D73   D(20,21,22,36)       -179.7527         calculate D2E/DX2 analytically  !
 ! D74   D(35,21,22,1)        -179.3411         calculate D2E/DX2 analytically  !
 ! D75   D(35,21,22,36)          0.3503         calculate D2E/DX2 analytically  !
 --------------------------------------------------------------------------------
 Trust Radius=3.00D-01 FncErr=1.00D-07 GrdErr=1.00D-06 EigMax=2.50D+02 EigMin=1.00D-04
 Number of steps in this run=    180 maximum allowed number of steps=    216.
 GradGradGradGradGradGradGradGradGradGradGradGradGradGradGradGradGradGrad

                          Input orientation:                          
 ---------------------------------------------------------------------
 Center     Atomic      Atomic             Coordinates (Angstroms)
 Number     Number       Type             X           Y           Z
 ---------------------------------------------------------------------
      1          6           0       -2.831570   -0.333390   -2.379590
      2          6           0       -3.156620    0.014850   -0.945160
      3          8           0       -3.746940    1.319680   -0.862180
      4          6           0       -5.000100    1.396100   -0.337600
      5          8           0       -5.640750    0.429510    0.060660
      6          7           0       -5.396500    2.715300   -0.310600
      7          7           0       -6.637000    2.845200   -0.436400
      8          6           0       -7.036800    4.161500   -0.372200
      9          8           0       -8.110450    4.583060    0.045700
     10          8           0       -6.050260    4.951210   -0.877670
     11          6           0       -6.304270    6.362240   -0.914140
     12          6           0       -7.507790    6.667440   -1.776320
     13          6           0       -8.227100    5.650550   -2.421220
     14          6           0       -9.343220    5.954760   -3.203780
     15          6           0       -9.764860    7.275920   -3.336500
     16          6           0       -9.078550    8.292870   -2.677320
     17          6           0       -7.960350    7.990550   -1.897520
     18          6           0       -1.585270   -0.026090   -2.945520
     19          6           0       -1.301690   -0.367230   -4.270010
     20          6           0       -2.252230   -1.035350   -5.038740
     21          6           0       -3.482570   -1.373950   -4.480660
     22          6           0       -3.768910   -1.030570   -3.157690
     23          1           0       -2.223450    0.037860   -0.371470
     24          1           0       -3.791560   -0.762630   -0.506100
     25          1           0       -5.439460    6.936630   -1.262980
     26          1           0       -6.519040    6.684960    0.111160
     27          1           0       -7.919700    4.611120   -2.323800
     28          1           0       -9.883420    5.159140   -3.710540
     29          1           0      -10.630240    7.512130   -3.950610
     30          1           0       -9.412850    9.323000   -2.771620
     31          1           0       -7.440920    8.799680   -1.387550
     32          1           0       -0.825960    0.487970   -2.359820
     33          1           0       -0.337650   -0.110330   -4.701630
     34          1           0       -2.032620   -1.294940   -6.071080
     35          1           0       -4.221110   -1.904550   -5.076230
     36          1           0       -4.734540   -1.308200   -2.739930
 ---------------------------------------------------------------------
                    Distance matrix (angstroms):
                    1          2          3          4          5
     1  C    0.000000
     2  C    1.511462   0.000000
     3  O    2.423443   1.434554   0.000000
     4  C    3.444326   2.382310   1.360674   0.000000
     5  O    3.798464   2.711922   2.287040   1.226108   0.000000
     6  N    4.489331   3.565411   2.230032   1.377734   2.328589
     7  N    5.325478   4.514727   3.295595   2.188400   2.659914
     8  C    6.474381   5.707783   4.374837   3.434644   4.008001
     9  O    7.610525   6.811078   5.523958   4.469666   4.832351
    10  O    6.367317   5.722356   4.300411   3.746107   4.636155
    11  C    7.683661   7.085056   5.654206   5.166798   6.048783
    12  C    8.440532   7.992525   6.601377   6.012109   6.765508
    13  C    8.057358   7.723318   6.423307   5.731958   6.333103
    14  C    9.089648   8.868930   7.634488   6.918024   7.408997
    15  C   10.338655  10.104973   8.821248   8.140554   8.684602
    16  C   10.654847  10.324497   8.963603   8.347064   9.008187
    17  C    9.789012   9.359199   7.957717   7.394809   8.147658
    18  C    1.402845   2.544063   3.290018   4.526029   5.068689
    19  C    2.432152   3.826405   4.520865   5.679033   6.181985
    20  C    2.810598   4.321833   5.022348   5.963510   6.295376
    21  C    2.433323   3.812449   4.518731   5.209704   5.341703
    22  C    1.403605   2.522517   3.285350   3.918860   3.999174
    23  H    2.130770   1.095653   2.050581   3.091237   3.466708
    24  H    2.148440   1.095627   2.113007   2.479733   2.271986
    25  H    7.803916   7.295437   5.880084   5.634433   6.643429
    26  H    8.310145   7.544007   6.117038   5.520924   6.317009
    27  H    7.095094   6.761159   5.511972   4.775501   5.325892
    28  H    9.037029   8.908473   7.778881   7.027376   7.388613
    29  H   11.173162  11.004405   9.760361   9.064113   9.547188
    30  H   11.692425  11.363011   9.990076   9.393219  10.067011
    31  H   10.278289   9.783873   8.358941   7.865939   8.683183
    32  H    2.167370   2.767143   3.386265   4.726258   5.389280
    33  H    3.414859   4.698226   5.330062   6.561443   7.147986
    34  H    3.897435   5.408695   6.075177   6.994314   7.320558
    35  H    3.416319   4.677924   5.327168   5.827155   5.818149
    36  H    2.168270   2.731573   3.377433   3.626975   3.418210
                    6          7          8          9         10
     6  N    0.000000
     7  N    1.253611   0.000000
     8  C    2.187664   1.377174   0.000000
     9  O    3.313759   2.328869   1.226816   0.000000
    10  O    2.397554   2.230305   1.361030   2.287472   0.000000
    11  C    3.806373   3.564900   2.381923   2.710915   1.434175
    12  C    4.714371   4.142847   2.910862   2.833301   2.424337
    13  C    4.591591   3.786544   2.798672   2.690509   2.758669
    14  C    5.868662   4.965016   4.068562   3.736362   4.154694
    15  C    7.002706   6.150233   5.092052   4.629022   5.024776
    16  C    7.090003   6.376519   5.152722   4.702632   4.855509
    17  C    6.076175   5.510059   4.223881   3.925509   3.731772
    18  C    5.383632   6.329294   7.340100   8.530512   6.998975
    19  C    6.476603   7.313126   8.282138   9.459912   7.895739
    20  C    6.805080   7.447577   8.466165   9.577933   8.220610
    21  C    6.146096   6.641362   7.755849   8.797225   7.718952
    22  C    4.978606   5.536511   6.737629   7.786111   6.795936
    23  H    4.152185   5.231137   6.338197   7.449137   6.248337
    24  H    3.835368   4.595413   5.898862   6.894468   6.155303
    25  H    4.327644   4.342480   3.323602   3.792904   2.112684
    26  H    4.146827   3.880399   2.620985   2.637206   2.050226
    27  H    3.743480   2.885493   2.188701   2.377331   2.387836
    28  H    6.137133   5.158833   4.499227   4.193403   4.770902
    29  H    7.978176   7.076431   6.078203   5.558713   6.080912
    30  H    8.114763   7.424317   6.167975   5.665736   5.831518
    31  H    6.508391   6.083322   4.765182   4.503594   4.123668
    32  H    5.481801   6.559288   7.484650   8.695981   7.029267
    33  H    7.270302   8.161443   9.048265  10.246047   8.536731
    34  H    7.783370   8.372018   9.343007  10.435799   9.062413
    35  H    6.740607   7.065739   8.176367   9.135109   8.244704
    36  H    4.746408   5.116281   6.389379   7.339172   6.661782
                   11         12         13         14         15
    11  C    0.000000
    12  C    1.511609   0.000000
    13  C    2.544615   1.402629   0.000000
    14  C    3.826710   2.431945   1.396663   0.000000
    15  C    4.321842   2.810476   2.417493   1.393147   0.000000
    16  C    3.812186   2.433333   2.787904   2.411217   1.392741
    17  C    2.522108   1.403610   2.412678   2.786231   2.416116
    18  C    8.197940   9.013690   8.752887   9.799135  10.971687
    19  C    9.031801   9.706737   9.359113  10.284484  11.441784
    20  C    9.389126   9.879133   9.340864  10.124764  11.332010
    21  C    8.973889   9.390410   8.723271   9.470355  10.751582
    22  C    8.131126   8.668723   8.065681   8.936996  10.246032
    23  H    7.546215   8.593555   8.470394   9.681054  10.865256
    24  H    7.565975   8.404152   8.029357   9.122595  10.407198
    25  H    1.095221   2.148015   3.281228   4.468794   4.808710
    26  H    1.096136   2.130848   3.224968   4.415655   4.771891
    27  H    2.768244   2.167454   1.088301   2.146193   3.395782
    28  H    4.698683   3.414644   2.155743   1.087029   2.152840
    29  H    5.408920   3.897529   3.402881   2.153968   1.087110
    30  H    4.677564   3.416413   3.875006   3.396565   2.152565
    31  H    2.730788   2.168424   3.406402   3.874404   3.394252
    32  H    8.161429   9.119933   9.024017  10.155874  11.266504
    33  H    9.583308  10.291089  10.031522  10.960345  12.053736
    34  H   10.172189  10.574590   9.996644  10.687583  11.862761
    35  H    9.486958   9.755546   8.954137   9.566129  10.864661
    36  H    8.039478   8.498841   7.792545   8.614272   9.967303
                   16         17         18         19         20
    16  C    0.000000
    17  C    1.396373   0.000000
    18  C   11.199387  10.295944   0.000000
    19  C   11.747917  10.946184   1.396806   0.000000
    20  C   11.797908  11.131791   2.417646   1.393146   0.000000
    21  C   11.314346  10.696588   2.788033   2.411244   1.392781
    22  C   10.740092  10.026804   2.412940   2.786476   2.416338
    23  H   10.975178   9.924018   2.652753   4.026457   4.789156
    24  H   10.708340   9.794540   3.370605   4.530211   4.794657
    25  H    4.133125   2.805045   8.134199   8.916823   9.379087
    26  H    4.112431   2.795842   8.872630   9.805548  10.214222
    27  H    3.875976   3.406452   7.874977   8.507042   8.448298
    28  H    3.396413   3.873257   9.814844  10.222517   9.918210
    29  H    2.153733   3.401820  11.817210  12.215080  12.018090
    30  H    1.087114   2.156207  12.194537  12.725433  12.794910
    31  H    2.145273   1.088379  10.705612  11.403112  11.703910
    32  H   11.363209  10.363491   1.088050   2.146279   3.395786
    33  H   12.292881  11.471392   2.155823   1.087045   2.152887
    34  H   12.372907  11.780361   3.402826   2.153778   1.086895
    35  H   11.547158  11.045321   3.875073   3.396521   2.152534
    36  H   10.538258   9.878373   3.406461   3.874407   3.394236
                   21         22         23         24         25
    21  C    0.000000
    22  C    1.396478   0.000000
    23  H    4.523719   3.360508   0.000000
    24  H    4.033152   2.665189   1.765752   0.000000
    25  H    9.124068   8.358046   7.663585   7.909933   0.000000
    26  H    9.759661   8.819184   7.928995   7.955297   1.765529
    27  H    7.756367   7.053587   7.561320   7.015894   3.561590
    28  H    9.178520   8.718107   9.800614   9.080008   5.375761
    29  H   11.416329  10.985640  11.804621  11.274034   5.873564
    30  H   12.349647  11.798285  11.985909  11.766538   4.874278
    31  H   11.346304  10.641939  10.248117  10.272904   2.737209
    32  H    3.875859   3.406393   2.471662   3.714170   8.004540
    33  H    3.396481   3.873517   4.725303   5.473341   9.354808
    34  H    2.153609   3.401828   5.856477   5.860565  10.123395
    35  H    1.087052   2.156182   5.467940   4.730178   9.705242
    36  H    2.145202   1.088137   3.705004   2.485328   8.405684
                   26         27         28         29         30
    26  H    0.000000
    27  H    3.491660   0.000000
    28  H    5.315315   2.465678   0.000000
    29  H    5.838163   4.290617   2.480310   0.000000
    30  H    4.862490   4.963049   4.294268   2.480183   0.000000
    31  H    2.751006   4.318545   4.961413   4.289385   2.465364
    32  H    8.770381   8.205048  10.280168  12.165251  12.327287
    33  H   10.370559   9.243032  10.948575  12.829783  13.231474
    34  H   11.046577   9.142284  10.433713  12.489193  13.345219
    35  H   10.294133   7.981816   9.155467  11.446302  12.582658
    36  H    8.672010   6.734743   8.323433  10.678167  11.615077
                   31         32         33         34         35
    31  H    0.000000
    32  H   10.667124   0.000000
    33  H   11.867091   2.465864   0.000000
    34  H   12.372814   4.290483   2.480245   0.000000
    35  H   11.770900   4.962870   4.294277   2.480089   0.000000
    36  H   10.550956   4.318299   4.961431   4.289185   2.465267
                   36
    36  H    0.000000
 Stoichiometry    C16H14N2O4
 Framework group  C1[X(C16H14N2O4)]
 Deg. of freedom   102
 Full point group                 C1      NOp   1
 Largest Abelian subgroup         C1      NOp   1
 Largest concise Abelian subgroup C1      NOp   1
                         Standard orientation:                         
 ---------------------------------------------------------------------
 Center     Atomic      Atomic             Coordinates (Angstroms)
 Number     Number       Type             X           Y           Z
 ---------------------------------------------------------------------
      1          6           0        4.395283    0.015306    0.174414
      2          6           0        3.766137   -1.355163    0.276920
      3          8           0        2.371752   -1.249520    0.597039
      4          6           0        1.493134   -1.778751   -0.297041
      5          8           0        1.821090   -2.330625   -1.341656
      6          7           0        0.211325   -1.612133    0.179775
      7          7           0       -0.630170   -1.490287   -0.741409
      8          6           0       -1.915852   -1.360933   -0.265073
      9          8           0       -2.945378   -1.729096   -0.821499
     10          8           0       -1.882829   -0.723788    0.937158
     11          6           0       -3.143482   -0.477949    1.575258
     12          6           0       -4.019501    0.398904    0.709994
     13          6           0       -3.584992    0.868866   -0.538087
     14          6           0       -4.415928    1.668450   -1.326046
     15          6           0       -5.697038    1.992754   -0.885089
     16          6           0       -6.153199    1.508098    0.338330
     17          6           0       -5.322184    0.711567    1.128778
     18          6           0        4.972303    0.643567    1.288106
     19          6           0        5.558595    1.905726    1.168588
     20          6           0        5.591868    2.546903   -0.067795
     21          6           0        5.050033    1.921930   -1.188359
     22          6           0        4.460470    0.661564   -1.069856
     23          1           0        4.251459   -1.901902    1.093005
     24          1           0        3.944246   -1.918527   -0.645737
     25          1           0       -3.032133   -0.030479    2.568677
     26          1           0       -3.640601   -1.446004    1.706619
     27          1           0       -2.591072    0.620198   -0.905083
     28          1           0       -4.062010    2.038716   -2.284836
     29          1           0       -6.340761    2.620029   -1.496608
     30          1           0       -7.156474    1.751789    0.678726
     31          1           0       -5.699696    0.339809    2.079487
     32          1           0        4.964307    0.156441    2.260987
     33          1           0        5.989149    2.388549    2.042185
     34          1           0        6.043016    3.531592   -0.158308
     35          1           0        5.084741    2.416669   -2.155680
     36          1           0        4.046788    0.189260   -1.958585
 ---------------------------------------------------------------------
 Rotational constants (GHZ):           0.5397111           0.1031250           0.0952687
 Standard basis: 6-31G(d) (6D, 7F)
 There are   358 symmetry adapted cartesian basis functions of A   symmetry.
 There are   358 symmetry adapted basis functions of A   symmetry.
   358 basis functions,   672 primitive gaussians,   358 cartesian basis functions
    78 alpha electrons       78 beta electrons
       nuclear repulsion energy      1606.6051168860 Hartrees.
 NAtoms=   36 NActive=   36 NUniq=   36 SFac= 1.00D+00 NAtFMM=   60 NAOKFM=F Big=F
 Integral buffers will be    131072 words long.
 Raffenetti 2 integral format.
 Two-electron integral symmetry is turned on.
 One-electron integrals computed using PRISM.
 NBasis=   358 RedAO= T EigKep=  4.64D-04  NBF=   358
 NBsUse=   358 1.00D-06 EigRej= -1.00D+00 NBFU=   358
 ExpMin= 1.61D-01 ExpMax= 5.48D+03 ExpMxC= 8.25D+02 IAcc=3 IRadAn=         5 AccDes= 0.00D+00
 Harris functional with IExCor=  402 and IRadAn=       5 diagonalized for initial guess.
 HarFok:  IExCor=  402 AccDes= 0.00D+00 IRadAn=         5 IDoV= 1 UseB2=F ITyADJ=14
 ICtDFT=  3500011 ScaDFX=  1.000000  1.000000  1.000000  1.000000
 FoFCou: FMM=F IPFlag=           0 FMFlag=      100000 FMFlg1=           0
         NFxFlg=           0 DoJE=T BraDBF=F KetDBF=T FulRan=T
         wScrn=  0.000000 ICntrl=       500 IOpCl=  0 I1Cent=   200000004 NGrid=           0
         NMat0=    1 NMatS0=      1 NMatT0=    0 NMatD0=    1 NMtDS0=    0 NMtDT0=    0
 Petite list used in FoFCou.
 Gradient too large for Newton-Raphson -- use scaled steepest descent instead.
     Minimum is close to point  2 DX=  1.58D-02 DF= -1.05D-03 DXR=  4.99D-02 DFR=  2.50D-03 which will be used.
 Gradient too large for Newton-Raphson -- use scaled steepest descent instead.
     Accept linear search using points  2 and  3.
 Gradient too large for Newton-Raphson -- use scaled steepest descent instead.
     Minimum is close to point  2 DX=  3.39D-02 DF= -7.61D-05 DXR=  7.80D-02 DFR=  6.13D-03 which will be used.
 Gradient too large for Newton-Raphson -- use scaled steepest descent instead.
     Minimum is close to point  2 DX=  4.23D-02 DF= -3.09D-05 DXR=  9.57D-02 DFR=  9.24D-03 which will be used.
 Gradient too large for Newton-Raphson -- use scaled steepest descent instead.
 Gradient too large for Newton-Raphson -- use scaled steepest descent instead.
     Accept linear search using points  1 and  2.
 Gradient too large for Newton-Raphson -- use scaled steepest descent instead.
     Minimum is close to point  3 DX=  5.37D-02 DF= -6.11D-07 DXR=  5.63D-02 DFR=  3.18D-03 which will be used.
 LinEq1:  Iter=  0 NonCon=     1 RMS=4.92D-05 Max=1.91D-03 NDo=     1
 AX will form     1 AO Fock derivatives at one time.
 LinEq1:  Iter=  1 NonCon=     1 RMS=6.72D-05 Max=6.50D-03 NDo=     1
 LinEq1:  Iter=  2 NonCon=     1 RMS=1.37D-05 Max=6.17D-04 NDo=     1
 LinEq1:  Iter=  3 NonCon=     1 RMS=1.33D-05 Max=8.88D-04 NDo=     1
 LinEq1:  Iter=  4 NonCon=     1 RMS=5.29D-06 Max=3.48D-04 NDo=     1
 LinEq1:  Iter=  5 NonCon=     1 RMS=4.51D-06 Max=2.75D-04 NDo=     1
 LinEq1:  Iter=  6 NonCon=     1 RMS=3.20D-06 Max=1.64D-04 NDo=     1
 LinEq1:  Iter=  7 NonCon=     1 RMS=2.84D-06 Max=1.51D-04 NDo=     1
 LinEq1:  Iter=  8 NonCon=     1 RMS=1.52D-06 Max=6.96D-05 NDo=     1
 LinEq1:  Iter=  9 NonCon=     1 RMS=9.20D-07 Max=3.31D-05 NDo=     1
 LinEq1:  Iter= 10 NonCon=     1 RMS=5.46D-07 Max=2.15D-05 NDo=     1
 LinEq1:  Iter= 11 NonCon=     1 RMS=3.10D-07 Max=8.28D-06 NDo=     1
 LinEq1:  Iter= 12 NonCon=     1 RMS=1.63D-07 Max=7.33D-06 NDo=     1
 LinEq1:  Iter= 13 NonCon=     1 RMS=9.27D-08 Max=5.00D-06 NDo=     1
 LinEq1:  Iter= 14 NonCon=     1 RMS=5.78D-08 Max=2.32D-06 NDo=     1
 LinEq1:  Iter= 15 NonCon=     1 RMS=3.68D-08 Max=2.39D-06 NDo=     1
 LinEq1:  Iter= 16 NonCon=     1 RMS=1.81D-08 Max=6.37D-07 NDo=     1
 LinEq1:  Iter= 17 NonCon=     0 RMS=7.64D-09 Max=2.05D-07 NDo=     1
 Linear equations converged to 2.090D-08 2.090D-07 after    17 iterations.
     Minimum is close to point  2 DX=  9.08D-04 DF= -1.48D-11 DXR=  9.07D-04 DFR=  8.25D-07 which will be used.
 LinEq1:  Iter=  0 NonCon=     1 RMS=1.35D-07 Max=5.37D-06 NDo=     1
 LinEq1:  Iter=  1 NonCon=     1 RMS=1.01D-07 Max=4.87D-06 NDo=     1
 LinEq1:  Iter=  2 NonCon=     1 RMS=1.15D-07 Max=6.98D-06 NDo=     1
 LinEq1:  Iter=  3 NonCon=     1 RMS=5.46D-08 Max=2.02D-06 NDo=     1
 LinEq1:  Iter=  4 NonCon=     1 RMS=3.73D-08 Max=1.94D-06 NDo=     1
 LinEq1:  Iter=  5 NonCon=     1 RMS=2.91D-08 Max=1.49D-06 NDo=     1
 LinEq1:  Iter=  6 NonCon=     1 RMS=2.52D-08 Max=1.39D-06 NDo=     1
 LinEq1:  Iter=  7 NonCon=     1 RMS=1.75D-08 Max=1.08D-06 NDo=     1
 LinEq1:  Iter=  8 NonCon=     1 RMS=1.21D-08 Max=4.74D-07 NDo=     1
 LinEq1:  Iter=  9 NonCon=     1 RMS=9.78D-09 Max=4.44D-07 NDo=     1
 LinEq1:  Iter= 10 NonCon=     1 RMS=6.60D-09 Max=1.70D-07 NDo=     1
 LinEq1:  Iter= 11 NonCon=     1 RMS=3.83D-09 Max=1.62D-07 NDo=     1
 LinEq1:  Iter= 12 NonCon=     1 RMS=2.80D-09 Max=1.13D-07 NDo=     1
 LinEq1:  Iter= 13 NonCon=     1 RMS=1.44D-09 Max=5.74D-08 NDo=     1
 LinEq1:  Iter= 14 NonCon=     1 RMS=8.52D-10 Max=2.57D-08 NDo=     1
 LinEq1:  Iter= 15 NonCon=     1 RMS=3.29D-10 Max=1.26D-08 NDo=     1
 LinEq1:  Iter= 16 NonCon=     1 RMS=2.59D-10 Max=1.24D-08 NDo=     1
 LinEq1:  Iter= 17 NonCon=     1 RMS=1.36D-10 Max=3.35D-09 NDo=     1
 LinEq1:  Iter= 18 NonCon=     1 RMS=5.87D-11 Max=1.68D-09 NDo=     1
 LinEq1:  Iter= 19 NonCon=     0 RMS=2.97D-11 Max=8.23D-10 NDo=     1
 Linear equations converged to 1.646D-10 1.646D-09 after    19 iterations.
 Restarting incremental Fock formation.
 SCF Done:  E(RB3LYP) =  -1028.44566491     a.u. after   10 cycles
            Convg  =    0.3134D-09                    57 Fock formations.
              S**2 =  0.0000                  -V/T =  2.0092
 DoSCS=F DFT=T ScalE2(SS,OS)=  1.000000  1.000000
 Range of M.O.s used for correlation:     1   358
 NBasis=   358 NAE=    78 NBE=    78 NFC=     0 NFV=     0
 NROrb=    358 NOA=    78 NOB=    78 NVA=   280 NVB=   280
 Symmetrizing basis deriv contribution to polar:
 IMax=3 JMax=2 DiffMx= 0.00D+00
 G2DrvN: will do    37 centers at a time, making    1 passes.
 Calling FoFCou, ICntrl=  3107 FMM=F I1Cent=   0 AccDes= 0.00D+00.
 End of G2Drv F.D. properties file   721 does not exist.
 End of G2Drv F.D. properties file   722 does not exist.
 End of G2Drv F.D. properties file   788 does not exist.
          IDoAtm=111111111111111111111111111111111111
          Differentiating once with respect to electric field.
                with respect to dipole field.
          Differentiating once with respect to nuclear coordinates.
 CalDSu exits because no D1Ps are significant.
          There are   111 degrees of freedom in the 1st order CPHF.  IDoFFX=6 NUNeed=     3.
    108 vectors produced by pass  0 Test12= 2.18D-14 1.00D-09 XBig12= 2.41D+02 6.03D+00.
 AX will form   108 AO Fock derivatives at one time.
    108 vectors produced by pass  1 Test12= 2.18D-14 1.00D-09 XBig12= 7.17D+01 2.18D+00.
    108 vectors produced by pass  2 Test12= 2.18D-14 1.00D-09 XBig12= 1.36D+00 1.86D-01.
    108 vectors produced by pass  3 Test12= 2.18D-14 1.00D-09 XBig12= 1.11D-02 7.64D-03.
    108 vectors produced by pass  4 Test12= 2.18D-14 1.00D-09 XBig12= 2.55D-05 4.58D-04.
     94 vectors produced by pass  5 Test12= 2.18D-14 1.00D-09 XBig12= 2.79D-08 1.01D-05.
     22 vectors produced by pass  6 Test12= 2.18D-14 1.00D-09 XBig12= 2.69D-11 3.87D-07.
      3 vectors produced by pass  7 Test12= 2.18D-14 1.00D-09 XBig12= 2.43D-14 1.19D-08.
 InvSVY:  IOpt=1 It=  1 EMax= 1.07D-14
 Solved reduced A of dimension   659 with   111 vectors.
 Isotropic polarizability for W=    0.000000      191.00 Bohr**3.
 End of Minotr F.D. properties file   721 does not exist.
 End of Minotr F.D. properties file   722 does not exist.
 End of Minotr F.D. properties file   788 does not exist.

 **********************************************************************

            Population analysis using the SCF density.

 **********************************************************************

 Orbital symmetries:
       Occupied  (A) (A) (A) (A) (A) (A) (A) (A) (A) (A) (A) (A)
                 (A) (A) (A) (A) (A) (A) (A) (A) (A) (A) (A) (A)
                 (A) (A) (A) (A) (A) (A) (A) (A) (A) (A) (A) (A)
                 (A) (A) (A) (A) (A) (A) (A) (A) (A) (A) (A) (A)
                 (A) (A) (A) (A) (A) (A) (A) (A) (A) (A) (A) (A)
                 (A) (A) (A) (A) (A) (A) (A) (A) (A) (A) (A) (A)
                 (A) (A) (A) (A) (A) (A)
       Virtual   (A) (A) (A) (A) (A) (A) (A) (A) (A) (A) (A) (A)
                 (A) (A) (A) (A) (A) (A) (A) (A) (A) (A) (A) (A)
                 (A) (A) (A) (A) (A) (A) (A) (A) (A) (A) (A) (A)
                 (A) (A) (A) (A) (A) (A) (A) (A) (A) (A) (A) (A)
                 (A) (A) (A) (A) (A) (A) (A) (A) (A) (A) (A) (A)
                 (A) (A) (A) (A) (A) (A) (A) (A) (A) (A) (A) (A)
                 (A) (A) (A) (A) (A) (A) (A) (A) (A) (A) (A) (A)
                 (A) (A) (A) (A) (A) (A) (A) (A) (A) (A) (A) (A)
                 (A) (A) (A) (A) (A) (A) (A) (A) (A) (A) (A) (A)
                 (A) (A) (A) (A) (A) (A) (A) (A) (A) (A) (A) (A)
                 (A) (A) (A) (A) (A) (A) (A) (A) (A) (A) (A) (A)
                 (A) (A) (A) (A) (A) (A) (A) (A) (A) (A) (A) (A)
                 (A) (A) (A) (A) (A) (A) (A) (A) (A) (A) (A) (A)
                 (A) (A) (A) (A) (A) (A) (A) (A) (A) (A) (A) (A)
                 (A) (A) (A) (A) (A) (A) (A) (A) (A) (A) (A) (A)
                 (A) (A) (A) (A) (A) (A) (A) (A) (A) (A) (A) (A)
                 (A) (A) (A) (A) (A) (A) (A) (A) (A) (A) (A) (A)
                 (A) (A) (A) (A) (A) (A) (A) (A) (A) (A) (A) (A)
                 (A) (A) (A) (A) (A) (A) (A) (A) (A) (A) (A) (A)
                 (A) (A) (A) (A) (A) (A) (A) (A) (A) (A) (A) (A)
                 (A) (A) (A) (A) (A) (A) (A) (A) (A) (A) (A) (A)
                 (A) (A) (A) (A) (A) (A) (A) (A) (A) (A) (A) (A)
                 (A) (A) (A) (A) (A) (A) (A) (A) (A) (A) (A) (A)
                 (A) (A) (A) (A)
 The electronic state is 1-A.
 Alpha  occ. eigenvalues --  -19.21395 -19.21169 -19.16567 -19.15996 -14.43389
 Alpha  occ. eigenvalues --  -14.43307 -10.35858 -10.35711 -10.26204 -10.25593
 Alpha  occ. eigenvalues --  -10.20676 -10.20373 -10.20028 -10.19885 -10.19838
 Alpha  occ. eigenvalues --  -10.19784 -10.19728 -10.19297 -10.19110 -10.19069
 Alpha  occ. eigenvalues --  -10.18916 -10.18771  -1.14831  -1.12465  -1.07016
 Alpha  occ. eigenvalues --   -1.03661  -1.02824  -0.86511  -0.85802  -0.84188
 Alpha  occ. eigenvalues --   -0.78486  -0.77155  -0.75194  -0.74485  -0.71800
 Alpha  occ. eigenvalues --   -0.69894  -0.63646  -0.61427  -0.60976  -0.60303
 Alpha  occ. eigenvalues --   -0.59060  -0.56218  -0.55829  -0.53257  -0.52404
 Alpha  occ. eigenvalues --   -0.51481  -0.50284  -0.48940  -0.48307  -0.47435
 Alpha  occ. eigenvalues --   -0.46765  -0.46427  -0.45809  -0.44906  -0.43708
 Alpha  occ. eigenvalues --   -0.43136  -0.42923  -0.42439  -0.42025  -0.40965
 Alpha  occ. eigenvalues --   -0.38432  -0.37790  -0.37347  -0.36795  -0.35696
 Alpha  occ. eigenvalues --   -0.35451  -0.35342  -0.34728  -0.34240  -0.31834
 Alpha  occ. eigenvalues --   -0.31421  -0.31119  -0.30815  -0.27059  -0.25778
 Alpha  occ. eigenvalues --   -0.25717  -0.24806  -0.24068
 Alpha virt. eigenvalues --   -0.13880  -0.01806  -0.00895  -0.00379   0.00192
 Alpha virt. eigenvalues --    0.00680   0.03929   0.08553   0.09370   0.10419
 Alpha virt. eigenvalues --    0.11505   0.11630   0.12495   0.13139   0.13521
 Alpha virt. eigenvalues --    0.14311   0.15401   0.15486   0.16030   0.17229
 Alpha virt. eigenvalues --    0.18107   0.18407   0.18827   0.19286   0.19684
 Alpha virt. eigenvalues --    0.22454   0.23243   0.23695   0.24840   0.27291
 Alpha virt. eigenvalues --    0.29870   0.30097   0.30596   0.30845   0.31573
 Alpha virt. eigenvalues --    0.31906   0.33033   0.33450   0.34229   0.35412
 Alpha virt. eigenvalues --    0.38990   0.42917   0.44841   0.46217   0.48679
 Alpha virt. eigenvalues --    0.49654   0.50289   0.52095   0.52583   0.53197
 Alpha virt. eigenvalues --    0.53365   0.54329   0.54529   0.55135   0.55635
 Alpha virt. eigenvalues --    0.55819   0.56950   0.57243   0.57508   0.58446
 Alpha virt. eigenvalues --    0.58891   0.59099   0.59397   0.60108   0.60366
 Alpha virt. eigenvalues --    0.60726   0.61000   0.61475   0.61737   0.62547
 Alpha virt. eigenvalues --    0.62821   0.63086   0.63821   0.64298   0.64877
 Alpha virt. eigenvalues --    0.66241   0.66654   0.67464   0.68568   0.69046
 Alpha virt. eigenvalues --    0.71075   0.71897   0.72882   0.74787   0.75165
 Alpha virt. eigenvalues --    0.75978   0.78168   0.79158   0.80873   0.82049
 Alpha virt. eigenvalues --    0.82984   0.83104   0.83126   0.83433   0.84061
 Alpha virt. eigenvalues --    0.84682   0.85040   0.85696   0.85931   0.86836
 Alpha virt. eigenvalues --    0.88403   0.89894   0.90318   0.91048   0.91345
 Alpha virt. eigenvalues --    0.92701   0.93659   0.94338   0.94467   0.94698
 Alpha virt. eigenvalues --    0.97592   0.98094   1.00947   1.00994   1.01613
 Alpha virt. eigenvalues --    1.03929   1.05408   1.05868   1.06837   1.09653
 Alpha virt. eigenvalues --    1.10086   1.11268   1.12399   1.13490   1.14661
 Alpha virt. eigenvalues --    1.15183   1.16485   1.16815   1.19248   1.19902
 Alpha virt. eigenvalues --    1.23159   1.23894   1.25076   1.25846   1.28325
 Alpha virt. eigenvalues --    1.30234   1.32959   1.34804   1.35927   1.39305
 Alpha virt. eigenvalues --    1.40103   1.40899   1.42386   1.43615   1.44304
 Alpha virt. eigenvalues --    1.44369   1.45995   1.46061   1.47396   1.48075
 Alpha virt. eigenvalues --    1.48620   1.48696   1.50193   1.50536   1.51445
 Alpha virt. eigenvalues --    1.52753   1.55074   1.56895   1.60025   1.62299
 Alpha virt. eigenvalues --    1.66195   1.68017   1.68606   1.69122   1.71644
 Alpha virt. eigenvalues --    1.74813   1.76714   1.77631   1.78305   1.79256
 Alpha virt. eigenvalues --    1.79946   1.80516   1.82153   1.83117   1.84296
 Alpha virt. eigenvalues --    1.85135   1.86006   1.87258   1.88516   1.89425
 Alpha virt. eigenvalues --    1.91356   1.91677   1.92057   1.92663   1.95025
 Alpha virt. eigenvalues --    1.96671   1.98154   1.98816   2.00818   2.01326
 Alpha virt. eigenvalues --    2.03393   2.05053   2.05736   2.06125   2.07315
 Alpha virt. eigenvalues --    2.08771   2.10123   2.10995   2.13346   2.13587
 Alpha virt. eigenvalues --    2.14900   2.15186   2.16219   2.16569   2.18543
 Alpha virt. eigenvalues --    2.21479   2.22963   2.24168   2.24724   2.25636
 Alpha virt. eigenvalues --    2.27952   2.29104   2.30002   2.31246   2.33484
 Alpha virt. eigenvalues --    2.35723   2.36032   2.38084   2.39066   2.40718
 Alpha virt. eigenvalues --    2.41975   2.47089   2.51183   2.55978   2.56440
 Alpha virt. eigenvalues --    2.56773   2.58003   2.59641   2.60169   2.63300
 Alpha virt. eigenvalues --    2.64129   2.65407   2.67344   2.68586   2.70782
 Alpha virt. eigenvalues --    2.71286   2.72809   2.73046   2.73599   2.75216
 Alpha virt. eigenvalues --    2.75842   2.76420   2.78270   2.79766   2.82429
 Alpha virt. eigenvalues --    2.85915   2.87051   2.88330   2.93608   2.95943
 Alpha virt. eigenvalues --    3.04134   3.04967   3.08661   3.11592   3.19192
 Alpha virt. eigenvalues --    3.22903   3.39852   3.40775   3.77951   3.90451
 Alpha virt. eigenvalues --    3.99521   4.03733   4.07923   4.09606   4.10550
 Alpha virt. eigenvalues --    4.11604   4.11766   4.17611   4.21325   4.23808
 Alpha virt. eigenvalues --    4.28618   4.31040   4.32347   4.34746   4.38494
 Alpha virt. eigenvalues --    4.39449   4.43676   4.51097   4.70212   4.70406
          Condensed to atoms (all electrons):
               1          2          3          4          5          6
     1  C    4.684402   0.350713  -0.045968  -0.001227  -0.000397  -0.000171
     2  C    0.350713   5.036378   0.186721  -0.015486  -0.009536   0.003231
     3  O   -0.045968   0.186721   8.235242   0.289765  -0.076336  -0.088124
     4  C   -0.001227  -0.015486   0.289765   4.231262   0.538503   0.241482
     5  O   -0.000397  -0.009536  -0.076336   0.538503   8.039225  -0.074281
     6  N   -0.000171   0.003231  -0.088124   0.241482  -0.074281   6.957410
     7  N    0.000018  -0.000046   0.001975  -0.048329  -0.000220   0.221210
     8  C   -0.000000   0.000002  -0.000141   0.004670   0.000417  -0.054064
     9  O    0.000000  -0.000000   0.000000  -0.000122   0.000004   0.001141
    10  O    0.000000   0.000000   0.000003  -0.000315  -0.000008  -0.007266
    11  C    0.000000   0.000000  -0.000001   0.000036   0.000000   0.000476
    12  C   -0.000000  -0.000000   0.000000   0.000002   0.000000   0.000089
    13  C   -0.000000  -0.000000  -0.000000   0.000001  -0.000000  -0.000006
    14  C   -0.000000   0.000000   0.000000  -0.000000  -0.000000  -0.000000
    15  C    0.000000   0.000000  -0.000000   0.000000   0.000000   0.000000
    16  C    0.000000   0.000000  -0.000000   0.000000  -0.000000  -0.000000
    17  C   -0.000000  -0.000000   0.000000  -0.000000   0.000000   0.000000
    18  C    0.541993  -0.051856   0.000164  -0.000115  -0.000015  -0.000000
    19  C   -0.020796   0.005765  -0.000015   0.000000   0.000000  -0.000000
    20  C   -0.034523   0.000368   0.000002  -0.000000   0.000000   0.000000
    21  C   -0.022692   0.006098  -0.000025   0.000005   0.000005  -0.000000
    22  C    0.540986  -0.051584  -0.000225   0.001229  -0.000033  -0.000050
    23  H   -0.037615   0.362538  -0.036521   0.002140   0.000624  -0.000131
    24  H   -0.026349   0.345034  -0.028710  -0.008329   0.020443   0.000566
    25  H   -0.000000   0.000000  -0.000000   0.000000   0.000000   0.000071
    26  H   -0.000000  -0.000000   0.000000  -0.000003  -0.000000  -0.000192
    27  H   -0.000000   0.000000   0.000000  -0.000028   0.000000   0.000260
    28  H   -0.000000  -0.000000   0.000000   0.000000   0.000000   0.000000
    29  H    0.000000   0.000000   0.000000  -0.000000   0.000000  -0.000000
    30  H    0.000000  -0.000000   0.000000  -0.000000   0.000000  -0.000000
    31  H   -0.000000  -0.000000   0.000000  -0.000000   0.000000   0.000000
    32  H   -0.044396  -0.008658   0.000309  -0.000001   0.000000   0.000000
    33  H    0.003816  -0.000162   0.000001  -0.000000  -0.000000   0.000000
    34  H    0.000669   0.000007  -0.000000  -0.000000   0.000000   0.000000
    35  H    0.003795  -0.000178   0.000001   0.000000  -0.000000   0.000000
    36  H   -0.042401  -0.008323  -0.000301   0.000683   0.001007   0.000015
               7          8          9         10         11         12
     1  C    0.000018  -0.000000   0.000000   0.000000   0.000000  -0.000000
     2  C   -0.000046   0.000002  -0.000000   0.000000   0.000000  -0.000000
     3  O    0.001975  -0.000141   0.000000   0.000003  -0.000001   0.000000
     4  C   -0.048329   0.004670  -0.000122  -0.000315   0.000036   0.000002
     5  O   -0.000220   0.000417   0.000004  -0.000008   0.000000   0.000000
     6  N    0.221210  -0.054064   0.001141  -0.007266   0.000476   0.000089
     7  N    6.986456   0.220177  -0.062542  -0.103288   0.004960  -0.000400
     8  C    0.220177   4.317383   0.512849   0.256742  -0.021722  -0.001892
     9  O   -0.062542   0.512849   8.070119  -0.081340   0.005601  -0.004900
    10  O   -0.103288   0.256742  -0.081340   8.251054   0.205030  -0.031616
    11  C    0.004960  -0.021722   0.005601   0.205030   4.983817   0.321776
    12  C   -0.000400  -0.001892  -0.004900  -0.031616   0.321776   4.775584
    13  C   -0.002685   0.009215  -0.008394  -0.001563  -0.062979   0.550946
    14  C   -0.000022  -0.000459  -0.001068   0.000779   0.006438  -0.019706
    15  C    0.000000  -0.000011  -0.000015  -0.000012   0.000432  -0.036940
    16  C   -0.000000  -0.000035   0.000044  -0.000061   0.004917  -0.014359
    17  C   -0.000008   0.000312  -0.001259   0.002181  -0.058017   0.522180
    18  C    0.000000   0.000000   0.000000  -0.000000   0.000000  -0.000000
    19  C   -0.000000  -0.000000   0.000000  -0.000000  -0.000000   0.000000
    20  C   -0.000000   0.000000  -0.000000   0.000000   0.000000  -0.000000
    21  C    0.000000   0.000000   0.000000   0.000000   0.000000  -0.000000
    22  C   -0.000000  -0.000000   0.000000   0.000000  -0.000000   0.000000
    23  H   -0.000004  -0.000000  -0.000000  -0.000000  -0.000000   0.000000
    24  H    0.000006   0.000000  -0.000000   0.000000  -0.000000  -0.000000
    25  H   -0.000112   0.003655   0.000160  -0.023371   0.366746  -0.035457
    26  H    0.000205  -0.007419   0.009517  -0.034388   0.361855  -0.042388
    27  H    0.001620   0.006282  -0.012488   0.002989  -0.013351  -0.051224
    28  H   -0.000003   0.000038  -0.000002   0.000007  -0.000200   0.003971
    29  H    0.000000  -0.000000   0.000000   0.000000   0.000011   0.000845
    30  H    0.000000   0.000000  -0.000000   0.000000  -0.000155   0.003723
    31  H   -0.000000  -0.000002  -0.000017   0.000057  -0.007272  -0.056286
    32  H   -0.000000  -0.000000  -0.000000   0.000000  -0.000000   0.000000
    33  H   -0.000000   0.000000  -0.000000  -0.000000  -0.000000   0.000000
    34  H    0.000000  -0.000000   0.000000  -0.000000   0.000000  -0.000000
    35  H   -0.000000  -0.000000  -0.000000  -0.000000  -0.000000   0.000000
    36  H   -0.000001   0.000000  -0.000000   0.000000  -0.000000  -0.000000
              13         14         15         16         17         18
     1  C   -0.000000  -0.000000   0.000000   0.000000  -0.000000   0.541993
     2  C   -0.000000   0.000000   0.000000   0.000000  -0.000000  -0.051856
     3  O   -0.000000   0.000000  -0.000000  -0.000000   0.000000   0.000164
     4  C    0.000001  -0.000000   0.000000   0.000000  -0.000000  -0.000115
     5  O   -0.000000  -0.000000   0.000000  -0.000000   0.000000  -0.000015
     6  N   -0.000006  -0.000000   0.000000  -0.000000   0.000000  -0.000000
     7  N   -0.002685  -0.000022   0.000000  -0.000000  -0.000008   0.000000
     8  C    0.009215  -0.000459  -0.000011  -0.000035   0.000312   0.000000
     9  O   -0.008394  -0.001068  -0.000015   0.000044  -0.001259   0.000000
    10  O   -0.001563   0.000779  -0.000012  -0.000061   0.002181  -0.000000
    11  C   -0.062979   0.006438   0.000432   0.004917  -0.058017   0.000000
    12  C    0.550946  -0.019706  -0.036940  -0.014359   0.522180  -0.000000
    13  C    4.910763   0.525335  -0.033227  -0.044817  -0.029201   0.000000
    14  C    0.525335   4.871957   0.549091  -0.027155  -0.044864  -0.000000
    15  C   -0.033227   0.549091   4.847783   0.553281  -0.036663  -0.000000
    16  C   -0.044817  -0.027155   0.553281   4.847084   0.532353   0.000000
    17  C   -0.029201  -0.044864  -0.036663   0.532353   4.962212   0.000000
    18  C    0.000000  -0.000000  -0.000000   0.000000   0.000000   4.956490
    19  C   -0.000000   0.000000   0.000000  -0.000000   0.000000   0.527226
    20  C   -0.000000   0.000000  -0.000000   0.000000  -0.000000  -0.035318
    21  C    0.000000   0.000000  -0.000000   0.000000  -0.000000  -0.044413
    22  C   -0.000000   0.000000   0.000000  -0.000000   0.000000  -0.045655
    23  H   -0.000000   0.000000  -0.000000  -0.000000   0.000000  -0.006806
    24  H    0.000000  -0.000000  -0.000000   0.000000  -0.000000   0.004248
    25  H    0.000329  -0.000104   0.000023  -0.000155  -0.001258  -0.000000
    26  H    0.002187  -0.000020   0.000018  -0.000098  -0.002337   0.000000
    27  H    0.348616  -0.037553   0.004879   0.000456   0.005604  -0.000000
    28  H   -0.039006   0.357033  -0.043198   0.004458   0.001008   0.000000
    29  H    0.004882  -0.042878   0.358162  -0.043561   0.004796  -0.000000
    30  H    0.000785   0.004706  -0.042748   0.357867  -0.040780   0.000000
    31  H    0.005177   0.000486   0.004983  -0.042428   0.360199  -0.000000
    32  H   -0.000000  -0.000000   0.000000  -0.000000  -0.000000   0.355243
    33  H   -0.000000  -0.000000   0.000000  -0.000000   0.000000  -0.039585
    34  H    0.000000  -0.000000  -0.000000   0.000000  -0.000000   0.004786
    35  H   -0.000000  -0.000000  -0.000000  -0.000000   0.000000   0.000812
    36  H    0.000000   0.000000  -0.000000   0.000000  -0.000000   0.005343
              19         20         21         22         23         24
     1  C   -0.020796  -0.034523  -0.022692   0.540986  -0.037615  -0.026349
     2  C    0.005765   0.000368   0.006098  -0.051584   0.362538   0.345034
     3  O   -0.000015   0.000002  -0.000025  -0.000225  -0.036521  -0.028710
     4  C    0.000000  -0.000000   0.000005   0.001229   0.002140  -0.008329
     5  O    0.000000   0.000000   0.000005  -0.000033   0.000624   0.020443
     6  N   -0.000000   0.000000  -0.000000  -0.000050  -0.000131   0.000566
     7  N   -0.000000  -0.000000   0.000000  -0.000000  -0.000004   0.000006
     8  C   -0.000000   0.000000   0.000000  -0.000000  -0.000000   0.000000
     9  O    0.000000  -0.000000   0.000000   0.000000  -0.000000  -0.000000
    10  O   -0.000000   0.000000   0.000000   0.000000  -0.000000   0.000000
    11  C   -0.000000   0.000000   0.000000  -0.000000  -0.000000  -0.000000
    12  C    0.000000  -0.000000  -0.000000   0.000000   0.000000  -0.000000
    13  C   -0.000000  -0.000000   0.000000  -0.000000  -0.000000   0.000000
    14  C    0.000000   0.000000   0.000000   0.000000   0.000000  -0.000000
    15  C    0.000000  -0.000000  -0.000000   0.000000  -0.000000  -0.000000
    16  C   -0.000000   0.000000   0.000000  -0.000000  -0.000000   0.000000
    17  C    0.000000  -0.000000  -0.000000   0.000000   0.000000  -0.000000
    18  C    0.527226  -0.035318  -0.044413  -0.045655  -0.006806   0.004248
    19  C    4.858889   0.551487  -0.027572  -0.044853   0.000104  -0.000182
    20  C    0.551487   4.843176   0.551068  -0.035140   0.000002   0.000005
    21  C   -0.027572   0.551068   4.861488   0.525281  -0.000219   0.000097
    22  C   -0.044853  -0.035140   0.525281   4.962939   0.005181  -0.006280
    23  H    0.000104   0.000002  -0.000219   0.005181   0.578542  -0.036121
    24  H   -0.000182   0.000005   0.000097  -0.006280  -0.036121   0.534926
    25  H    0.000000   0.000000  -0.000000   0.000000   0.000000  -0.000000
    26  H   -0.000000   0.000000   0.000000   0.000000   0.000000   0.000000
    27  H    0.000000   0.000000  -0.000000   0.000000   0.000000  -0.000000
    28  H    0.000000  -0.000000   0.000000  -0.000000   0.000000   0.000000
    29  H   -0.000000   0.000000  -0.000000   0.000000   0.000000  -0.000000
    30  H    0.000000   0.000000   0.000000  -0.000000   0.000000  -0.000000
    31  H    0.000000  -0.000000  -0.000000   0.000000   0.000000  -0.000000
    32  H   -0.043593   0.004814   0.000384   0.005605   0.005534   0.000077
    33  H    0.358076  -0.042730   0.004668   0.000745  -0.000004   0.000003
    34  H   -0.042981   0.359335  -0.043119   0.004819  -0.000000  -0.000000
    35  H    0.004602  -0.042861   0.357647  -0.038845   0.000003  -0.000004
    36  H    0.000414   0.004689  -0.042064   0.355901   0.000054   0.004498
              25         26         27         28         29         30
     1  C   -0.000000  -0.000000  -0.000000  -0.000000   0.000000   0.000000
     2  C    0.000000  -0.000000   0.000000  -0.000000   0.000000  -0.000000
     3  O   -0.000000   0.000000   0.000000   0.000000   0.000000   0.000000
     4  C    0.000000  -0.000003  -0.000028   0.000000  -0.000000  -0.000000
     5  O    0.000000  -0.000000   0.000000   0.000000   0.000000   0.000000
     6  N    0.000071  -0.000192   0.000260   0.000000  -0.000000  -0.000000
     7  N   -0.000112   0.000205   0.001620  -0.000003   0.000000   0.000000
     8  C    0.003655  -0.007419   0.006282   0.000038  -0.000000   0.000000
     9  O    0.000160   0.009517  -0.012488  -0.000002   0.000000  -0.000000
    10  O   -0.023371  -0.034388   0.002989   0.000007   0.000000   0.000000
    11  C    0.366746   0.361855  -0.013351  -0.000200   0.000011  -0.000155
    12  C   -0.035457  -0.042388  -0.051224   0.003971   0.000845   0.003723
    13  C    0.000329   0.002187   0.348616  -0.039006   0.004882   0.000785
    14  C   -0.000104  -0.000020  -0.037553   0.357033  -0.042878   0.004706
    15  C    0.000023   0.000018   0.004879  -0.043198   0.358162  -0.042748
    16  C   -0.000155  -0.000098   0.000456   0.004458  -0.043561   0.357867
    17  C   -0.001258  -0.002337   0.005604   0.001008   0.004796  -0.040780
    18  C   -0.000000   0.000000  -0.000000   0.000000  -0.000000   0.000000
    19  C    0.000000  -0.000000   0.000000   0.000000  -0.000000   0.000000
    20  C    0.000000   0.000000   0.000000  -0.000000   0.000000   0.000000
    21  C   -0.000000   0.000000  -0.000000   0.000000  -0.000000   0.000000
    22  C    0.000000   0.000000   0.000000  -0.000000   0.000000  -0.000000
    23  H    0.000000   0.000000   0.000000   0.000000   0.000000   0.000000
    24  H   -0.000000   0.000000  -0.000000   0.000000  -0.000000  -0.000000
    25  H    0.542867  -0.039568  -0.000076   0.000003  -0.000000   0.000001
    26  H   -0.039568   0.569944   0.000499   0.000003  -0.000000   0.000001
    27  H   -0.000076   0.000499   0.609640  -0.005620  -0.000188   0.000017
    28  H    0.000003   0.000003  -0.005620   0.593239  -0.005662  -0.000191
    29  H   -0.000000  -0.000000  -0.000188  -0.005662   0.600064  -0.005661
    30  H    0.000001   0.000001   0.000017  -0.000191  -0.005661   0.597254
    31  H    0.002108   0.002104  -0.000164   0.000018  -0.000193  -0.005777
    32  H   -0.000000   0.000000  -0.000000  -0.000000   0.000000  -0.000000
    33  H    0.000000  -0.000000   0.000000  -0.000000   0.000000   0.000000
    34  H   -0.000000  -0.000000  -0.000000  -0.000000  -0.000000   0.000000
    35  H   -0.000000   0.000000   0.000000  -0.000000   0.000000   0.000000
    36  H    0.000000   0.000000  -0.000000   0.000000  -0.000000   0.000000
              31         32         33         34         35         36
     1  C   -0.000000  -0.044396   0.003816   0.000669   0.003795  -0.042401
     2  C   -0.000000  -0.008658  -0.000162   0.000007  -0.000178  -0.008323
     3  O    0.000000   0.000309   0.000001  -0.000000   0.000001  -0.000301
     4  C   -0.000000  -0.000001  -0.000000  -0.000000   0.000000   0.000683
     5  O    0.000000   0.000000  -0.000000   0.000000  -0.000000   0.001007
     6  N    0.000000   0.000000   0.000000   0.000000   0.000000   0.000015
     7  N   -0.000000  -0.000000  -0.000000   0.000000  -0.000000  -0.000001
     8  C   -0.000002  -0.000000   0.000000  -0.000000  -0.000000   0.000000
     9  O   -0.000017  -0.000000  -0.000000   0.000000  -0.000000  -0.000000
    10  O    0.000057   0.000000  -0.000000  -0.000000  -0.000000   0.000000
    11  C   -0.007272  -0.000000  -0.000000   0.000000  -0.000000  -0.000000
    12  C   -0.056286   0.000000   0.000000  -0.000000   0.000000  -0.000000
    13  C    0.005177  -0.000000  -0.000000   0.000000  -0.000000   0.000000
    14  C    0.000486  -0.000000  -0.000000  -0.000000  -0.000000   0.000000
    15  C    0.004983   0.000000   0.000000  -0.000000  -0.000000  -0.000000
    16  C   -0.042428  -0.000000  -0.000000   0.000000  -0.000000   0.000000
    17  C    0.360199  -0.000000   0.000000  -0.000000   0.000000  -0.000000
    18  C   -0.000000   0.355243  -0.039585   0.004786   0.000812   0.005343
    19  C    0.000000  -0.043593   0.358076  -0.042981   0.004602   0.000414
    20  C   -0.000000   0.004814  -0.042730   0.359335  -0.042861   0.004689
    21  C   -0.000000   0.000384   0.004668  -0.043119   0.357647  -0.042064
    22  C    0.000000   0.005605   0.000745   0.004819  -0.038845   0.355901
    23  H    0.000000   0.005534  -0.000004  -0.000000   0.000003   0.000054
    24  H   -0.000000   0.000077   0.000003  -0.000000  -0.000004   0.004498
    25  H    0.002108  -0.000000   0.000000  -0.000000  -0.000000   0.000000
    26  H    0.002104   0.000000  -0.000000  -0.000000   0.000000   0.000000
    27  H   -0.000164  -0.000000   0.000000  -0.000000   0.000000  -0.000000
    28  H    0.000018  -0.000000  -0.000000  -0.000000  -0.000000   0.000000
    29  H   -0.000193   0.000000   0.000000  -0.000000   0.000000  -0.000000
    30  H   -0.005777  -0.000000   0.000000   0.000000   0.000000   0.000000
    31  H    0.615510  -0.000000   0.000000  -0.000000   0.000000  -0.000000
    32  H   -0.000000   0.597281  -0.005622  -0.000182   0.000017  -0.000163
    33  H    0.000000  -0.005622   0.591509  -0.005621  -0.000187   0.000016
    34  H   -0.000000  -0.000182  -0.005621   0.593217  -0.005618  -0.000179
    35  H    0.000000   0.000017  -0.000187  -0.005618   0.589789  -0.005456
    36  H   -0.000000  -0.000163   0.000016  -0.000179  -0.005456   0.580421
 Mulliken charges:
               1
     1  C    0.150143
     2  C   -0.151026
     3  O   -0.437817
     4  C    0.764178
     5  O   -0.439403
     6  N   -0.201667
     7  N   -0.218968
     8  C    0.754003
     9  O   -0.427287
    10  O   -0.435613
    11  C   -0.098398
    12  C    0.116052
    13  C   -0.136357
    14  C   -0.141994
    15  C   -0.125839
    16  C   -0.127791
    17  C   -0.176458
    18  C   -0.172544
    19  C   -0.126570
    20  C   -0.124373
    21  C   -0.126637
    22  C   -0.180020
    23  H    0.162699
    24  H    0.196071
    25  H    0.184139
    26  H    0.180082
    27  H    0.139831
    28  H    0.134103
    29  H    0.129382
    30  H    0.130956
    31  H    0.121497
    32  H    0.133352
    33  H    0.135078
    34  H    0.134868
    35  H    0.136483
    36  H    0.145847
 Sum of Mulliken charges =   0.00000
 Mulliken charges with hydrogens summed into heavy atoms:
               1
     1  C    0.150143
     2  C    0.207744
     3  O   -0.437817
     4  C    0.764178
     5  O   -0.439403
     6  N   -0.201667
     7  N   -0.218968
     8  C    0.754003
     9  O   -0.427287
    10  O   -0.435613
    11  C    0.265823
    12  C    0.116052
    13  C    0.003473
    14  C   -0.007891
    15  C    0.003543
    16  C    0.003165
    17  C   -0.054961
    18  C   -0.039192
    19  C    0.008508
    20  C    0.010495
    21  C    0.009846
    22  C   -0.034173
 APT charges:
               1
     1  C   -0.046920
     2  C    0.684782
     3  O   -1.020299
     4  C    1.404366
     5  O   -0.707480
     6  N   -0.288550
     7  N   -0.139422
     8  C    1.100887
     9  O   -0.589316
    10  O   -0.765882
    11  C    0.535434
    12  C   -0.008756
    13  C   -0.048034
    14  C    0.036010
    15  C   -0.046499
    16  C   -0.019398
    17  C   -0.012763
    18  C   -0.020617
    19  C   -0.019748
    20  C   -0.005649
    21  C   -0.016885
    22  C   -0.047696
    23  H   -0.058999
    24  H    0.013276
    25  H   -0.027278
    26  H   -0.055181
    27  H    0.016070
    28  H    0.017153
    29  H    0.010089
    30  H    0.009389
    31  H    0.012281
    32  H    0.024147
    33  H    0.013896
    34  H    0.016601
    35  H    0.016111
    36  H    0.034880
 Sum of APT charges =   0.00000
 APT charges with hydrogens summed into heavy atoms:
               1
     1  C   -0.046920
     2  C    0.639059
     3  O   -1.020299
     4  C    1.404366
     5  O   -0.707480
     6  N   -0.288550
     7  N   -0.139422
     8  C    1.100887
     9  O   -0.589316
    10  O   -0.765882
    11  C    0.452975
    12  C   -0.008756
    13  C   -0.031964
    14  C    0.053163
    15  C   -0.036411
    16  C   -0.010010
    17  C   -0.000482
    18  C    0.003529
    19  C   -0.005852
    20  C    0.010952
    21  C   -0.000773
    22  C   -0.012816
 Electronic spatial extent (au):  <R**2>=          10975.3588
 Charge=              0.0000 electrons
 Dipole moment (field-independent basis, Debye):
    X=              1.3874    Y=              2.2389    Z=              2.7038  Tot=              3.7747
 Quadrupole moment (field-independent basis, Debye-Ang):
   XX=           -106.6716   YY=           -124.3542   ZZ=           -120.1604
   XY=             -1.1928   XZ=             -4.2898   YZ=             -9.7936
 Traceless Quadrupole moment (field-independent basis, Debye-Ang):
   XX=             10.3904   YY=             -7.2921   ZZ=             -3.0983
   XY=             -1.1928   XZ=             -4.2898   YZ=             -9.7936
 Octapole moment (field-independent basis, Debye-Ang**2):
  XXX=            -10.6166  YYY=            -16.0383  ZZZ=             11.4322  XYY=             26.7344
  XXY=             49.6576  XXZ=             50.6446  XZZ=             -2.9658  YZZ=             10.7385
  YYZ=              7.6463  XYZ=             11.4678
 Hexadecapole moment (field-independent basis, Debye-Ang**3):
 XXXX=         -11796.4651 YYYY=          -1778.3885 ZZZZ=           -787.3875 XXXY=            -95.6821
 XXXZ=            -46.9124 YYYX=             89.5270 YYYZ=            -46.9100 ZZZX=            -14.9327
 ZZZY=            -19.7930 XXYY=          -2171.3440 XXZZ=          -2014.2575 YYZZ=           -441.2282
 XXYZ=            -96.7125 YYXZ=             34.1845 ZZXY=             17.5405
 N-N= 1.606605116886D+03 E-N=-5.608700743009D+03  KE= 1.019115875254D+03
  Exact polarizability: 240.888  -1.445 157.132   6.835 -14.683 174.985
 Approx polarizability: 310.760   4.552 242.622  19.639 -21.943 319.848
 Calling FoFJK, ICntrl=    100127 FMM=F ISym2X=0 I1Cent= 0 IOpClX= 0 NMat=1 NMatS=1 NMatT=0.
 ***** Axes restored to original set *****
 -------------------------------------------------------------------
 Center     Atomic                   Forces (Hartrees/Bohr)
 Number     Number              X              Y              Z
 -------------------------------------------------------------------
      1        6          -0.000934841   -0.004747270   -0.002600149
      2        6           0.013456637   -0.016449423   -0.005983923
      3        8          -0.016494947    0.011940084    0.010272802
      4        6           0.012560710   -0.075573993   -0.004111025
      5        8           0.009806088    0.023414137   -0.003260498
      6        7          -0.011182268    0.031258708    0.007395923
      7        7           0.002790167   -0.040059100   -0.002288977
      8        6          -0.011615310    0.070822115    0.014788898
      9        8           0.028056596   -0.027948280    0.000764038
     10        8           0.004355679    0.007130425   -0.002865939
     11        6          -0.022938222    0.003180750    0.006588081
     12        6          -0.009689061    0.004215964   -0.006149741
     13        6           0.000544491    0.003297500   -0.009340631
     14        6           0.002387685    0.000095428    0.000334810
     15        6          -0.003250803   -0.000067678   -0.001972186
     16        6           0.002118722    0.000649123    0.001310353
     17        6           0.000662562   -0.001580738   -0.001828216
     18        6          -0.001060283    0.001479016   -0.000929550
     19        6           0.001041509    0.001261785    0.001880987
     20        6           0.000902560   -0.000384952   -0.002615763
     21        6          -0.002216670    0.000225394    0.001551426
     22        6          -0.000565830    0.001043329   -0.002754345
     23        1          -0.001766838    0.005321954    0.002313596
     24        1          -0.003615563    0.007984034    0.000239629
     25        1           0.006421750   -0.013958131   -0.000823200
     26        1           0.001038265    0.000718338    0.001158275
     27        1          -0.002612500    0.006891574   -0.007750197
     28        1           0.000509991   -0.000232988    0.000687371
     29        1          -0.000087642   -0.000041085    0.000407810
     30        1           0.000621444   -0.000059447    0.000452260
     31        1           0.001306926   -0.000829348    0.000530291
     32        1          -0.001517657    0.000275287    0.001342584
     33        1           0.000013522   -0.000111731    0.000631081
     34        1           0.000167929   -0.000289984    0.000125769
     35        1          -0.000066865   -0.000093527    0.000657630
     36        1           0.000852068    0.001222729    0.001840726
 -------------------------------------------------------------------
 Cartesian Forces:  Max     0.075573993 RMS     0.013175420
 FormGI is forming the generalized inverse of G from B-inverse, IUseBI=4.

 GradGradGradGradGradGradGradGradGradGradGradGradGradGradGradGradGradGrad
 Berny optimization.
 Internal  Forces:  Max     0.059975599 RMS     0.010855893
 Search for a local minimum.
 Step number   1 out of a maximum of  180
 All quantities printed in internal units (Hartrees-Bohrs-Radians)
 Mixed Optimization -- RFO/linear search
 Second derivative matrix not updated -- analytic derivatives used.
 ITU=  0
     Eigenvalues ---   -0.00528  -0.00448  -0.00360  -0.00066   0.00036
     Eigenvalues ---    0.01293   0.01449   0.01512   0.01521   0.01706
     Eigenvalues ---    0.01726   0.01754   0.01758   0.02090   0.02145
     Eigenvalues ---    0.02315   0.02367   0.02393   0.02521   0.02667
     Eigenvalues ---    0.02678   0.02769   0.02771   0.02814   0.02837
     Eigenvalues ---    0.04048   0.06053   0.06496   0.06903   0.07256
     Eigenvalues ---    0.07752   0.09883   0.10032   0.10595   0.11125
     Eigenvalues ---    0.11126   0.11649   0.11665   0.11729   0.12015
     Eigenvalues ---    0.12130   0.12544   0.12555   0.13003   0.13029
     Eigenvalues ---    0.13325   0.13642   0.17944   0.18894   0.19141
     Eigenvalues ---    0.19165   0.19376   0.19578   0.19844   0.20077
     Eigenvalues ---    0.21161   0.21690   0.21876   0.23898   0.25210
     Eigenvalues ---    0.26162   0.28120   0.28901   0.28919   0.29619
     Eigenvalues ---    0.30525   0.31027   0.31976   0.32543   0.33157
     Eigenvalues ---    0.33580   0.34042   0.34871   0.35475   0.35590
     Eigenvalues ---    0.35805   0.35840   0.35932   0.35952   0.35982
     Eigenvalues ---    0.36141   0.36187   0.36308   0.36484   0.40416
     Eigenvalues ---    0.41508   0.41688   0.41926   0.44616   0.47187
     Eigenvalues ---    0.47321   0.47333   0.47387   0.49080   0.50761
     Eigenvalues ---    0.51198   0.51385   0.62501   0.78141   0.79466
     Eigenvalues ---    0.81762   0.88226
 RFO step:  Lambda=-4.00190631D-02 EMin=-5.28102315D-03
 Linear search not attempted -- first point.
 Maximum step size (   0.300) exceeded in Quadratic search.
    -- Step size scaled by   0.961
 Iteration  1 RMS(Cart)=  0.21927924 RMS(Int)=  0.04094864
 Iteration  2 RMS(Cart)=  0.18244656 RMS(Int)=  0.01757462
 Iteration  3 RMS(Cart)=  0.14959676 RMS(Int)=  0.00325771
 Iteration  4 RMS(Cart)=  0.00747640 RMS(Int)=  0.00044638
[...]
    97    N    7  py     Val( 2p)     1.26437
    98    N    7  py     Ryd( 3p)     0.00429
    99    N    7  pz     Val( 2p)     1.41091
   100    N    7  pz     Ryd( 3p)     0.00474
   101    N    7  dxy    Ryd( 3d)     0.00144
   102    N    7  dxz    Ryd( 3d)     0.00096
   103    N    7  dyz    Ryd( 3d)     0.00179
   104    N    7  dx2y2  Ryd( 3d)     0.00215
   105    N    7  dz2    Ryd( 3d)     0.00133
 
   106    C    8  S      Cor( 1S)     1.99951
   107    C    8  S      Val( 2S)     0.73152
   108    C    8  S      Ryd( 3S)     0.00393
   109    C    8  S      Ryd( 4S)     0.00048
   110    C    8  px     Val( 2p)     0.80222
   111    C    8  px     Ryd( 3p)     0.00747
   112    C    8  py     Val( 2p)     0.77849
   113    C    8  py     Ryd( 3p)     0.00560
   114    C    8  pz     Val( 2p)     0.71281
   115    C    8  pz     Ryd( 3p)     0.02068
   116    C    8  dxy    Ryd( 3d)     0.00179
   117    C    8  dxz    Ryd( 3d)     0.00344
   118    C    8  dyz    Ryd( 3d)     0.00251
   119    C    8  dx2y2  Ryd( 3d)     0.00141
   120    C    8  dz2    Ryd( 3d)     0.00317
 
   121    O    9  S      Cor( 1S)     1.99977
   122    O    9  S      Val( 2S)     1.70768
   123    O    9  S      Ryd( 3S)     0.00090
   124    O    9  S      Ryd( 4S)     0.00012
   125    O    9  px     Val( 2p)     1.72187
   126    O    9  px     Ryd( 3p)     0.00129
   127    O    9  py     Val( 2p)     1.47508
   128    O    9  py     Ryd( 3p)     0.00075
   129    O    9  pz     Val( 2p)     1.61997
   130    O    9  pz     Ryd( 3p)     0.00056
   131    O    9  dxy    Ryd( 3d)     0.00131
   132    O    9  dxz    Ryd( 3d)     0.00473
   133    O    9  dyz    Ryd( 3d)     0.00430
   134    O    9  dx2y2  Ryd( 3d)     0.00120
   135    O    9  dz2    Ryd( 3d)     0.00554
 
   136    O   10  S      Cor( 1S)     1.99973
   137    O   10  S      Val( 2S)     1.63147
   138    O   10  S      Ryd( 3S)     0.00200
   139    O   10  S      Ryd( 4S)     0.00010
   140    O   10  px     Val( 2p)     1.45986
   141    O   10  px     Ryd( 3p)     0.00109
   142    O   10  py     Val( 2p)     1.76612
   143    O   10  py     Ryd( 3p)     0.00174
   144    O   10  pz     Val( 2p)     1.65221
   145    O   10  pz     Ryd( 3p)     0.00150
   146    O   10  dxy    Ryd( 3d)     0.00047
   147    O   10  dxz    Ryd( 3d)     0.00138
   148    O   10  dyz    Ryd( 3d)     0.00168
   149    O   10  dx2y2  Ryd( 3d)     0.00081
   150    O   10  dz2    Ryd( 3d)     0.00156
 
   151    C   11  S      Cor( 1S)     1.99912
   152    C   11  S      Val( 2S)     1.03245
   153    C   11  S      Ryd( 3S)     0.00117
   154    C   11  S      Ryd( 4S)     0.00005
   155    C   11  px     Val( 2p)     0.69620
   156    C   11  px     Ryd( 3p)     0.00303
   157    C   11  py     Val( 2p)     1.13252
   158    C   11  py     Ryd( 3p)     0.00147
   159    C   11  pz     Val( 2p)     1.24661
   160    C   11  pz     Ryd( 3p)     0.00719
   161    C   11  dxy    Ryd( 3d)     0.00122
   162    C   11  dxz    Ryd( 3d)     0.00086
   163    C   11  dyz    Ryd( 3d)     0.00089
   164    C   11  dx2y2  Ryd( 3d)     0.00182
   165    C   11  dz2    Ryd( 3d)     0.00129
 
   166    C   12  S      Cor( 1S)     1.99901
   167    C   12  S      Val( 2S)     0.88926
   168    C   12  S      Ryd( 3S)     0.00071
   169    C   12  S      Ryd( 4S)     0.00006
   170    C   12  px     Val( 2p)     1.03348
   171    C   12  px     Ryd( 3p)     0.00247
   172    C   12  py     Val( 2p)     1.06112
   173    C   12  py     Ryd( 3p)     0.00409
   174    C   12  pz     Val( 2p)     1.09424
   175    C   12  pz     Ryd( 3p)     0.00441
   176    C   12  dxy    Ryd( 3d)     0.00043
   177    C   12  dxz    Ryd( 3d)     0.00057
   178    C   12  dyz    Ryd( 3d)     0.00071
   179    C   12  dx2y2  Ryd( 3d)     0.00048
   180    C   12  dz2    Ryd( 3d)     0.00062
 
   181    C   13  S      Cor( 1S)     1.99903
   182    C   13  S      Val( 2S)     0.95755
   183    C   13  S      Ryd( 3S)     0.00062
   184    C   13  S      Ryd( 4S)     0.00004
   185    C   13  px     Val( 2p)     0.99595
   186    C   13  px     Ryd( 3p)     0.00137
   187    C   13  py     Val( 2p)     1.12033
   188    C   13  py     Ryd( 3p)     0.00404
   189    C   13  pz     Val( 2p)     1.12531
   190    C   13  pz     Ryd( 3p)     0.00450
   191    C   13  dxy    Ryd( 3d)     0.00043
   192    C   13  dxz    Ryd( 3d)     0.00046
   193    C   13  dyz    Ryd( 3d)     0.00084
   194    C   13  dx2y2  Ryd( 3d)     0.00050
   195    C   13  dz2    Ryd( 3d)     0.00056
 
   196    C   14  S      Cor( 1S)     1.99910
   197    C   14  S      Val( 2S)     0.96256
   198    C   14  S      Ryd( 3S)     0.00058
   199    C   14  S      Ryd( 4S)     0.00003
   200    C   14  px     Val( 2p)     1.01253
   201    C   14  px     Ryd( 3p)     0.00134
   202    C   14  py     Val( 2p)     1.05420
   203    C   14  py     Ryd( 3p)     0.00394
   204    C   14  pz     Val( 2p)     1.18658
   205    C   14  pz     Ryd( 3p)     0.00521
   206    C   14  dxy    Ryd( 3d)     0.00045
   207    C   14  dxz    Ryd( 3d)     0.00046
   208    C   14  dyz    Ryd( 3d)     0.00060
   209    C   14  dx2y2  Ryd( 3d)     0.00044
   210    C   14  dz2    Ryd( 3d)     0.00082
 
   211    C   15  S      Cor( 1S)     1.99910
   212    C   15  S      Val( 2S)     0.96530
   213    C   15  S      Ryd( 3S)     0.00053
   214    C   15  S      Ryd( 4S)     0.00003
   215    C   15  px     Val( 2p)     1.02258
   216    C   15  px     Ryd( 3p)     0.00143
   217    C   15  py     Val( 2p)     1.15166
   218    C   15  py     Ryd( 3p)     0.00435
   219    C   15  pz     Val( 2p)     1.06959
   220    C   15  pz     Ryd( 3p)     0.00433
   221    C   15  dxy    Ryd( 3d)     0.00056
   222    C   15  dxz    Ryd( 3d)     0.00054
   223    C   15  dyz    Ryd( 3d)     0.00064
   224    C   15  dx2y2  Ryd( 3d)     0.00046
   225    C   15  dz2    Ryd( 3d)     0.00060
 
   226    C   16  S      Cor( 1S)     1.99910
   227    C   16  S      Val( 2S)     0.96173
   228    C   16  S      Ryd( 3S)     0.00058
   229    C   16  S      Ryd( 4S)     0.00003
   230    C   16  px     Val( 2p)     1.01292
   231    C   16  px     Ryd( 3p)     0.00134
   232    C   16  py     Val( 2p)     1.11284
   233    C   16  py     Ryd( 3p)     0.00421
   234    C   16  pz     Val( 2p)     1.13003
   235    C   16  pz     Ryd( 3p)     0.00491
   236    C   16  dxy    Ryd( 3d)     0.00042
   237    C   16  dxz    Ryd( 3d)     0.00046
   238    C   16  dyz    Ryd( 3d)     0.00084
   239    C   16  dx2y2  Ryd( 3d)     0.00048
   240    C   16  dz2    Ryd( 3d)     0.00057
 
   241    C   17  S      Cor( 1S)     1.99903
   242    C   17  S      Val( 2S)     0.95426
   243    C   17  S      Ryd( 3S)     0.00061
   244    C   17  S      Ryd( 4S)     0.00005
   245    C   17  px     Val( 2p)     1.00693
   246    C   17  px     Ryd( 3p)     0.00132
   247    C   17  py     Val( 2p)     1.05552
   248    C   17  py     Ryd( 3p)     0.00337
   249    C   17  pz     Val( 2p)     1.18280
   250    C   17  pz     Ryd( 3p)     0.00504
   251    C   17  dxy    Ryd( 3d)     0.00047
   252    C   17  dxz    Ryd( 3d)     0.00043
   253    C   17  dyz    Ryd( 3d)     0.00061
   254    C   17  dx2y2  Ryd( 3d)     0.00046
   255    C   17  dz2    Ryd( 3d)     0.00082
 
   256    C   18  S      Cor( 1S)     1.99903
   257    C   18  S      Val( 2S)     0.95397
   258    C   18  S      Ryd( 3S)     0.00061
   259    C   18  S      Ryd( 4S)     0.00005
   260    C   18  px     Val( 2p)     1.01118
   261    C   18  px     Ryd( 3p)     0.00123
   262    C   18  py     Val( 2p)     1.06172
   263    C   18  py     Ryd( 3p)     0.00377
   264    C   18  pz     Val( 2p)     1.17364
   265    C   18  pz     Ryd( 3p)     0.00470
   266    C   18  dxy    Ryd( 3d)     0.00053
   267    C   18  dxz    Ryd( 3d)     0.00045
   268    C   18  dyz    Ryd( 3d)     0.00060
   269    C   18  dx2y2  Ryd( 3d)     0.00043
   270    C   18  dz2    Ryd( 3d)     0.00075
 
   271    C   19  S      Cor( 1S)     1.99910
   272    C   19  S      Val( 2S)     0.96143
   273    C   19  S      Ryd( 3S)     0.00058
   274    C   19  S      Ryd( 4S)     0.00003
   275    C   19  px     Val( 2p)     1.00560
   276    C   19  px     Ryd( 3p)     0.00114
   277    C   19  py     Val( 2p)     1.17011
   278    C   19  py     Ryd( 3p)     0.00503
   279    C   19  pz     Val( 2p)     1.08064
   280    C   19  pz     Ryd( 3p)     0.00428
   281    C   19  dxy    Ryd( 3d)     0.00039
   282    C   19  dxz    Ryd( 3d)     0.00043
   283    C   19  dyz    Ryd( 3d)     0.00076
   284    C   19  dx2y2  Ryd( 3d)     0.00063
   285    C   19  dz2    Ryd( 3d)     0.00055
 
   286    C   20  S      Cor( 1S)     1.99910
   287    C   20  S      Val( 2S)     0.96499
   288    C   20  S      Ryd( 3S)     0.00053
   289    C   20  S      Ryd( 4S)     0.00003
   290    C   20  px     Val( 2p)     1.00880
   291    C   20  px     Ryd( 3p)     0.00121
   292    C   20  py     Val( 2p)     1.14947
   293    C   20  py     Ryd( 3p)     0.00481
   294    C   20  pz     Val( 2p)     1.08729
   295    C   20  pz     Ryd( 3p)     0.00411
   296    C   20  dxy    Ryd( 3d)     0.00050
   297    C   20  dxz    Ryd( 3d)     0.00048
   298    C   20  dyz    Ryd( 3d)     0.00076
   299    C   20  dx2y2  Ryd( 3d)     0.00051
   300    C   20  dz2    Ryd( 3d)     0.00054
 
   301    C   21  S      Cor( 1S)     1.99910
   302    C   21  S      Val( 2S)     0.96244
   303    C   21  S      Ryd( 3S)     0.00058
   304    C   21  S      Ryd( 4S)     0.00003
   305    C   21  px     Val( 2p)     1.01789
   306    C   21  px     Ryd( 3p)     0.00122
   307    C   21  py     Val( 2p)     1.06149
   308    C   21  py     Ryd( 3p)     0.00449
   309    C   21  pz     Val( 2p)     1.17369
   310    C   21  pz     Ryd( 3p)     0.00475
   311    C   21  dxy    Ryd( 3d)     0.00050
   312    C   21  dxz    Ryd( 3d)     0.00049
   313    C   21  dyz    Ryd( 3d)     0.00061
   314    C   21  dx2y2  Ryd( 3d)     0.00042
   315    C   21  dz2    Ryd( 3d)     0.00074
 
   316    C   22  S      Cor( 1S)     1.99903
   317    C   22  S      Val( 2S)     0.95736
   318    C   22  S      Ryd( 3S)     0.00063
   319    C   22  S      Ryd( 4S)     0.00004
   320    C   22  px     Val( 2p)     0.98656
   321    C   22  px     Ryd( 3p)     0.00111
   322    C   22  py     Val( 2p)     1.18367
   323    C   22  py     Ryd( 3p)     0.00503
   324    C   22  pz     Val( 2p)     1.07197
   325    C   22  pz     Ryd( 3p)     0.00376
   326    C   22  dxy    Ryd( 3d)     0.00039
   327    C   22  dxz    Ryd( 3d)     0.00044
   328    C   22  dyz    Ryd( 3d)     0.00073
   329    C   22  dx2y2  Ryd( 3d)     0.00065
   330    C   22  dz2    Ryd( 3d)     0.00057
 
   331    H   23  S      Val( 1S)     0.75848
   332    H   23  S      Ryd( 2S)     0.00115
 
   333    H   24  S      Val( 1S)     0.75571
   334    H   24  S      Ryd( 2S)     0.00221
 
   335    H   25  S      Val( 1S)     0.75805
   336    H   25  S      Ryd( 2S)     0.00118
 
   337    H   26  S      Val( 1S)     0.75494
   338    H   26  S      Ryd( 2S)     0.00214
 
   339    H   27  S      Val( 1S)     0.74685
   340    H   27  S      Ryd( 2S)     0.00140
 
   341    H   28  S      Val( 1S)     0.75810
   342    H   28  S      Ryd( 2S)     0.00083
 
   343    H   29  S      Val( 1S)     0.76010
   344    H   29  S      Ryd( 2S)     0.00082
 
   345    H   30  S      Val( 1S)     0.75954
   346    H   30  S      Ryd( 2S)     0.00085
 
   347    H   31  S      Val( 1S)     0.76206
   348    H   31  S      Ryd( 2S)     0.00106
 
   349    H   32  S      Val( 1S)     0.76295
   350    H   32  S      Ryd( 2S)     0.00106
 
   351    H   33  S      Val( 1S)     0.76011
   352    H   33  S      Ryd( 2S)     0.00085
 
   353    H   34  S      Val( 1S)     0.76060
   354    H   34  S      Ryd( 2S)     0.00082
 
   355    H   35  S      Val( 1S)     0.75855
   356    H   35  S      Ryd( 2S)     0.00083
 
   357    H   36  S      Val( 1S)     0.74652
   358    H   36  S      Ryd( 2S)     0.00136


 Summary of Natural Population Analysis:                  
                                                          
                                       Natural Population 
                Natural  -----------------------------------------------
    Atom  No    Charge         Core      Valence    Rydberg      Total
 -----------------------------------------------------------------------
      C    1   -0.09146      1.99901     4.07794    0.01452     6.09146
      C    2   -0.12393      1.99912     4.10574    0.01907     6.12393
      O    3   -0.52356      1.99973     6.51156    0.01227     8.52356
      C    4    0.92163      1.99950     3.02857    0.05029     5.07837
      O    5   -0.55223      1.99977     6.53174    0.02072     8.55223
      N    6   -0.22286      1.99938     5.19695    0.02652     7.22286
      N    7   -0.21800      1.99938     5.19229    0.02633     7.21800
      C    8    0.92497      1.99951     3.02505    0.05047     5.07503
      O    9   -0.54507      1.99977     6.52460    0.02070     8.54507
      O   10   -0.52171      1.99973     6.50966    0.01232     8.52171
      C   11   -0.12589      1.99912     4.10778    0.01899     6.12589
      C   12   -0.09164      1.99901     4.07809    0.01454     6.09164
      C   13   -0.21155      1.99903     4.19914    0.01338     6.21155
      C   14   -0.22884      1.99910     4.21587    0.01386     6.22884
      C   15   -0.22170      1.99910     4.20912    0.01347     6.22170
      C   16   -0.23046      1.99910     4.21753    0.01383     6.23046
      C   17   -0.21170      1.99903     4.19951    0.01316     6.21170
      C   18   -0.21268      1.99903     4.20051    0.01314     6.21268
      C   19   -0.23070      1.99910     4.21778    0.01383     6.23070
      C   20   -0.22312      1.99910     4.21054    0.01347     6.22312
      C   21   -0.22845      1.99910     4.21551    0.01384     6.22845
      C   22   -0.21195      1.99903     4.19956    0.01335     6.21195
      H   23    0.24037      0.00000     0.75848    0.00115     0.75963
      H   24    0.24208      0.00000     0.75571    0.00221     0.75792
      H   25    0.24077      0.00000     0.75805    0.00118     0.75923
      H   26    0.24293      0.00000     0.75494    0.00214     0.75707
      H   27    0.25175      0.00000     0.74685    0.00140     0.74825
      H   28    0.24107      0.00000     0.75810    0.00083     0.75893
      H   29    0.23908      0.00000     0.76010    0.00082     0.76092
      H   30    0.23962      0.00000     0.75954    0.00085     0.76038
      H   31    0.23688      0.00000     0.76206    0.00106     0.76312
      H   32    0.23599      0.00000     0.76295    0.00106     0.76401
      H   33    0.23904      0.00000     0.76011    0.00085     0.76096
      H   34    0.23857      0.00000     0.76060    0.00082     0.76143
      H   35    0.24062      0.00000     0.75855    0.00083     0.75938
      H   36    0.25212      0.00000     0.74652    0.00136     0.74788
 =======================================================================
   * Total *    0.00000     43.98375   111.57760    0.43865   156.00000

                                 Natural Population      
 --------------------------------------------------------
   Core                      43.98375 ( 99.9631% of  44)
   Valence                  111.57760 ( 99.6229% of 112)
   Natural Minimal Basis    155.56135 ( 99.7188% of 156)
   Natural Rydberg Basis      0.43865 (  0.2812% of 156)
 --------------------------------------------------------

    Atom  No          Natural Electron Configuration
 ----------------------------------------------------------------------------
      C    1      [core]2S( 0.89)2p( 3.19)3p( 0.01)
      C    2      [core]2S( 1.03)2p( 3.07)3p( 0.01)3d( 0.01)
      O    3      [core]2S( 1.63)2p( 4.88)3d( 0.01)
      C    4      [core]2S( 0.73)2p( 2.30)3p( 0.03)3d( 0.01)
      O    5      [core]2S( 1.71)2p( 4.82)3d( 0.02)
      N    6      [core]2S( 1.39)2p( 3.80)3S( 0.01)3p( 0.01)3d( 0.01)
      N    7      [core]2S( 1.39)2p( 3.80)3S( 0.01)3p( 0.01)3d( 0.01)
      C    8      [core]2S( 0.73)2p( 2.29)3p( 0.03)3d( 0.01)
      O    9      [core]2S( 1.71)2p( 4.82)3d( 0.02)
      O   10      [core]2S( 1.63)2p( 4.88)3d( 0.01)
      C   11      [core]2S( 1.03)2p( 3.08)3p( 0.01)3d( 0.01)
      C   12      [core]2S( 0.89)2p( 3.19)3p( 0.01)
      C   13      [core]2S( 0.96)2p( 3.24)3p( 0.01)
      C   14      [core]2S( 0.96)2p( 3.25)3p( 0.01)
      C   15      [core]2S( 0.97)2p( 3.24)3p( 0.01)
      C   16      [core]2S( 0.96)2p( 3.26)3p( 0.01)
      C   17      [core]2S( 0.95)2p( 3.25)3p( 0.01)
      C   18      [core]2S( 0.95)2p( 3.25)3p( 0.01)
      C   19      [core]2S( 0.96)2p( 3.26)3p( 0.01)
      C   20      [core]2S( 0.96)2p( 3.25)3p( 0.01)
      C   21      [core]2S( 0.96)2p( 3.25)3p( 0.01)
      C   22      [core]2S( 0.96)2p( 3.24)3p( 0.01)
      H   23            1S( 0.76)
      H   24            1S( 0.76)
      H   25            1S( 0.76)
      H   26            1S( 0.75)
      H   27            1S( 0.75)
      H   28            1S( 0.76)
      H   29            1S( 0.76)
      H   30            1S( 0.76)
      H   31            1S( 0.76)
      H   32            1S( 0.76)
      H   33            1S( 0.76)
      H   34            1S( 0.76)
      H   35            1S( 0.76)
      H   36            1S( 0.75)


 NBO analysis skipped by request.
 1\1\GINC-DELLA-R2C4N2\SP\RB3LYP TD-FC\6-31G(d)\C16H14N2O4\BJS4\22-Aug-
 2020\0\\# TD(NStates=10, Root=1) B3LYP/6-31G* scf=qc volume pop=NPA de
 nsity=current Geom=AllCheck Guess=Read\\Title Card Required\\0,1\C,0,-
 2.6348809961,-0.0093679743,-2.4790415084\C,0,-2.5137613602,0.524112829
 3,-1.0767879722\O,0,-3.5685100513,1.4992599296,-0.7735183086\C,0,-4.68
 26182217,1.0129853157,-0.2327251681\O,0,-4.9427286398,-0.131327054,0.0
 449096443\N,0,-5.5722142645,2.0960552926,0.1377475123\N,0,-6.193702110
 5,2.5673104306,-0.8323612228\C,0,-7.161080979,3.5761538651,-0.45010656
 48\O,0,-8.3319735706,3.3157741316,-0.3283772065\O,0,-6.5655484353,4.76
 38097392,-0.377476167\C,0,-7.4420101605,5.9184261975,-0.1426646418\C,0
 ,-7.9307670615,6.516860851,-1.4343797753\C,0,-9.13316171,6.0850145273,
 -2.0110051345\C,0,-9.5753373916,6.6375931118,-3.2129732182\C,0,-8.8216
 006582,7.625802617,-3.8496894802\C,0,-7.6225002735,8.0609826995,-3.281
 707111\C,0,-7.1809058253,7.5082507703,-2.0798660372\C,0,-1.9887837594,
 0.6408922571,-3.5377838692\C,0,-2.1019662918,0.1574472846,-4.841083608
 2\C,0,-2.8644227177,-0.9839117128,-5.0968301034\C,0,-3.5122262796,-1.6
 382578104,-4.0468260007\C,0,-3.3986945773,-1.1544040061,-2.7436727836\
 H,0,-1.5945065739,1.096641345,-0.9426602303\H,0,-2.5681494489,-0.27138
 55351,-0.3313059954\H,0,-6.8015867883,6.611223293,0.4054632088\H,0,-8.
 2655287056,5.5928902123,0.4948481788\H,0,-9.7118938431,5.3092674659,-1
 .5182661642\H,0,-10.5095237042,6.2975424661,-3.6515108147\H,0,-9.16865
 53654,8.0573241475,-4.7847663107\H,0,-7.0339777951,8.8315398216,-3.772
 2449467\H,0,-6.2477774481,7.8489112484,-1.636772869\H,0,-1.3936669176,
 1.5293339093,-3.3387749336\H,0,-1.5945353069,0.6688006855,-5.654563842
 9\H,0,-2.9520595813,-1.3634096855,-6.1113844284\H,0,-4.1056488573,-2.5
 27242923,-4.2422488748\H,0,-3.9094143291,-1.6548997433,-1.9262532516\\
 Version=ES64L-G16RevA.03\State=1-A\HF=-1028.4822518\RMSD=4.391e-13\Dip
 ole=0.8217622,1.0736965,-0.8408834\Quadrupole=-0.2371603,2.6391291,-2.
 4019689,-6.9591732,2.12152,4.6925809\PG=C01 [X(C16H14N2O4)]\\@


 EXPERIENCE IS A WONDERFUL THING.  IT ENABLES
 YOU TO RECOGNIZE A MISTAKE WHEN YOU MAKE IT AGAIN.
           - BACK OF A SUGAR PACKET
 Job cpu time:       0 days  0 hours 49 minutes 52.1 seconds.
 Elapsed time:       0 days  0 hours 10 minutes  0.4 seconds.
 File lengths (MBytes):  RWF=   1047 Int=      0 D2E=      0 Chk=    268 Scr=      1
 Normal termination of Gaussian 16 at Sat Aug 22 17:22:27 2020.
