 Entering Gaussian System, Link 0=g16
 Input=azadicarboxylate_6_conf19123.com
 Output=azadicarboxylate_6_conf19123.log
 Initial command:
 /opt/export//g16/l1.exe "/scratch/bjs4/job.10778/Gau-10780.inp" -scrdir="/scratch/bjs4/job.10778/"
 Entering Link 1 = /opt/export//g16/l1.exe PID=     10781.
  
 Copyright (c) 1988,1990,1992,1993,1995,1998,2003,2009,2016,
            Gaussian, Inc.  All Rights Reserved.
  
 This is part of the Gaussian(R) 16 program.  It is based on
 the Gaussian(R) 09 system (copyright 2009, Gaussian, Inc.),
 the Gaussian(R) 03 system (copyright 2003, Gaussian, Inc.),
 the Gaussian(R) 98 system (copyright 1998, Gaussian, Inc.),
 the Gaussian(R) 94 system (copyright 1995, Gaussian, Inc.),
 the Gaussian 92(TM) system (copyright 1992, Gaussian, Inc.),
 the Gaussian 90(TM) system (copyright 1990, Gaussian, Inc.),
 the Gaussian 88(TM) system (copyright 1988, Gaussian, Inc.),
 the Gaussian 86(TM) system (copyright 1986, Carnegie Mellon
 University), and the Gaussian 82(TM) system (copyright 1983,
 Carnegie Mellon University). Gaussian is a federally registered
 trademark of Gaussian, Inc.
  
 This software contains proprietary and confidential information,
 including trade secrets, belonging to Gaussian, Inc.
  
 This software is provided under written license and may be
 used, copied, transmitted, or stored only in accord with that
 written license.
  
 The following legend is applicable only to US Government
 contracts under FAR:
  
                    RESTRICTED RIGHTS LEGEND
  
 Use, reproduction and disclosure by the US Government is
 subject to restrictions as set forth in subparagraphs (a)
 and (c) of the Commercial Computer Software - Restricted
 Rights clause in FAR 52.227-19.
  
 Gaussian, Inc.
 340 Quinnipiac St., Bldg. 40, Wallingford CT 06492
  
  
 ---------------------------------------------------------------
 Warning -- This program may not be used in any manner that
 competes with the business of Gaussian, Inc. or will provide
 assistance to any competitor of Gaussian, Inc.  The licensee
 of this program is prohibited from giving any competitor of
 Gaussian, Inc. access to this program.  By using this program,
 the user acknowledges that Gaussian, Inc. is engaged in the
 business of creating and licensing software in the field of
 computational chemistry and represents and warrants to the
 licensee that it is not a competitor of Gaussian, Inc. and that
 it will not use this program in any manner prohibited above.
 ---------------------------------------------------------------
  

 Cite this work as:
 Gaussian 16, Revision A.03,
 M. J. Frisch, G. W. Trucks, H. B. Schlegel, G. E. Scuseria, 
 M. A. Robb, J. R. Cheeseman, G. Scalmani, V. Barone, 
 G. A. Petersson, H. Nakatsuji, X. Li, M. Caricato, A. V. Marenich, 
 J. Bloino, B. G. Janesko, R. Gomperts, B. Mennucci, H. P. Hratchian, 
 J. V. Ortiz, A. F. Izmaylov, J. L. Sonnenberg, D. Williams-Young, 
 F. Ding, F. Lipparini, F. Egidi, J. Goings, B. Peng, A. Petrone, 
 T. Henderson, D. Ranasinghe, V. G. Zakrzewski, J. Gao, N. Rega, 
 G. Zheng, W. Liang, M. Hada, M. Ehara, K. Toyota, R. Fukuda, 
 J. Hasegawa, M. Ishida, T. Nakajima, Y. Honda, O. Kitao, H. Nakai, 
 T. Vreven, K. Throssell, J. A. Montgomery, Jr., J. E. Peralta, 
 F. Ogliaro, M. J. Bearpark, J. J. Heyd, E. N. Brothers, K. N. Kudin, 
 V. N. Staroverov, T. A. Keith, R. Kobayashi, J. Normand, 
 K. Raghavachari, A. P. Rendell, J. C. Burant, S. S. Iyengar, 
 J. Tomasi, M. Cossi, J. M. Millam, M. Klene, C. Adamo, R. Cammi, 
 J. W. Ochterski, R. L. Martin, K. Morokuma, O. Farkas, 
 J. B. Foresman, and D. J. Fox, Gaussian, Inc., Wallingford CT, 2016.
 
 ******************************************
 Gaussian 16:  ES64L-G16RevA.03 25-Dec-2016
                22-Aug-2020 
 ******************************************
 %nprocshared=3
 Will use up to    3 processors via shared memory.
 %Mem=6GB
 %Chk=azadicarboxylate_6_conf191.chk
 ---------------------------------
 # opt=CalcAll B3LYP/6-31G* scf=qc
 ---------------------------------
 1/10=4,18=20,19=15,26=3,38=1/1,3;
 2/9=110,12=2,17=6,18=5,40=1/2;
 3/5=1,6=6,7=1,11=2,25=1,30=1,71=2,74=-5,140=1/1,2,3;
 4//1;
 5/5=2,8=3,38=5/8;
 8/6=4,10=90,11=11/1;
 11/6=1,8=1,9=11,15=111,16=1/1,2,10;
 10/6=1/2;
 6/7=2,8=2,9=2,10=2,18=1,28=1/1;
 7/10=1,25=1/1,2,3,16;
 1/10=4,18=20,19=15,26=3/3(3);
 2/9=110/2;
 7/8=1,9=1,25=1,44=-1/16;
 99//99;
 2/9=110/2;
 3/5=1,6=6,7=1,11=2,25=1,30=1,71=2,74=-5,140=1/1,2,3;
 4/5=5,16=3,69=1/1;
 5/5=2,8=3,38=5/8;
 8/6=4,10=90,11=11/1;
 11/6=1,8=1,9=11,15=111,16=1/1,2,10;
 10/6=1/2;
 7/10=1,25=1/1,2,3,16;
 1/10=4,18=20,19=15,26=3/3(-8);
 2/9=110/2;
 6/7=2,8=2,9=2,10=2,18=1,19=2,28=1/1;
 7/8=1,9=1,25=1,44=-1/16;
 99//99;
 -------------------
 Title Card Required
 -------------------
 Symbolic Z-matrix:
 Charge =  0 Multiplicity = 1
 C2                    0.8051    0.1255    0.0867 
 O3                    1.90048   0.22376  -0.47028 
 N4                    0.1995    1.147     0.7925 
 N5                   -1.0503    1.0879    0.7508 
 C6                   -1.6557    2.1093    1.4564 
 O7                   -1.1633    2.65372   2.44677 
 N8                   -2.9032    2.50753   0.96901 
 C                    -3.6992    3.56559   1.56977 
 C                    -3.46707   1.85344  -0.19692 
 N1                    0.08305  -1.06922   0.0363 
 C                     0.62326  -2.21166  -0.67691 
 C                    -1.21297  -1.25102   0.66957 
 H                    -3.22131   4.01691   2.44101 
 H                    -4.66261   3.14628   1.87573 
 H                    -3.86779   4.344     0.81943 
 H                    -2.81528   1.07134  -0.59343 
 H                    -3.63042   2.60377  -0.97633 
 H                    -4.42574   1.40509   0.08079 
 H                     1.59699  -2.00202  -1.12587 
 H                    -0.07617  -2.49363  -1.4696 
 H                     0.73112  -3.04459   0.02418 
 H                    -1.56365  -0.35732   1.18864 
 H                    -1.13631  -2.0692    1.39224 
 H                    -1.94287  -1.51873  -0.10054 
 

 GradGradGradGradGradGradGradGradGradGradGradGradGradGradGradGradGradGrad
 Berny optimization.
 Initialization pass.
                           ----------------------------
                           !    Initial Parameters    !
                           ! (Angstroms and Degrees)  !
 --------------------------                            --------------------------
 ! Name  Definition              Value          Derivative Info.                !
 --------------------------------------------------------------------------------
 ! R1    R(1,2)                  1.2328         calculate D2E/DX2 analytically  !
 ! R2    R(1,3)                  1.3814         calculate D2E/DX2 analytically  !
 ! R3    R(1,10)                 1.3969         calculate D2E/DX2 analytically  !
 ! R4    R(3,4)                  1.2519         calculate D2E/DX2 analytically  !
 ! R5    R(4,5)                  1.3812         calculate D2E/DX2 analytically  !
 ! R6    R(5,6)                  1.2328         calculate D2E/DX2 analytically  !
 ! R7    R(5,7)                  1.3973         calculate D2E/DX2 analytically  !
 ! R8    R(7,8)                  1.454          calculate D2E/DX2 analytically  !
 ! R9    R(7,9)                  1.4509         calculate D2E/DX2 analytically  !
 ! R10   R(8,13)                 1.0914         calculate D2E/DX2 analytically  !
 ! R11   R(8,14)                 1.0943         calculate D2E/DX2 analytically  !
 ! R12   R(8,15)                 1.0942         calculate D2E/DX2 analytically  !
 ! R13   R(9,16)                 1.0926         calculate D2E/DX2 analytically  !
 ! R14   R(9,17)                 1.0941         calculate D2E/DX2 analytically  !
 ! R15   R(9,18)                 1.0942         calculate D2E/DX2 analytically  !
 ! R16   R(10,11)                1.4511         calculate D2E/DX2 analytically  !
 ! R17   R(10,12)                1.4539         calculate D2E/DX2 analytically  !
 ! R18   R(11,19)                1.0925         calculate D2E/DX2 analytically  !
 ! R19   R(11,20)                1.0941         calculate D2E/DX2 analytically  !
 ! R20   R(11,21)                1.094          calculate D2E/DX2 analytically  !
 ! R21   R(12,22)                1.0914         calculate D2E/DX2 analytically  !
 ! R22   R(12,23)                1.0943         calculate D2E/DX2 analytically  !
 ! R23   R(12,24)                1.0943         calculate D2E/DX2 analytically  !
 ! A1    A(2,1,3)              124.1543         calculate D2E/DX2 analytically  !
 ! A2    A(2,1,10)             120.7414         calculate D2E/DX2 analytically  !
 ! A3    A(3,1,10)             115.1043         calculate D2E/DX2 analytically  !
 ! A4    A(1,3,4)              112.6888         calculate D2E/DX2 analytically  !
 ! A5    A(3,4,5)              112.6849         calculate D2E/DX2 analytically  !
 ! A6    A(4,5,6)              124.1897         calculate D2E/DX2 analytically  !
 ! A7    A(4,5,7)              115.0813         calculate D2E/DX2 analytically  !
 ! A8    A(6,5,7)              120.729          calculate D2E/DX2 analytically  !
 ! A9    A(5,7,8)              123.5082         calculate D2E/DX2 analytically  !
 ! A10   A(5,7,9)              119.9197         calculate D2E/DX2 analytically  !
 ! A11   A(8,7,9)              116.5721         calculate D2E/DX2 analytically  !
 ! A12   A(7,8,13)             113.0196         calculate D2E/DX2 analytically  !
 ! A13   A(7,8,14)             108.5817         calculate D2E/DX2 analytically  !
 ! A14   A(7,8,15)             108.5836         calculate D2E/DX2 analytically  !
 ! A15   A(13,8,14)            108.7079         calculate D2E/DX2 analytically  !
 ! A16   A(13,8,15)            108.7047         calculate D2E/DX2 analytically  !
 ! A17   A(14,8,15)            109.1868         calculate D2E/DX2 analytically  !
 ! A18   A(7,9,16)             112.488          calculate D2E/DX2 analytically  !
 ! A19   A(7,9,17)             108.7412         calculate D2E/DX2 analytically  !
 ! A20   A(7,9,18)             108.74           calculate D2E/DX2 analytically  !
 ! A21   A(16,9,17)            108.7498         calculate D2E/DX2 analytically  !
 ! A22   A(16,9,18)            108.7522         calculate D2E/DX2 analytically  !
 ! A23   A(17,9,18)            109.3293         calculate D2E/DX2 analytically  !
 ! A24   A(1,10,11)            119.9115         calculate D2E/DX2 analytically  !
 ! A25   A(1,10,12)            123.5054         calculate D2E/DX2 analytically  !
 ! A26   A(11,10,12)           116.5831         calculate D2E/DX2 analytically  !
 ! A27   A(10,11,19)           112.5007         calculate D2E/DX2 analytically  !
 ! A28   A(10,11,20)           108.724          calculate D2E/DX2 analytically  !
 ! A29   A(10,11,21)           108.7314         calculate D2E/DX2 analytically  !
 ! A30   A(19,11,20)           108.7523         calculate D2E/DX2 analytically  !
 ! A31   A(19,11,21)           108.7568         calculate D2E/DX2 analytically  !
 ! A32   A(20,11,21)           109.3355         calculate D2E/DX2 analytically  !
 ! A33   A(10,12,22)           113.0291         calculate D2E/DX2 analytically  !
 ! A34   A(10,12,23)           108.5837         calculate D2E/DX2 analytically  !
 ! A35   A(10,12,24)           108.5807         calculate D2E/DX2 analytically  !
 ! A36   A(22,12,23)           108.703          calculate D2E/DX2 analytically  !
 ! A37   A(22,12,24)           108.7063         calculate D2E/DX2 analytically  !
 ! A38   A(23,12,24)           109.1813         calculate D2E/DX2 analytically  !
 ! D1    D(2,1,3,4)            149.7041         calculate D2E/DX2 analytically  !
 ! D2    D(10,1,3,4)           -30.3085         calculate D2E/DX2 analytically  !
 ! D3    D(2,1,10,11)            0.059          calculate D2E/DX2 analytically  !
 ! D4    D(2,1,10,12)         -179.9402         calculate D2E/DX2 analytically  !
 ! D5    D(3,1,10,11)         -179.9289         calculate D2E/DX2 analytically  !
 ! D6    D(3,1,10,12)            0.0719         calculate D2E/DX2 analytically  !
 ! D7    D(1,3,4,5)           -179.9952         calculate D2E/DX2 analytically  !
 ! D8    D(3,4,5,6)            -29.676          calculate D2E/DX2 analytically  !
 ! D9    D(3,4,5,7)            150.318          calculate D2E/DX2 analytically  !
 ! D10   D(4,5,7,8)           -179.9201         calculate D2E/DX2 analytically  !
 ! D11   D(4,5,7,9)              0.0878         calculate D2E/DX2 analytically  !
 ! D12   D(6,5,7,8)              0.0742         calculate D2E/DX2 analytically  !
 ! D13   D(6,5,7,9)           -179.9179         calculate D2E/DX2 analytically  !
 ! D14   D(5,7,8,13)             0.0104         calculate D2E/DX2 analytically  !
 ! D15   D(5,7,8,14)          -120.6866         calculate D2E/DX2 analytically  !
 ! D16   D(5,7,8,15)           120.7046         calculate D2E/DX2 analytically  !
 ! D17   D(9,7,8,13)          -179.9973         calculate D2E/DX2 analytically  !
 ! D18   D(9,7,8,14)            59.3058         calculate D2E/DX2 analytically  !
 ! D19   D(9,7,8,15)           -59.303          calculate D2E/DX2 analytically  !
 ! D20   D(5,7,9,16)            -0.0122         calculate D2E/DX2 analytically  !
 ! D21   D(5,7,9,17)          -120.531          calculate D2E/DX2 analytically  !
 ! D22   D(5,7,9,18)           120.5088         calculate D2E/DX2 analytically  !
 ! D23   D(8,7,9,16)           179.9952         calculate D2E/DX2 analytically  !
 ! D24   D(8,7,9,17)            59.4764         calculate D2E/DX2 analytically  !
 ! D25   D(8,7,9,18)           -59.4838         calculate D2E/DX2 analytically  !
 ! D26   D(1,10,11,19)          -0.0044         calculate D2E/DX2 analytically  !
 ! D27   D(1,10,11,20)        -120.5226         calculate D2E/DX2 analytically  !
 ! D28   D(1,10,11,21)         120.5246         calculate D2E/DX2 analytically  !
 ! D29   D(12,10,11,19)        179.9949         calculate D2E/DX2 analytically  !
 ! D30   D(12,10,11,20)         59.4766         calculate D2E/DX2 analytically  !
 ! D31   D(12,10,11,21)        -59.4762         calculate D2E/DX2 analytically  !
 ! D32   D(1,10,12,22)          -0.0009         calculate D2E/DX2 analytically  !
 ! D33   D(1,10,12,23)        -120.699          calculate D2E/DX2 analytically  !
 ! D34   D(1,10,12,24)         120.6994         calculate D2E/DX2 analytically  !
 ! D35   D(11,10,12,22)        179.9999         calculate D2E/DX2 analytically  !
 ! D36   D(11,10,12,23)         59.3018         calculate D2E/DX2 analytically  !
 ! D37   D(11,10,12,24)        -59.2999         calculate D2E/DX2 analytically  !
 --------------------------------------------------------------------------------
 Trust Radius=3.00D-01 FncErr=1.00D-07 GrdErr=1.00D-06 EigMax=2.50D+02 EigMin=1.00D-04
 Number of steps in this run=    108 maximum allowed number of steps=    144.
 GradGradGradGradGradGradGradGradGradGradGradGradGradGradGradGradGradGrad

                          Input orientation:                          
 ---------------------------------------------------------------------
 Center     Atomic      Atomic             Coordinates (Angstroms)
 Number     Number       Type             X           Y           Z
 ---------------------------------------------------------------------
      1          6           0        0.805100    0.125500    0.086700
      2          8           0        1.900480    0.223760   -0.470280
      3          7           0        0.199500    1.147000    0.792500
      4          7           0       -1.050300    1.087900    0.750800
      5          6           0       -1.655700    2.109300    1.456400
      6          8           0       -1.163300    2.653720    2.446770
      7          7           0       -2.903200    2.507530    0.969010
      8          6           0       -3.699200    3.565590    1.569770
      9          6           0       -3.467070    1.853440   -0.196920
     10          7           0        0.083050   -1.069220    0.036300
     11          6           0        0.623260   -2.211660   -0.676910
     12          6           0       -1.212970   -1.251020    0.669570
     13          1           0       -3.221310    4.016910    2.441010
     14          1           0       -4.662610    3.146280    1.875730
     15          1           0       -3.867790    4.344000    0.819430
     16          1           0       -2.815280    1.071340   -0.593430
     17          1           0       -3.630420    2.603770   -0.976330
     18          1           0       -4.425740    1.405090    0.080790
     19          1           0        1.596990   -2.002020   -1.125870
     20          1           0       -0.076170   -2.493630   -1.469600
     21          1           0        0.731120   -3.044590    0.024180
     22          1           0       -1.563650   -0.357320    1.188640
     23          1           0       -1.136310   -2.069200    1.392240
     24          1           0       -1.942870   -1.518730   -0.100540
 ---------------------------------------------------------------------
                    Distance matrix (angstroms):
                    1          2          3          4          5
     1  C    0.000000
     2  O    1.232777   0.000000
     3  N    1.381437   2.310913   0.000000
     4  N    2.193115   3.308304   1.251891   0.000000
     5  C    3.444862   4.462485   2.192841   1.381173   0.000000
     6  O    3.979501   4.878589   2.619931   2.311033   1.232754
     7  N    4.494889   5.510218   3.392484   2.344398   1.397280
     8  C    5.858535   6.832719   4.653342   3.718377   2.511877
     9  C    4.617104   5.616153   3.862867   2.706474   2.465764
    10  N    1.396872   2.287241   2.344575   2.539323   3.891391
    11  C    2.465458   2.757763   3.690438   3.965634   5.330606
    12  C    2.511404   3.628747   2.785800   2.345977   3.479492
    13  H    6.074358   7.006877   4.759822   4.018606   2.656985
    14  H    6.497814   7.557714   5.367553   4.307108   3.208220
    15  H    6.337865   7.205045   5.173430   4.306408   3.208264
    16  H    3.803201   4.792906   3.318949   2.218644   2.573672
    17  H    5.190924   6.042465   4.463096   3.455121   3.172096
    18  H    5.385079   6.459124   4.686789   3.455882   3.171961
    19  H    2.573666   2.340086   3.943279   4.480808   5.843891
    20  H    3.171521   3.505709   4.295029   4.325097   5.678323
    21  H    3.171569   3.506281   4.294457   4.558389   5.857538
    22  H    2.656758   3.884568   2.351298   1.594959   2.482818
    23  H    3.207837   4.236595   3.533839   3.222751   4.211145
    24  H    3.207786   4.236073   3.534598   2.883744   3.958425
                    6          7          8          9         10
     6  O    0.000000
     7  N    2.287444   0.000000
     8  C    2.833977   1.453967   0.000000
     9  C    3.596790   1.450922   2.471141   0.000000
    10  N    4.606955   4.751924   6.175630   4.604312   0.000000
    11  C    6.051537   6.116840   7.556974   5.786729   1.451091
    12  C    4.290443   4.131978   5.494673   3.933121   1.453874
    13  H    2.468547   2.132183   1.091388   3.420479   6.524580
    14  H    3.579647   2.079824   1.094345   2.719674   6.608724
    15  H    3.580440   2.079767   1.094237   2.719638   6.747250
    16  H    3.804705   2.124050   3.417899   1.092580   3.657714
    17  H    4.219809   2.079052   2.722582   1.094147   5.320351
    18  H    4.219058   2.079047   2.722624   1.094161   5.143285
    19  H    6.485281   6.706435   8.143364   6.432124   2.124328
    20  H    6.558584   6.241035   7.686239   5.658174   2.078949
    21  H    6.475222   6.702762   8.106236   6.454795   2.078997
    22  H    3.287785   3.170173   4.482751   3.229589   2.132208
    23  H    4.839291   4.924173   6.192801   4.831664   2.079753
    24  H    4.950339   4.275154   5.632490   3.701892   2.079696
                   11         12         13         14         15
    11  C    0.000000
    12  C    2.471351   0.000000
    13  H    7.955955   5.909528   0.000000
    14  H    7.947573   5.717612   1.776199   0.000000
    15  H    8.086114   6.194738   1.776076   1.783828   0.000000
    16  H    4.754852   3.091265   4.248420   3.716821   3.716753
    17  H    6.432092   4.838642   3.720558   3.081230   2.511872
    18  H    6.256788   4.209926   3.720604   2.511904   3.081248
    19  H    1.092549   3.418111   8.495067   8.642753   8.597673
    20  H    1.094105   2.722580   8.220213   8.002203   8.146731
    21  H    1.094044   2.722666   8.445564   8.417092   8.739202
    22  H    3.420735   1.091380   4.842536   4.727669   5.248599
    23  H    2.719883   1.094325   6.518273   6.314253   6.994157
    24  H    2.719812   1.094300   6.223921   5.750213   6.238851
                   16         17         18         19         20
    16  H    0.000000
    17  H    1.777472   0.000000
    18  H    1.777510   1.785181   0.000000
    19  H    5.403440   6.968607   7.024080   0.000000
    20  H    4.580328   6.233738   6.043384   1.777441   0.000000
    21  H    5.468023   7.206110   6.811465   1.777441   1.785120
    22  H    2.604500   4.210307   3.539065   4.248722   3.720572
    23  H    4.077354   5.802358   4.960942   3.717031   3.081260
    24  H    2.777139   4.539806   3.840084   3.716918   2.511837
                   21         22         23         24
    21  H    0.000000
    22  H    3.720666   0.000000
    23  H    2.512025   1.776121   0.000000
    24  H    3.081238   1.776138   1.783802   0.000000
 Stoichiometry    C6H12N4O2
 Framework group  C1[X(C6H12N4O2)]
 Deg. of freedom    66
 Full point group                 C1      NOp   1
 Largest Abelian subgroup         C1      NOp   1
 Largest concise Abelian subgroup C1      NOp   1
                         Standard orientation:                         
 ---------------------------------------------------------------------
 Center     Atomic      Atomic             Coordinates (Angstroms)
 Number     Number       Type             X           Y           Z
 ---------------------------------------------------------------------
      1          6           0       -1.873208   -0.791260   -0.308580
      2          8           0       -2.676551   -1.471134   -0.950569
      3          7           0       -0.566604   -1.164162   -0.059386
      4          7           0        0.204539   -0.183211    0.042130
      5          6           0        1.510887   -0.556136    0.291169
      6          8           0        1.835568   -1.576790    0.901524
      7          7           0        2.481307    0.318435   -0.204616
      8          6           0        3.910753    0.103411   -0.048193
      9          6           0        2.079405    1.515680   -0.918937
     10          7           0       -2.249423    0.443235    0.225963
     11          6           0       -3.599811    0.936156    0.028107
     12          6           0       -1.351877    1.293777    0.990646
     13          1           0        4.147517   -0.812182    0.496565
     14          1           0        4.334041    0.954196    0.494561
     15          1           0        4.365881    0.048242   -1.041757
     16          1           0        0.993818    1.610770   -0.997608
     17          1           0        2.503528    1.482636   -1.926998
     18          1           0        2.471565    2.389224   -0.389484
     19          1           0       -4.215646    0.246345   -0.553763
     20          1           0       -3.550477    1.893717   -0.498875
     21          1           0       -4.066458    1.084711    1.006424
     22          1           0       -0.353390    0.868000    1.103997
     23          1           0       -1.781784    1.449752    1.984828
     24          1           0       -1.266358    2.258143    0.480572
 ---------------------------------------------------------------------
 Rotational constants (GHZ):           1.9605199           0.5051029           0.4489208
 Standard basis: 6-31G(d) (6D, 7F)
 There are   204 symmetry adapted cartesian basis functions of A   symmetry.
 There are   204 symmetry adapted basis functions of A   symmetry.
   204 basis functions,   384 primitive gaussians,   204 cartesian basis functions
    46 alpha electrons       46 beta electrons
       nuclear repulsion energy       740.9095718363 Hartrees.
 NAtoms=   24 NActive=   24 NUniq=   24 SFac= 1.00D+00 NAtFMM=   60 NAOKFM=F Big=F
 Integral buffers will be    131072 words long.
 Raffenetti 2 integral format.
 Two-electron integral symmetry is turned on.
 One-electron integrals computed using PRISM.
 NBasis=   204 RedAO= T EigKep=  1.96D-03  NBF=   204
 NBsUse=   204 1.00D-06 EigRej= -1.00D+00 NBFU=   204
 ExpMin= 1.61D-01 ExpMax= 5.48D+03 ExpMxC= 8.25D+02 IAcc=3 IRadAn=         5 AccDes= 0.00D+00
 Harris functional with IExCor=  402 and IRadAn=       5 diagonalized for initial guess.
 HarFok:  IExCor=  402 AccDes= 0.00D+00 IRadAn=         5 IDoV= 1 UseB2=F ITyADJ=14
 ICtDFT=  3500011 ScaDFX=  1.000000  1.000000  1.000000  1.000000
 FoFCou: FMM=F IPFlag=           0 FMFlag=      100000 FMFlg1=           0
         NFxFlg=           0 DoJE=T BraDBF=F KetDBF=T FulRan=T
         wScrn=  0.000000 ICntrl=       500 IOpCl=  0 I1Cent=   200000004 NGrid=           0
         NMat0=    1 NMatS0=      1 NMatT0=    0 NMatD0=    1 NMtDS0=    0 NMtDT0=    0
 Petite list used in FoFCou.
 Keep R1 ints in memory in canonical form, NReq=222933844.
 Gradient too large for Newton-Raphson -- use scaled steepest descent instead.
     Minimum is close to point  2 DX=  2.28D-02 DF= -1.55D-03 DXR=  7.07D-02 DFR=  5.02D-03 which will be used.
 Gradient too large for Newton-Raphson -- use scaled steepest descent instead.
     Minimum is close to point  3 DX=  5.61D-03 DF= -4.00D-06 DXR=  1.11D-02 DFR=  1.23D-04 which will be used.
 Gradient too large for Newton-Raphson -- use scaled steepest descent instead.
     Accept linear search using points  1 and  2.
 Gradient too large for Newton-Raphson -- use scaled steepest descent instead.
     Accept linear search using points  2 and  3.
 Gradient too large for Newton-Raphson -- use scaled steepest descent instead.
     Accept linear search using points  1 and  2.
 Gradient too large for Newton-Raphson -- use scaled steepest descent instead.
     Accept linear search using points  1 and  2.
 LinEq1:  Iter=  0 NonCon=     1 RMS=1.18D-04 Max=5.20D-03 NDo=     1
 AX will form     1 AO Fock derivatives at one time.
 LinEq1:  Iter=  1 NonCon=     1 RMS=1.08D-04 Max=3.11D-03 NDo=     1
 LinEq1:  Iter=  2 NonCon=     1 RMS=3.01D-05 Max=9.22D-04 NDo=     1
 LinEq1:  Iter=  3 NonCon=     1 RMS=2.72D-05 Max=1.12D-03 NDo=     1
 LinEq1:  Iter=  4 NonCon=     1 RMS=2.30D-05 Max=5.81D-04 NDo=     1
 LinEq1:  Iter=  5 NonCon=     1 RMS=7.48D-06 Max=2.42D-04 NDo=     1
 LinEq1:  Iter=  6 NonCon=     1 RMS=5.18D-06 Max=1.89D-04 NDo=     1
 LinEq1:  Iter=  7 NonCon=     1 RMS=4.65D-06 Max=2.17D-04 NDo=     1
 LinEq1:  Iter=  8 NonCon=     1 RMS=4.01D-06 Max=1.70D-04 NDo=     1
 LinEq1:  Iter=  9 NonCon=     1 RMS=2.13D-06 Max=5.41D-05 NDo=     1
 LinEq1:  Iter= 10 NonCon=     1 RMS=9.51D-07 Max=2.38D-05 NDo=     1
 LinEq1:  Iter= 11 NonCon=     1 RMS=4.43D-07 Max=1.07D-05 NDo=     1
 LinEq1:  Iter= 12 NonCon=     1 RMS=1.98D-07 Max=4.74D-06 NDo=     1
 LinEq1:  Iter= 13 NonCon=     1 RMS=5.12D-08 Max=1.23D-06 NDo=     1
 LinEq1:  Iter= 14 NonCon=     1 RMS=2.22D-08 Max=4.06D-07 NDo=     1
 LinEq1:  Iter= 15 NonCon=     1 RMS=1.20D-08 Max=2.19D-07 NDo=     1
 LinEq1:  Iter= 16 NonCon=     0 RMS=7.16D-09 Max=1.14D-07 NDo=     1
 Linear equations converged to 1.206D-08 1.206D-07 after    16 iterations.
     Accept linear search using points  1 and  2.
     Minimum is close to point  2 DX= -1.12D-03 DF= -4.01D-11 DXR=  1.12D-03 DFR=  1.25D-06 which will be used.
 LinEq1:  Iter=  0 NonCon=     1 RMS=5.71D-07 Max=3.18D-05 NDo=     1
 LinEq1:  Iter=  1 NonCon=     1 RMS=4.85D-07 Max=2.11D-05 NDo=     1
 LinEq1:  Iter=  2 NonCon=     1 RMS=3.05D-07 Max=1.16D-05 NDo=     1
 LinEq1:  Iter=  3 NonCon=     1 RMS=1.84D-07 Max=3.97D-06 NDo=     1
 LinEq1:  Iter=  4 NonCon=     1 RMS=1.27D-07 Max=1.86D-06 NDo=     1
 LinEq1:  Iter=  5 NonCon=     1 RMS=7.50D-08 Max=2.37D-06 NDo=     1
 LinEq1:  Iter=  6 NonCon=     1 RMS=6.86D-08 Max=1.93D-06 NDo=     1
 LinEq1:  Iter=  7 NonCon=     1 RMS=4.26D-08 Max=1.40D-06 NDo=     1
 LinEq1:  Iter=  8 NonCon=     1 RMS=3.52D-08 Max=1.42D-06 NDo=     1
 LinEq1:  Iter=  9 NonCon=     1 RMS=3.08D-08 Max=1.01D-06 NDo=     1
 LinEq1:  Iter= 10 NonCon=     1 RMS=1.81D-08 Max=4.43D-07 NDo=     1
 LinEq1:  Iter= 11 NonCon=     1 RMS=1.28D-08 Max=2.49D-07 NDo=     1
 LinEq1:  Iter= 12 NonCon=     1 RMS=4.33D-09 Max=9.60D-08 NDo=     1
 LinEq1:  Iter= 13 NonCon=     1 RMS=1.36D-09 Max=3.67D-08 NDo=     1
 LinEq1:  Iter= 14 NonCon=     1 RMS=7.13D-10 Max=2.40D-08 NDo=     1
 LinEq1:  Iter= 15 NonCon=     1 RMS=2.38D-10 Max=8.29D-09 NDo=     1
 LinEq1:  Iter= 16 NonCon=     0 RMS=8.25D-11 Max=1.95D-09 NDo=     1
 Linear equations converged to 2.445D-10 2.445D-09 after    16 iterations.
 SCF Done:  E(RB3LYP) =  -605.218258221     a.u. after    9 cycles
            Convg  =    0.1873D-08                    49 Fock formations.
              S**2 =  0.0000                  -V/T =  2.0086
 DoSCS=F DFT=T ScalE2(SS,OS)=  1.000000  1.000000
 Range of M.O.s used for correlation:     1   204
 NBasis=   204 NAE=    46 NBE=    46 NFC=     0 NFV=     0
 NROrb=    204 NOA=    46 NOB=    46 NVA=   158 NVB=   158
 Symmetrizing basis deriv contribution to polar:
 IMax=3 JMax=2 DiffMx= 0.00D+00
 G2DrvN: will do    25 centers at a time, making    1 passes.
 Calling FoFCou, ICntrl=  3107 FMM=F I1Cent=   0 AccDes= 0.00D+00.
 End of G2Drv F.D. properties file   721 does not exist.
 End of G2Drv F.D. properties file   722 does not exist.
 End of G2Drv F.D. properties file   788 does not exist.
          IDoAtm=111111111111111111111111
          Differentiating once with respect to electric field.
                with respect to dipole field.
          Differentiating once with respect to nuclear coordinates.
 Keep R1 ints in memory in canonical form, NReq=222943279.
          There are    75 degrees of freedom in the 1st order CPHF.  IDoFFX=6 NUNeed=     3.
     72 vectors produced by pass  0 Test12= 9.69D-15 1.33D-09 XBig12= 1.26D+02 6.14D+00.
 AX will form    72 AO Fock derivatives at one time.
     72 vectors produced by pass  1 Test12= 9.69D-15 1.33D-09 XBig12= 2.78D+01 1.06D+00.
     72 vectors produced by pass  2 Test12= 9.69D-15 1.33D-09 XBig12= 3.71D-01 1.18D-01.
     72 vectors produced by pass  3 Test12= 9.69D-15 1.33D-09 XBig12= 1.68D-03 5.03D-03.
     72 vectors produced by pass  4 Test12= 9.69D-15 1.33D-09 XBig12= 2.25D-06 1.37D-04.
     45 vectors produced by pass  5 Test12= 9.69D-15 1.33D-09 XBig12= 1.56D-09 3.40D-06.
      8 vectors produced by pass  6 Test12= 9.69D-15 1.33D-09 XBig12= 1.12D-12 1.16D-07.
      3 vectors produced by pass  7 Test12= 9.69D-15 1.33D-09 XBig12= 8.30D-16 3.06D-09.
 InvSVY:  IOpt=1 It=  1 EMax= 8.88D-15
 Solved reduced A of dimension   416 with    75 vectors.
 Isotropic polarizability for W=    0.000000      104.55 Bohr**3.
 End of Minotr F.D. properties file   721 does not exist.
 End of Minotr F.D. properties file   722 does not exist.
 End of Minotr F.D. properties file   788 does not exist.

 **********************************************************************

            Population analysis using the SCF density.

 **********************************************************************

 Orbital symmetries:
       Occupied  (A) (A) (A) (A) (A) (A) (A) (A) (A) (A) (A) (A)
                 (A) (A) (A) (A) (A) (A) (A) (A) (A) (A) (A) (A)
                 (A) (A) (A) (A) (A) (A) (A) (A) (A) (A) (A) (A)
                 (A) (A) (A) (A) (A) (A) (A) (A) (A) (A)
       Virtual   (A) (A) (A) (A) (A) (A) (A) (A) (A) (A) (A) (A)
                 (A) (A) (A) (A) (A) (A) (A) (A) (A) (A) (A) (A)
                 (A) (A) (A) (A) (A) (A) (A) (A) (A) (A) (A) (A)
                 (A) (A) (A) (A) (A) (A) (A) (A) (A) (A) (A) (A)
                 (A) (A) (A) (A) (A) (A) (A) (A) (A) (A) (A) (A)
                 (A) (A) (A) (A) (A) (A) (A) (A) (A) (A) (A) (A)
                 (A) (A) (A) (A) (A) (A) (A) (A) (A) (A) (A) (A)
                 (A) (A) (A) (A) (A) (A) (A) (A) (A) (A) (A) (A)
                 (A) (A) (A) (A) (A) (A) (A) (A) (A) (A) (A) (A)
                 (A) (A) (A) (A) (A) (A) (A) (A) (A) (A) (A) (A)
                 (A) (A) (A) (A) (A) (A) (A) (A) (A) (A) (A) (A)
                 (A) (A) (A) (A) (A) (A) (A) (A) (A) (A) (A) (A)
                 (A) (A) (A) (A) (A) (A) (A) (A) (A) (A) (A) (A)
                 (A) (A)
 The electronic state is 1-A.
 Alpha  occ. eigenvalues --  -19.12334 -19.12260 -14.41349 -14.41282 -14.38777
 Alpha  occ. eigenvalues --  -14.37636 -10.31758 -10.31412 -10.23235 -10.23210
 Alpha  occ. eigenvalues --  -10.22146 -10.21832  -1.10715  -1.04611  -1.01429
 Alpha  occ. eigenvalues --   -0.94918  -0.93771  -0.81919  -0.73894  -0.73420
 Alpha  occ. eigenvalues --   -0.71005  -0.67745  -0.60386  -0.56687  -0.54109
 Alpha  occ. eigenvalues --   -0.50358  -0.50067  -0.48808  -0.47920  -0.46097
 Alpha  occ. eigenvalues --   -0.45535  -0.43224  -0.42560  -0.42166  -0.41596
 Alpha  occ. eigenvalues --   -0.41050  -0.40433  -0.40076  -0.38975  -0.37391
 Alpha  occ. eigenvalues --   -0.34237  -0.28386  -0.27225  -0.25247  -0.24528
 Alpha  occ. eigenvalues --   -0.23542
 Alpha virt. eigenvalues --   -0.12054   0.03743   0.05691   0.07631   0.08541
 Alpha virt. eigenvalues --    0.12190   0.12642   0.13786   0.14394   0.14777
 Alpha virt. eigenvalues --    0.15101   0.15417   0.16052   0.16805   0.17535
 Alpha virt. eigenvalues --    0.18165   0.19399   0.20858   0.22347   0.25150
 Alpha virt. eigenvalues --    0.26851   0.30976   0.33187   0.37111   0.39547
 Alpha virt. eigenvalues --    0.42642   0.46381   0.47676   0.48935   0.49294
 Alpha virt. eigenvalues --    0.51288   0.51501   0.54483   0.55633   0.59036
 Alpha virt. eigenvalues --    0.59463   0.61499   0.62498   0.64741   0.65019
 Alpha virt. eigenvalues --    0.66465   0.68247   0.68772   0.69442   0.72796
 Alpha virt. eigenvalues --    0.73989   0.77694   0.78393   0.78884   0.79172
 Alpha virt. eigenvalues --    0.80041   0.82082   0.84741   0.85034   0.85467
 Alpha virt. eigenvalues --    0.86285   0.87225   0.87748   0.88498   0.90581
 Alpha virt. eigenvalues --    0.91890   0.92670   0.93823   0.94798   0.95673
 Alpha virt. eigenvalues --    0.97036   1.00029   1.00577   1.02415   1.03716
 Alpha virt. eigenvalues --    1.06179   1.09504   1.12029   1.12547   1.16963
 Alpha virt. eigenvalues --    1.19649   1.25879   1.26746   1.32884   1.36694
 Alpha virt. eigenvalues --    1.37879   1.38835   1.40635   1.42786   1.43558
 Alpha virt. eigenvalues --    1.43688   1.48115   1.49291   1.54856   1.56004
 Alpha virt. eigenvalues --    1.59705   1.65471   1.69674   1.72976   1.77955
 Alpha virt. eigenvalues --    1.79123   1.80301   1.80964   1.83974   1.85419
 Alpha virt. eigenvalues --    1.86477   1.89352   1.89630   1.93158   1.93406
 Alpha virt. eigenvalues --    1.94188   1.97376   2.00229   2.03263   2.04811
 Alpha virt. eigenvalues --    2.05740   2.06263   2.07229   2.08994   2.11136
 Alpha virt. eigenvalues --    2.12797   2.17379   2.19709   2.20746   2.25220
 Alpha virt. eigenvalues --    2.26765   2.32847   2.33388   2.35530   2.35827
 Alpha virt. eigenvalues --    2.37944   2.40264   2.42101   2.43625   2.49809
 Alpha virt. eigenvalues --    2.53895   2.57294   2.59431   2.61019   2.65158
 Alpha virt. eigenvalues --    2.67869   2.69120   2.75016   2.78633   2.82364
 Alpha virt. eigenvalues --    2.93138   2.94085   3.07433   3.12436   3.20642
 Alpha virt. eigenvalues --    3.24636   3.82589   3.95975   3.96828   4.04838
 Alpha virt. eigenvalues --    4.11488   4.15875   4.25582   4.26024   4.33618
 Alpha virt. eigenvalues --    4.36248   4.48638   4.54445
          Condensed to atoms (all electrons):
               1          2          3          4          5          6
     1  C    4.273154   0.592141   0.231074  -0.038079   0.004085   0.000709
     2  O    0.592141   8.062936  -0.069362   0.001660  -0.000211   0.000001
     3  N    0.231074  -0.069362   6.977259   0.196414  -0.055460   0.000756
     4  N   -0.038079   0.001660   0.196414   7.347326   0.170433  -0.087306
     5  C    0.004085  -0.000211  -0.055460   0.170433   4.316695   0.588611
     6  O    0.000709   0.000001   0.000756  -0.087306   0.588611   8.063581
     7  N   -0.000208   0.000001   0.002088  -0.107548   0.309509  -0.100107
     8  C    0.000002  -0.000000  -0.000091   0.004004  -0.026186  -0.004634
     9  C    0.000004   0.000000   0.001037  -0.012839  -0.032955   0.002927
    10  N    0.285073  -0.108665  -0.114429  -0.005278   0.000287  -0.000008
    11  C   -0.024864  -0.007493   0.005050  -0.000825   0.000017  -0.000000
    12  C   -0.026767   0.002913  -0.002442  -0.114517   0.003734  -0.000163
    13  H   -0.000000  -0.000000  -0.000008   0.000504  -0.000041   0.014809
    14  H   -0.000000   0.000000  -0.000003  -0.000072   0.000594   0.000471
    15  H   -0.000000  -0.000000   0.000014  -0.000108   0.001875   0.000451
    16  H   -0.000022  -0.000000  -0.000368   0.016244  -0.011704   0.000176
    17  H    0.000004  -0.000000   0.000081  -0.000067   0.002025  -0.000031
    18  H   -0.000003   0.000000  -0.000055   0.000637   0.000144  -0.000030
    19  H   -0.002118   0.018140   0.000580  -0.000020   0.000001   0.000000
    20  H    0.000999   0.000648  -0.000075  -0.000021  -0.000002   0.000000
    21  H    0.001116   0.000506  -0.000156   0.000065   0.000001  -0.000000
    22  H   -0.009137  -0.000107  -0.003868  -0.041758   0.005454  -0.000374
    23  H   -0.000248  -0.000066  -0.001051   0.006725   0.000019   0.000004
    24  H    0.000910  -0.000019   0.000787   0.000868  -0.000381   0.000003
               7          8          9         10         11         12
     1  C   -0.000208   0.000002   0.000004   0.285073  -0.024864  -0.026767
     2  O    0.000001  -0.000000   0.000000  -0.108665  -0.007493   0.002913
     3  N    0.002088  -0.000091   0.001037  -0.114429   0.005050  -0.002442
     4  N   -0.107548   0.004004  -0.012839  -0.005278  -0.000825  -0.114517
     5  C    0.309509  -0.026186  -0.032955   0.000287   0.000017   0.003734
     6  O   -0.100107  -0.004634   0.002927  -0.000008  -0.000000  -0.000163
     7  N    6.968956   0.295803   0.291795   0.000008  -0.000000  -0.000380
     8  C    0.295803   4.968404  -0.053824   0.000000   0.000000  -0.000001
     9  C    0.291795  -0.053824   5.008420   0.000008   0.000003   0.000607
    10  N    0.000008   0.000000   0.000008   7.019951   0.292354   0.291979
    11  C   -0.000000   0.000000   0.000003   0.292354   4.977006  -0.054657
    12  C   -0.000380  -0.000001   0.000607   0.291979  -0.054657   5.074141
    13  H   -0.027465   0.371968   0.003939   0.000000   0.000000   0.000000
    14  H   -0.047937   0.379461  -0.000940  -0.000000   0.000000   0.000001
    15  H   -0.046795   0.379316  -0.002373   0.000000  -0.000000  -0.000000
    16  H   -0.023958   0.003694   0.373478   0.000228  -0.000027  -0.000491
    17  H   -0.049157  -0.001839   0.373759  -0.000002  -0.000000  -0.000008
    18  H   -0.051503  -0.001274   0.372540  -0.000002   0.000000  -0.000041
    19  H   -0.000000   0.000000  -0.000000  -0.028747   0.372746   0.003976
    20  H   -0.000000  -0.000000  -0.000001  -0.048416   0.378967  -0.001534
    21  H    0.000000   0.000000  -0.000000  -0.047915   0.376441  -0.000496
    22  H    0.000287   0.000003   0.000295  -0.022938   0.003773   0.387571
    23  H    0.000001   0.000000  -0.000011  -0.051642  -0.004136   0.356027
    24  H    0.000001  -0.000000  -0.000160  -0.050303  -0.000803   0.376223
              13         14         15         16         17         18
     1  C   -0.000000  -0.000000  -0.000000  -0.000022   0.000004  -0.000003
     2  O   -0.000000   0.000000  -0.000000  -0.000000  -0.000000   0.000000
     3  N   -0.000008  -0.000003   0.000014  -0.000368   0.000081  -0.000055
     4  N    0.000504  -0.000072  -0.000108   0.016244  -0.000067   0.000637
     5  C   -0.000041   0.000594   0.001875  -0.011704   0.002025   0.000144
     6  O    0.014809   0.000471   0.000451   0.000176  -0.000031  -0.000030
     7  N   -0.027465  -0.047937  -0.046795  -0.023958  -0.049157  -0.051503
     8  C    0.371968   0.379461   0.379316   0.003694  -0.001839  -0.001274
     9  C    0.003939  -0.000940  -0.002373   0.373478   0.373759   0.372540
    10  N    0.000000  -0.000000   0.000000   0.000228  -0.000002  -0.000002
    11  C    0.000000   0.000000  -0.000000  -0.000027  -0.000000   0.000000
    12  C    0.000000   0.000001  -0.000000  -0.000491  -0.000008  -0.000041
    13  H    0.474141  -0.024459  -0.024171  -0.000168  -0.000085  -0.000078
    14  H   -0.024459   0.565469  -0.040700   0.000026  -0.001921   0.007564
    15  H   -0.024171  -0.040700   0.562648  -0.000059   0.007402  -0.002054
    16  H   -0.000168   0.000026  -0.000059   0.490083  -0.025092  -0.024646
    17  H   -0.000085  -0.001921   0.007402  -0.025092   0.576171  -0.043421
    18  H   -0.000078   0.007564  -0.002054  -0.024646  -0.043421   0.586626
    19  H    0.000000  -0.000000  -0.000000   0.000000  -0.000000  -0.000000
    20  H   -0.000000  -0.000000   0.000000  -0.000002   0.000000  -0.000000
    21  H    0.000000   0.000000  -0.000000   0.000001  -0.000000   0.000000
    22  H    0.000001  -0.000009   0.000002  -0.001549   0.000037  -0.000056
    23  H   -0.000000   0.000000  -0.000000   0.000074  -0.000000   0.000004
    24  H   -0.000000  -0.000000   0.000000   0.001392   0.000005   0.000034
              19         20         21         22         23         24
     1  C   -0.002118   0.000999   0.001116  -0.009137  -0.000248   0.000910
     2  O    0.018140   0.000648   0.000506  -0.000107  -0.000066  -0.000019
     3  N    0.000580  -0.000075  -0.000156  -0.003868  -0.001051   0.000787
     4  N   -0.000020  -0.000021   0.000065  -0.041758   0.006725   0.000868
     5  C    0.000001  -0.000002   0.000001   0.005454   0.000019  -0.000381
     6  O    0.000000   0.000000  -0.000000  -0.000374   0.000004   0.000003
     7  N   -0.000000  -0.000000   0.000000   0.000287   0.000001   0.000001
     8  C    0.000000  -0.000000   0.000000   0.000003   0.000000  -0.000000
     9  C   -0.000000  -0.000001  -0.000000   0.000295  -0.000011  -0.000160
    10  N   -0.028747  -0.048416  -0.047915  -0.022938  -0.051642  -0.050303
    11  C    0.372746   0.378967   0.376441   0.003773  -0.004136  -0.000803
    12  C    0.003976  -0.001534  -0.000496   0.387571   0.356027   0.376223
    13  H    0.000000  -0.000000   0.000000   0.000001  -0.000000  -0.000000
    14  H   -0.000000  -0.000000   0.000000  -0.000009   0.000000  -0.000000
    15  H   -0.000000   0.000000  -0.000000   0.000002  -0.000000   0.000000
    16  H    0.000000  -0.000002   0.000001  -0.001549   0.000074   0.001392
    17  H   -0.000000   0.000000  -0.000000   0.000037  -0.000000   0.000005
    18  H   -0.000000  -0.000000   0.000000  -0.000056   0.000004   0.000034
    19  H    0.475062  -0.025241  -0.024059  -0.000176  -0.000053  -0.000071
    20  H   -0.025241   0.573810  -0.040690   0.000040  -0.001735   0.006887
    21  H   -0.024059  -0.040690   0.570809   0.000004   0.007686  -0.001876
    22  H   -0.000176   0.000040   0.000004   0.500135  -0.025611  -0.026458
    23  H   -0.000053  -0.001735   0.007686  -0.025611   0.610176  -0.041486
    24  H   -0.000071   0.006887  -0.001876  -0.026458  -0.041486   0.581541
 Mulliken charges:
               1
     1  C    0.712174
     2  O   -0.493022
     3  N   -0.167771
     4  N   -0.336443
     5  C    0.723453
     6  O   -0.479846
     7  N   -0.413390
     8  C   -0.314807
     9  C   -0.325713
    10  N   -0.411544
    11  C   -0.313554
    12  C   -0.295677
    13  H    0.211113
    14  H    0.162455
    15  H    0.164552
    16  H    0.202688
    17  H    0.162139
    18  H    0.155613
    19  H    0.209981
    20  H    0.156365
    21  H    0.158564
    22  H    0.234440
    23  H    0.145323
    24  H    0.152905
 Sum of Mulliken charges =  -0.00000
 Mulliken charges with hydrogens summed into heavy atoms:
               1
     1  C    0.712174
     2  O   -0.493022
     3  N   -0.167771
     4  N   -0.336443
     5  C    0.723453
     6  O   -0.479846
     7  N   -0.413390
     8  C    0.223314
     9  C    0.194727
    10  N   -0.411544
    11  C    0.211356
    12  C    0.236991
 APT charges:
               1
     1  C    0.956631
     2  O   -0.692715
     3  N   -0.154432
     4  N   -0.122163
     5  C    1.046037
     6  O   -0.721933
     7  N   -0.665361
     8  C    0.312744
     9  C    0.292702
    10  N   -0.667268
    11  C    0.330371
    12  C    0.252302
    13  H    0.058434
    14  H   -0.046675
    15  H   -0.038914
    16  H    0.037922
    17  H   -0.049322
    18  H   -0.045723
    19  H    0.059655
    20  H   -0.049251
    21  H   -0.039110
    22  H    0.058444
    23  H   -0.059730
    24  H   -0.052647
 Sum of APT charges =  -0.00000
 APT charges with hydrogens summed into heavy atoms:
               1
     1  C    0.956631
     2  O   -0.692715
     3  N   -0.154432
     4  N   -0.122163
     5  C    1.046037
     6  O   -0.721933
     7  N   -0.665361
     8  C    0.285589
     9  C    0.235579
    10  N   -0.667268
    11  C    0.301665
    12  C    0.198369
 Electronic spatial extent (au):  <R**2>=           2568.6083
 Charge=             -0.0000 electrons
 Dipole moment (field-independent basis, Debye):
    X=              2.0067    Y=              6.1904    Z=              0.0173  Tot=              6.5075
 Quadrupole moment (field-independent basis, Debye-Ang):
   XX=            -62.0482   YY=            -77.8817   ZZ=            -71.7344
   XY=             -2.4023   XZ=             -7.5791   YZ=             -0.1714
 Traceless Quadrupole moment (field-independent basis, Debye-Ang):
   XX=              8.5066   YY=             -7.3270   ZZ=             -1.1797
   XY=             -2.4023   XZ=             -7.5791   YZ=             -0.1714
 Octapole moment (field-independent basis, Debye-Ang**2):
  XXX=             32.7157  YYY=             12.8385  ZZZ=             -0.8809  XYY=              2.4988
  XXY=             29.6213  XXZ=              4.2637  XZZ=              2.2931  YZZ=              3.2110
  YYZ=             -1.5451  XYZ=             10.4226
 Hexadecapole moment (field-independent basis, Debye-Ang**3):
 XXXX=          -2259.3152 YYYY=           -581.2344 ZZZZ=           -241.2720 XXXY=            -51.6683
 XXXZ=            -23.3817 YYYX=             -0.1717 YYYZ=             -2.2299 ZZZX=             -2.2751
 ZZZY=             -0.9985 XXYY=           -535.2284 XXZZ=           -461.5805 YYZZ=           -141.2453
 XXYZ=            -13.0745 YYXZ=            -14.3334 ZZXY=             -0.8170
 N-N= 7.409095718363D+02 E-N=-2.892676532691D+03  KE= 6.000491161944D+02
  Exact polarizability: 140.343   5.651  99.768  -0.479   2.099  73.540
 Approx polarizability: 174.938  22.799 172.706   6.483   6.020 116.367
 Calling FoFJK, ICntrl=    100127 FMM=F ISym2X=0 I1Cent= 0 IOpClX= 0 NMat=1 NMatS=1 NMatT=0.
 ***** Axes restored to original set *****
 -------------------------------------------------------------------
 Center     Atomic                   Forces (Hartrees/Bohr)
 Number     Number              X              Y              Z
 -------------------------------------------------------------------
      1        6           0.014626574   -0.062391006   -0.039696966
      2        8          -0.012044026    0.015207176    0.013262387
      3        7           0.000680133    0.030413052    0.022461742
      4        7           0.021345342    0.035617215   -0.044967076
      5        6          -0.032319623    0.074101649    0.050961115
      6        8          -0.002074165   -0.011145348   -0.007472606
      7        7           0.030300813   -0.027457916   -0.002776738
      8        6           0.003860886   -0.001921111   -0.000585202
      9        6          -0.008624066    0.003241785   -0.002753602
     10        7           0.006692456    0.027210013    0.006982534
     11        6           0.000431270   -0.002627143    0.003091933
     12        6          -0.001038993   -0.040147050    0.009091118
     13        1           0.005251096   -0.005437153   -0.002177323
     14        1          -0.003288428    0.001132684    0.000266993
     15        1          -0.002621277    0.002202636   -0.000392480
     16        1          -0.000445035    0.004313404    0.003450594
     17        1          -0.003092608   -0.000724824   -0.004229148
     18        1          -0.004513459   -0.000800438   -0.003371210
     19        1          -0.003049702    0.005822631    0.003737373
     20        1          -0.000922758   -0.003292063   -0.001641906
     21        1          -0.000298203   -0.004653031   -0.000939530
     22        1          -0.001562400   -0.030771671   -0.001885277
     23        1          -0.001515744   -0.008858078   -0.001238215
     24        1          -0.005778081    0.000964585    0.000821492
 -------------------------------------------------------------------
 Cartesian Forces:  Max     0.074101649 RMS     0.019150884
 FormGI is forming the generalized inverse of G from B-inverse, IUseBI=4.

 GradGradGradGradGradGradGradGradGradGradGradGradGradGradGradGradGradGrad
 Berny optimization.
 Internal  Forces:  Max     0.181137944 RMS     0.036020341
 Search for a local minimum.
 Step number   1 out of a maximum of  108
 All quantities printed in internal units (Hartrees-Bohrs-Radians)
 Mixed Optimization -- RFO/linear search
 Second derivative matrix not updated -- analytic derivatives used.
 ITU=  0
     Eigenvalues ---   -0.13571  -0.04353  -0.01318  -0.00130   0.00033
     Eigenvalues ---    0.00079   0.00143   0.00485   0.01172   0.01723
     Eigenvalues ---    0.05387   0.06096   0.06347   0.06378   0.06395
     Eigenvalues ---    0.06416   0.06444   0.06569   0.06630   0.06957
     Eigenvalues ---    0.10526   0.12680   0.12722   0.13140   0.13643
     Eigenvalues ---    0.14628   0.15706   0.16672   0.16835   0.18048
     Eigenvalues ---    0.18135   0.18650   0.18940   0.20723   0.21450
     Eigenvalues ---    0.21582   0.22781   0.23741   0.24127   0.28860
     Eigenvalues ---    0.31068   0.32593   0.33458   0.33515   0.33612
     Eigenvalues ---    0.33673   0.33689   0.33720   0.33736   0.33859
     Eigenvalues ---    0.34152   0.35007   0.35200   0.36701   0.36915
     Eigenvalues ---    0.37608   0.37659   0.38871   0.41990   0.43125
     Eigenvalues ---    0.48731   0.55108   0.75896   0.78411   0.78759
     Eigenvalues ---    2.54706
 RFO step:  Lambda=-1.38644810D-01 EMin=-1.35711298D-01
 I=     1 Eig=   -1.36D-01 Dot1= -8.79D-03
 I=     1 Stepn= -6.00D-01 RXN=   6.00D-01 EDone=F
 I=     2 Eig=   -4.35D-02 Dot1= -5.96D-04
 I=     2 Stepn= -3.00D-01 RXN=   6.71D-01 EDone=F
 I=     3 Eig=   -1.32D-02 Dot1=  1.21D-04
 I=     3 Stepn=  1.50D-01 RXN=   6.87D-01 EDone=F
 Mixed    3 eigenvectors in step.  Raw Step.Grad=  9.51D-03.
 RFO eigenvector is Hessian eigenvector with negative curvature.
 Taking step of  6.00D-01 in eigenvector direction(s).  Step.Grad= -4.54D-03.
 Linear search not attempted -- first point.
 Iteration  1 RMS(Cart)=  0.27423142 RMS(Int)=  0.02866876
 Iteration  2 RMS(Cart)=  0.15847151 RMS(Int)=  0.00586864
 Iteration  3 RMS(Cart)=  0.01007890 RMS(Int)=  0.00031327
 Iteration  4 RMS(Cart)=  0.00004831 RMS(Int)=  0.00031279
 Iteration  5 RMS(Cart)=  0.00000000 RMS(Int)=  0.00031279
 Variable       Old X    -DE/DX   Delta X   Delta X   Delta X     New X
                                 (Linear)    (Quad)   (Total)
    R1        2.32961  -0.01548   0.00000   0.00817   0.00817   2.33778
    R2        2.61054   0.07890   0.00000   0.02695   0.02695   2.63749
    R3        2.63971   0.05119   0.00000  -0.02680  -0.02680   2.61291
    R4        2.36573  -0.00676   0.00000  -0.02081  -0.02081   2.34493
    R5        2.61004   0.05123   0.00000  -0.00570  -0.00570   2.60434
    R6        2.32957  -0.01175   0.00000  -0.00152  -0.00152   2.32805
    R7        2.64048  -0.01789   0.00000   0.00367   0.00367   2.64414
    R8        2.74760  -0.00587   0.00000  -0.00061  -0.00061   2.74699
    R9        2.74185   0.00931   0.00000  -0.00144  -0.00144   2.74041
   R10        2.06242  -0.00169   0.00000  -0.00002  -0.00002   2.06241
   R11        2.06801   0.00254   0.00000   0.00020   0.00020   2.06822
   R12        2.06781   0.00224   0.00000   0.00022   0.00022   2.06803
   R13        2.06468  -0.00461   0.00000   0.00043   0.00043   2.06511
   R14        2.06764   0.00298   0.00000   0.00021   0.00021   2.06785
   R15        2.06767   0.00343   0.00000  -0.00001  -0.00001   2.06766
   R16        2.74216   0.00022   0.00000   0.00302   0.00302   2.74518
   R17        2.74742   0.02163   0.00000  -0.01296  -0.01296   2.73446
   R18        2.06462  -0.00314   0.00000  -0.00036  -0.00036   2.06426
   R19        2.06756   0.00263   0.00000  -0.00068  -0.00068   2.06688
   R20        2.06744   0.00291   0.00000  -0.00037  -0.00037   2.06708
   R21        2.06241  -0.02559   0.00000  -0.01821  -0.01821   2.04420
   R22        2.06797   0.00570   0.00000  -0.00330  -0.00330   2.06468
   R23        2.06793   0.00304   0.00000   0.00596   0.00596   2.07389
    A1        2.16690  -0.11113   0.00000  -0.10470  -0.10532   2.06158
    A2        2.10733  -0.07001   0.00000  -0.01420  -0.01493   2.09241
    A3        2.00895   0.18114   0.00000   0.11891   0.11824   2.12719
    A4        1.96679   0.12503   0.00000   0.19811   0.19811   2.16490
    A5        1.96672  -0.00235   0.00000  -0.00277  -0.00277   1.96395
    A6        2.16752  -0.00116   0.00000   0.00127   0.00126   2.16878
    A7        2.00855  -0.01048   0.00000   0.00082   0.00082   2.00937
    A8        2.10712   0.01164   0.00000  -0.00209  -0.00209   2.10502
    A9        2.15562  -0.02301   0.00000  -0.00022  -0.00022   2.15540
   A10        2.09299   0.02786   0.00000   0.00104   0.00104   2.09403
   A11        2.03457  -0.00486   0.00000  -0.00082  -0.00082   2.03375
   A12        1.97256  -0.01278   0.00000  -0.00088  -0.00088   1.97168
   A13        1.89511   0.00459   0.00000   0.00075   0.00075   1.89586
   A14        1.89514   0.00504   0.00000   0.00045   0.00045   1.89559
   A15        1.89731   0.00306   0.00000  -0.00028  -0.00028   1.89704
   A16        1.89726   0.00296   0.00000   0.00010   0.00010   1.89735
   A17        1.90567  -0.00274   0.00000  -0.00013  -0.00013   1.90554
   A18        1.96329  -0.00640   0.00000   0.00467   0.00467   1.96796
   A19        1.89789   0.00588   0.00000   0.00068   0.00068   1.89857
   A20        1.89787   0.00585   0.00000   0.00134   0.00134   1.89921
   A21        1.89804  -0.00065   0.00000  -0.00380  -0.00380   1.89424
   A22        1.89808   0.00028   0.00000  -0.00252  -0.00253   1.89556
   A23        1.90816  -0.00508   0.00000  -0.00046  -0.00046   1.90770
   A24        2.09285  -0.07624   0.00000  -0.00190  -0.00190   2.09095
   A25        2.15558   0.15261   0.00000   0.00002   0.00002   2.15560
   A26        2.03476  -0.07636   0.00000   0.00188   0.00188   2.03664
   A27        1.96351  -0.01176   0.00000   0.00706   0.00706   1.97057
   A28        1.89759   0.00445   0.00000  -0.00429  -0.00430   1.89329
   A29        1.89772   0.00620   0.00000  -0.00524  -0.00524   1.89248
   A30        1.89809   0.00253   0.00000   0.00076   0.00077   1.89885
   A31        1.89816   0.00227   0.00000   0.00055   0.00056   1.89872
   A32        1.90827  -0.00367   0.00000   0.00109   0.00107   1.90934
   A33        1.97273   0.02396   0.00000  -0.05402  -0.05438   1.91835
   A34        1.89514  -0.00632   0.00000   0.01850   0.01870   1.91384
   A35        1.89509   0.00276   0.00000  -0.01636  -0.01692   1.87817
   A36        1.89722  -0.00792   0.00000   0.05468   0.05503   1.95225
   A37        1.89728  -0.00853   0.00000   0.00461   0.00343   1.90071
   A38        1.90557  -0.00465   0.00000  -0.00673  -0.00670   1.89887
    D1        2.61283  -0.05189   0.00000   0.31317   0.31447   2.92729
    D2       -0.52898  -0.06914   0.00000   0.38422   0.38292  -0.14606
    D3        0.00103  -0.02381   0.00000   0.07532   0.07593   0.07696
    D4       -3.14055  -0.03193   0.00000   0.07329   0.07391  -3.06664
    D5       -3.14035  -0.00720   0.00000   0.00692   0.00630  -3.13405
    D6        0.00125  -0.01532   0.00000   0.00490   0.00428   0.00554
    D7       -3.14151  -0.01372   0.00000   0.00279   0.00279  -3.13871
    D8       -0.51794  -0.00451   0.00000  -0.00563  -0.00563  -0.52357
    D9        2.62354  -0.00052   0.00000  -0.00039  -0.00038   2.62316
   D10       -3.14020  -0.00197   0.00000  -0.00501  -0.00501   3.13798
   D11        0.00153  -0.00238   0.00000  -0.00507  -0.00506  -0.00353
   D12        0.00130   0.00186   0.00000   0.00003   0.00003   0.00133
   D13       -3.14016   0.00146   0.00000  -0.00002  -0.00002  -3.14018
   D14        0.00018  -0.00026   0.00000  -0.00005  -0.00005   0.00013
   D15       -2.10638   0.00092   0.00000   0.00035   0.00035  -2.10603
   D16        2.10669  -0.00125   0.00000  -0.00018  -0.00018   2.10651
   D17       -3.14155   0.00013   0.00000   0.00001   0.00001  -3.14154
   D18        1.03508   0.00131   0.00000   0.00040   0.00040   1.03548
   D19       -1.03503  -0.00086   0.00000  -0.00013  -0.00013  -1.03516
   D20       -0.00021  -0.00007   0.00000  -0.00088  -0.00088  -0.00110
   D21       -2.10366   0.00083   0.00000   0.00045   0.00045  -2.10321
   D22        2.10328   0.00019   0.00000  -0.00015  -0.00015   2.10312
   D23        3.14151  -0.00044   0.00000  -0.00093  -0.00093   3.14057
   D24        1.03806   0.00046   0.00000   0.00040   0.00040   1.03846
   D25       -1.03819  -0.00018   0.00000  -0.00021  -0.00020  -1.03839
   D26       -0.00008  -0.00393   0.00000  -0.00388  -0.00388  -0.00396
   D27       -2.10352  -0.00265   0.00000  -0.00642  -0.00641  -2.10992
   D28        2.10355  -0.00436   0.00000  -0.00225  -0.00226   2.10129
   D29        3.14150   0.00363   0.00000  -0.00199  -0.00199   3.13951
   D30        1.03806   0.00492   0.00000  -0.00453  -0.00452   1.03354
   D31       -1.03805   0.00321   0.00000  -0.00036  -0.00037  -1.03843
   D32       -0.00002  -0.00315   0.00000   0.09664   0.09601   0.09600
   D33       -2.10659  -0.00418   0.00000   0.04951   0.04964  -2.05696
   D34        2.10660   0.00341   0.00000   0.05636   0.05687   2.16347
   D35        3.14159  -0.01102   0.00000   0.09468   0.09405  -3.04755
   D36        1.03501  -0.01205   0.00000   0.04755   0.04767   1.08269
   D37       -1.03498  -0.00446   0.00000   0.05440   0.05490  -0.98008
         Item               Value     Threshold  Converged?
 Maximum Force            0.181138     0.000450     NO 
 RMS     Force            0.036020     0.000300     NO 
 Maximum Displacement     1.264033     0.001800     NO 
 RMS     Displacement     0.411587     0.001200     NO 
 Predicted change in Energy=-2.851567D-02
 GradGradGradGradGradGradGradGradGradGradGradGradGradGradGradGradGradGrad

                          Input orientation:                          
 ---------------------------------------------------------------------
 Center     Atomic      Atomic             Coordinates (Angstroms)
 Number     Number       Type             X           Y           Z
 ---------------------------------------------------------------------
      1          6           0        0.728801    0.012070    0.215798
      2          8           0        1.911912    0.195688   -0.095573
      3          7           0        0.015718    1.085066    0.752614
      4          7           0       -1.216458    1.096516    0.898897
      5          6           0       -1.672104    2.275913    1.447278
      6          8           0       -1.020838    2.977337    2.222879
      7          7           0       -2.966595    2.646862    1.067136
      8          6           0       -3.627070    3.852431    1.539846
      9          6           0       -3.721683    1.810067    0.154678
     10          7           0        0.128756   -1.205995   -0.045165
     11          6           0        0.916229   -2.295570   -0.595636
     12          6           0       -1.270993   -1.476332    0.202769
     13          1           0       -3.007899    4.437760    2.221847
     14          1           0       -4.546932    3.566274    2.059263
     15          1           0       -3.880723    4.473554    0.675277
     16          1           0       -3.167741    0.922833   -0.161855
     17          1           0       -3.975383    2.396878   -0.733403
     18          1           0       -4.642327    1.488313    0.650733
     19          1           0        1.961449   -2.023983   -0.759960
     20          1           0        0.475207   -2.593783   -1.551068
     21          1           0        0.876412   -3.137601    0.101432
     22          1           0       -1.770624   -0.570757    0.519742
     23          1           0       -1.365662   -2.273749    0.943644
     24          1           0       -1.715843   -1.816053   -0.741216
 ---------------------------------------------------------------------
                    Distance matrix (angstroms):
                    1          2          3          4          5
     1  C    0.000000
     2  O    1.237102   0.000000
     3  N    1.395700   2.259639   0.000000
     4  N    2.329523   3.403992   1.240881   0.000000
     5  C    3.522196   4.421865   2.179316   1.378156   0.000000
     6  O    3.985275   4.659808   2.610903   2.308394   1.231949
     7  N    4.617668   5.582112   3.381172   2.344112   1.399221
     8  C    5.956096   6.835692   4.641976   3.717114   2.513140
     9  C    4.800347   5.865684   3.853741   2.709091   2.467510
    10  N    1.382692   2.268678   2.428618   2.828853   4.194540
    11  C    2.453316   2.729069   3.749319   4.276473   5.636614
    12  C    2.492927   3.607706   2.918683   2.665917   3.973541
    13  H    6.129755   6.897112   4.747786   4.015392   2.656669
    14  H    6.622997   7.597423   5.355512   4.305603   3.210015
    15  H    6.431459   7.242166   5.164309   4.307285   3.209924
    16  H    4.019347   5.131863   3.316170   2.227749   2.580129
    17  H    5.358884   6.317619   4.456230   3.459337   3.174130
    18  H    5.587260   6.722046   4.676577   3.457119   3.174433
    19  H    2.572360   2.317500   3.967358   4.752726   6.046793
    20  H    3.158575   3.458864   4.364860   4.741556   6.108597
    21  H    3.155202   3.495982   4.358411   4.789969   6.132893
    22  H    2.584414   3.811447   2.446834   1.797403   2.995589
    23  H    3.184573   4.233272   3.636804   3.373863   4.587698
    24  H    3.199092   4.198162   3.694093   3.379706   4.640647
                    6          7          8          9         10
     6  O    0.000000
     7  N    2.287121   0.000000
     8  C    2.832802   1.453643   0.000000
     9  C    3.596461   1.450160   2.469593   0.000000
    10  N    4.895493   5.065859   6.496627   4.895146   0.000000
    11  C    6.284886   6.501444   7.937239   6.239348   1.452689
    12  C    4.896793   4.541247   5.977841   4.099831   1.447014
    13  H    2.466019   2.131286   1.091379   3.418691   6.843239
    14  H    3.578681   2.080168   1.094453   2.718960   7.004658
    15  H    3.579480   2.079900   1.094355   2.718544   6.989438
    16  H    3.810135   2.126771   3.418964   1.092808   3.925866
    17  H    4.219700   2.078963   2.721694   1.094257   5.504391
    18  H    4.219480   2.079352   2.722190   1.094157   5.523297
    19  H    6.542519   7.031408   8.429287   6.916249   2.130445
    20  H    6.893344   6.794509   8.242335   6.318018   2.076951
    21  H    6.744817   7.011513   8.438657   6.754609   2.076435
    22  H    4.006472   3.476069   4.904242   3.099714   2.080936
    23  H    5.415648   5.175969   6.557401   4.780257   2.085936
    24  H    5.678510   4.975151   6.402167   4.239666   2.063784
                   11         12         13         14         15
    11  C    0.000000
    12  C    2.468307   0.000000
    13  H    8.287022   6.486139   0.000000
    14  H    8.441317   6.293348   1.776104   0.000000
    15  H    8.393272   6.514223   1.776226   1.783930   0.000000
    16  H    5.217767   3.080032   4.249976   3.717972   3.717090
    17  H    6.779817   4.815797   3.719506   3.081094   2.511160
    18  H    6.838769   4.511728   3.720079   2.512166   3.080959
    19  H    1.092358   3.416935   8.679846   9.030948   8.854878
    20  H    1.093747   2.715484   8.706866   8.729414   8.595230
    21  H    1.093849   2.716880   8.773263   8.842382   8.993849
    22  H    3.382046   1.081744   5.432610   5.214694   5.470080
    23  H    2.752614   1.092581   7.026742   6.743216   7.205807
    24  H    2.679353   1.097456   7.039839   6.695312   6.800905
                   16         17         18         19         20
    16  H    0.000000
    17  H    1.775320   0.000000
    18  H    1.776083   1.784975   0.000000
    19  H    5.945591   7.402074   7.611579   0.000000
    20  H    5.250483   6.736692   6.906561   1.777481   0.000000
    21  H    5.736865   7.407249   7.222001   1.777483   1.785346
    22  H    2.155764   3.903612   3.536043   4.204507   3.663966
    23  H    3.832460   5.606950   4.997544   3.746240   3.116858
    24  H    3.153595   4.780624   4.628247   3.683214   2.461995
                   21         22         23         24
    21  H    0.000000
    22  H    3.710860   0.000000
    23  H    2.546067   1.801075   0.000000
    24  H    3.029246   1.773071   1.780692   0.000000
 Stoichiometry    C6H12N4O2
 Framework group  C1[X(C6H12N4O2)]
 Deg. of freedom    66
 Full point group                 C1      NOp   1
 Largest Abelian subgroup         C1      NOp   1
 Largest concise Abelian subgroup C1      NOp   1
                         Standard orientation:                         
 ---------------------------------------------------------------------
 Center     Atomic      Atomic             Coordinates (Angstroms)
 Number     Number       Type             X           Y           Z
 ---------------------------------------------------------------------
      1          6           0       -1.870240   -0.766407   -0.183639
      2          8           0       -2.566406   -1.678047   -0.646981
      3          7           0       -0.498064   -0.986886   -0.055182
      4          7           0        0.329516   -0.093842    0.184336
      5          6           0        1.618898   -0.574855    0.258058
      6          8           0        1.914940   -1.711449    0.629825
      7          7           0        2.614237    0.332829   -0.120396
      8          6           0        4.033428    0.018476   -0.107828
      9          6           0        2.250450    1.667924   -0.554152
     10          7           0       -2.444659    0.455313    0.115156
     11          6           0       -3.879620    0.632255   -0.025862
     12          6           0       -1.690443    1.601664    0.574380
     13          1           0        4.241289   -0.999135    0.227387
     14          1           0        4.540709    0.719144    0.562663
     15          1           0        4.427371    0.141569   -1.121371
     16          1           0        1.170919    1.837227   -0.540841
     17          1           0        2.613399    1.817620   -1.575553
     18          1           0        2.726303    2.396427    0.109194
     19          1           0       -4.386635   -0.269178   -0.377431
     20          1           0       -4.060696    1.439972   -0.740765
     21          1           0       -4.291170    0.910594    0.948643
     22          1           0       -0.631883    1.380319    0.549325
     23          1           0       -2.023472    1.883366    1.576113
     24          1           0       -1.896460    2.431803   -0.113251
 ---------------------------------------------------------------------
 Rotational constants (GHZ):           2.0275829           0.4760270           0.4051347
 Standard basis: 6-31G(d) (6D, 7F)
 There are   204 symmetry adapted cartesian basis functions of A   symmetry.
 There are   204 symmetry adapted basis functions of A   symmetry.
   204 basis functions,   384 primitive gaussians,   204 cartesian basis functions
    46 alpha electrons       46 beta electrons
       nuclear repulsion energy       729.1137903661 Hartrees.
 NAtoms=   24 NActive=   24 NUniq=   24 SFac= 1.00D+00 NAtFMM=   60 NAOKFM=F Big=F
 Integral buffers will be    131072 words long.
 Raffenetti 2 integral format.
 Two-electron integral symmetry is turned on.
 One-electron integrals computed using PRISM.
 NBasis=   204 RedAO= T EigKep=  2.02D-03  NBF=   204
 NBsUse=   204 1.00D-06 EigRej= -1.00D+00 NBFU=   204
 Initial guess from the checkpoint file:  "azadicarboxylate_6_conf191.chk"
 B after Tr=     0.000000    0.000000   -0.000000
         Rot=    0.999822    0.012529    0.006278   -0.012627 Ang=   2.16 deg.
 ExpMin= 1.61D-01 ExpMax= 5.48D+03 ExpMxC= 8.25D+02 IAcc=2 IRadAn=         4 AccDes= 0.00D+00
 Harris functional with IExCor=  402 and IRadAn=       4 diagonalized for initial guess.
 HarFok:  IExCor=  402 AccDes= 0.00D+00 IRadAn=         4 IDoV= 1 UseB2=F ITyADJ=14
 ICtDFT=  3500011 ScaDFX=  1.000000  1.000000  1.000000  1.000000
 FoFCou: FMM=F IPFlag=           0 FMFlag=      100000 FMFlg1=           0
         NFxFlg=           0 DoJE=T BraDBF=F KetDBF=T FulRan=T
         wScrn=  0.000000 ICntrl=       500 IOpCl=  0 I1Cent=   200000004 NGrid=           0
         NMat0=    1 NMatS0=      1 NMatT0=    0 NMatD0=    1 NMtDS0=    0 NMtDT0=    0
 Petite list used in FoFCou.
 Keep R1 ints in memory in canonical form, NReq=222933844.
 Gradient too large for Newton-Raphson -- use scaled steepest descent instead.
     Minimum is close to point  4 DX=  1.09D-01 DF= -1.18D-03 DXR=  8.33D-02 DFR=  7.01D-03 which will be used.
 Gradient too large for Newton-Raphson -- use scaled steepest descent instead.
 Gradient too large for Newton-Raphson -- use scaled steepest descent instead.
     Accept linear search using points  1 and  2.
 Gradient too large for Newton-Raphson -- use scaled steepest descent instead.
     Accept linear search using points  1 and  2.
 Gradient too large for Newton-Raphson -- use scaled steepest descent instead.
 Gradient too large for Newton-Raphson -- use scaled steepest descent instead.
     Accept linear search using points  1 and  2.
 Gradient too large for Newton-Raphson -- use scaled steepest descent instead.
     Accept linear search using points  2 and  3.
 Gradient too large for Newton-Raphson -- use scaled steepest descent instead.
     Accept linear search using points  1 and  2.
 Gradient too large for Newton-Raphson -- use scaled steepest descent instead.
     Minimum is close to point  3 DX=  8.41D-03 DF= -4.14D-08 DXR=  5.23D-03 DFR=  2.73D-05 which will be used.
 Gradient too large for Newton-Raphson -- use scaled steepest descent instead.
     Accept linear search using points  1 and  2.
 Gradient too large for Newton-Raphson -- use scaled steepest descent instead.
     Accept linear search using points  2 and  3.
     Minimum is close to point  3 DX= -5.76D-02 DF= -6.14D-07 DXR=  3.51D-02 DFR=  8.00D-04 which will be used.
 Gradient too large for Newton-Raphson -- use scaled steepest descent instead.
     Accept linear search using points  1 and  2.
 Gradient too large for Newton-Raphson -- use scaled steepest descent instead.
     Minimum is close to point  3 DX=  9.03D-02 DF= -1.21D-06 DXR=  5.04D-02 DFR=  2.55D-03 which will be used.
 Gradient too large for Newton-Raphson -- use scaled steepest descent instead.
     Accept linear search using points  1 and  2.
 Gradient too large for Newton-Raphson -- use scaled steepest descent instead.
     Accept linear search using points  2 and  3.
     Minimum is close to point  3 DX= -1.21D-01 DF= -1.41D-06 DXR=  7.23D-02 DFR=  4.61D-03 which will be used.
 Gradient too large for Newton-Raphson -- use scaled steepest descent instead.
     Accept linear search using points  1 and  2.
 Gradient too large for Newton-Raphson -- use scaled steepest descent instead.
 Gradient too large for Newton-Raphson -- use scaled steepest descent instead.
     Accept linear search using points  1 and  2.
 Gradient too large for Newton-Raphson -- use scaled steepest descent instead.
     Minimum is close to point  3 DX=  4.45D-02 DF= -9.40D-08 DXR=  2.29D-02 DFR=  5.25D-04 which will be used.
 Gradient too large for Newton-Raphson -- use scaled steepest descent instead.
     Accept linear search using points  1 and  2.
 Gradient too large for Newton-Raphson -- use scaled steepest descent instead.
     Accept linear search using points  2 and  3.
     Minimum is close to point  3 DX= -6.39D-03 DF= -1.52D-09 DXR=  3.38D-03 DFR=  1.14D-05 which will be used.
 Gradient too large for Newton-Raphson -- use scaled steepest descent instead.
     Accept linear search using points  1 and  2.
 LinEq1:  Iter=  0 NonCon=     1 RMS=5.69D-04 Max=4.54D-02 NDo=     1
 AX will form     1 AO Fock derivatives at one time.
 LinEq1:  Iter=  1 NonCon=     1 RMS=6.70D-05 Max=2.51D-03 NDo=     1
 LinEq1:  Iter=  2 NonCon=     1 RMS=7.45D-05 Max=2.03D-03 NDo=     1
 LinEq1:  Iter=  3 NonCon=     1 RMS=3.86D-05 Max=8.89D-04 NDo=     1
 LinEq1:  Iter=  4 NonCon=     1 RMS=3.62D-05 Max=8.10D-04 NDo=     1
 LinEq1:  Iter=  5 NonCon=     1 RMS=2.71D-05 Max=1.04D-03 NDo=     1
 LinEq1:  Iter=  6 NonCon=     1 RMS=1.59D-05 Max=5.47D-04 NDo=     1
 LinEq1:  Iter=  7 NonCon=     1 RMS=1.23D-05 Max=2.70D-04 NDo=     1
 LinEq1:  Iter=  8 NonCon=     1 RMS=9.91D-06 Max=2.93D-04 NDo=     1
 LinEq1:  Iter=  9 NonCon=     1 RMS=8.07D-06 Max=1.92D-04 NDo=     1
 LinEq1:  Iter= 10 NonCon=     1 RMS=3.03D-06 Max=5.94D-05 NDo=     1
 LinEq1:  Iter= 11 NonCon=     1 RMS=1.73D-06 Max=3.73D-05 NDo=     1
 LinEq1:  Iter= 12 NonCon=     1 RMS=9.26D-07 Max=1.39D-05 NDo=     1
 LinEq1:  Iter= 13 NonCon=     1 RMS=4.58D-07 Max=7.83D-06 NDo=     1
 LinEq1:  Iter= 14 NonCon=     1 RMS=1.74D-07 Max=3.48D-06 NDo=     1
 LinEq1:  Iter= 15 NonCon=     1 RMS=7.20D-08 Max=1.37D-06 NDo=     1
 LinEq1:  Iter= 16 NonCon=     1 RMS=2.35D-08 Max=3.20D-07 NDo=     1
 LinEq1:  Iter= 17 NonCon=     1 RMS=1.14D-08 Max=2.34D-07 NDo=     1
 LinEq1:  Iter= 18 NonCon=     0 RMS=4.57D-09 Max=1.01D-07 NDo=     1
 Linear equations converged to 1.206D-08 1.206D-07 after    18 iterations.
     Accept linear search using points  1 and  2.
     Minimum is close to point  2 DX= -9.79D-03 DF= -8.95D-08 DXR=  9.89D-03 DFR=  9.84D-05 which will be used.
 LinEq1:  Iter=  0 NonCon=     1 RMS=1.71D-05 Max=7.53D-04 NDo=     1
 LinEq1:  Iter=  1 NonCon=     1 RMS=1.66D-05 Max=8.36D-04 NDo=     1
 LinEq1:  Iter=  2 NonCon=     1 RMS=1.18D-05 Max=3.52D-04 NDo=     1
 LinEq1:  Iter=  3 NonCon=     1 RMS=9.27D-06 Max=4.06D-04 NDo=     1
 LinEq1:  Iter=  4 NonCon=     1 RMS=7.49D-06 Max=3.01D-04 NDo=     1
 LinEq1:  Iter=  5 NonCon=     1 RMS=5.21D-06 Max=1.18D-04 NDo=     1
 LinEq1:  Iter=  6 NonCon=     1 RMS=4.68D-06 Max=1.45D-04 NDo=     1
 LinEq1:  Iter=  7 NonCon=     1 RMS=2.28D-06 Max=6.60D-05 NDo=     1
 LinEq1:  Iter=  8 NonCon=     1 RMS=2.11D-06 Max=6.24D-05 NDo=     1
 LinEq1:  Iter=  9 NonCon=     1 RMS=7.98D-07 Max=2.90D-05 NDo=     1
 LinEq1:  Iter= 10 NonCon=     1 RMS=5.15D-07 Max=1.57D-05 NDo=     1
 LinEq1:  Iter= 11 NonCon=     1 RMS=2.63D-07 Max=9.99D-06 NDo=     1
 LinEq1:  Iter= 12 NonCon=     1 RMS=1.36D-07 Max=3.18D-06 NDo=     1
 LinEq1:  Iter= 13 NonCon=     1 RMS=6.12D-08 Max=1.45D-06 NDo=     1
 LinEq1:  Iter= 14 NonCon=     1 RMS=1.94D-08 Max=3.76D-07 NDo=     1
 LinEq1:  Iter= 15 NonCon=     0 RMS=7.39D-09 Max=1.17D-07 NDo=     1
 Linear equations converged to 1.193D-08 1.193D-07 after    15 iterations.
     Minimum is close to point  2 DX=  1.45D-04 DF=  0.00D+00 DXR=  1.45D-04 DFR=  0.00D+00 which will be used.
 SCF Done:  E(RB3LYP) =  -605.237552377     a.u. after   25 cycles
            Convg  =    0.3000D-06                    91 Fock formations.
              S**2 =  0.0000                  -V/T =  2.0088
 DoSCS=F DFT=T ScalE2(SS,OS)=  1.000000  1.000000
 Range of M.O.s used for correlation:     1   204
 NBasis=   204 NAE=    46 NBE=    46 NFC=     0 NFV=     0
 NROrb=    204 NOA=    46 NOB=    46 NVA=   158 NVB=   158
 Symmetrizing basis deriv contribution to polar:
 IMax=3 JMax=2 DiffMx= 0.00D+00
 G2DrvN: will do    25 centers at a time, making    1 passes.
 Calling FoFCou, ICntrl=  3107 FMM=F I1Cent=   0 AccDes= 0.00D+00.
 End of G2Drv F.D. properties file   721 does not exist.
 End of G2Drv F.D. properties file   722 does not exist.
 End of G2Drv F.D. properties file   788 does not exist.
          IDoAtm=111111111111111111111111
          Differentiating once with respect to electric field.
                with respect to dipole field.
          Differentiating once with respect to nuclear coordinates.
 Keep R1 ints in memory in canonical form, NReq=222943293.
          There are    75 degrees of freedom in the 1st order CPHF.  IDoFFX=6 NUNeed=     3.
     72 vectors produced by pass  0 Test12= 9.69D-15 1.33D-09 XBig12= 1.40D+02 7.31D+00.
 AX will form    72 AO Fock derivatives at one time.
     72 vectors produced by pass  1 Test12= 9.69D-15 1.33D-09 XBig12= 3.64D+01 1.51D+00.
     72 vectors produced by pass  2 Test12= 9.69D-15 1.33D-09 XBig12= 4.01D-01 1.13D-01.
     72 vectors produced by pass  3 Test12= 9.69D-15 1.33D-09 XBig12= 1.83D-03 5.82D-03.
     72 vectors produced by pass  4 Test12= 9.69D-15 1.33D-09 XBig12= 2.24D-06 1.39D-04.
     45 vectors produced by pass  5 Test12= 9.69D-15 1.33D-09 XBig12= 1.69D-09 4.79D-06.
      9 vectors produced by pass  6 Test12= 9.69D-15 1.33D-09 XBig12= 1.32D-12 2.13D-07.
      3 vectors produced by pass  7 Test12= 9.69D-15 1.33D-09 XBig12= 1.02D-15 6.54D-09.
 InvSVY:  IOpt=1 It=  1 EMax= 3.55D-15
 Solved reduced A of dimension   417 with    75 vectors.
 Isotropic polarizability for W=    0.000000      106.31 Bohr**3.
 End of Minotr F.D. properties file   721 does not exist.
 End of Minotr F.D. properties file   722 does not exist.
 End of Minotr F.D. properties file   788 does not exist.
 Calling FoFJK, ICntrl=    100127 FMM=F ISym2X=0 I1Cent= 0 IOpClX= 0 NMat=1 NMatS=1 NMatT=0.
 ***** Axes restored to original set *****
 -------------------------------------------------------------------
 Center     Atomic                   Forces (Hartrees/Bohr)
 Number     Number              X              Y              Z
 -------------------------------------------------------------------
      1        6           0.021230123   -0.051175343   -0.035420863
      2        8          -0.015027561    0.010697943    0.012096487
      3        7           0.011573502    0.040604945    0.017094902
      4        7           0.006295496   -0.029015696   -0.019186414
      5        6          -0.025383555    0.085865435    0.035652931
      6        8          -0.003520499   -0.013190461   -0.005220279
      7        7           0.029031385   -0.028926115   -0.001400428
      8        6           0.003538130   -0.002524614   -0.000727993
      9        6          -0.008359821    0.003607235   -0.001878311
     10        7           0.006014760    0.021910051    0.009666859
     11        6           0.000002319   -0.001710913    0.000673934
     12        6          -0.001341084   -0.015780528   -0.010443152
     13        1           0.004669306   -0.006064797   -0.001690662
     14        1          -0.003170673    0.001429473    0.000554764
     15        1          -0.002604686    0.002321939   -0.000453645
[...]
    13  H   -0.000000  -0.000000   0.000000  -0.000001   0.000000  -0.000000
    14  H    0.000000   0.000000   0.000000  -0.000000   0.000000  -0.000000
    15  H   -0.000000   0.000000   0.000000  -0.000000  -0.000000   0.000000
    16  H   -0.000001  -0.000000  -0.000000   0.000004   0.000000   0.000000
    17  H   -0.000000   0.000000  -0.000000   0.000000  -0.000000   0.000000
    18  H    0.000000  -0.000000   0.000000   0.000000  -0.000000  -0.000000
    19  H    0.483895  -0.024601  -0.022221  -0.000194  -0.000000  -0.000117
    20  H   -0.024601   0.565910  -0.042005  -0.000061  -0.001773   0.005883
    21  H   -0.022221  -0.042005   0.568101  -0.000014   0.006216  -0.001591
    22  H   -0.000194  -0.000061  -0.000014   0.471948  -0.021873  -0.023942
    23  H   -0.000000  -0.001773   0.006216  -0.021873   0.573602  -0.044227
    24  H   -0.000117   0.005883  -0.001591  -0.023942  -0.044227   0.576912
 Mulliken charges:
               1
     1  C    0.704237
     2  O   -0.463693
     3  N   -0.277719
     4  N   -0.277717
     5  C    0.704237
     6  O   -0.463693
     7  N   -0.386813
     8  C   -0.320153
     9  C   -0.322031
    10  N   -0.386812
    11  C   -0.320153
    12  C   -0.322032
    13  H    0.203668
    14  H    0.160976
    15  H    0.162312
    16  H    0.219713
    17  H    0.160689
    18  H    0.158813
    19  H    0.203669
    20  H    0.162312
    21  H    0.160976
    22  H    0.219715
    23  H    0.158813
    24  H    0.160687
 Sum of Mulliken charges =   0.00000
 Mulliken charges with hydrogens summed into heavy atoms:
               1
     1  C    0.704237
     2  O   -0.463693
     3  N   -0.277719
     4  N   -0.277717
     5  C    0.704237
     6  O   -0.463693
     7  N   -0.386813
     8  C    0.206804
     9  C    0.217183
    10  N   -0.386812
    11  C    0.206804
    12  C    0.217183
 Electronic spatial extent (au):  <R**2>=           2861.9123
 Charge=              0.0000 electrons
 Dipole moment (field-independent basis, Debye):
    X=              0.0000    Y=             -0.0000    Z=             -0.0002  Tot=              0.0002
 Quadrupole moment (field-independent basis, Debye-Ang):
   XX=            -46.6822   YY=            -77.3287   ZZ=            -70.9911
   XY=             10.5416   XZ=             -1.1219   YZ=              0.4905
 Traceless Quadrupole moment (field-independent basis, Debye-Ang):
   XX=             18.3184   YY=            -12.3280   ZZ=             -5.9904
   XY=             10.5416   XZ=             -1.1219   YZ=              0.4905
 Octapole moment (field-independent basis, Debye-Ang**2):
  XXX=              0.0004  YYY=             -0.0000  ZZZ=             -0.0003  XYY=              0.0003
  XXY=              0.0001  XXZ=             -0.0007  XZZ=             -0.0002  YZZ=             -0.0000
  YYZ=             -0.0002  XYZ=              0.0002
 Hexadecapole moment (field-independent basis, Debye-Ang**3):
 XXXX=          -2588.0687 YYYY=           -646.0195 ZZZZ=           -110.8753 XXXY=             -4.1829
 XXXZ=             -3.2781 YYYX=             33.1028 YYYZ=              2.8212 ZZZX=             -2.3649
 ZZZY=             -2.7721 XXYY=           -593.5723 XXZZ=           -502.7736 YYZZ=           -118.9316
 XXYZ=              5.7001 YYXZ=              0.6870 ZZXY=             -0.7750
 N-N= 7.215893619575D+02 E-N=-2.854453197373D+03  KE= 5.997740523751D+02
 Evaluate density.
 Using the total density.
 Monte-Carlo method of calculating molar volume:
 based on  0.001 e/bohr**3 density envelope.
 Number of points per bohr**3 =   20 CutOff= 1.00D-04
 Using the CI density.
 There are       391 points.  Will hold       391 in memory.
 LenV=   805183220 MDV=   805306368.
 Box volume = 7473.269 fraction occupied=0.187
 Integrated density= 1.0178095513676698D+02 error= 9.7809551367669769D+00
 Molar volume = 1395.265 bohr**3/mol (124.512 cm**3/mol)
 Recommended a0 for SCRF calculation =  4.54 angstrom (  8.57 bohr)
 ******************************Gaussian NBO Version 3.1******************************
             N A T U R A L   A T O M I C   O R B I T A L   A N D
          N A T U R A L   B O N D   O R B I T A L   A N A L Y S I S
 ******************************Gaussian NBO Version 3.1******************************
       /RESON  / : Allow strongly delocalized NBO set

 Analyzing the CI density

 Job title: Title Card Required                                             

 Storage needed:    126804 in NPA ( 805303248 available)


 NATURAL POPULATIONS:  Natural atomic orbital occupancies 
                                                          
   NAO  Atom  No  lang   Type(AO)    Occupancy
 --------------------------------------------
     1    C    1  S      Cor( 1S)     1.99935
     2    C    1  S      Val( 2S)     0.73540
     3    C    1  S      Ryd( 3S)     0.00442
     4    C    1  S      Ryd( 4S)     0.00038
     5    C    1  px     Val( 2p)     0.83532
     6    C    1  px     Ryd( 3p)     0.00861
     7    C    1  py     Val( 2p)     0.76703
     8    C    1  py     Ryd( 3p)     0.01945
     9    C    1  pz     Val( 2p)     0.82500
    10    C    1  pz     Ryd( 3p)     0.00357
    11    C    1  dxy    Ryd( 3d)     0.00349
    12    C    1  dxz    Ryd( 3d)     0.00167
    13    C    1  dyz    Ryd( 3d)     0.00259
    14    C    1  dx2y2  Ryd( 3d)     0.00180
    15    C    1  dz2    Ryd( 3d)     0.00041
 
    16    O    2  S      Cor( 1S)     1.99979
    17    O    2  S      Val( 2S)     1.70335
    18    O    2  S      Ryd( 3S)     0.00079
    19    O    2  S      Ryd( 4S)     0.00008
    20    O    2  px     Val( 2p)     1.73134
    21    O    2  px     Ryd( 3p)     0.00156
    22    O    2  py     Val( 2p)     1.57373
    23    O    2  py     Ryd( 3p)     0.00032
    24    O    2  pz     Val( 2p)     1.54199
    25    O    2  pz     Ryd( 3p)     0.00095
    26    O    2  dxy    Ryd( 3d)     0.00447
    27    O    2  dxz    Ryd( 3d)     0.00005
    28    O    2  dyz    Ryd( 3d)     0.00480
    29    O    2  dx2y2  Ryd( 3d)     0.00435
    30    O    2  dz2    Ryd( 3d)     0.00134
 
    31    N    3  S      Cor( 1S)     1.99941
    32    N    3  S      Val( 2S)     1.40064
    33    N    3  S      Ryd( 3S)     0.00616
    34    N    3  S      Ryd( 4S)     0.00004
    35    N    3  px     Val( 2p)     1.13240
    36    N    3  px     Ryd( 3p)     0.00393
    37    N    3  py     Val( 2p)     1.41812
    38    N    3  py     Ryd( 3p)     0.00422
    39    N    3  pz     Val( 2p)     1.26953
    40    N    3  pz     Ryd( 3p)     0.00447
    41    N    3  dxy    Ryd( 3d)     0.00118
    42    N    3  dxz    Ryd( 3d)     0.00137
    43    N    3  dyz    Ryd( 3d)     0.00189
    44    N    3  dx2y2  Ryd( 3d)     0.00076
    45    N    3  dz2    Ryd( 3d)     0.00229
 
    46    N    4  S      Cor( 1S)     1.99941
    47    N    4  S      Val( 2S)     1.40064
    48    N    4  S      Ryd( 3S)     0.00616
    49    N    4  S      Ryd( 4S)     0.00004
    50    N    4  px     Val( 2p)     1.13240
    51    N    4  px     Ryd( 3p)     0.00393
    52    N    4  py     Val( 2p)     1.41812
    53    N    4  py     Ryd( 3p)     0.00422
    54    N    4  pz     Val( 2p)     1.26953
    55    N    4  pz     Ryd( 3p)     0.00447
    56    N    4  dxy    Ryd( 3d)     0.00118
    57    N    4  dxz    Ryd( 3d)     0.00137
    58    N    4  dyz    Ryd( 3d)     0.00189
    59    N    4  dx2y2  Ryd( 3d)     0.00076
    60    N    4  dz2    Ryd( 3d)     0.00229
 
    61    C    5  S      Cor( 1S)     1.99935
    62    C    5  S      Val( 2S)     0.73540
    63    C    5  S      Ryd( 3S)     0.00442
    64    C    5  S      Ryd( 4S)     0.00038
    65    C    5  px     Val( 2p)     0.83532
    66    C    5  px     Ryd( 3p)     0.00861
    67    C    5  py     Val( 2p)     0.76703
    68    C    5  py     Ryd( 3p)     0.01945
    69    C    5  pz     Val( 2p)     0.82500
    70    C    5  pz     Ryd( 3p)     0.00357
    71    C    5  dxy    Ryd( 3d)     0.00349
    72    C    5  dxz    Ryd( 3d)     0.00167
    73    C    5  dyz    Ryd( 3d)     0.00259
    74    C    5  dx2y2  Ryd( 3d)     0.00180
    75    C    5  dz2    Ryd( 3d)     0.00041
 
    76    O    6  S      Cor( 1S)     1.99979
    77    O    6  S      Val( 2S)     1.70335
    78    O    6  S      Ryd( 3S)     0.00079
    79    O    6  S      Ryd( 4S)     0.00008
    80    O    6  px     Val( 2p)     1.73134
    81    O    6  px     Ryd( 3p)     0.00156
    82    O    6  py     Val( 2p)     1.57373
    83    O    6  py     Ryd( 3p)     0.00032
    84    O    6  pz     Val( 2p)     1.54199
    85    O    6  pz     Ryd( 3p)     0.00095
    86    O    6  dxy    Ryd( 3d)     0.00447
    87    O    6  dxz    Ryd( 3d)     0.00005
    88    O    6  dyz    Ryd( 3d)     0.00480
    89    O    6  dx2y2  Ryd( 3d)     0.00435
    90    O    6  dz2    Ryd( 3d)     0.00134
 
    91    N    7  S      Cor( 1S)     1.99930
    92    N    7  S      Val( 2S)     1.20777
    93    N    7  S      Ryd( 3S)     0.00116
    94    N    7  S      Ryd( 4S)     0.00005
    95    N    7  px     Val( 2p)     1.29405
    96    N    7  px     Ryd( 3p)     0.00119
    97    N    7  py     Val( 2p)     1.29363
    98    N    7  py     Ryd( 3p)     0.00128
    99    N    7  pz     Val( 2p)     1.65295
   100    N    7  pz     Ryd( 3p)     0.00407
   101    N    7  dxy    Ryd( 3d)     0.00080
   102    N    7  dxz    Ryd( 3d)     0.00061
   103    N    7  dyz    Ryd( 3d)     0.00050
   104    N    7  dx2y2  Ryd( 3d)     0.00059
   105    N    7  dz2    Ryd( 3d)     0.00050
 
   106    C    8  S      Cor( 1S)     1.99947
   107    C    8  S      Val( 2S)     1.08839
   108    C    8  S      Ryd( 3S)     0.00094
   109    C    8  S      Ryd( 4S)     0.00002
   110    C    8  px     Val( 2p)     0.92326
   111    C    8  px     Ryd( 3p)     0.00214
   112    C    8  py     Val( 2p)     1.21890
   113    C    8  py     Ryd( 3p)     0.00310
   114    C    8  pz     Val( 2p)     1.22835
   115    C    8  pz     Ryd( 3p)     0.00113
   116    C    8  dxy    Ryd( 3d)     0.00072
   117    C    8  dxz    Ryd( 3d)     0.00142
   118    C    8  dyz    Ryd( 3d)     0.00045
   119    C    8  dx2y2  Ryd( 3d)     0.00114
   120    C    8  dz2    Ryd( 3d)     0.00090
 
   121    C    9  S      Cor( 1S)     1.99945
   122    C    9  S      Val( 2S)     1.08828
   123    C    9  S      Ryd( 3S)     0.00104
   124    C    9  S      Ryd( 4S)     0.00002
   125    C    9  px     Val( 2p)     1.27470
   126    C    9  px     Ryd( 3p)     0.00320
   127    C    9  py     Val( 2p)     0.85928
   128    C    9  py     Ryd( 3p)     0.00208
   129    C    9  pz     Val( 2p)     1.23895
   130    C    9  pz     Ryd( 3p)     0.00086
   131    C    9  dxy    Ryd( 3d)     0.00051
   132    C    9  dxz    Ryd( 3d)     0.00074
   133    C    9  dyz    Ryd( 3d)     0.00119
   134    C    9  dx2y2  Ryd( 3d)     0.00131
   135    C    9  dz2    Ryd( 3d)     0.00084
 
   136    N   10  S      Cor( 1S)     1.99930
   137    N   10  S      Val( 2S)     1.20776
   138    N   10  S      Ryd( 3S)     0.00116
   139    N   10  S      Ryd( 4S)     0.00005
   140    N   10  px     Val( 2p)     1.29405
   141    N   10  px     Ryd( 3p)     0.00119
   142    N   10  py     Val( 2p)     1.29363
   143    N   10  py     Ryd( 3p)     0.00128
   144    N   10  pz     Val( 2p)     1.65295
   145    N   10  pz     Ryd( 3p)     0.00407
   146    N   10  dxy    Ryd( 3d)     0.00080
   147    N   10  dxz    Ryd( 3d)     0.00061
   148    N   10  dyz    Ryd( 3d)     0.00050
   149    N   10  dx2y2  Ryd( 3d)     0.00059
   150    N   10  dz2    Ryd( 3d)     0.00050
 
   151    C   11  S      Cor( 1S)     1.99947
   152    C   11  S      Val( 2S)     1.08839
   153    C   11  S      Ryd( 3S)     0.00094
   154    C   11  S      Ryd( 4S)     0.00002
   155    C   11  px     Val( 2p)     0.92325
   156    C   11  px     Ryd( 3p)     0.00214
   157    C   11  py     Val( 2p)     1.21890
   158    C   11  py     Ryd( 3p)     0.00310
   159    C   11  pz     Val( 2p)     1.22836
   160    C   11  pz     Ryd( 3p)     0.00113
   161    C   11  dxy    Ryd( 3d)     0.00072
   162    C   11  dxz    Ryd( 3d)     0.00142
   163    C   11  dyz    Ryd( 3d)     0.00045
   164    C   11  dx2y2  Ryd( 3d)     0.00114
   165    C   11  dz2    Ryd( 3d)     0.00090
 
   166    C   12  S      Cor( 1S)     1.99945
   167    C   12  S      Val( 2S)     1.08828
   168    C   12  S      Ryd( 3S)     0.00104
   169    C   12  S      Ryd( 4S)     0.00002
   170    C   12  px     Val( 2p)     1.27471
   171    C   12  px     Ryd( 3p)     0.00320
   172    C   12  py     Val( 2p)     0.85928
   173    C   12  py     Ryd( 3p)     0.00208
   174    C   12  pz     Val( 2p)     1.23895
   175    C   12  pz     Ryd( 3p)     0.00085
   176    C   12  dxy    Ryd( 3d)     0.00051
   177    C   12  dxz    Ryd( 3d)     0.00074
   178    C   12  dyz    Ryd( 3d)     0.00119
   179    C   12  dx2y2  Ryd( 3d)     0.00131
   180    C   12  dz2    Ryd( 3d)     0.00084
 
   181    H   13  S      Val( 1S)     0.73793
   182    H   13  S      Ryd( 2S)     0.00171
 
   183    H   14  S      Val( 1S)     0.77339
   184    H   14  S      Ryd( 2S)     0.00128
 
   185    H   15  S      Val( 1S)     0.77424
   186    H   15  S      Ryd( 2S)     0.00127
 
   187    H   16  S      Val( 1S)     0.73208
   188    H   16  S      Ryd( 2S)     0.00190
 
   189    H   17  S      Val( 1S)     0.77511
   190    H   17  S      Ryd( 2S)     0.00155
 
   191    H   18  S      Val( 1S)     0.77316
   192    H   18  S      Ryd( 2S)     0.00135
 
   193    H   19  S      Val( 1S)     0.73793
   194    H   19  S      Ryd( 2S)     0.00171
 
   195    H   20  S      Val( 1S)     0.77424
   196    H   20  S      Ryd( 2S)     0.00127
 
   197    H   21  S      Val( 1S)     0.77339
   198    H   21  S      Ryd( 2S)     0.00128
 
   199    H   22  S      Val( 1S)     0.73208
   200    H   22  S      Ryd( 2S)     0.00190
 
   201    H   23  S      Val( 1S)     0.77316
   202    H   23  S      Ryd( 2S)     0.00135
 
   203    H   24  S      Val( 1S)     0.77511
   204    H   24  S      Ryd( 2S)     0.00155


 Summary of Natural Population Analysis:                  
                                                          
                                       Natural Population 
                Natural  -----------------------------------------------
    Atom  No    Charge         Core      Valence    Rydberg      Total
 -----------------------------------------------------------------------
      C    1    0.79149      1.99935     3.16276    0.04640     5.20851
      O    2   -0.56891      1.99979     6.55041    0.01871     8.56891
      N    3   -0.24642      1.99941     5.22069    0.02631     7.24642
      N    4   -0.24641      1.99941     5.22069    0.02631     7.24641
      C    5    0.79150      1.99935     3.16276    0.04640     5.20850
      O    6   -0.56891      1.99979     6.55041    0.01871     8.56891
      N    7   -0.45844      1.99930     5.44839    0.01076     7.45844
      C    8   -0.47032      1.99947     4.45889    0.01196     6.47032
      C    9   -0.47244      1.99945     4.46122    0.01177     6.47244
      N   10   -0.45844      1.99930     5.44839    0.01076     7.45844
      C   11   -0.47032      1.99947     4.45889    0.01196     6.47032
      C   12   -0.47244      1.99945     4.46122    0.01177     6.47244
      H   13    0.26036      0.00000     0.73793    0.00171     0.73964
      H   14    0.22533      0.00000     0.77339    0.00128     0.77467
      H   15    0.22449      0.00000     0.77424    0.00127     0.77551
      H   16    0.26602      0.00000     0.73208    0.00190     0.73398
      H   17    0.22334      0.00000     0.77511    0.00155     0.77666
      H   18    0.22549      0.00000     0.77316    0.00135     0.77451
      H   19    0.26036      0.00000     0.73793    0.00171     0.73964
      H   20    0.22449      0.00000     0.77424    0.00127     0.77551
      H   21    0.22533      0.00000     0.77339    0.00128     0.77467
      H   22    0.26602      0.00000     0.73208    0.00190     0.73398
      H   23    0.22548      0.00000     0.77316    0.00135     0.77452
      H   24    0.22334      0.00000     0.77511    0.00155     0.77666
 =======================================================================
   * Total *   -0.00000     23.99350    67.73658    0.26992    92.00000

                                 Natural Population      
 --------------------------------------------------------
   Core                      23.99350 ( 99.9729% of  24)
   Valence                   67.73658 ( 99.6126% of  68)
   Natural Minimal Basis     91.73008 ( 99.7066% of  92)
   Natural Rydberg Basis      0.26992 (  0.2934% of  92)
 --------------------------------------------------------

    Atom  No          Natural Electron Configuration
 ----------------------------------------------------------------------------
      C    1      [core]2S( 0.74)2p( 2.43)3p( 0.03)3d( 0.01)
      O    2      [core]2S( 1.70)2p( 4.85)3d( 0.02)
      N    3      [core]2S( 1.40)2p( 3.82)3S( 0.01)3p( 0.01)3d( 0.01)
      N    4      [core]2S( 1.40)2p( 3.82)3S( 0.01)3p( 0.01)3d( 0.01)
      C    5      [core]2S( 0.74)2p( 2.43)3p( 0.03)3d( 0.01)
      O    6      [core]2S( 1.70)2p( 4.85)3d( 0.02)
      N    7      [core]2S( 1.21)2p( 4.24)3p( 0.01)
      C    8      [core]2S( 1.09)2p( 3.37)3p( 0.01)
      C    9      [core]2S( 1.09)2p( 3.37)3p( 0.01)
      N   10      [core]2S( 1.21)2p( 4.24)3p( 0.01)
      C   11      [core]2S( 1.09)2p( 3.37)3p( 0.01)
      C   12      [core]2S( 1.09)2p( 3.37)3p( 0.01)
      H   13            1S( 0.74)
      H   14            1S( 0.77)
      H   15            1S( 0.77)
      H   16            1S( 0.73)
      H   17            1S( 0.78)
      H   18            1S( 0.77)
      H   19            1S( 0.74)
      H   20            1S( 0.77)
      H   21            1S( 0.77)
      H   22            1S( 0.73)
      H   23            1S( 0.77)
      H   24            1S( 0.78)


 NBO analysis skipped by request.
 1\1\GINC-DELLA-R1C4N9\SP\RB3LYP TD-FC\6-31G(d)\C6H12N4O2\BJS4\22-Aug-2
 020\0\\# TD(NStates=10, Root=1) B3LYP/6-31G* scf=qc volume pop=NPA den
 sity=current Geom=AllCheck Guess=Read\\Title Card Required\\0,1\C,0,-0
 .3260315218,-0.3317750039,-0.437046104\O,0,-0.2266084244,0.0211558996,
 -1.6005982009\N,0,-0.9118158209,0.5845810485,0.5422674164\N,0,-2.13444
 73378,0.7356923732,0.3735234726\C,0,-2.7202247055,1.6520462936,1.35284
 70068\O,0,-2.8196537985,1.2991018346,2.5163943244\N,0,-3.2108650525,2.
 79185766,0.8043239915\C,0,-3.9047425956,3.745361535,1.6572320946\C,0,-
 3.0077420902,3.1700166975,-0.5887752848\N,0,0.1646274258,-1.4715671744
 ,0.1114931282\C,0,0.8585617587,-2.4250507981,-0.741389835\C,0,-0.03843
 92635,-1.8496782139,1.5046128149\H,0,-3.9889248463,3.3207928558,2.6571
 71392\H,0,-4.9062308296,3.9486129002,1.2578698899\H,0,-3.3507375078,4.
 6914751615,1.7080493953\H,0,-2.547212583,2.3520074042,-1.1428791374\H,
 0,-2.3584127302,4.0526758748,-0.6586461761\H,0,-3.9720657595,3.4113227
 665,-1.0524855573\H,0,0.942683668,-2.000517371,-1.7413494537\H,0,0.304
 6310803,-3.3712103448,-0.7921505704\H,0,1.8600784479,-2.628204597,-0.3
 42048008\H,0,-0.4991006333,-1.0317128569,2.0586716809\H,0,0.9259166168
 ,-2.0908112564,1.9683475181\H,0,-0.687633497,-2.7324326885,1.574524201
 9\\Version=ES64L-G16RevA.03\State=1-A\HF=-605.2793301\RMSD=9.497e-10\D
 ipole=0.0000447,0.0000436,0.0000262\Quadrupole=0.4064743,10.1585281,-1
 0.5650024,-9.4637858,3.1116981,-0.4269569\PG=C01 [X(C6H12N4O2)]\\@


 DO YOU KNOW THAT THE LETTERS IN "EPISCOPAL", WHEN
 REARRANGED, SPELL "PEPSI COLA"?
 Job cpu time:       0 days  0 hours 18 minutes 10.9 seconds.
 Elapsed time:       0 days  0 hours  6 minutes 10.9 seconds.
 File lengths (MBytes):  RWF=    400 Int=      0 D2E=      0 Chk=     24 Scr=      1
 Normal termination of Gaussian 16 at Sat Aug 22 18:13:17 2020.
