 Entering Gaussian System, Link 0=g16
 Input=azadicarboxylate_5_conf2123.com
 Output=azadicarboxylate_5_conf2123.log
 Initial command:
 /opt/export//g16/l1.exe "/scratch/bjs4/job.29092/Gau-29094.inp" -scrdir="/scratch/bjs4/job.29092/"
 Entering Link 1 = /opt/export//g16/l1.exe PID=     29095.
  
 Copyright (c) 1988,1990,1992,1993,1995,1998,2003,2009,2016,
            Gaussian, Inc.  All Rights Reserved.
  
 This is part of the Gaussian(R) 16 program.  It is based on
 the Gaussian(R) 09 system (copyright 2009, Gaussian, Inc.),
 the Gaussian(R) 03 system (copyright 2003, Gaussian, Inc.),
 the Gaussian(R) 98 system (copyright 1998, Gaussian, Inc.),
 the Gaussian(R) 94 system (copyright 1995, Gaussian, Inc.),
 the Gaussian 92(TM) system (copyright 1992, Gaussian, Inc.),
 the Gaussian 90(TM) system (copyright 1990, Gaussian, Inc.),
 the Gaussian 88(TM) system (copyright 1988, Gaussian, Inc.),
 the Gaussian 86(TM) system (copyright 1986, Carnegie Mellon
 University), and the Gaussian 82(TM) system (copyright 1983,
 Carnegie Mellon University). Gaussian is a federally registered
 trademark of Gaussian, Inc.
  
 This software contains proprietary and confidential information,
 including trade secrets, belonging to Gaussian, Inc.
  
 This software is provided under written license and may be
 used, copied, transmitted, or stored only in accord with that
 written license.
  
 The following legend is applicable only to US Government
 contracts under FAR:
  
                    RESTRICTED RIGHTS LEGEND
  
 Use, reproduction and disclosure by the US Government is
 subject to restrictions as set forth in subparagraphs (a)
 and (c) of the Commercial Computer Software - Restricted
 Rights clause in FAR 52.227-19.
  
 Gaussian, Inc.
 340 Quinnipiac St., Bldg. 40, Wallingford CT 06492
  
  
 ---------------------------------------------------------------
 Warning -- This program may not be used in any manner that
 competes with the business of Gaussian, Inc. or will provide
 assistance to any competitor of Gaussian, Inc.  The licensee
 of this program is prohibited from giving any competitor of
 Gaussian, Inc. access to this program.  By using this program,
 the user acknowledges that Gaussian, Inc. is engaged in the
 business of creating and licensing software in the field of
 computational chemistry and represents and warrants to the
 licensee that it is not a competitor of Gaussian, Inc. and that
 it will not use this program in any manner prohibited above.
 ---------------------------------------------------------------
  

 Cite this work as:
 Gaussian 16, Revision A.03,
 M. J. Frisch, G. W. Trucks, H. B. Schlegel, G. E. Scuseria, 
 M. A. Robb, J. R. Cheeseman, G. Scalmani, V. Barone, 
 G. A. Petersson, H. Nakatsuji, X. Li, M. Caricato, A. V. Marenich, 
 J. Bloino, B. G. Janesko, R. Gomperts, B. Mennucci, H. P. Hratchian, 
 J. V. Ortiz, A. F. Izmaylov, J. L. Sonnenberg, D. Williams-Young, 
 F. Ding, F. Lipparini, F. Egidi, J. Goings, B. Peng, A. Petrone, 
 T. Henderson, D. Ranasinghe, V. G. Zakrzewski, J. Gao, N. Rega, 
 G. Zheng, W. Liang, M. Hada, M. Ehara, K. Toyota, R. Fukuda, 
 J. Hasegawa, M. Ishida, T. Nakajima, Y. Honda, O. Kitao, H. Nakai, 
 T. Vreven, K. Throssell, J. A. Montgomery, Jr., J. E. Peralta, 
 F. Ogliaro, M. J. Bearpark, J. J. Heyd, E. N. Brothers, K. N. Kudin, 
 V. N. Staroverov, T. A. Keith, R. Kobayashi, J. Normand, 
 K. Raghavachari, A. P. Rendell, J. C. Burant, S. S. Iyengar, 
 J. Tomasi, M. Cossi, J. M. Millam, M. Klene, C. Adamo, R. Cammi, 
 J. W. Ochterski, R. L. Martin, K. Morokuma, O. Farkas, 
 J. B. Foresman, and D. J. Fox, Gaussian, Inc., Wallingford CT, 2016.
 
 ******************************************
 Gaussian 16:  ES64L-G16RevA.03 25-Dec-2016
                22-Aug-2020 
 ******************************************
 %nprocshared=5
 Will use up to    5 processors via shared memory.
 %Mem=10GB
 %Chk=azadicarboxylate_5_conf21.chk
 ---------------------------------
 # opt=CalcAll B3LYP/6-31G* scf=qc
 ---------------------------------
 1/10=4,18=20,19=15,26=3,38=1/1,3;
 2/9=110,12=2,17=6,18=5,40=1/2;
 3/5=1,6=6,7=1,11=2,25=1,30=1,71=2,74=-5,140=1/1,2,3;
 4//1;
 5/5=2,8=3,38=5/8;
 8/6=4,10=90,11=11/1;
 11/6=1,8=1,9=11,15=111,16=1/1,2,10;
 10/6=1/2;
 6/7=2,8=2,9=2,10=2,18=1,28=1/1;
 7/10=1,25=1/1,2,3,16;
 1/10=4,18=20,19=15,26=3/3(3);
 2/9=110/2;
 7/8=1,9=1,25=1,44=-1/16;
 99//99;
 2/9=110/2;
 3/5=1,6=6,7=1,11=2,25=1,30=1,71=2,74=-5,140=1/1,2,3;
 4/5=5,16=3,69=1/1;
 5/5=2,8=3,38=5/8;
 8/6=4,10=90,11=11/1;
 11/6=1,8=1,9=11,15=111,16=1/1,2,10;
 10/6=1/2;
 7/10=1,25=1/1,2,3,16;
 1/10=4,18=20,19=15,26=3/3(-8);
 2/9=110/2;
 6/7=2,8=2,9=2,10=2,18=1,19=2,28=1/1;
 7/8=1,9=1,25=1,44=-1/16;
 99//99;
 -------------------
 Title Card Required
 -------------------
 Symbolic Z-matrix:
 Charge =  0 Multiplicity = 1
 C2                    0.8141    0.1461    0.0473 
 O3                    1.91042  -0.09096   0.55846 
 N4                    0.2028    1.3863    0.0651 
 N5                   -1.0496    1.3066    0.0658 
 C6                   -1.6625    2.5457    0.0392 
 O7                   -2.75879   2.78511   0.54932 
 N8                   -0.9467    3.55611  -0.60731 
 C                     0.34202   3.25799  -1.22054 
 C                     0.42841   3.85     -2.62545 
 C                     0.10626   5.34304  -2.6201 
 C                    -1.23602   5.61201  -1.93975 
 C                    -1.30797   4.97346  -0.55245 
 N1                    0.09454  -0.86908  -0.59304 
 C                    -1.19444  -0.56932  -1.2066 
 C                    -1.28161  -1.16465  -2.6098 
 C                    -0.96045  -2.65793  -2.60084 
 C                     0.38192  -2.92613  -1.9203 
 C                     0.45427  -2.2843   -0.53457 
 H                     0.52138   2.18031  -1.26749 
 H                     1.11905   3.69044  -0.57805 
 H                    -0.28268   3.33226  -3.28131 
 H                     1.42944   3.68576  -3.04 
 H                     0.08305   5.72065  -3.64882 
 H                     0.9007    5.88778  -2.09585 
 H                    -2.03974   5.20473  -2.56561 
 H                    -1.40193   6.69238  -1.8627 
 H                    -2.30598   5.12114  -0.13153 
 H                    -0.59443   5.46209   0.12281 
 H                    -1.37226   0.5091   -1.25651 
 H                    -1.9715   -0.99875  -0.56236 
 H                    -0.56996  -0.64931  -3.26713 
 H                    -2.28239  -1.00069  -3.02433 
 H                    -0.93802  -3.03807  -3.62872 
 H                    -1.75509  -3.20087  -2.0749 
 H                     1.18574  -2.52086  -2.54724 
 H                     0.5472   -4.00643  -1.84097 
 H                     1.45164  -2.43225  -0.11266 
 H                    -0.26006  -2.77068   0.14136 
 

 GradGradGradGradGradGradGradGradGradGradGradGradGradGradGradGradGradGrad
 Berny optimization.
 Initialization pass.
                           ----------------------------
                           !    Initial Parameters    !
                           ! (Angstroms and Degrees)  !
 --------------------------                            --------------------------
 ! Name  Definition              Value          Derivative Info.                !
 --------------------------------------------------------------------------------
 ! R1    R(1,2)                  1.2326         calculate D2E/DX2 analytically  !
 ! R2    R(1,3)                  1.3828         calculate D2E/DX2 analytically  !
 ! R3    R(1,13)                 1.3994         calculate D2E/DX2 analytically  !
 ! R4    R(3,4)                  1.2549         calculate D2E/DX2 analytically  !
 ! R5    R(4,5)                  1.3827         calculate D2E/DX2 analytically  !
 ! R6    R(5,6)                  1.2326         calculate D2E/DX2 analytically  !
 ! R7    R(5,7)                  1.3969         calculate D2E/DX2 analytically  !
 ! R8    R(7,8)                  1.458          calculate D2E/DX2 analytically  !
 ! R9    R(7,12)                 1.4637         calculate D2E/DX2 analytically  !
 ! R10   R(8,9)                  1.527          calculate D2E/DX2 analytically  !
 ! R11   R(8,19)                 1.0935         calculate D2E/DX2 analytically  !
 ! R12   R(8,20)                 1.0971         calculate D2E/DX2 analytically  !
 ! R13   R(9,10)                 1.5274         calculate D2E/DX2 analytically  !
 ! R14   R(9,21)                 1.0972         calculate D2E/DX2 analytically  !
 ! R15   R(9,22)                 1.0959         calculate D2E/DX2 analytically  !
 ! R16   R(10,11)                1.5287         calculate D2E/DX2 analytically  !
 ! R17   R(10,23)                1.0961         calculate D2E/DX2 analytically  !
 ! R18   R(10,24)                1.0967         calculate D2E/DX2 analytically  !
 ! R19   R(11,12)                1.5289         calculate D2E/DX2 analytically  !
 ! R20   R(11,25)                1.0971         calculate D2E/DX2 analytically  !
 ! R21   R(11,26)                1.0957         calculate D2E/DX2 analytically  !
 ! R22   R(12,27)                1.0932         calculate D2E/DX2 analytically  !
 ! R23   R(12,28)                1.0972         calculate D2E/DX2 analytically  !
 ! R24   R(13,14)                1.4587         calculate D2E/DX2 analytically  !
 ! R25   R(13,18)                1.4614         calculate D2E/DX2 analytically  !
 ! R26   R(14,15)                1.5268         calculate D2E/DX2 analytically  !
 ! R27   R(14,29)                1.0941         calculate D2E/DX2 analytically  !
 ! R28   R(14,30)                1.0969         calculate D2E/DX2 analytically  !
 ! R29   R(15,16)                1.5275         calculate D2E/DX2 analytically  !
 ! R30   R(15,31)                1.0973         calculate D2E/DX2 analytically  !
 ! R31   R(15,32)                1.0956         calculate D2E/DX2 analytically  !
 ! R32   R(16,17)                1.5287         calculate D2E/DX2 analytically  !
 ! R33   R(16,33)                1.0962         calculate D2E/DX2 analytically  !
 ! R34   R(16,34)                1.0967         calculate D2E/DX2 analytically  !
 ! R35   R(17,18)                1.5289         calculate D2E/DX2 analytically  !
 ! R36   R(17,35)                1.097          calculate D2E/DX2 analytically  !
 ! R37   R(17,36)                1.0957         calculate D2E/DX2 analytically  !
 ! R38   R(18,37)                1.093          calculate D2E/DX2 analytically  !
 ! R39   R(18,38)                1.0971         calculate D2E/DX2 analytically  !
 ! A1    A(2,1,3)              124.0792         calculate D2E/DX2 analytically  !
 ! A2    A(2,1,13)             120.5011         calculate D2E/DX2 analytically  !
 ! A3    A(3,1,13)             115.4171         calculate D2E/DX2 analytically  !
 ! A4    A(1,3,4)              112.5961         calculate D2E/DX2 analytically  !
 ! A5    A(3,4,5)              112.6722         calculate D2E/DX2 analytically  !
 ! A6    A(4,5,6)              124.0797         calculate D2E/DX2 analytically  !
 ! A7    A(4,5,7)              115.467          calculate D2E/DX2 analytically  !
 ! A8    A(6,5,7)              120.4505         calculate D2E/DX2 analytically  !
 ! A9    A(5,7,8)              119.98           calculate D2E/DX2 analytically  !
 ! A10   A(5,7,12)             123.8214         calculate D2E/DX2 analytically  !
 ! A11   A(8,7,12)             115.59           calculate D2E/DX2 analytically  !
 ! A12   A(7,8,9)              110.9594         calculate D2E/DX2 analytically  !
 ! A13   A(7,8,19)             111.38           calculate D2E/DX2 analytically  !
 ! A14   A(7,8,20)             107.405          calculate D2E/DX2 analytically  !
 ! A15   A(9,8,19)             109.4693         calculate D2E/DX2 analytically  !
 ! A16   A(9,8,20)             110.238          calculate D2E/DX2 analytically  !
 ! A17   A(19,8,20)            107.3044         calculate D2E/DX2 analytically  !
 ! A18   A(8,9,10)             111.3348         calculate D2E/DX2 analytically  !
 ! A19   A(8,9,21)             109.2904         calculate D2E/DX2 analytically  !
 ! A20   A(8,9,22)             109.9756         calculate D2E/DX2 analytically  !
 ! A21   A(10,9,21)            109.066          calculate D2E/DX2 analytically  !
 ! A22   A(10,9,22)            109.9068         calculate D2E/DX2 analytically  !
 ! A23   A(21,9,22)            107.1676         calculate D2E/DX2 analytically  !
 ! A24   A(9,10,11)            111.0227         calculate D2E/DX2 analytically  !
 ! A25   A(9,10,23)            109.7512         calculate D2E/DX2 analytically  !
 ! A26   A(9,10,24)            109.5377         calculate D2E/DX2 analytically  !
 ! A27   A(11,10,23)           109.785          calculate D2E/DX2 analytically  !
 ! A28   A(11,10,24)           109.6284         calculate D2E/DX2 analytically  !
 ! A29   A(23,10,24)           107.0299         calculate D2E/DX2 analytically  !
 ! A30   A(10,11,12)           111.8186         calculate D2E/DX2 analytically  !
 ! A31   A(10,11,25)           108.9083         calculate D2E/DX2 analytically  !
 ! A32   A(10,11,26)           109.738          calculate D2E/DX2 analytically  !
 ! A33   A(12,11,25)           109.1549         calculate D2E/DX2 analytically  !
 ! A34   A(12,11,26)           109.9294         calculate D2E/DX2 analytically  !
 ! A35   A(25,11,26)           107.171          calculate D2E/DX2 analytically  !
 ! A36   A(7,12,11)            111.0268         calculate D2E/DX2 analytically  !
 ! A37   A(7,12,27)            111.7517         calculate D2E/DX2 analytically  !
 ! A38   A(7,12,28)            107.085          calculate D2E/DX2 analytically  !
 ! A39   A(11,12,27)           109.629          calculate D2E/DX2 analytically  !
 ! A40   A(11,12,28)           109.9886         calculate D2E/DX2 analytically  !
 ! A41   A(27,12,28)           107.2524         calculate D2E/DX2 analytically  !
 ! A42   A(1,13,14)            119.8513         calculate D2E/DX2 analytically  !
 ! A43   A(1,13,18)            123.892          calculate D2E/DX2 analytically  !
 ! A44   A(14,13,18)           115.6805         calculate D2E/DX2 analytically  !
 ! A45   A(13,14,15)           110.9102         calculate D2E/DX2 analytically  !
 ! A46   A(13,14,29)           111.4292         calculate D2E/DX2 analytically  !
 ! A47   A(13,14,30)           107.3668         calculate D2E/DX2 analytically  !
 ! A48   A(15,14,29)           109.4589         calculate D2E/DX2 analytically  !
 ! A49   A(15,14,30)           110.2845         calculate D2E/DX2 analytically  !
 ! A50   A(29,14,30)           107.3089         calculate D2E/DX2 analytically  !
 ! A51   A(14,15,16)           111.3345         calculate D2E/DX2 analytically  !
 ! A52   A(14,15,31)           109.2932         calculate D2E/DX2 analytically  !
 ! A53   A(14,15,32)           109.9711         calculate D2E/DX2 analytically  !
 ! A54   A(16,15,31)           109.0433         calculate D2E/DX2 analytically  !
 ! A55   A(16,15,32)           109.9131         calculate D2E/DX2 analytically  !
 ! A56   A(31,15,32)           107.1865         calculate D2E/DX2 analytically  !
 ! A57   A(15,16,17)           111.0236         calculate D2E/DX2 analytically  !
 ! A58   A(15,16,33)           109.7452         calculate D2E/DX2 analytically  !
 ! A59   A(15,16,34)           109.5387         calculate D2E/DX2 analytically  !
 ! A60   A(17,16,33)           109.7935         calculate D2E/DX2 analytically  !
 ! A61   A(17,16,34)           109.6266         calculate D2E/DX2 analytically  !
 ! A62   A(33,16,34)           107.0272         calculate D2E/DX2 analytically  !
 ! A63   A(16,17,18)           111.8015         calculate D2E/DX2 analytically  !
 ! A64   A(16,17,35)           108.9164         calculate D2E/DX2 analytically  !
 ! A65   A(16,17,36)           109.7335         calculate D2E/DX2 analytically  !
 ! A66   A(18,17,35)           109.1614         calculate D2E/DX2 analytically  !
 ! A67   A(18,17,36)           109.9459         calculate D2E/DX2 analytically  !
 ! A68   A(35,17,36)           107.1621         calculate D2E/DX2 analytically  !
 ! A69   A(13,18,17)           111.0162         calculate D2E/DX2 analytically  !
 ! A70   A(13,18,37)           111.7864         calculate D2E/DX2 analytically  !
 ! A71   A(13,18,38)           107.0791         calculate D2E/DX2 analytically  !
 ! A72   A(17,18,37)           109.6473         calculate D2E/DX2 analytically  !
 ! A73   A(17,18,38)           109.9675         calculate D2E/DX2 analytically  !
 ! A74   A(37,18,38)           107.2353         calculate D2E/DX2 analytically  !
 ! D1    D(2,1,3,4)           -149.6471         calculate D2E/DX2 analytically  !
 ! D2    D(13,1,3,4)            29.763          calculate D2E/DX2 analytically  !
 ! D3    D(2,1,13,14)         -179.294          calculate D2E/DX2 analytically  !
 ! D4    D(2,1,13,18)            9.7955         calculate D2E/DX2 analytically  !
 ! D5    D(3,1,13,14)            1.2731         calculate D2E/DX2 analytically  !
 ! D6    D(3,1,13,18)         -169.6373         calculate D2E/DX2 analytically  !
 ! D7    D(1,3,4,5)           -178.0064         calculate D2E/DX2 analytically  !
 ! D8    D(3,4,5,6)           -149.6469         calculate D2E/DX2 analytically  !
 ! D9    D(3,4,5,7)             29.741          calculate D2E/DX2 analytically  !
 ! D10   D(4,5,7,8)              1.2938         calculate D2E/DX2 analytically  !
 ! D11   D(4,5,7,12)          -169.359          calculate D2E/DX2 analytically  !
 ! D12   D(6,5,7,8)           -179.2942         calculate D2E/DX2 analytically  !
 ! D13   D(6,5,7,12)            10.0529         calculate D2E/DX2 analytically  !
 ! D14   D(5,7,8,9)            133.4707         calculate D2E/DX2 analytically  !
 ! D15   D(5,7,8,19)            11.245          calculate D2E/DX2 analytically  !
 ! D16   D(5,7,8,20)          -105.9798         calculate D2E/DX2 analytically  !
 ! D17   D(12,7,8,9)           -55.1334         calculate D2E/DX2 analytically  !
 ! D18   D(12,7,8,19)         -177.3591         calculate D2E/DX2 analytically  !
 ! D19   D(12,7,8,20)           65.4161         calculate D2E/DX2 analytically  !
 ! D20   D(5,7,12,11)         -134.8054         calculate D2E/DX2 analytically  !
 ! D21   D(5,7,12,27)          -12.0635         calculate D2E/DX2 analytically  !
 ! D22   D(5,7,12,28)          105.1102         calculate D2E/DX2 analytically  !
 ! D23   D(8,7,12,11)           54.1685         calculate D2E/DX2 analytically  !
 ! D24   D(8,7,12,27)          176.9104         calculate D2E/DX2 analytically  !
 ! D25   D(8,7,12,28)          -65.9158         calculate D2E/DX2 analytically  !
 ! D26   D(7,8,9,10)            53.458          calculate D2E/DX2 analytically  !
 ! D27   D(7,8,9,21)           -67.0898         calculate D2E/DX2 analytically  !
 ! D28   D(7,8,9,22)           175.5251         calculate D2E/DX2 analytically  !
 ! D29   D(19,8,9,10)          176.7887         calculate D2E/DX2 analytically  !
 ! D30   D(19,8,9,21)           56.241          calculate D2E/DX2 analytically  !
 ! D31   D(19,8,9,22)          -61.1441         calculate D2E/DX2 analytically  !
 ! D32   D(20,8,9,10)          -65.3987         calculate D2E/DX2 analytically  !
 ! D33   D(20,8,9,21)          174.0536         calculate D2E/DX2 analytically  !
 ! D34   D(20,8,9,22)           56.6685         calculate D2E/DX2 analytically  !
 ! D35   D(8,9,10,11)          -53.1496         calculate D2E/DX2 analytically  !
 ! D36   D(8,9,10,23)         -174.7027         calculate D2E/DX2 analytically  !
 ! D37   D(8,9,10,24)           68.0646         calculate D2E/DX2 analytically  !
 ! D38   D(21,9,10,11)          67.5301         calculate D2E/DX2 analytically  !
 ! D39   D(21,9,10,23)         -54.023          calculate D2E/DX2 analytically  !
 ! D40   D(21,9,10,24)        -171.2557         calculate D2E/DX2 analytically  !
 ! D41   D(22,9,10,11)        -175.2566         calculate D2E/DX2 analytically  !
 ! D42   D(22,9,10,23)          63.1903         calculate D2E/DX2 analytically  !
 ! D43   D(22,9,10,24)         -54.0424         calculate D2E/DX2 analytically  !
 ! D44   D(9,10,11,12)          52.4209         calculate D2E/DX2 analytically  !
 ! D45   D(9,10,11,25)         -68.2921         calculate D2E/DX2 analytically  !
 ! D46   D(9,10,11,26)         174.6785         calculate D2E/DX2 analytically  !
 ! D47   D(23,10,11,12)        173.9542         calculate D2E/DX2 analytically  !
 ! D48   D(23,10,11,25)         53.2413         calculate D2E/DX2 analytically  !
 ! D49   D(23,10,11,26)        -63.7881         calculate D2E/DX2 analytically  !
 ! D50   D(24,10,11,12)        -68.74           calculate D2E/DX2 analytically  !
 ! D51   D(24,10,11,25)        170.547          calculate D2E/DX2 analytically  !
 ! D52   D(24,10,11,26)         53.5176         calculate D2E/DX2 analytically  !
 ! D53   D(10,11,12,7)         -51.6945         calculate D2E/DX2 analytically  !
 ! D54   D(10,11,12,27)       -175.6545         calculate D2E/DX2 analytically  !
 ! D55   D(10,11,12,28)         66.6485         calculate D2E/DX2 analytically  !
 ! D56   D(25,11,12,7)          68.8749         calculate D2E/DX2 analytically  !
 ! D57   D(25,11,12,27)        -55.0852         calculate D2E/DX2 analytically  !
 ! D58   D(25,11,12,28)       -172.7821         calculate D2E/DX2 analytically  !
 ! D59   D(26,11,12,7)        -173.8426         calculate D2E/DX2 analytically  !
 ! D60   D(26,11,12,27)         62.1974         calculate D2E/DX2 analytically  !
 ! D61   D(26,11,12,28)        -55.4995         calculate D2E/DX2 analytically  !
 ! D62   D(1,13,14,15)         133.2483         calculate D2E/DX2 analytically  !
 ! D63   D(1,13,14,29)          11.036          calculate D2E/DX2 analytically  !
 ! D64   D(1,13,14,30)        -106.1985         calculate D2E/DX2 analytically  !
 ! D65   D(18,13,14,15)        -55.1185         calculate D2E/DX2 analytically  !
 ! D66   D(18,13,14,29)       -177.3308         calculate D2E/DX2 analytically  !
 ! D67   D(18,13,14,30)         65.4348         calculate D2E/DX2 analytically  !
 ! D68   D(1,13,18,17)        -134.5528         calculate D2E/DX2 analytically  !
 ! D69   D(1,13,18,37)         -11.7701         calculate D2E/DX2 analytically  !
 ! D70   D(1,13,18,38)         105.3985         calculate D2E/DX2 analytically  !
 ! D71   D(14,13,18,17)         54.1921         calculate D2E/DX2 analytically  !
 ! D72   D(14,13,18,37)        176.9748         calculate D2E/DX2 analytically  !
 ! D73   D(14,13,18,38)        -65.8566         calculate D2E/DX2 analytically  !
 ! D74   D(13,14,15,16)         53.3819         calculate D2E/DX2 analytically  !
 ! D75   D(13,14,15,31)        -67.1392         calculate D2E/DX2 analytically  !
 ! D76   D(13,14,15,32)        175.4538         calculate D2E/DX2 analytically  !
 ! D77   D(29,14,15,16)        176.7347         calculate D2E/DX2 analytically  !
 ! D78   D(29,14,15,31)         56.2136         calculate D2E/DX2 analytically  !
 ! D79   D(29,14,15,32)        -61.1934         calculate D2E/DX2 analytically  !
 ! D80   D(30,14,15,16)        -65.4258         calculate D2E/DX2 analytically  !
 ! D81   D(30,14,15,31)        174.0531         calculate D2E/DX2 analytically  !
 ! D82   D(30,14,15,32)         56.6461         calculate D2E/DX2 analytically  !
 ! D83   D(14,15,16,17)        -53.1545         calculate D2E/DX2 analytically  !
 ! D84   D(14,15,16,33)       -174.7149         calculate D2E/DX2 analytically  !
 ! D85   D(14,15,16,34)         68.0586         calculate D2E/DX2 analytically  !
 ! D86   D(31,15,16,17)         67.5135         calculate D2E/DX2 analytically  !
 ! D87   D(31,15,16,33)        -54.047          calculate D2E/DX2 analytically  !
 ! D88   D(31,15,16,34)       -171.2734         calculate D2E/DX2 analytically  !
 ! D89   D(32,15,16,17)       -175.26           calculate D2E/DX2 analytically  !
 ! D90   D(32,15,16,33)         63.1796         calculate D2E/DX2 analytically  !
 ! D91   D(32,15,16,34)        -54.0469         calculate D2E/DX2 analytically  !
 ! D92   D(15,16,17,18)         52.434          calculate D2E/DX2 analytically  !
 ! D93   D(15,16,17,35)        -68.2815         calculate D2E/DX2 analytically  !
 ! D94   D(15,16,17,36)        174.6978         calculate D2E/DX2 analytically  !
 ! D95   D(33,16,17,18)        173.9662         calculate D2E/DX2 analytically  !
 ! D96   D(33,16,17,35)         53.2507         calculate D2E/DX2 analytically  !
 ! D97   D(33,16,17,36)        -63.77           calculate D2E/DX2 analytically  !
 ! D98   D(34,16,17,18)        -68.7275         calculate D2E/DX2 analytically  !
 ! D99   D(34,16,17,35)        170.557          calculate D2E/DX2 analytically  !
 ! D100  D(34,16,17,36)         53.5364         calculate D2E/DX2 analytically  !
 ! D101  D(16,17,18,13)        -51.7104         calculate D2E/DX2 analytically  !
 ! D102  D(16,17,18,37)       -175.7203         calculate D2E/DX2 analytically  !
 ! D103  D(16,17,18,38)         66.6052         calculate D2E/DX2 analytically  !
 ! D104  D(35,17,18,13)         68.8624         calculate D2E/DX2 analytically  !
 ! D105  D(35,17,18,37)        -55.1475         calculate D2E/DX2 analytically  !
 ! D106  D(35,17,18,38)       -172.822          calculate D2E/DX2 analytically  !
 ! D107  D(36,17,18,13)       -173.8526         calculate D2E/DX2 analytically  !
 ! D108  D(36,17,18,37)         62.1376         calculate D2E/DX2 analytically  !
 ! D109  D(36,17,18,38)        -55.5369         calculate D2E/DX2 analytically  !
 --------------------------------------------------------------------------------
 Trust Radius=3.00D-01 FncErr=1.00D-07 GrdErr=1.00D-06 EigMax=2.50D+02 EigMin=1.00D-04
 Number of steps in this run=    228 maximum allowed number of steps=    228.
 GradGradGradGradGradGradGradGradGradGradGradGradGradGradGradGradGradGrad

                          Input orientation:                          
 ---------------------------------------------------------------------
 Center     Atomic      Atomic             Coordinates (Angstroms)
 Number     Number       Type             X           Y           Z
 ---------------------------------------------------------------------
      1          6           0        0.814100    0.146100    0.047300
      2          8           0        1.910420   -0.090960    0.558460
      3          7           0        0.202800    1.386300    0.065100
      4          7           0       -1.049600    1.306600    0.065800
      5          6           0       -1.662500    2.545700    0.039200
      6          8           0       -2.758790    2.785110    0.549320
      7          7           0       -0.946700    3.556110   -0.607310
      8          6           0        0.342020    3.257990   -1.220540
      9          6           0        0.428410    3.850000   -2.625450
     10          6           0        0.106260    5.343040   -2.620100
     11          6           0       -1.236020    5.612010   -1.939750
     12          6           0       -1.307970    4.973460   -0.552450
     13          7           0        0.094540   -0.869080   -0.593040
     14          6           0       -1.194440   -0.569320   -1.206600
     15          6           0       -1.281610   -1.164650   -2.609800
     16          6           0       -0.960450   -2.657930   -2.600840
     17          6           0        0.381920   -2.926130   -1.920300
     18          6           0        0.454270   -2.284300   -0.534570
     19          1           0        0.521380    2.180310   -1.267490
     20          1           0        1.119050    3.690440   -0.578050
     21          1           0       -0.282680    3.332260   -3.281310
     22          1           0        1.429440    3.685760   -3.040000
     23          1           0        0.083050    5.720650   -3.648820
     24          1           0        0.900700    5.887780   -2.095850
     25          1           0       -2.039740    5.204730   -2.565610
     26          1           0       -1.401930    6.692380   -1.862700
     27          1           0       -2.305980    5.121140   -0.131530
     28          1           0       -0.594430    5.462090    0.122810
     29          1           0       -1.372260    0.509100   -1.256510
     30          1           0       -1.971500   -0.998750   -0.562360
     31          1           0       -0.569960   -0.649310   -3.267130
     32          1           0       -2.282390   -1.000690   -3.024330
     33          1           0       -0.938020   -3.038070   -3.628720
     34          1           0       -1.755090   -3.200870   -2.074900
     35          1           0        1.185740   -2.520860   -2.547240
     36          1           0        0.547200   -4.006430   -1.840970
     37          1           0        1.451640   -2.432250   -0.112660
     38          1           0       -0.260060   -2.770680    0.141360
 ---------------------------------------------------------------------
                    Distance matrix (angstroms):
                    1          2          3          4          5
     1  C    0.000000
     2  O    1.232639   0.000000
     3  N    1.382787   2.311205   0.000000
     4  N    2.195559   3.310228   1.254934   0.000000
     5  C    3.448433   4.470723   2.196411   1.382651   0.000000
     6  O    4.470116   5.483921   3.310914   2.311085   1.232636
     7  N    3.893212   4.777371   2.545891   2.350311   1.396880
     8  C    3.393249   4.103680   2.274967   2.720147   2.472327
     9  C    4.583800   5.278712   3.655103   3.987007   3.629527
    10  C    5.884237   6.548786   4.782825   4.984267   4.245645
    11  C    6.166647   6.976031   4.893491   4.753266   3.674287
    12  C    5.307192   6.102500   3.941004   3.727580   2.523838
    13  N    1.399426   2.286666   2.351937   2.544938   3.891997
    14  C    2.473525   3.603390   2.719182   2.271356   3.387395
    15  C    3.629083   4.623823   3.983203   3.649622   4.574820
    16  C    4.245498   4.981205   4.981584   4.778746   5.877112
    17  C    3.673803   4.064327   4.750889   4.889770   6.161186
    18  C    2.524855   2.850584   3.727753   3.939116   5.304604
    19  H    2.439748   3.228342   1.583585   2.238082   2.571047
    20  H    3.611981   4.027022   2.561682   3.286378   3.070578
    21  H    4.736474   5.592133   3.901399   3.986804   3.680811
    22  H    4.737009   5.238690   4.053863   4.631634   4.510133
    23  H    6.728398   7.403735   5.709127   5.879212   5.169985
    24  H    6.129232   6.618930   5.041834   5.428039   4.722069
    25  H    6.368786   7.308072   5.150731   4.806258   3.741361
    26  H    7.170263   7.927634   5.869076   5.731481   4.569472
    27  H    5.875194   6.739444   4.503518   4.020963   2.660095
    28  H    5.499946   6.107408   4.153429   4.180733   3.106943
    29  H    2.571354   3.798707   2.235385   1.577536   2.431223
    30  H    3.072773   4.141210   3.287818   2.561079   3.608390
    31  H    3.678824   4.593384   3.980530   3.894106   4.725839
    32  H    4.509799   5.589602   4.628009   4.048736   4.727194
    33  H    5.169331   5.859313   5.875443   5.704216   6.719896
    34  H    4.722995   5.481066   5.427252   5.039603   6.123811
    35  H    3.739309   4.009358   4.801707   5.145306   6.361774
    36  H    4.569497   4.790255   5.730031   5.866330   7.165767
    37  H    2.660814   2.478411   4.021508   4.501894   5.873748
    38  H    3.109706   3.473594   4.183364   4.153709   5.499197
                    6          7          8          9         10
     6  O    0.000000
     7  N    2.283835   0.000000
     8  C    3.601533   1.457987   0.000000
     9  C    4.622921   2.459713   1.526994   0.000000
    10  C    4.979633   2.890185   2.522258   1.527409   0.000000
    11  C    4.062716   2.466947   2.923847   2.518966   1.528704
    12  C    2.847394   1.463696   2.472175   2.928226   2.532156
    13  N    4.774891   4.546063   4.181831   5.148968   6.534489
    14  C    4.096663   4.176086   4.124222   4.917028   6.216575
    15  C    5.269033   5.138843   4.911819   5.298219   6.654045
    16  C    6.540965   6.525998   6.212871   6.654524   8.071788
    17  C    6.970032   6.746007   6.223712   6.812880   8.303305
    18  C    6.098974   6.006530   5.585708   6.480902   7.914977
    19  H    3.798170   2.117527   1.093512   2.154197   3.464786
    20  H    4.138626   2.070320   1.097079   2.166631   2.815457
    21  H    4.593933   2.764291   2.154655   1.097204   2.152141
    22  H    5.588887   3.403062   2.162384   1.095850   2.161874
    23  H    5.858142   3.872519   3.468184   2.160067   1.096081
    24  H    5.478627   3.326458   2.827382   2.157795   1.096683
    25  H    4.009287   2.783455   3.357349   2.816139   2.151143
    26  H    4.788076   3.408728   3.904967   3.465697   2.160789
    27  H    2.475001   2.126812   3.416017   3.913096   3.472913
    28  H    3.468802   2.071214   2.745830   3.346337   2.833495
    29  H    3.219271   3.144333   3.239822   4.034603   5.235683
    30  H    4.021598   4.668938   4.889316   5.790189   6.983529
    31  H    5.581354   4.990204   4.504135   4.653202   6.064996
    32  H    5.227831   5.328272   5.317663   5.571062   6.790579
    33  H    7.394636   7.253427   6.861356   7.093602   8.505930
    34  H    6.612556   6.961616   6.844317   7.401726   8.761294
    35  H    7.300775   6.726083   5.988915   6.416192   7.937979
    36  H    7.922630   7.806770   7.293753   7.896392   9.392234
    37  H    6.736971   6.469712   5.902329   6.843083   8.279640
    38  H    6.105480   6.407827   6.209842   7.208511   8.578596
                   11         12         13         14         15
    11  C    0.000000
    12  C    1.528896   0.000000
    13  N    6.751929   6.008657   0.000000
    14  C    6.224795   5.582402   1.458692   0.000000
    15  C    6.809858   6.473776   2.459364   1.526757   0.000000
    16  C    8.300897   7.909158   2.888641   2.522092   1.527452
    17  C    8.690106   8.193306   2.464886   2.923839   2.519038
    18  C    8.196543   7.468661   1.461394   2.472049   2.928050
    19  H    3.913688   3.414600   3.152119   3.241637   4.030053
    20  H    3.330617   2.745400   4.673229   4.888033   5.784728
    21  H    2.811743   3.345360   5.002034   4.511990   4.655211
    22  H    3.467804   3.916566   5.340050   5.324642   5.573270
    23  H    2.161636   3.475735   7.263778   6.867324   7.095718
    24  H    2.160090   2.845398   6.968751   6.846497   7.400229
    25  H    1.097061   2.154481   6.733302   5.991752   6.414493
    26  H    1.095747   2.163393   7.811987   7.294231   7.893387
    27  H    2.157644   1.093164   6.469793   5.896832   6.833909
    28  H    2.165241   1.097212   6.408653   6.205260   7.200907
    29  H    5.150249   4.519994   2.119216   1.094121   2.154310
    30  H    6.792664   6.008965   2.070333   1.096940   2.166906
    31  H    6.435037   6.287264   2.764166   2.154567   1.097317
    32  H    6.782257   6.538360   3.402688   2.161911   1.095572
    33  H    8.818464   8.589814   3.871182   3.468017   2.160082
    34  H    8.829188   8.326911   3.324798   2.827248   2.157891
    35  H    8.507499   8.146325   2.781725   3.357243   2.816209
    36  H    9.782843   9.259609   3.406640   3.905056   3.465741
    37  H    8.675938   7.915390   2.125085   3.415985   3.913205
    38  H    8.692123   7.845457   2.069098   2.745186   3.345412
                   16         17         18         19         20
    16  C    0.000000
    17  C    1.528733   0.000000
    18  C    2.531897   1.528865   0.000000
    19  H    5.232801   5.149887   4.524867   0.000000
    20  H    6.979814   6.791465   6.011767   1.764378   0.000000
    21  H    6.066695   6.439059   6.295508   2.455397   3.066065
    22  H    6.793146   6.787350   6.547500   2.496546   2.481443
    23  H    8.508100   8.822920   8.597417   4.289158   3.824222
    24  H    8.760597   8.830909   8.331854   3.817774   2.679496
    25  H    7.936468   8.508334   8.150508   4.170320   4.027583
    26  H    9.389784   9.782698   9.262299   4.940868   4.125204
    27  H    8.271752   8.670817   7.913404   4.234720   3.738598
    28  H    8.572454   8.688486   7.844646   3.734708   2.562413
    29  H    3.465096   3.913894   3.414746   2.525656   4.097299
    30  H    2.816115   3.331273   2.745500   4.100985   5.616071
    31  H    2.151971   2.811394   3.345015   3.632676   5.377484
    32  H    2.161785   3.467672   3.916104   4.589812   6.289736
    33  H    1.096151   2.161821   3.475688   5.910731   7.668831
    34  H    1.096745   2.160138   2.844994   5.898417   7.615208
    35  H    2.151230   1.097007   2.154495   4.917330   6.516318
    36  H    2.160755   1.095746   2.163573   6.213316   7.820728
    37  H    3.472773   2.157726   1.092998   4.845072   6.149353
    38  H    2.832476   2.164889   1.097139   5.206516   6.645718
                   21         22         23         24         25
    21  H    0.000000
    22  H    1.764808   0.000000
    23  H    2.444019   2.514797   0.000000
    24  H    3.055550   2.453544   1.763009   0.000000
    25  H    2.665639   3.816743   2.438392   3.055065   0.000000
    26  H    3.815178   4.294468   2.517866   2.450274   1.764649
    27  H    4.149090   4.947007   4.293973   3.837849   2.450024
    28  H    4.027580   4.153886   3.840706   2.709073   3.063129
    29  H    3.641048   4.595816   5.916192   5.899240   4.920184
    30  H    5.385392   6.296803   7.674487   7.617442   6.519266
    31  H    3.991946   4.779333   6.414710   6.802079   6.076361
    32  H    4.779052   5.978356   7.152741   7.644943   6.227081
    33  H    6.413366   7.152716   8.818059   9.241287   8.383778
    34  H    6.804793   7.648420   9.243890   9.468750   8.424722
    35  H    6.078991   6.230918   8.387603   8.425570   8.371905
    36  H    7.524603   7.834910   9.904536   9.903803   9.594938
    37  H    6.802778   6.782320   8.991510   8.570850   8.748152
    38  H    6.997218   7.393313   9.305153   9.017838   8.608258
                   26         27         28         29         30
    26  H    0.000000
    27  H    2.506602   0.000000
    28  H    2.471421   1.763615   0.000000
    29  H    6.212994   4.838215   5.199967   0.000000
    30  H    7.821047   6.144147   6.641403   1.764807   0.000000
    31  H    7.520971   6.792926   6.988670   2.455238   3.066301
    32  H    7.829937   6.770942   7.383849   2.496596   2.481522
    33  H    9.900288   8.981891   9.297567   4.289331   3.824849
    34  H    9.901825   8.563645   9.012432   3.818403   2.680288
    35  H    9.594187   8.742307   8.603817   4.170133   4.027994
    36  H   10.874931   9.714698   9.737177   4.941248   4.126116
    37  H    9.719278   8.436455   8.158582   4.234896   3.738320
    38  H    9.740104   8.157272   8.239578   3.734700   2.562027
                   31         32         33         34         35
    31  H    0.000000
    32  H    1.764890   0.000000
    33  H    2.443847   2.514664   0.000000
    34  H    3.055553   2.453621   1.763084   0.000000
    35  H    2.665225   3.816603   2.438742   3.055160   0.000000
    36  H    3.814739   4.294344   2.517866   2.450345   1.764502
    37  H    4.149268   4.946733   4.294202   3.837223   2.450660
    38  H    4.026668   4.152623   3.839874   2.707764   3.062894
                   36         37         38
    36  H    0.000000
    37  H    2.506613   0.000000
    38  H    2.471514   1.763229   0.000000
 Stoichiometry    C12H20N4O2
 Framework group  C1[X(C12H20N4O2)]
 Deg. of freedom   108
 Full point group                 C1      NOp   1
 Largest Abelian subgroup         C1      NOp   1
 Largest concise Abelian subgroup C1      NOp   1
                         Standard orientation:                         
 ---------------------------------------------------------------------
 Center     Atomic      Atomic             Coordinates (Angstroms)
 Number     Number       Type             X           Y           Z
 ---------------------------------------------------------------------
      1          6           0       -1.333923   -1.091519   -1.089712
      2          8           0       -1.694895   -1.608232   -2.149007
      3          7           0       -0.032608   -1.110140   -0.622451
      4          7           0        0.029823   -1.103241    0.630910
      5          6           0        1.330353   -1.077450    1.099610
      6          8           0        1.690736   -1.582002    2.164947
      7          7           0        2.255184   -0.438716    0.270164
      8          6           0        1.815002    0.168027   -0.980367
      9          6           0        2.397460    1.570302   -1.141852
     10          6           0        3.917330    1.561546   -0.990545
     11          6           0        4.334414    0.888101    0.316914
     12          6           0        3.704132   -0.496485    0.469204
     13          7           0       -2.259389   -0.443394   -0.263976
     14          6           0       -1.814041    0.176620    0.979016
     15          6           0       -2.391681    1.582405    1.124227
     16          6           0       -3.911719    1.576859    0.974019
     17          6           0       -4.331939    0.889443   -0.325172
     18          6           0       -3.706371   -0.498951   -0.461024
     19          1           0        0.724091    0.217745   -1.037022
     20          1           0        2.154973   -0.480519   -1.797307
     21          1           0        1.965328    2.232135   -0.380869
     22          1           0        2.122262    1.979576   -2.120448
     23          1           0        4.298082    2.589040   -1.016561
     24          1           0        4.367240    1.030737   -1.838212
     25          1           0        4.022422    1.520084    1.157629
     26          1           0        5.426391    0.808195    0.360088
     27          1           0        3.962516   -0.912088    1.446711
     28          1           0        4.107009   -1.177628   -0.290801
     29          1           0       -0.722292    0.223748    1.033456
     30          1           0       -2.154686   -0.461544    1.803627
     31          1           0       -1.958243    2.233737    0.354810
     32          1           0       -2.114420    2.002192    2.097461
     33          1           0       -4.289017    2.605930    0.988334
     34          1           0       -4.362820    1.057497    1.828197
     35          1           0       -4.018373    1.510237   -1.173533
     36          1           0       -5.424222    0.812976   -0.366758
     37          1           0       -3.967360   -0.926154   -1.432634
     38          1           0       -4.110785   -1.168969    0.307896
 ---------------------------------------------------------------------
 Rotational constants (GHZ):           0.7815387           0.2285456           0.2256356
 Standard basis: 6-31G(d) (6D, 7F)
 There are   310 symmetry adapted cartesian basis functions of A   symmetry.
 There are   310 symmetry adapted basis functions of A   symmetry.
   310 basis functions,   584 primitive gaussians,   310 cartesian basis functions
    68 alpha electrons       68 beta electrons
       nuclear repulsion energy      1423.0351523481 Hartrees.
 NAtoms=   38 NActive=   38 NUniq=   38 SFac= 1.00D+00 NAtFMM=   60 NAOKFM=F Big=F
 Integral buffers will be    131072 words long.
 Raffenetti 2 integral format.
 Two-electron integral symmetry is turned on.
 One-electron integrals computed using PRISM.
 NBasis=   310 RedAO= T EigKep=  1.56D-03  NBF=   310
 NBsUse=   310 1.00D-06 EigRej= -1.00D+00 NBFU=   310
 ExpMin= 1.61D-01 ExpMax= 5.48D+03 ExpMxC= 8.25D+02 IAcc=3 IRadAn=         5 AccDes= 0.00D+00
 Harris functional with IExCor=  402 and IRadAn=       5 diagonalized for initial guess.
 HarFok:  IExCor=  402 AccDes= 0.00D+00 IRadAn=         5 IDoV= 1 UseB2=F ITyADJ=14
 ICtDFT=  3500011 ScaDFX=  1.000000  1.000000  1.000000  1.000000
 FoFCou: FMM=F IPFlag=           0 FMFlag=      100000 FMFlg1=           0
         NFxFlg=           0 DoJE=T BraDBF=F KetDBF=T FulRan=T
         wScrn=  0.000000 ICntrl=       500 IOpCl=  0 I1Cent=   200000004 NGrid=           0
         NMat0=    1 NMatS0=      1 NMatT0=    0 NMatD0=    1 NMtDS0=    0 NMtDT0=    0
 Petite list used in FoFCou.
 Gradient too large for Newton-Raphson -- use scaled steepest descent instead.
     Minimum is close to point  2 DX=  2.20D-02 DF= -2.15D-03 DXR=  6.83D-02 DFR=  4.69D-03 which will be used.
 Gradient too large for Newton-Raphson -- use scaled steepest descent instead.
     Minimum is close to point  3 DX= -9.17D-03 DF= -2.14D-05 DXR=  1.87D-02 DFR=  3.47D-04 which will be used.
 Gradient too large for Newton-Raphson -- use scaled steepest descent instead.
     Accept linear search using points  1 and  2.
 Gradient too large for Newton-Raphson -- use scaled steepest descent instead.
 Gradient too large for Newton-Raphson -- use scaled steepest descent instead.
     Accept linear search using points  1 and  2.
 Gradient too large for Newton-Raphson -- use scaled steepest descent instead.
     Accept linear search using points  1 and  2.
 Gradient too large for Newton-Raphson -- use scaled steepest descent instead.
 LinEq1:  Iter=  0 NonCon=     1 RMS=5.09D-05 Max=2.55D-03 NDo=     1
 AX will form     1 AO Fock derivatives at one time.
 LinEq1:  Iter=  1 NonCon=     1 RMS=8.93D-05 Max=7.40D-03 NDo=     1
 LinEq1:  Iter=  2 NonCon=     1 RMS=1.28D-05 Max=4.37D-04 NDo=     1
 LinEq1:  Iter=  3 NonCon=     1 RMS=1.44D-05 Max=7.70D-04 NDo=     1
 LinEq1:  Iter=  4 NonCon=     1 RMS=4.20D-06 Max=1.12D-04 NDo=     1
 LinEq1:  Iter=  5 NonCon=     1 RMS=2.53D-06 Max=6.51D-05 NDo=     1
 LinEq1:  Iter=  6 NonCon=     1 RMS=8.96D-07 Max=4.71D-05 NDo=     1
 LinEq1:  Iter=  7 NonCon=     1 RMS=6.71D-07 Max=2.99D-05 NDo=     1
 LinEq1:  Iter=  8 NonCon=     1 RMS=6.88D-07 Max=5.19D-05 NDo=     1
 LinEq1:  Iter=  9 NonCon=     1 RMS=3.95D-07 Max=2.01D-05 NDo=     1
 LinEq1:  Iter= 10 NonCon=     1 RMS=4.60D-07 Max=2.75D-05 NDo=     1
 LinEq1:  Iter= 11 NonCon=     1 RMS=2.91D-07 Max=1.15D-05 NDo=     1
 LinEq1:  Iter= 12 NonCon=     1 RMS=1.48D-07 Max=3.39D-06 NDo=     1
 LinEq1:  Iter= 13 NonCon=     1 RMS=5.35D-08 Max=2.24D-06 NDo=     1
 LinEq1:  Iter= 14 NonCon=     1 RMS=1.99D-08 Max=1.22D-06 NDo=     1
 LinEq1:  Iter= 15 NonCon=     1 RMS=1.43D-08 Max=6.38D-07 NDo=     1
 LinEq1:  Iter= 16 NonCon=     0 RMS=6.09D-09 Max=1.59D-07 NDo=     1
 Linear equations converged to 1.814D-08 1.814D-07 after    16 iterations.
     Minimum is close to point  2 DX=  5.27D-04 DF= -7.96D-12 DXR=  5.26D-04 DFR=  2.79D-07 which will be used.
 LinEq1:  Iter=  0 NonCon=     1 RMS=1.38D-07 Max=1.02D-05 NDo=     1
 LinEq1:  Iter=  1 NonCon=     1 RMS=1.42D-07 Max=1.20D-05 NDo=     1
 LinEq1:  Iter=  2 NonCon=     1 RMS=8.61D-08 Max=6.61D-06 NDo=     1
 LinEq1:  Iter=  3 NonCon=     1 RMS=5.08D-08 Max=1.76D-06 NDo=     1
 LinEq1:  Iter=  4 NonCon=     1 RMS=4.16D-08 Max=1.22D-06 NDo=     1
 LinEq1:  Iter=  5 NonCon=     1 RMS=1.60D-08 Max=3.39D-07 NDo=     1
 LinEq1:  Iter=  6 NonCon=     1 RMS=6.55D-09 Max=2.67D-07 NDo=     1
 LinEq1:  Iter=  7 NonCon=     1 RMS=7.03D-09 Max=4.15D-07 NDo=     1
 LinEq1:  Iter=  8 NonCon=     1 RMS=4.29D-09 Max=1.59D-07 NDo=     1
 LinEq1:  Iter=  9 NonCon=     1 RMS=1.75D-09 Max=7.14D-08 NDo=     1
 LinEq1:  Iter= 10 NonCon=     1 RMS=8.37D-10 Max=2.79D-08 NDo=     1
 LinEq1:  Iter= 11 NonCon=     1 RMS=2.86D-10 Max=2.12D-08 NDo=     1
 LinEq1:  Iter= 12 NonCon=     1 RMS=1.26D-10 Max=7.49D-09 NDo=     1
 LinEq1:  Iter= 13 NonCon=     1 RMS=7.38D-11 Max=3.70D-09 NDo=     1
 LinEq1:  Iter= 14 NonCon=     0 RMS=3.40D-11 Max=1.05D-09 NDo=     1
 Linear equations converged to 1.160D-10 1.160D-09 after    14 iterations.
 Restarting incremental Fock formation.
 SCF Done:  E(RB3LYP) =  -838.651923325     a.u. after   10 cycles
            Convg  =    0.3055D-09                    51 Fock formations.
              S**2 =  0.0000                  -V/T =  2.0084
 DoSCS=F DFT=T ScalE2(SS,OS)=  1.000000  1.000000
 Range of M.O.s used for correlation:     1   310
 NBasis=   310 NAE=    68 NBE=    68 NFC=     0 NFV=     0
 NROrb=    310 NOA=    68 NOB=    68 NVA=   242 NVB=   242
 Symmetrizing basis deriv contribution to polar:
 IMax=3 JMax=2 DiffMx= 0.00D+00
 G2DrvN: will do    39 centers at a time, making    1 passes.
 Calling FoFCou, ICntrl=  3107 FMM=F I1Cent=   0 AccDes= 0.00D+00.
 End of G2Drv F.D. properties file   721 does not exist.
 End of G2Drv F.D. properties file   722 does not exist.
 End of G2Drv F.D. properties file   788 does not exist.
          IDoAtm=11111111111111111111111111111111111111
          Differentiating once with respect to electric field.
                with respect to dipole field.
          Differentiating once with respect to nuclear coordinates.
 Keep R1 ints in memory in canonical form, NReq=1176942819.
          There are   117 degrees of freedom in the 1st order CPHF.  IDoFFX=6 NUNeed=     3.
    114 vectors produced by pass  0 Test12= 1.65D-14 1.00D-09 XBig12= 2.01D+02 5.17D+00.
 AX will form   114 AO Fock derivatives at one time.
    114 vectors produced by pass  1 Test12= 1.65D-14 1.00D-09 XBig12= 7.56D+01 1.49D+00.
    114 vectors produced by pass  2 Test12= 1.65D-14 1.00D-09 XBig12= 8.99D-01 1.16D-01.
    114 vectors produced by pass  3 Test12= 1.65D-14 1.00D-09 XBig12= 2.74D-03 6.34D-03.
    114 vectors produced by pass  4 Test12= 1.65D-14 1.00D-09 XBig12= 3.73D-06 1.79D-04.
     69 vectors produced by pass  5 Test12= 1.65D-14 1.00D-09 XBig12= 3.28D-09 5.21D-06.
     10 vectors produced by pass  6 Test12= 1.65D-14 1.00D-09 XBig12= 2.83D-12 1.70D-07.
      3 vectors produced by pass  7 Test12= 1.65D-14 1.00D-09 XBig12= 2.17D-15 5.39D-09.
 InvSVY:  IOpt=1 It=  1 EMax= 8.88D-15
 Solved reduced A of dimension   652 with   117 vectors.
 Isotropic polarizability for W=    0.000000      163.30 Bohr**3.
 End of Minotr F.D. properties file   721 does not exist.
 End of Minotr F.D. properties file   722 does not exist.
 End of Minotr F.D. properties file   788 does not exist.

 **********************************************************************

            Population analysis using the SCF density.

 **********************************************************************

 Orbital symmetries:
       Occupied  (A) (A) (A) (A) (A) (A) (A) (A) (A) (A) (A) (A)
                 (A) (A) (A) (A) (A) (A) (A) (A) (A) (A) (A) (A)
                 (A) (A) (A) (A) (A) (A) (A) (A) (A) (A) (A) (A)
                 (A) (A) (A) (A) (A) (A) (A) (A) (A) (A) (A) (A)
                 (A) (A) (A) (A) (A) (A) (A) (A) (A) (A) (A) (A)
                 (A) (A) (A) (A) (A) (A) (A) (A)
       Virtual   (A) (A) (A) (A) (A) (A) (A) (A) (A) (A) (A) (A)
                 (A) (A) (A) (A) (A) (A) (A) (A) (A) (A) (A) (A)
                 (A) (A) (A) (A) (A) (A) (A) (A) (A) (A) (A) (A)
                 (A) (A) (A) (A) (A) (A) (A) (A) (A) (A) (A) (A)
                 (A) (A) (A) (A) (A) (A) (A) (A) (A) (A) (A) (A)
                 (A) (A) (A) (A) (A) (A) (A) (A) (A) (A) (A) (A)
                 (A) (A) (A) (A) (A) (A) (A) (A) (A) (A) (A) (A)
                 (A) (A) (A) (A) (A) (A) (A) (A) (A) (A) (A) (A)
                 (A) (A) (A) (A) (A) (A) (A) (A) (A) (A) (A) (A)
                 (A) (A) (A) (A) (A) (A) (A) (A) (A) (A) (A) (A)
                 (A) (A) (A) (A) (A) (A) (A) (A) (A) (A) (A) (A)
                 (A) (A) (A) (A) (A) (A) (A) (A) (A) (A) (A) (A)
                 (A) (A) (A) (A) (A) (A) (A) (A) (A) (A) (A) (A)
                 (A) (A) (A) (A) (A) (A) (A) (A) (A) (A) (A) (A)
                 (A) (A) (A) (A) (A) (A) (A) (A) (A) (A) (A) (A)
                 (A) (A) (A) (A) (A) (A) (A) (A) (A) (A) (A) (A)
                 (A) (A) (A) (A) (A) (A) (A) (A) (A) (A) (A) (A)
                 (A) (A) (A) (A) (A) (A) (A) (A) (A) (A) (A) (A)
                 (A) (A) (A) (A) (A) (A) (A) (A) (A) (A) (A) (A)
                 (A) (A) (A) (A) (A) (A) (A) (A) (A) (A) (A) (A)
                 (A) (A)
 The electronic state is 1-A.
 Alpha  occ. eigenvalues --  -19.12535 -19.12522 -14.40783 -14.40733 -14.37419
 Alpha  occ. eigenvalues --  -14.37409 -10.31556 -10.31545 -10.22764 -10.22744
 Alpha  occ. eigenvalues --  -10.21917 -10.21902 -10.19287 -10.19275 -10.18953
 Alpha  occ. eigenvalues --  -10.18952 -10.18834 -10.18831  -1.11198  -1.04625
 Alpha  occ. eigenvalues --   -1.02004  -0.94747  -0.94027  -0.82933  -0.80554
 Alpha  occ. eigenvalues --   -0.79188  -0.77382  -0.77190  -0.68637  -0.66711
 Alpha  occ. eigenvalues --   -0.65203  -0.64696  -0.61179  -0.59307  -0.58087
 Alpha  occ. eigenvalues --   -0.56942  -0.55419  -0.51343  -0.49072  -0.47559
 Alpha  occ. eigenvalues --   -0.47051  -0.46699  -0.46057  -0.45742  -0.44212
 Alpha  occ. eigenvalues --   -0.44171  -0.43924  -0.43037  -0.42561  -0.41617
 Alpha  occ. eigenvalues --   -0.40816  -0.39452  -0.39291  -0.36727  -0.36591
 Alpha  occ. eigenvalues --   -0.36269  -0.36217  -0.34200  -0.34072  -0.33604
 Alpha  occ. eigenvalues --   -0.33148  -0.32969  -0.32691  -0.27814  -0.27471
 Alpha  occ. eigenvalues --   -0.24407  -0.24369  -0.22236
 Alpha virt. eigenvalues --   -0.11944   0.03328   0.05123   0.06829   0.08847
 Alpha virt. eigenvalues --    0.10538   0.11041   0.11102   0.12921   0.13294
 Alpha virt. eigenvalues --    0.13347   0.14119   0.14646   0.15701   0.15852
 Alpha virt. eigenvalues --    0.15981   0.16130   0.16548   0.17053   0.17070
 Alpha virt. eigenvalues --    0.17283   0.17909   0.18128   0.19131   0.20140
 Alpha virt. eigenvalues --    0.21003   0.22758   0.23217   0.23460   0.24222
 Alpha virt. eigenvalues --    0.24603   0.24834   0.25984   0.27010   0.27552
 Alpha virt. eigenvalues --    0.28308   0.29569   0.29999   0.33108   0.38029
 Alpha virt. eigenvalues --    0.40973   0.43213   0.48234   0.49890   0.50252
 Alpha virt. eigenvalues --    0.51160   0.51929   0.52610   0.53240   0.53277
 Alpha virt. eigenvalues --    0.54446   0.54935   0.56041   0.56314   0.57298
 Alpha virt. eigenvalues --    0.59563   0.59670   0.60655   0.62373   0.62470
 Alpha virt. eigenvalues --    0.62850   0.63239   0.64373   0.65096   0.66517
 Alpha virt. eigenvalues --    0.67517   0.68114   0.69741   0.70591   0.71738
 Alpha virt. eigenvalues --    0.73729   0.74847   0.76436   0.76501   0.77273
 Alpha virt. eigenvalues --    0.79456   0.80682   0.81864   0.82152   0.82503
 Alpha virt. eigenvalues --    0.83367   0.83848   0.84239   0.85942   0.86305
 Alpha virt. eigenvalues --    0.87177   0.87192   0.87891   0.88148   0.88590
 Alpha virt. eigenvalues --    0.88818   0.90862   0.91267   0.91641   0.93024
 Alpha virt. eigenvalues --    0.93372   0.94168   0.95098   0.95136   0.95582
 Alpha virt. eigenvalues --    0.96361   0.97360   0.99978   1.00011   1.00577
 Alpha virt. eigenvalues --    1.01606   1.06248   1.06762   1.07467   1.11484
 Alpha virt. eigenvalues --    1.12171   1.12485   1.16024   1.16052   1.16953
 Alpha virt. eigenvalues --    1.21241   1.22532   1.24145   1.27368   1.29838
 Alpha virt. eigenvalues --    1.34328   1.35037   1.36880   1.37247   1.38076
 Alpha virt. eigenvalues --    1.40244   1.40750   1.43891   1.44497   1.45985
 Alpha virt. eigenvalues --    1.48665   1.54256   1.54483   1.55675   1.58554
 Alpha virt. eigenvalues --    1.59279   1.61700   1.62774   1.64053   1.66676
 Alpha virt. eigenvalues --    1.67007   1.72293   1.73020   1.75038   1.75148
 Alpha virt. eigenvalues --    1.77922   1.78318   1.79200   1.80748   1.81567
 Alpha virt. eigenvalues --    1.82377   1.84171   1.84990   1.86172   1.87477
 Alpha virt. eigenvalues --    1.88343   1.90186   1.91612   1.92404   1.92580
 Alpha virt. eigenvalues --    1.93313   1.93960   1.97118   1.97944   1.99143
 Alpha virt. eigenvalues --    1.99584   2.00089   2.00764   2.00796   2.01344
 Alpha virt. eigenvalues --    2.03760   2.04316   2.05815   2.10475   2.13521
 Alpha virt. eigenvalues --    2.15064   2.15196   2.16253   2.18045   2.18853
 Alpha virt. eigenvalues --    2.20385   2.25898   2.27363   2.28188   2.30122
 Alpha virt. eigenvalues --    2.31522   2.32373   2.33002   2.33411   2.35830
 Alpha virt. eigenvalues --    2.36261   2.37367   2.38910   2.38965   2.39881
 Alpha virt. eigenvalues --    2.41235   2.43092   2.47155   2.48072   2.50609
 Alpha virt. eigenvalues --    2.55280   2.58756   2.59221   2.59592   2.62640
 Alpha virt. eigenvalues --    2.63284   2.63515   2.65831   2.68773   2.71017
 Alpha virt. eigenvalues --    2.71918   2.72512   2.74170   2.74609   2.76681
 Alpha virt. eigenvalues --    2.78402   2.84692   2.85584   2.93893   2.95268
 Alpha virt. eigenvalues --    3.11316   3.11523   3.21561   3.23504   3.93613
 Alpha virt. eigenvalues --    3.99865   4.00179   4.09519   4.12055   4.17314
 Alpha virt. eigenvalues --    4.18107   4.22764   4.25777   4.26995   4.42416
 Alpha virt. eigenvalues --    4.43900   4.53404   4.54538   4.55585   4.57702
 Alpha virt. eigenvalues --    4.62779   4.70216
          Condensed to atoms (all electrons):
               1          2          3          4          5          6
     1  C    4.314828   0.595875   0.188245  -0.035210   0.001429  -0.000185
     2  O    0.595875   8.062520  -0.070073   0.001703  -0.000186   0.000000
     3  N    0.188245  -0.070073   7.422534   0.066694  -0.035277   0.001684
     4  N   -0.035210   0.001703   0.066694   7.427021   0.187343  -0.070113
     5  C    0.001429  -0.000186  -0.035277   0.187343   4.315222   0.596195
     6  O   -0.000185   0.000000   0.001684  -0.070113   0.596195   8.063026
     7  N    0.000977   0.000010  -0.002050  -0.110969   0.267896  -0.112972
     8  C    0.002619   0.000154  -0.111958  -0.008183  -0.024064   0.002922
     9  C   -0.000013  -0.000004   0.007258  -0.001002   0.000450  -0.000070
    10  C    0.000003   0.000000  -0.000142  -0.000031  -0.000040  -0.000007
    11  C    0.000001  -0.000000   0.000023  -0.000145   0.000837   0.000044
    12  C    0.000024   0.000000  -0.001227   0.004712  -0.019380  -0.001197
    13  N    0.267818  -0.112365  -0.110551  -0.002314   0.000985   0.000010
    14  C   -0.024233   0.002893  -0.008337  -0.113128   0.002699   0.000163
    15  C    0.000460  -0.000070  -0.001000   0.007331  -0.000014  -0.000004
    16  C   -0.000042  -0.000007  -0.000031  -0.000143   0.000003   0.000000
    17  C    0.000826   0.000039  -0.000146   0.000023   0.000001  -0.000000
    18  C   -0.019342  -0.001114   0.004709  -0.001222   0.000024   0.000000
    19  H    0.008754  -0.000229  -0.055620  -0.011363  -0.009961  -0.000073
    20  H   -0.000508   0.000051  -0.001442   0.001802   0.000139  -0.000030
    21  H   -0.000019   0.000000  -0.000277   0.000189   0.000514  -0.000024
    22  H   -0.000005   0.000000  -0.000023   0.000007  -0.000034   0.000001
    23  H    0.000000  -0.000000   0.000002   0.000000   0.000008   0.000000
    24  H   -0.000000  -0.000000  -0.000008   0.000001  -0.000016   0.000000
    25  H   -0.000000  -0.000000  -0.000005  -0.000003   0.000630   0.000037
    26  H   -0.000000   0.000000  -0.000000   0.000002  -0.000046  -0.000005
    27  H    0.000001  -0.000000  -0.000032   0.000486  -0.001263   0.013722
    28  H   -0.000007  -0.000000  -0.000062  -0.000065   0.000845   0.000807
    29  H   -0.009967  -0.000074  -0.011569  -0.056850   0.008981  -0.000229
    30  H    0.000163  -0.000029   0.001813  -0.001440  -0.000513   0.000052
    31  H    0.000521  -0.000024   0.000194  -0.000280  -0.000020   0.000000
    32  H   -0.000033   0.000001   0.000008  -0.000025  -0.000004   0.000000
    33  H    0.000008   0.000000   0.000000   0.000002   0.000000  -0.000000
    34  H   -0.000016   0.000000   0.000001  -0.000008  -0.000000  -0.000000
    35  H    0.000635   0.000037  -0.000003  -0.000005  -0.000000  -0.000000
    36  H   -0.000046  -0.000005   0.000002  -0.000000  -0.000000   0.000000
    37  H   -0.001248   0.013690   0.000488  -0.000032   0.000001  -0.000000
    38  H    0.000857   0.000794  -0.000066  -0.000065  -0.000007  -0.000000
               7          8          9         10         11         12
     1  C    0.000977   0.002619  -0.000013   0.000003   0.000001   0.000024
     2  O    0.000010   0.000154  -0.000004   0.000000  -0.000000   0.000000
     3  N   -0.002050  -0.111958   0.007258  -0.000142   0.000023  -0.001227
     4  N   -0.110969  -0.008183  -0.001002  -0.000031  -0.000145   0.004712
     5  C    0.267896  -0.024064   0.000450  -0.000040   0.000837  -0.019380
     6  O   -0.112972   0.002922  -0.000070  -0.000007   0.000044  -0.001197
     7  N    7.104183   0.280249  -0.052683  -0.013132  -0.044086   0.276343
     8  C    0.280249   5.002752   0.331137  -0.031788  -0.013649  -0.038655
     9  C   -0.052683   0.331137   5.109245   0.366224  -0.045385  -0.017808
    10  C   -0.013132  -0.031788   0.366224   5.019200   0.382054  -0.039844
    11  C   -0.044086  -0.013649  -0.045385   0.382054   5.026676   0.373778
    12  C    0.276343  -0.038655  -0.017808  -0.039844   0.373778   4.916709
    13  N   -0.000014  -0.000659   0.000011  -0.000000  -0.000000  -0.000000
    14  C   -0.000674   0.001057  -0.000028   0.000002   0.000000   0.000005
    15  C    0.000011  -0.000029   0.000005  -0.000000   0.000000  -0.000000
    16  C   -0.000000   0.000002  -0.000000   0.000000  -0.000000   0.000000
    17  C   -0.000000   0.000000   0.000000  -0.000000   0.000000   0.000000
    18  C   -0.000000   0.000005  -0.000000   0.000000   0.000000   0.000000
    19  H   -0.031502   0.394725  -0.037166   0.004230   0.000166   0.003923
    20  H   -0.053724   0.381325  -0.051895  -0.005953  -0.001160  -0.001117
    21  H    0.000620  -0.037155   0.364874  -0.041641  -0.004151  -0.000427
    22  H    0.004162  -0.030104   0.365774  -0.033066   0.005170   0.000082
    23  H   -0.000099   0.004488  -0.032057   0.371835  -0.033488   0.004834
    24  H   -0.000982  -0.004148  -0.042082   0.372000  -0.041899  -0.003141
    25  H   -0.000612  -0.000641  -0.004017  -0.042644   0.371586  -0.038447
    26  H    0.004088   0.000081   0.005024  -0.034128   0.366139  -0.032133
    27  H   -0.032412   0.003792  -0.000007   0.004026  -0.028525   0.373834
    28  H   -0.055374  -0.002860  -0.000978  -0.006399  -0.047238   0.376499
    29  H   -0.000546   0.001515  -0.000160  -0.000003  -0.000009   0.000051
    30  H    0.000030  -0.000040  -0.000000  -0.000000  -0.000000  -0.000000
    31  H    0.000001  -0.000055   0.000007   0.000000   0.000000   0.000000
    32  H    0.000001  -0.000002  -0.000000  -0.000000  -0.000000  -0.000000
    33  H   -0.000000  -0.000000   0.000000  -0.000000   0.000000  -0.000000
    34  H    0.000000  -0.000000  -0.000000   0.000000  -0.000000  -0.000000
    35  H    0.000000  -0.000001   0.000000  -0.000000   0.000000  -0.000000
    36  H    0.000000   0.000000  -0.000000   0.000000   0.000000   0.000000
    37  H   -0.000000  -0.000000  -0.000000  -0.000000  -0.000000   0.000000
    38  H    0.000000  -0.000000   0.000000  -0.000000   0.000000  -0.000000
              13         14         15         16         17         18
     1  C    0.267818  -0.024233   0.000460  -0.000042   0.000826  -0.019342
     2  O   -0.112365   0.002893  -0.000070  -0.000007   0.000039  -0.001114
     3  N   -0.110551  -0.008337  -0.001000  -0.000031  -0.000146   0.004709
     4  N   -0.002314  -0.113128   0.007331  -0.000143   0.000023  -0.001222
     5  C    0.000985   0.002699  -0.000014   0.000003   0.000001   0.000024
     6  O    0.000010   0.000163  -0.000004   0.000000  -0.000000   0.000000
     7  N   -0.000014  -0.000674   0.000011  -0.000000  -0.000000  -0.000000
     8  C   -0.000659   0.001057  -0.000029   0.000002   0.000000   0.000005
     9  C    0.000011  -0.000028   0.000005  -0.000000   0.000000  -0.000000
    10  C   -0.000000   0.000002  -0.000000   0.000000  -0.000000   0.000000
    11  C   -0.000000   0.000000   0.000000  -0.000000   0.000000   0.000000
    12  C   -0.000000   0.000005  -0.000000   0.000000   0.000000   0.000000
    13  N    7.103802   0.280731  -0.052997  -0.013165  -0.044386   0.276921
    14  C    0.280731   5.003828   0.330836  -0.031721  -0.013678  -0.038691
    15  C   -0.052997   0.330836   5.109850   0.366039  -0.045362  -0.017748
    16  C   -0.013165  -0.031721   0.366039   5.019441   0.382189  -0.039858
    17  C   -0.044386  -0.013678  -0.045362   0.382189   5.026983   0.373888
    18  C    0.276921  -0.038691  -0.017748  -0.039858   0.373888   4.915654
    19  H   -0.000482   0.001464  -0.000154  -0.000003  -0.000009   0.000049
    20  H    0.000029  -0.000040  -0.000000  -0.000000  -0.000000  -0.000000
    21  H    0.000001  -0.000054   0.000007   0.000000   0.000000   0.000000
    22  H    0.000001  -0.000002  -0.000000  -0.000000  -0.000000  -0.000000
    23  H   -0.000000  -0.000000   0.000000  -0.000000   0.000000  -0.000000
    24  H    0.000000  -0.000000  -0.000000   0.000000  -0.000000  -0.000000
    25  H    0.000000  -0.000001   0.000000  -0.000000   0.000000  -0.000000
    26  H    0.000000   0.000000  -0.000000   0.000000   0.000000   0.000000
    27  H   -0.000000  -0.000000  -0.000000  -0.000000  -0.000000   0.000000
    28  H    0.000000  -0.000000   0.000000  -0.000000   0.000000  -0.000000
    29  H   -0.031344   0.394663  -0.037289   0.004233   0.000166   0.003912
    30  H   -0.053745   0.381329  -0.051830  -0.005947  -0.001166  -0.001108
    31  H    0.000606  -0.037156   0.364940  -0.041690  -0.004151  -0.000429
    32  H    0.004176  -0.030119   0.365688  -0.033043   0.005169   0.000080
    33  H   -0.000102   0.004484  -0.032047   0.371826  -0.033492   0.004834
    34  H   -0.000985  -0.004145  -0.042087   0.371972  -0.041900  -0.003142
    35  H   -0.000603  -0.000639  -0.004022  -0.042649   0.371525  -0.038418
    36  H    0.004112   0.000083   0.005026  -0.034155   0.366042  -0.032118
    37  H   -0.032527   0.003807  -0.000011   0.004028  -0.028518   0.373874
    38  H   -0.055611  -0.002914  -0.000986  -0.006427  -0.047408   0.376576
              19         20         21         22         23         24
     1  C    0.008754  -0.000508  -0.000019  -0.000005   0.000000  -0.000000
     2  O   -0.000229   0.000051   0.000000   0.000000  -0.000000  -0.000000
     3  N   -0.055620  -0.001442  -0.000277  -0.000023   0.000002  -0.000008
     4  N   -0.011363   0.001802   0.000189   0.000007   0.000000   0.000001
     5  C   -0.009961   0.000139   0.000514  -0.000034   0.000008  -0.000016
     6  O   -0.000073  -0.000030  -0.000024   0.000001   0.000000   0.000000
     7  N   -0.031502  -0.053724   0.000620   0.004162  -0.000099  -0.000982
     8  C    0.394725   0.381325  -0.037155  -0.030104   0.004488  -0.004148
     9  C   -0.037166  -0.051895   0.364874   0.365774  -0.032057  -0.042082
    10  C    0.004230  -0.005953  -0.041641  -0.033066   0.371835   0.372000
    11  C    0.000166  -0.001160  -0.004151   0.005170  -0.033488  -0.041899
    12  C    0.003923  -0.001117  -0.000427   0.000082   0.004834  -0.003141
    13  N   -0.000482   0.000029   0.000001   0.000001  -0.000000   0.000000
    14  C    0.001464  -0.000040  -0.000054  -0.000002  -0.000000  -0.000000
    15  C   -0.000154  -0.000000   0.000007  -0.000000   0.000000  -0.000000
    16  C   -0.000003  -0.000000   0.000000  -0.000000  -0.000000   0.000000
    17  C   -0.000009  -0.000000   0.000000  -0.000000   0.000000  -0.000000
    18  C    0.000049  -0.000000   0.000000  -0.000000  -0.000000  -0.000000
    19  H    0.569222  -0.034511  -0.004402  -0.002230  -0.000155   0.000006
    20  H   -0.034511   0.592977   0.006143  -0.001384  -0.000118   0.005201
    21  H   -0.004402   0.006143   0.611080  -0.033295  -0.005588   0.006285
    22  H   -0.002230  -0.001384  -0.033295   0.590511  -0.002461  -0.004418
    23  H   -0.000155  -0.000118  -0.005588  -0.002461   0.597758  -0.035844
    24  H    0.000006   0.005201   0.006285  -0.004418  -0.035844   0.608325
    25  H   -0.000019   0.000213   0.005100  -0.000016  -0.005278   0.006096
    26  H    0.000008   0.000064   0.000016  -0.000149  -0.002588  -0.004338
    27  H   -0.000143  -0.000162  -0.000033   0.000010  -0.000140  -0.000054
    28  H   -0.000070   0.007606   0.000236   0.000033  -0.000117   0.004968
    29  H   -0.000136   0.000108   0.000315   0.000002  -0.000000   0.000000
    30  H    0.000107   0.000000   0.000000   0.000000  -0.000000   0.000000
    31  H    0.000322   0.000000   0.000079  -0.000000  -0.000000   0.000000
    32  H    0.000002   0.000000  -0.000000   0.000000  -0.000000   0.000000
    33  H   -0.000000  -0.000000  -0.000000  -0.000000   0.000000  -0.000000
    34  H    0.000000   0.000000   0.000000   0.000000  -0.000000   0.000000
    35  H    0.000007   0.000000   0.000000   0.000000  -0.000000   0.000000
    36  H    0.000000   0.000000   0.000000  -0.000000  -0.000000   0.000000
    37  H   -0.000001  -0.000000  -0.000000   0.000000   0.000000   0.000000
    38  H    0.000005   0.000000   0.000000   0.000000  -0.000000   0.000000
              25         26         27         28         29         30
     1  C   -0.000000  -0.000000   0.000001  -0.000007  -0.009967   0.000163
     2  O   -0.000000   0.000000  -0.000000  -0.000000  -0.000074  -0.000029
     3  N   -0.000005  -0.000000  -0.000032  -0.000062  -0.011569   0.001813
     4  N   -0.000003   0.000002   0.000486  -0.000065  -0.056850  -0.001440
     5  C    0.000630  -0.000046  -0.001263   0.000845   0.008981  -0.000513
     6  O    0.000037  -0.000005   0.013722   0.000807  -0.000229   0.000052
     7  N   -0.000612   0.004088  -0.032412  -0.055374  -0.000546   0.000030
     8  C   -0.000641   0.000081   0.003792  -0.002860   0.001515  -0.000040
     9  C   -0.004017   0.005024  -0.000007  -0.000978  -0.000160  -0.000000
    10  C   -0.042644  -0.034128   0.004026  -0.006399  -0.000003  -0.000000
    11  C    0.371586   0.366139  -0.028525  -0.047238  -0.000009  -0.000000
    12  C   -0.038447  -0.032133   0.373834   0.376499   0.000051  -0.000000
    13  N    0.000000   0.000000  -0.000000   0.000000  -0.031344  -0.053745
    14  C   -0.000001   0.000000  -0.000000  -0.000000   0.394663   0.381329
    15  C    0.000000  -0.000000  -0.000000   0.000000  -0.037289  -0.051830
    16  C   -0.000000   0.000000  -0.000000  -0.000000   0.004233  -0.005947
    17  C    0.000000   0.000000  -0.000000   0.000000   0.000166  -0.001166
    18  C   -0.000000   0.000000   0.000000  -0.000000   0.003912  -0.001108
    19  H   -0.000019   0.000008  -0.000143  -0.000070  -0.000136   0.000107
    20  H    0.000213   0.000064  -0.000162   0.007606   0.000108   0.000000
    21  H    0.005100   0.000016  -0.000033   0.000236   0.000315   0.000000
    22  H   -0.000016  -0.000149   0.000010   0.000033   0.000002   0.000000
    23  H   -0.005278  -0.002588  -0.000140  -0.000117  -0.000000  -0.000000
    24  H    0.006096  -0.004338  -0.000054   0.004968   0.000000   0.000000
    25  H    0.592877  -0.031906  -0.004609   0.005987   0.000006   0.000000
    26  H   -0.031906   0.589624  -0.001148  -0.001477   0.000000   0.000000
    27  H   -0.004609  -0.001148   0.513209  -0.032448  -0.000002  -0.000000
    28  H    0.005987  -0.001477  -0.032448   0.598088   0.000005   0.000000
    29  H    0.000006   0.000000  -0.000002   0.000005   0.569726  -0.034506
    30  H    0.000000   0.000000  -0.000000   0.000000  -0.034506   0.592653
    31  H    0.000000   0.000000  -0.000000   0.000000  -0.004412   0.006137
    32  H    0.000000  -0.000000   0.000000   0.000000  -0.002224  -0.001382
    33  H   -0.000000  -0.000000   0.000000  -0.000000  -0.000155  -0.000118
    34  H    0.000000   0.000000   0.000000   0.000000   0.000006   0.005191
    35  H    0.000000  -0.000000   0.000000   0.000000  -0.000019   0.000213
    36  H   -0.000000  -0.000000  -0.000000  -0.000000   0.000008   0.000064
    37  H    0.000000  -0.000000   0.000000  -0.000000  -0.000142  -0.000163
    38  H    0.000000  -0.000000  -0.000000   0.000000  -0.000069   0.007634
              31         32         33         34         35         36
     1  C    0.000521  -0.000033   0.000008  -0.000016   0.000635  -0.000046
     2  O   -0.000024   0.000001   0.000000   0.000000   0.000037  -0.000005
     3  N    0.000194   0.000008   0.000000   0.000001  -0.000003   0.000002
     4  N   -0.000280  -0.000025   0.000002  -0.000008  -0.000005  -0.000000
     5  C   -0.000020  -0.000004   0.000000  -0.000000  -0.000000  -0.000000
     6  O    0.000000   0.000000  -0.000000  -0.000000  -0.000000   0.000000
     7  N    0.000001   0.000001  -0.000000   0.000000   0.000000   0.000000
     8  C   -0.000055  -0.000002  -0.000000  -0.000000  -0.000001   0.000000
     9  C    0.000007  -0.000000   0.000000  -0.000000   0.000000  -0.000000
    10  C    0.000000  -0.000000  -0.000000   0.000000  -0.000000   0.000000
    11  C    0.000000  -0.000000   0.000000  -0.000000   0.000000   0.000000
    12  C    0.000000  -0.000000  -0.000000  -0.000000  -0.000000   0.000000
    13  N    0.000606   0.004176  -0.000102  -0.000985  -0.000603   0.004112
    14  C   -0.037156  -0.030119   0.004484  -0.004145  -0.000639   0.000083
    15  C    0.364940   0.365688  -0.032047  -0.042087  -0.004022   0.005026
    16  C   -0.041690  -0.033043   0.371826   0.371972  -0.042649  -0.034155
    17  C   -0.004151   0.005169  -0.033492  -0.041900   0.371525   0.366042
    18  C   -0.000429   0.000080   0.004834  -0.003142  -0.038418  -0.032118
    19  H    0.000322   0.000002  -0.000000   0.000000   0.000007   0.000000
    20  H    0.000000   0.000000  -0.000000   0.000000   0.000000   0.000000
    21  H    0.000079  -0.000000  -0.000000   0.000000   0.000000   0.000000
    22  H   -0.000000   0.000000  -0.000000   0.000000   0.000000  -0.000000
    23  H   -0.000000  -0.000000   0.000000  -0.000000  -0.000000  -0.000000
    24  H    0.000000   0.000000  -0.000000   0.000000   0.000000   0.000000
    25  H    0.000000   0.000000  -0.000000   0.000000   0.000000  -0.000000
    26  H    0.000000  -0.000000  -0.000000   0.000000  -0.000000  -0.000000
    27  H   -0.000000   0.000000   0.000000   0.000000   0.000000  -0.000000
    28  H    0.000000   0.000000  -0.000000   0.000000   0.000000  -0.000000
    29  H   -0.004412  -0.002224  -0.000155   0.000006  -0.000019   0.000008
    30  H    0.006137  -0.001382  -0.000118   0.005191   0.000213   0.000064
    31  H    0.611094  -0.033276  -0.005585   0.006285   0.005104   0.000017
    32  H   -0.033276   0.590538  -0.002475  -0.004409  -0.000015  -0.000149
    33  H   -0.005585  -0.002475   0.597798  -0.035845  -0.005277  -0.002592
    34  H    0.006285  -0.004409  -0.035845   0.608349   0.006096  -0.004331
    35  H    0.005104  -0.000015  -0.005277   0.006096   0.592946  -0.031903
    36  H    0.000017  -0.000149  -0.002592  -0.004331  -0.031903   0.589781
    37  H   -0.000033   0.000010  -0.000140  -0.000054  -0.004600  -0.001150
    38  H    0.000237   0.000034  -0.000118   0.004984   0.005996  -0.001446
              37         38
     1  C   -0.001248   0.000857
     2  O    0.013690   0.000794
     3  N    0.000488  -0.000066
     4  N   -0.000032  -0.000065
     5  C    0.000001  -0.000007
     6  O   -0.000000  -0.000000
     7  N   -0.000000   0.000000
     8  C   -0.000000  -0.000000
     9  C   -0.000000   0.000000
    10  C   -0.000000  -0.000000
    11  C   -0.000000   0.000000
    12  C    0.000000  -0.000000
    13  N   -0.032527  -0.055611
    14  C    0.003807  -0.002914
    15  C   -0.000011  -0.000986
    16  C    0.004028  -0.006427
    17  C   -0.028518  -0.047408
    18  C    0.373874   0.376576
    19  H   -0.000001   0.000005
    20  H   -0.000000   0.000000
    21  H   -0.000000   0.000000
    22  H    0.000000   0.000000
    23  H    0.000000  -0.000000
    24  H    0.000000   0.000000
    25  H    0.000000   0.000000
    26  H   -0.000000  -0.000000
    27  H    0.000000  -0.000000
    28  H   -0.000000   0.000000
    29  H   -0.000142  -0.000069
    30  H   -0.000163   0.007634
    31  H   -0.000033   0.000237
    32  H    0.000010   0.000034
    33  H   -0.000140  -0.000118
    34  H   -0.000054   0.004984
    35  H   -0.004600   0.005996
    36  H   -0.001150  -0.001446
    37  H    0.513464  -0.032477
    38  H   -0.032477   0.598685
 Mulliken charges:
               1
     1  C    0.706832
     2  O   -0.493586
     3  N   -0.283754
     4  N   -0.284721
     5  C    0.706623
     6  O   -0.493754
     7  N   -0.426741
     8  C   -0.102835
     9  C   -0.264654
    10  C   -0.270757
    11  C   -0.266737
    12  C   -0.137418
    13  N   -0.427356
    14  C   -0.102485
    15  C   -0.264544
    16  C   -0.270854
    17  C   -0.266634
    18  C   -0.137337
    19  H    0.205240
    20  H    0.156386
    21  H    0.131605
    22  H    0.141432
    23  H    0.139008
    24  H    0.134048
    25  H    0.145667
    26  H    0.142873
    27  H    0.191897
    28  H    0.152023
    29  H    0.206005
    30  H    0.156601
    31  H    0.131564
    32  H    0.141451
    33  H    0.138994
    34  H    0.134036
    35  H    0.145596
    36  H    0.142759
    37  H    0.191735
    38  H    0.151792
 Sum of Mulliken charges =  -0.00000
 Mulliken charges with hydrogens summed into heavy atoms:
               1
     1  C    0.706832
     2  O   -0.493586
     3  N   -0.283754
     4  N   -0.284721
     5  C    0.706623
     6  O   -0.493754
     7  N   -0.426741
     8  C    0.258791
     9  C    0.008382
    10  C    0.002299
    11  C    0.021803
    12  C    0.206503
    13  N   -0.427356
    14  C    0.260121
    15  C    0.008470
    16  C    0.002176
    17  C    0.021721
    18  C    0.206190
 APT charges:
               1
     1  C    0.970436
     2  O   -0.700726
     3  N   -0.069153
     4  N   -0.063037
     5  C    0.973287
     6  O   -0.701337
     7  N   -0.732378
     8  C    0.348399
     9  C    0.046988
    10  C    0.126084
    11  C    0.093673
    12  C    0.377675
    13  N   -0.731809
    14  C    0.349376
    15  C    0.045847
    16  C    0.126306
    17  C    0.093448
    18  C    0.378407
    19  H   -0.045086
    20  H   -0.075607
    21  H   -0.043605
    22  H   -0.044098
    23  H   -0.061337
    24  H   -0.046713
    25  H   -0.034784
    26  H   -0.050234
    27  H    0.020461
    28  H   -0.083207
    29  H   -0.047021
    30  H   -0.075940
    31  H   -0.043541
    32  H   -0.043960
    33  H   -0.061459
    34  H   -0.046781
    35  H   -0.034823
    36  H   -0.050360
    37  H    0.020323
    38  H   -0.083713
 Sum of APT charges =  -0.00000
 APT charges with hydrogens summed into heavy atoms:
               1
     1  C    0.970436
     2  O   -0.700726
     3  N   -0.069153
     4  N   -0.063037
     5  C    0.973287
     6  O   -0.701337
     7  N   -0.732378
     8  C    0.227706
     9  C   -0.040715
    10  C    0.018035
    11  C    0.008654
    12  C    0.314928
    13  N   -0.731809
    14  C    0.226415
    15  C   -0.041655
    16  C    0.018065
    17  C    0.008265
    18  C    0.315017
 Electronic spatial extent (au):  <R**2>=           5390.0710
 Charge=             -0.0000 electrons
 Dipole moment (field-independent basis, Debye):
    X=              0.0121    Y=              4.0709    Z=             -0.0178  Tot=              4.0710
 Quadrupole moment (field-independent basis, Debye-Ang):
   XX=            -90.5168   YY=           -113.0627   ZZ=           -120.1975
   XY=             -0.0777   XZ=             -9.1210   YZ=             -0.0468
 Traceless Quadrupole moment (field-independent basis, Debye-Ang):
   XX=             17.4089   YY=             -5.1370   ZZ=            -12.2718
   XY=             -0.0777   XZ=             -9.1210   YZ=             -0.0468
 Octapole moment (field-independent basis, Debye-Ang**2):
  XXX=              0.2040  YYY=             -1.7019  ZZZ=             -0.3571  XYY=              0.2420
[...]
    56    N    4  dxy    Ryd( 3d)     0.00099
    57    N    4  dxz    Ryd( 3d)     0.00149
    58    N    4  dyz    Ryd( 3d)     0.00202
    59    N    4  dx2y2  Ryd( 3d)     0.00075
    60    N    4  dz2    Ryd( 3d)     0.00224
 
    61    C    5  S      Cor( 1S)     1.99934
    62    C    5  S      Val( 2S)     0.73319
    63    C    5  S      Ryd( 3S)     0.00444
    64    C    5  S      Ryd( 4S)     0.00039
    65    C    5  px     Val( 2p)     0.83231
    66    C    5  px     Ryd( 3p)     0.00844
    67    C    5  py     Val( 2p)     0.76977
    68    C    5  py     Ryd( 3p)     0.01964
    69    C    5  pz     Val( 2p)     0.82157
    70    C    5  pz     Ryd( 3p)     0.00386
    71    C    5  dxy    Ryd( 3d)     0.00318
    72    C    5  dxz    Ryd( 3d)     0.00193
    73    C    5  dyz    Ryd( 3d)     0.00233
    74    C    5  dx2y2  Ryd( 3d)     0.00213
    75    C    5  dz2    Ryd( 3d)     0.00040
 
    76    O    6  S      Cor( 1S)     1.99979
    77    O    6  S      Val( 2S)     1.70363
    78    O    6  S      Ryd( 3S)     0.00079
    79    O    6  S      Ryd( 4S)     0.00009
    80    O    6  px     Val( 2p)     1.73790
    81    O    6  px     Ryd( 3p)     0.00148
    82    O    6  py     Val( 2p)     1.57452
    83    O    6  py     Ryd( 3p)     0.00037
    84    O    6  pz     Val( 2p)     1.53826
    85    O    6  pz     Ryd( 3p)     0.00090
    86    O    6  dxy    Ryd( 3d)     0.00437
    87    O    6  dxz    Ryd( 3d)     0.00023
    88    O    6  dyz    Ryd( 3d)     0.00460
    89    O    6  dx2y2  Ryd( 3d)     0.00438
    90    O    6  dz2    Ryd( 3d)     0.00134
 
    91    N    7  S      Cor( 1S)     1.99927
    92    N    7  S      Val( 2S)     1.20578
    93    N    7  S      Ryd( 3S)     0.00169
    94    N    7  S      Ryd( 4S)     0.00006
    95    N    7  px     Val( 2p)     1.29915
    96    N    7  px     Ryd( 3p)     0.00168
    97    N    7  py     Val( 2p)     1.30121
    98    N    7  py     Ryd( 3p)     0.00155
    99    N    7  pz     Val( 2p)     1.65277
   100    N    7  pz     Ryd( 3p)     0.00484
   101    N    7  dxy    Ryd( 3d)     0.00073
   102    N    7  dxz    Ryd( 3d)     0.00068
   103    N    7  dyz    Ryd( 3d)     0.00044
   104    N    7  dx2y2  Ryd( 3d)     0.00068
   105    N    7  dz2    Ryd( 3d)     0.00055
 
   106    C    8  S      Cor( 1S)     1.99930
   107    C    8  S      Val( 2S)     1.01820
   108    C    8  S      Ryd( 3S)     0.00132
   109    C    8  S      Ryd( 4S)     0.00003
   110    C    8  px     Val( 2p)     1.20702
   111    C    8  px     Ryd( 3p)     0.00563
   112    C    8  py     Val( 2p)     0.85790
   113    C    8  py     Ryd( 3p)     0.00246
   114    C    8  pz     Val( 2p)     1.16297
   115    C    8  pz     Ryd( 3p)     0.00186
   116    C    8  dxy    Ryd( 3d)     0.00070
   117    C    8  dxz    Ryd( 3d)     0.00071
   118    C    8  dyz    Ryd( 3d)     0.00100
   119    C    8  dx2y2  Ryd( 3d)     0.00126
   120    C    8  dz2    Ryd( 3d)     0.00115
 
   121    C    9  S      Cor( 1S)     1.99932
   122    C    9  S      Val( 2S)     1.04084
   123    C    9  S      Ryd( 3S)     0.00066
   124    C    9  S      Ryd( 4S)     0.00002
   125    C    9  px     Val( 2p)     1.05964
   126    C    9  px     Ryd( 3p)     0.00189
   127    C    9  py     Val( 2p)     1.20367
   128    C    9  py     Ryd( 3p)     0.00363
   129    C    9  pz     Val( 2p)     1.15576
   130    C    9  pz     Ryd( 3p)     0.00180
   131    C    9  dxy    Ryd( 3d)     0.00048
   132    C    9  dxz    Ryd( 3d)     0.00089
   133    C    9  dyz    Ryd( 3d)     0.00025
   134    C    9  dx2y2  Ryd( 3d)     0.00095
   135    C    9  dz2    Ryd( 3d)     0.00092
 
   136    C   10  S      Cor( 1S)     1.99933
   137    C   10  S      Val( 2S)     1.03646
   138    C   10  S      Ryd( 3S)     0.00060
   139    C   10  S      Ryd( 4S)     0.00002
   140    C   10  px     Val( 2p)     1.12661
   141    C   10  px     Ryd( 3p)     0.00200
   142    C   10  py     Val( 2p)     1.04848
   143    C   10  py     Ryd( 3p)     0.00157
   144    C   10  pz     Val( 2p)     1.24283
   145    C   10  pz     Ryd( 3p)     0.00381
   146    C   10  dxy    Ryd( 3d)     0.00060
   147    C   10  dxz    Ryd( 3d)     0.00113
   148    C   10  dyz    Ryd( 3d)     0.00047
   149    C   10  dx2y2  Ryd( 3d)     0.00066
   150    C   10  dz2    Ryd( 3d)     0.00067
 
   151    C   11  S      Cor( 1S)     1.99932
   152    C   11  S      Val( 2S)     1.04092
   153    C   11  S      Ryd( 3S)     0.00063
   154    C   11  S      Ryd( 4S)     0.00002
   155    C   11  px     Val( 2p)     1.16692
   156    C   11  px     Ryd( 3p)     0.00345
   157    C   11  py     Val( 2p)     1.09315
   158    C   11  py     Ryd( 3p)     0.00170
   159    C   11  pz     Val( 2p)     1.15975
   160    C   11  pz     Ryd( 3p)     0.00212
   161    C   11  dxy    Ryd( 3d)     0.00083
   162    C   11  dxz    Ryd( 3d)     0.00075
   163    C   11  dyz    Ryd( 3d)     0.00052
   164    C   11  dx2y2  Ryd( 3d)     0.00056
   165    C   11  dz2    Ryd( 3d)     0.00083
 
   166    C   12  S      Cor( 1S)     1.99932
   167    C   12  S      Val( 2S)     1.01799
   168    C   12  S      Ryd( 3S)     0.00122
   169    C   12  S      Ryd( 4S)     0.00003
   170    C   12  px     Val( 2p)     0.91712
   171    C   12  px     Ryd( 3p)     0.00372
   172    C   12  py     Val( 2p)     1.15387
   173    C   12  py     Ryd( 3p)     0.00478
   174    C   12  pz     Val( 2p)     1.15476
   175    C   12  pz     Ryd( 3p)     0.00157
   176    C   12  dxy    Ryd( 3d)     0.00114
   177    C   12  dxz    Ryd( 3d)     0.00119
   178    C   12  dyz    Ryd( 3d)     0.00046
   179    C   12  dx2y2  Ryd( 3d)     0.00088
   180    C   12  dz2    Ryd( 3d)     0.00120
 
   181    N   13  S      Cor( 1S)     1.99928
   182    N   13  S      Val( 2S)     1.20570
   183    N   13  S      Ryd( 3S)     0.00173
   184    N   13  S      Ryd( 4S)     0.00006
   185    N   13  px     Val( 2p)     1.29908
   186    N   13  px     Ryd( 3p)     0.00149
   187    N   13  py     Val( 2p)     1.30279
   188    N   13  py     Ryd( 3p)     0.00159
   189    N   13  pz     Val( 2p)     1.65036
   190    N   13  pz     Ryd( 3p)     0.00491
   191    N   13  dxy    Ryd( 3d)     0.00072
   192    N   13  dxz    Ryd( 3d)     0.00073
   193    N   13  dyz    Ryd( 3d)     0.00045
   194    N   13  dx2y2  Ryd( 3d)     0.00068
   195    N   13  dz2    Ryd( 3d)     0.00053
 
   196    C   14  S      Cor( 1S)     1.99930
   197    C   14  S      Val( 2S)     1.01834
   198    C   14  S      Ryd( 3S)     0.00128
   199    C   14  S      Ryd( 4S)     0.00003
   200    C   14  px     Val( 2p)     1.24308
   201    C   14  px     Ryd( 3p)     0.00630
   202    C   14  py     Val( 2p)     0.85072
   203    C   14  py     Ryd( 3p)     0.00263
   204    C   14  pz     Val( 2p)     1.13378
   205    C   14  pz     Ryd( 3p)     0.00126
   206    C   14  dxy    Ryd( 3d)     0.00068
   207    C   14  dxz    Ryd( 3d)     0.00102
   208    C   14  dyz    Ryd( 3d)     0.00092
   209    C   14  dx2y2  Ryd( 3d)     0.00127
   210    C   14  dz2    Ryd( 3d)     0.00094
 
   211    C   15  S      Cor( 1S)     1.99932
   212    C   15  S      Val( 2S)     1.04165
   213    C   15  S      Ryd( 3S)     0.00066
   214    C   15  S      Ryd( 4S)     0.00002
   215    C   15  px     Val( 2p)     1.10244
   216    C   15  px     Ryd( 3p)     0.00212
   217    C   15  py     Val( 2p)     1.19309
   218    C   15  py     Ryd( 3p)     0.00333
   219    C   15  pz     Val( 2p)     1.12401
   220    C   15  pz     Ryd( 3p)     0.00185
   221    C   15  dxy    Ryd( 3d)     0.00045
   222    C   15  dxz    Ryd( 3d)     0.00109
   223    C   15  dyz    Ryd( 3d)     0.00029
   224    C   15  dx2y2  Ryd( 3d)     0.00095
   225    C   15  dz2    Ryd( 3d)     0.00070
 
   226    C   16  S      Cor( 1S)     1.99933
   227    C   16  S      Val( 2S)     1.03668
   228    C   16  S      Ryd( 3S)     0.00060
   229    C   16  S      Ryd( 4S)     0.00002
   230    C   16  px     Val( 2p)     1.12459
   231    C   16  px     Ryd( 3p)     0.00154
   232    C   16  py     Val( 2p)     1.05029
   233    C   16  py     Ryd( 3p)     0.00168
   234    C   16  pz     Val( 2p)     1.24310
   235    C   16  pz     Ryd( 3p)     0.00416
   236    C   16  dxy    Ryd( 3d)     0.00059
   237    C   16  dxz    Ryd( 3d)     0.00114
   238    C   16  dyz    Ryd( 3d)     0.00049
   239    C   16  dx2y2  Ryd( 3d)     0.00068
   240    C   16  dz2    Ryd( 3d)     0.00065
 
   241    C   17  S      Cor( 1S)     1.99932
   242    C   17  S      Val( 2S)     1.04114
   243    C   17  S      Ryd( 3S)     0.00063
   244    C   17  S      Ryd( 4S)     0.00002
   245    C   17  px     Val( 2p)     1.21092
   246    C   17  px     Ryd( 3p)     0.00384
   247    C   17  py     Val( 2p)     1.08326
   248    C   17  py     Ryd( 3p)     0.00176
   249    C   17  pz     Val( 2p)     1.12585
   250    C   17  pz     Ryd( 3p)     0.00158
   251    C   17  dxy    Ryd( 3d)     0.00084
   252    C   17  dxz    Ryd( 3d)     0.00086
   253    C   17  dyz    Ryd( 3d)     0.00044
   254    C   17  dx2y2  Ryd( 3d)     0.00059
   255    C   17  dz2    Ryd( 3d)     0.00074
 
   256    C   18  S      Cor( 1S)     1.99932
   257    C   18  S      Val( 2S)     1.01813
   258    C   18  S      Ryd( 3S)     0.00118
   259    C   18  S      Ryd( 4S)     0.00003
   260    C   18  px     Val( 2p)     0.95037
   261    C   18  px     Ryd( 3p)     0.00385
   262    C   18  py     Val( 2p)     1.15029
   263    C   18  py     Ryd( 3p)     0.00461
   264    C   18  pz     Val( 2p)     1.12510
   265    C   18  pz     Ryd( 3p)     0.00162
   266    C   18  dxy    Ryd( 3d)     0.00105
   267    C   18  dxz    Ryd( 3d)     0.00147
   268    C   18  dyz    Ryd( 3d)     0.00046
   269    C   18  dx2y2  Ryd( 3d)     0.00090
   270    C   18  dz2    Ryd( 3d)     0.00099
 
   271    H   19  S      Val( 1S)     0.72412
   272    H   19  S      Ryd( 2S)     0.00243
 
   273    H   20  S      Val( 1S)     0.77351
   274    H   20  S      Ryd( 2S)     0.00227
 
   275    H   21  S      Val( 1S)     0.76214
   276    H   21  S      Ryd( 2S)     0.00207
 
   277    H   22  S      Val( 1S)     0.75245
   278    H   22  S      Ryd( 2S)     0.00110
 
   279    H   23  S      Val( 1S)     0.75453
   280    H   23  S      Ryd( 2S)     0.00111
 
   281    H   24  S      Val( 1S)     0.77136
   282    H   24  S      Ryd( 2S)     0.00194
 
   283    H   25  S      Val( 1S)     0.76181
   284    H   25  S      Ryd( 2S)     0.00188
 
   285    H   26  S      Val( 1S)     0.75326
   286    H   26  S      Ryd( 2S)     0.00113
 
   287    H   27  S      Val( 1S)     0.73017
   288    H   27  S      Ryd( 2S)     0.00203
 
   289    H   28  S      Val( 1S)     0.77304
   290    H   28  S      Ryd( 2S)     0.00201
 
   291    H   29  S      Val( 1S)     0.72415
   292    H   29  S      Ryd( 2S)     0.00243
 
   293    H   30  S      Val( 1S)     0.77258
   294    H   30  S      Ryd( 2S)     0.00217
 
   295    H   31  S      Val( 1S)     0.76008
   296    H   31  S      Ryd( 2S)     0.00199
 
   297    H   32  S      Val( 1S)     0.75295
   298    H   32  S      Ryd( 2S)     0.00112
 
   299    H   33  S      Val( 1S)     0.75454
   300    H   33  S      Ryd( 2S)     0.00111
 
   301    H   34  S      Val( 1S)     0.77227
   302    H   34  S      Ryd( 2S)     0.00194
 
   303    H   35  S      Val( 1S)     0.76125
   304    H   35  S      Ryd( 2S)     0.00189
 
   305    H   36  S      Val( 1S)     0.75449
   306    H   36  S      Ryd( 2S)     0.00113
 
   307    H   37  S      Val( 1S)     0.73035
   308    H   37  S      Ryd( 2S)     0.00205
 
   309    H   38  S      Val( 1S)     0.77220
   310    H   38  S      Ryd( 2S)     0.00205


 Summary of Natural Population Analysis:                  
                                                          
                                       Natural Population 
                Natural  -----------------------------------------------
    Atom  No    Charge         Core      Valence    Rydberg      Total
 -----------------------------------------------------------------------
      C    1    0.79533      1.99934     3.15849    0.04684     5.20467
      O    2   -0.57138      1.99979     6.55304    0.01855     8.57138
      N    3   -0.24921      1.99941     5.22367    0.02613     7.24921
      N    4   -0.25251      1.99941     5.22706    0.02603     7.25251
      C    5    0.79711      1.99934     3.15683    0.04672     5.20289
      O    6   -0.57264      1.99979     6.55431    0.01854     8.57264
      N    7   -0.47109      1.99927     5.45892    0.01290     7.47109
      C    8   -0.26150      1.99930     4.24608    0.01613     6.26150
      C    9   -0.47070      1.99932     4.45990    0.01148     6.47070
      C   10   -0.46524      1.99933     4.45437    0.01154     6.46524
      C   11   -0.47146      1.99932     4.46074    0.01140     6.47146
      C   12   -0.25927      1.99932     4.24375    0.01620     6.25927
      N   13   -0.47011      1.99928     5.45794    0.01289     7.47011
      C   14   -0.26153      1.99930     4.24592    0.01631     6.26153
      C   15   -0.47197      1.99932     4.46120    0.01145     6.47197
      C   16   -0.46554      1.99933     4.45466    0.01155     6.46554
      C   17   -0.47181      1.99932     4.46117    0.01132     6.47181
      C   18   -0.25936      1.99932     4.24388    0.01616     6.25936
      H   19    0.27345      0.00000     0.72412    0.00243     0.72655
      H   20    0.22422      0.00000     0.77351    0.00227     0.77578
      H   21    0.23579      0.00000     0.76214    0.00207     0.76421
      H   22    0.24646      0.00000     0.75245    0.00110     0.75354
      H   23    0.24436      0.00000     0.75453    0.00111     0.75564
      H   24    0.22670      0.00000     0.77136    0.00194     0.77330
      H   25    0.23631      0.00000     0.76181    0.00188     0.76369
      H   26    0.24561      0.00000     0.75326    0.00113     0.75439
      H   27    0.26780      0.00000     0.73017    0.00203     0.73220
      H   28    0.22495      0.00000     0.77304    0.00201     0.77505
      H   29    0.27342      0.00000     0.72415    0.00243     0.72658
      H   30    0.22525      0.00000     0.77258    0.00217     0.77475
      H   31    0.23793      0.00000     0.76008    0.00199     0.76207
      H   32    0.24593      0.00000     0.75295    0.00112     0.75407
      H   33    0.24435      0.00000     0.75454    0.00111     0.75565
      H   34    0.22579      0.00000     0.77227    0.00194     0.77421
      H   35    0.23686      0.00000     0.76125    0.00189     0.76314
      H   36    0.24438      0.00000     0.75449    0.00113     0.75562
      H   37    0.26759      0.00000     0.73035    0.00205     0.73241
      H   38    0.22575      0.00000     0.77220    0.00205     0.77425
 =======================================================================
   * Total *   -0.00000     35.98882    99.63317    0.37801   136.00000

                                 Natural Population      
 --------------------------------------------------------
   Core                      35.98882 ( 99.9690% of  36)
   Valence                   99.63317 ( 99.6332% of 100)
   Natural Minimal Basis    135.62199 ( 99.7221% of 136)
   Natural Rydberg Basis      0.37801 (  0.2779% of 136)
 --------------------------------------------------------

    Atom  No          Natural Electron Configuration
 ----------------------------------------------------------------------------
      C    1      [core]2S( 0.73)2p( 2.42)3p( 0.03)3d( 0.01)
      O    2      [core]2S( 1.70)2p( 4.85)3d( 0.01)
      N    3      [core]2S( 1.40)2p( 3.82)3S( 0.01)3p( 0.01)3d( 0.01)
      N    4      [core]2S( 1.40)2p( 3.83)3S( 0.01)3p( 0.01)3d( 0.01)
      C    5      [core]2S( 0.73)2p( 2.42)3p( 0.03)3d( 0.01)
      O    6      [core]2S( 1.70)2p( 4.85)3d( 0.01)
      N    7      [core]2S( 1.21)2p( 4.25)3p( 0.01)
      C    8      [core]2S( 1.02)2p( 3.23)3p( 0.01)
      C    9      [core]2S( 1.04)2p( 3.42)3p( 0.01)
      C   10      [core]2S( 1.04)2p( 3.42)3p( 0.01)
      C   11      [core]2S( 1.04)2p( 3.42)3p( 0.01)
      C   12      [core]2S( 1.02)2p( 3.23)3p( 0.01)
      N   13      [core]2S( 1.21)2p( 4.25)3p( 0.01)
      C   14      [core]2S( 1.02)2p( 3.23)3p( 0.01)
      C   15      [core]2S( 1.04)2p( 3.42)3p( 0.01)
      C   16      [core]2S( 1.04)2p( 3.42)3p( 0.01)
      C   17      [core]2S( 1.04)2p( 3.42)3p( 0.01)
      C   18      [core]2S( 1.02)2p( 3.23)3p( 0.01)
      H   19            1S( 0.72)
      H   20            1S( 0.77)
      H   21            1S( 0.76)
      H   22            1S( 0.75)
      H   23            1S( 0.75)
      H   24            1S( 0.77)
      H   25            1S( 0.76)
      H   26            1S( 0.75)
      H   27            1S( 0.73)
      H   28            1S( 0.77)
      H   29            1S( 0.72)
      H   30            1S( 0.77)
      H   31            1S( 0.76)
      H   32            1S( 0.75)
      H   33            1S( 0.75)
      H   34            1S( 0.77)
      H   35            1S( 0.76)
      H   36            1S( 0.75)
      H   37            1S( 0.73)
      H   38            1S( 0.77)


 NBO analysis skipped by request.
 1\1\GINC-DELLA-R4C4N3\SP\RB3LYP TD-FC\6-31G(d)\C12H20N4O2\BJS4\22-Aug-
 2020\0\\# TD(NStates=10, Root=1) B3LYP/6-31G* scf=qc volume pop=NPA de
 nsity=current Geom=AllCheck Guess=Read\\Title Card Required\\0,1\C,0,-
 1.2314982951,-0.3053453362,-2.2606324131\O,0,-2.4491001392,-0.22236329
 21,-2.2285528584\N,0,-0.4462774102,0.9057387305,-2.501389594\N,0,-0.40
 7413159,1.6452684096,-1.5012883731\C,0,0.3807160845,2.855009092,-1.733
 8052025\O,0,1.5987165785,2.7696435369,-1.7381224015\N,0,-0.3565681454,
 3.9889640626,-1.8046607182\C,0,-1.8238481333,4.0207609766,-1.823432370
 1\C,0,-2.3560544281,4.9628626075,-0.7355568219\C,0,-1.7098342835,6.352
 7505516,-0.8384205637\C,0,-0.1771622395,6.2450601579,-0.8246171091\C,0
 ,0.3189480745,5.2850077028,-1.9129337646\N,0,-0.4904002322,-1.43777707
 93,-2.2071468056\C,0,0.976811172,-1.4673101438,-2.1945428332\C,0,1.490
 2549924,-2.1205518657,-0.9039744102\C,0,0.8502397193,-3.5017950315,-0.
 6926206623\C,0,-0.6833405013,-3.4129440913,-0.7437733673\C,0,-1.155144
 1525,-2.731957683,-2.0353613704\H,0,-2.2074395314,3.0083615585,-1.6897
 851121\H,0,-2.1520353046,4.3695295007,-2.8145685324\H,0,-2.1402583081,
 4.5243071886,0.247610309\H,0,-3.4467547109,5.033247132,-0.8268406184\H
 ,0,-2.0554185754,6.9951083106,-0.0197356376\H,0,-2.0316754816,6.834549
 0308,-1.7737134907\H,0,0.1602342406,5.8779478319,0.1536767046\H,0,0.28
 2547348,7.229389131,-0.976902208\H,0,1.3916847431,5.1018353608,-1.8402
 254118\H,0,0.1112506369,5.7064211674,-2.9082933724\H,0,1.3603180206,-0
 .4521014815,-2.3047245749\H,0,1.3153112846,-2.0464792834,-3.0667608025
 \H,0,1.2511961697,-1.4640714369,-0.0569795776\H,0,2.5829621508,-2.2017
 789774,-0.9529409375\H,0,1.1758245337,-3.9298596106,0.2629237235\H,0,1
 .2002180112,-4.1868104451,-1.4793018882\H,0,-1.0509020921,-2.835334329
 ,0.114626384\H,0,-1.1316831627,-4.4119672608,-0.677350833\H,0,-2.23076
 60203,-2.551570666,-2.0337086442\H,0,-0.9128394541,-3.3629640266,-2.90
 37538405\\Version=ES64L-G16RevA.03\State=1-A\HF=-838.7633152\RMSD=3.83
 9e-13\Dipole=0.0004926,0.0468762,0.2669776\Quadrupole=-11.1964911,16.3
 306541,-5.134163,-6.4925722,-0.9727081,-0.0526963\PG=C01 [X(C12H20N4O2
 )]\\@


 LET US PLACE AT THE END OF EVERY CHAPTER.....THE
 TWO LETTERS USED BY THE ROMAN JUDGES WHEN THEY DID
 NOT UNDERSTAND A PLEADING.
 N. L. -NON LIQUET- IT IS NOT CLEAR.
                                              -- VOLTAIRE
 Job cpu time:       0 days  0 hours 55 minutes 41.3 seconds.
 Elapsed time:       0 days  0 hours 11 minutes  8.7 seconds.
 File lengths (MBytes):  RWF=    821 Int=      0 D2E=      0 Chk=    268 Scr=      1
 Normal termination of Gaussian 16 at Sat Aug 22 19:41:59 2020.
