 Entering Gaussian System, Link 0=g16
 Input=azadicarboxylate_6_conf25123.com
 Output=azadicarboxylate_6_conf25123.log
 Initial command:
 /opt/export//g16/l1.exe "/scratch/bjs4/job.209119/Gau-209121.inp" -scrdir="/scratch/bjs4/job.209119/"
 Entering Link 1 = /opt/export//g16/l1.exe PID=    209122.
  
 Copyright (c) 1988,1990,1992,1993,1995,1998,2003,2009,2016,
            Gaussian, Inc.  All Rights Reserved.
  
 This is part of the Gaussian(R) 16 program.  It is based on
 the Gaussian(R) 09 system (copyright 2009, Gaussian, Inc.),
 the Gaussian(R) 03 system (copyright 2003, Gaussian, Inc.),
 the Gaussian(R) 98 system (copyright 1998, Gaussian, Inc.),
 the Gaussian(R) 94 system (copyright 1995, Gaussian, Inc.),
 the Gaussian 92(TM) system (copyright 1992, Gaussian, Inc.),
 the Gaussian 90(TM) system (copyright 1990, Gaussian, Inc.),
 the Gaussian 88(TM) system (copyright 1988, Gaussian, Inc.),
 the Gaussian 86(TM) system (copyright 1986, Carnegie Mellon
 University), and the Gaussian 82(TM) system (copyright 1983,
 Carnegie Mellon University). Gaussian is a federally registered
 trademark of Gaussian, Inc.
  
 This software contains proprietary and confidential information,
 including trade secrets, belonging to Gaussian, Inc.
  
 This software is provided under written license and may be
 used, copied, transmitted, or stored only in accord with that
 written license.
  
 The following legend is applicable only to US Government
 contracts under FAR:
  
                    RESTRICTED RIGHTS LEGEND
  
 Use, reproduction and disclosure by the US Government is
 subject to restrictions as set forth in subparagraphs (a)
 and (c) of the Commercial Computer Software - Restricted
 Rights clause in FAR 52.227-19.
  
 Gaussian, Inc.
 340 Quinnipiac St., Bldg. 40, Wallingford CT 06492
  
  
 ---------------------------------------------------------------
 Warning -- This program may not be used in any manner that
 competes with the business of Gaussian, Inc. or will provide
 assistance to any competitor of Gaussian, Inc.  The licensee
 of this program is prohibited from giving any competitor of
 Gaussian, Inc. access to this program.  By using this program,
 the user acknowledges that Gaussian, Inc. is engaged in the
 business of creating and licensing software in the field of
 computational chemistry and represents and warrants to the
 licensee that it is not a competitor of Gaussian, Inc. and that
 it will not use this program in any manner prohibited above.
 ---------------------------------------------------------------
  

 Cite this work as:
 Gaussian 16, Revision A.03,
 M. J. Frisch, G. W. Trucks, H. B. Schlegel, G. E. Scuseria, 
 M. A. Robb, J. R. Cheeseman, G. Scalmani, V. Barone, 
 G. A. Petersson, H. Nakatsuji, X. Li, M. Caricato, A. V. Marenich, 
 J. Bloino, B. G. Janesko, R. Gomperts, B. Mennucci, H. P. Hratchian, 
 J. V. Ortiz, A. F. Izmaylov, J. L. Sonnenberg, D. Williams-Young, 
 F. Ding, F. Lipparini, F. Egidi, J. Goings, B. Peng, A. Petrone, 
 T. Henderson, D. Ranasinghe, V. G. Zakrzewski, J. Gao, N. Rega, 
 G. Zheng, W. Liang, M. Hada, M. Ehara, K. Toyota, R. Fukuda, 
 J. Hasegawa, M. Ishida, T. Nakajima, Y. Honda, O. Kitao, H. Nakai, 
 T. Vreven, K. Throssell, J. A. Montgomery, Jr., J. E. Peralta, 
 F. Ogliaro, M. J. Bearpark, J. J. Heyd, E. N. Brothers, K. N. Kudin, 
 V. N. Staroverov, T. A. Keith, R. Kobayashi, J. Normand, 
 K. Raghavachari, A. P. Rendell, J. C. Burant, S. S. Iyengar, 
 J. Tomasi, M. Cossi, J. M. Millam, M. Klene, C. Adamo, R. Cammi, 
 J. W. Ochterski, R. L. Martin, K. Morokuma, O. Farkas, 
 J. B. Foresman, and D. J. Fox, Gaussian, Inc., Wallingford CT, 2016.
 
 ******************************************
 Gaussian 16:  ES64L-G16RevA.03 25-Dec-2016
                22-Aug-2020 
 ******************************************
 %nprocshared=3
 Will use up to    3 processors via shared memory.
 %Mem=6GB
 %Chk=azadicarboxylate_6_conf251.chk
 ---------------------------------
 # opt=CalcAll B3LYP/6-31G* scf=qc
 ---------------------------------
 1/10=4,18=20,19=15,26=3,38=1/1,3;
 2/9=110,12=2,17=6,18=5,40=1/2;
 3/5=1,6=6,7=1,11=2,25=1,30=1,71=2,74=-5,140=1/1,2,3;
 4//1;
 5/5=2,8=3,38=5/8;
 8/6=4,10=90,11=11/1;
 11/6=1,8=1,9=11,15=111,16=1/1,2,10;
 10/6=1/2;
 6/7=2,8=2,9=2,10=2,18=1,28=1/1;
 7/10=1,25=1/1,2,3,16;
 1/10=4,18=20,19=15,26=3/3(3);
 2/9=110/2;
 7/8=1,9=1,25=1,44=-1/16;
 99//99;
 2/9=110/2;
 3/5=1,6=6,7=1,11=2,25=1,30=1,71=2,74=-5,140=1/1,2,3;
 4/5=5,16=3,69=1/1;
 5/5=2,8=3,38=5/8;
 8/6=4,10=90,11=11/1;
 11/6=1,8=1,9=11,15=111,16=1/1,2,10;
 10/6=1/2;
 7/10=1,25=1/1,2,3,16;
 1/10=4,18=20,19=15,26=3/3(-8);
 2/9=110/2;
 6/7=2,8=2,9=2,10=2,18=1,19=2,28=1/1;
 7/8=1,9=1,25=1,44=-1/16;
 99//99;
 -------------------
 Title Card Required
 -------------------
 Symbolic Z-matrix:
 Charge =  0 Multiplicity = 1
 C2                    0.8051    0.1255    0.0867 
 O3                    0.1916   -0.75328  -0.52249 
 N4                    0.1995    1.147     0.7925 
 N5                   -1.0503    1.0879    0.7508 
 C6                   -1.6557    2.1093    1.4564 
 O7                   -2.74973   2.5979    1.16644 
 N8                   -0.93447   2.57663   2.55813 
 C                    -1.40052   3.64406   3.42844 
 C                     0.35236   1.99004   2.88239 
 N1                    2.2018    0.14248   0.10057 
 C                     2.945    -0.8821   -0.60905 
 C                     2.9853    1.14821   0.79942 
 H                    -2.3724    4.04258   3.13221 
 H                    -0.66714   4.45603   3.40788 
 H                    -1.47705   3.25432   4.44805 
 H                     0.63696   1.19651   2.18737 
 H                     0.30374   1.57218   3.89243 
 H                     1.11424   2.77475   2.85138 
 H                     2.2922   -1.60152  -1.10899 
 H                     3.57579  -1.41771   0.10671 
 H                     3.57802  -0.40032  -1.36012 
 H                     2.36929   1.8889    1.3123 
 H                     3.62041   1.66304   0.07202 
 H                     3.61818   0.64626   1.53766 
 

 GradGradGradGradGradGradGradGradGradGradGradGradGradGradGradGradGradGrad
 Berny optimization.
 Initialization pass.
                           ----------------------------
                           !    Initial Parameters    !
                           ! (Angstroms and Degrees)  !
 --------------------------                            --------------------------
 ! Name  Definition              Value          Derivative Info.                !
 --------------------------------------------------------------------------------
 ! R1    R(1,2)                  1.2328         calculate D2E/DX2 analytically  !
 ! R2    R(1,3)                  1.3814         calculate D2E/DX2 analytically  !
 ! R3    R(1,10)                 1.3969         calculate D2E/DX2 analytically  !
 ! R4    R(3,4)                  1.2519         calculate D2E/DX2 analytically  !
 ! R5    R(4,5)                  1.3812         calculate D2E/DX2 analytically  !
 ! R6    R(5,6)                  1.2328         calculate D2E/DX2 analytically  !
 ! R7    R(5,7)                  1.3973         calculate D2E/DX2 analytically  !
 ! R8    R(7,8)                  1.454          calculate D2E/DX2 analytically  !
 ! R9    R(7,9)                  1.4509         calculate D2E/DX2 analytically  !
 ! R10   R(8,13)                 1.0914         calculate D2E/DX2 analytically  !
 ! R11   R(8,14)                 1.0943         calculate D2E/DX2 analytically  !
 ! R12   R(8,15)                 1.0942         calculate D2E/DX2 analytically  !
 ! R13   R(9,16)                 1.0926         calculate D2E/DX2 analytically  !
 ! R14   R(9,17)                 1.0941         calculate D2E/DX2 analytically  !
 ! R15   R(9,18)                 1.0942         calculate D2E/DX2 analytically  !
 ! R16   R(10,11)                1.4511         calculate D2E/DX2 analytically  !
 ! R17   R(10,12)                1.4539         calculate D2E/DX2 analytically  !
 ! R18   R(11,19)                1.0925         calculate D2E/DX2 analytically  !
 ! R19   R(11,20)                1.0941         calculate D2E/DX2 analytically  !
 ! R20   R(11,21)                1.094          calculate D2E/DX2 analytically  !
 ! R21   R(12,22)                1.0914         calculate D2E/DX2 analytically  !
 ! R22   R(12,23)                1.0943         calculate D2E/DX2 analytically  !
 ! R23   R(12,24)                1.0943         calculate D2E/DX2 analytically  !
 ! A1    A(2,1,3)              124.1541         calculate D2E/DX2 analytically  !
 ! A2    A(2,1,10)             120.7415         calculate D2E/DX2 analytically  !
 ! A3    A(3,1,10)             115.1044         calculate D2E/DX2 analytically  !
 ! A4    A(1,3,4)              112.6888         calculate D2E/DX2 analytically  !
 ! A5    A(3,4,5)              112.6849         calculate D2E/DX2 analytically  !
 ! A6    A(4,5,6)              124.1898         calculate D2E/DX2 analytically  !
 ! A7    A(4,5,7)              115.0812         calculate D2E/DX2 analytically  !
 ! A8    A(6,5,7)              120.7291         calculate D2E/DX2 analytically  !
 ! A9    A(5,7,8)              123.5081         calculate D2E/DX2 analytically  !
 ! A10   A(5,7,9)              119.9201         calculate D2E/DX2 analytically  !
 ! A11   A(8,7,9)              116.5718         calculate D2E/DX2 analytically  !
 ! A12   A(7,8,13)             113.0194         calculate D2E/DX2 analytically  !
 ! A13   A(7,8,14)             108.5821         calculate D2E/DX2 analytically  !
 ! A14   A(7,8,15)             108.5833         calculate D2E/DX2 analytically  !
 ! A15   A(13,8,14)            108.7081         calculate D2E/DX2 analytically  !
 ! A16   A(13,8,15)            108.7047         calculate D2E/DX2 analytically  !
 ! A17   A(14,8,15)            109.1869         calculate D2E/DX2 analytically  !
 ! A18   A(7,9,16)             112.488          calculate D2E/DX2 analytically  !
 ! A19   A(7,9,17)             108.7413         calculate D2E/DX2 analytically  !
 ! A20   A(7,9,18)             108.7406         calculate D2E/DX2 analytically  !
 ! A21   A(16,9,17)            108.7494         calculate D2E/DX2 analytically  !
 ! A22   A(16,9,18)            108.7519         calculate D2E/DX2 analytically  !
 ! A23   A(17,9,18)            109.3294         calculate D2E/DX2 analytically  !
 ! A24   A(1,10,11)            119.9117         calculate D2E/DX2 analytically  !
 ! A25   A(1,10,12)            123.5057         calculate D2E/DX2 analytically  !
 ! A26   A(11,10,12)           116.5827         calculate D2E/DX2 analytically  !
 ! A27   A(10,11,19)           112.5004         calculate D2E/DX2 analytically  !
 ! A28   A(10,11,20)           108.7242         calculate D2E/DX2 analytically  !
 ! A29   A(10,11,21)           108.7313         calculate D2E/DX2 analytically  !
 ! A30   A(19,11,20)           108.7525         calculate D2E/DX2 analytically  !
 ! A31   A(19,11,21)           108.7568         calculate D2E/DX2 analytically  !
 ! A32   A(20,11,21)           109.3355         calculate D2E/DX2 analytically  !
 ! A33   A(10,12,22)           113.0284         calculate D2E/DX2 analytically  !
 ! A34   A(10,12,23)           108.5841         calculate D2E/DX2 analytically  !
 ! A35   A(10,12,24)           108.5809         calculate D2E/DX2 analytically  !
 ! A36   A(22,12,23)           108.7029         calculate D2E/DX2 analytically  !
 ! A37   A(22,12,24)           108.7056         calculate D2E/DX2 analytically  !
 ! A38   A(23,12,24)           109.1821         calculate D2E/DX2 analytically  !
 ! D1    D(2,1,3,4)              0.0572         calculate D2E/DX2 analytically  !
 ! D2    D(10,1,3,4)          -179.9556         calculate D2E/DX2 analytically  !
 ! D3    D(2,1,10,11)            0.0588         calculate D2E/DX2 analytically  !
 ! D4    D(2,1,10,12)         -179.9405         calculate D2E/DX2 analytically  !
 ! D5    D(3,1,10,11)         -179.9289         calculate D2E/DX2 analytically  !
 ! D6    D(3,1,10,12)            0.0719         calculate D2E/DX2 analytically  !
 ! D7    D(1,3,4,5)           -179.9952         calculate D2E/DX2 analytically  !
 ! D8    D(3,4,5,6)            149.6182         calculate D2E/DX2 analytically  !
 ! D9    D(3,4,5,7)            -30.3878         calculate D2E/DX2 analytically  !
 ! D10   D(4,5,7,8)           -179.9203         calculate D2E/DX2 analytically  !
 ! D11   D(4,5,7,9)              0.088          calculate D2E/DX2 analytically  !
 ! D12   D(6,5,7,8)              0.0739         calculate D2E/DX2 analytically  !
 ! D13   D(6,5,7,9)           -179.9178         calculate D2E/DX2 analytically  !
 ! D14   D(5,7,8,13)             0.0107         calculate D2E/DX2 analytically  !
 ! D15   D(5,7,8,14)          -120.6866         calculate D2E/DX2 analytically  !
 ! D16   D(5,7,8,15)           120.7045         calculate D2E/DX2 analytically  !
 ! D17   D(9,7,8,13)          -179.9973         calculate D2E/DX2 analytically  !
 ! D18   D(9,7,8,14)            59.3054         calculate D2E/DX2 analytically  !
 ! D19   D(9,7,8,15)           -59.3035         calculate D2E/DX2 analytically  !
 ! D20   D(5,7,9,16)            -0.0122         calculate D2E/DX2 analytically  !
 ! D21   D(5,7,9,17)          -120.5305         calculate D2E/DX2 analytically  !
 ! D22   D(5,7,9,18)           120.5087         calculate D2E/DX2 analytically  !
 ! D23   D(8,7,9,16)           179.9955         calculate D2E/DX2 analytically  !
 ! D24   D(8,7,9,17)            59.4772         calculate D2E/DX2 analytically  !
 ! D25   D(8,7,9,18)           -59.4836         calculate D2E/DX2 analytically  !
 ! D26   D(1,10,11,19)          -0.004          calculate D2E/DX2 analytically  !
 ! D27   D(1,10,11,20)        -120.5225         calculate D2E/DX2 analytically  !
 ! D28   D(1,10,11,21)         120.5246         calculate D2E/DX2 analytically  !
 ! D29   D(12,10,11,19)        179.9953         calculate D2E/DX2 analytically  !
 ! D30   D(12,10,11,20)         59.4768         calculate D2E/DX2 analytically  !
 ! D31   D(12,10,11,21)        -59.4761         calculate D2E/DX2 analytically  !
 ! D32   D(1,10,12,22)          -0.0008         calculate D2E/DX2 analytically  !
 ! D33   D(1,10,12,23)        -120.6986         calculate D2E/DX2 analytically  !
 ! D34   D(1,10,12,24)         120.6984         calculate D2E/DX2 analytically  !
 ! D35   D(11,10,12,22)        180.0            calculate D2E/DX2 analytically  !
 ! D36   D(11,10,12,23)         59.3021         calculate D2E/DX2 analytically  !
 ! D37   D(11,10,12,24)        -59.3009         calculate D2E/DX2 analytically  !
 --------------------------------------------------------------------------------
 Trust Radius=3.00D-01 FncErr=1.00D-07 GrdErr=1.00D-06 EigMax=2.50D+02 EigMin=1.00D-04
 Number of steps in this run=    108 maximum allowed number of steps=    144.
 GradGradGradGradGradGradGradGradGradGradGradGradGradGradGradGradGradGrad

                          Input orientation:                          
 ---------------------------------------------------------------------
 Center     Atomic      Atomic             Coordinates (Angstroms)
 Number     Number       Type             X           Y           Z
 ---------------------------------------------------------------------
      1          6           0        0.805100    0.125500    0.086700
      2          8           0        0.191600   -0.753280   -0.522490
      3          7           0        0.199500    1.147000    0.792500
      4          7           0       -1.050300    1.087900    0.750800
      5          6           0       -1.655700    2.109300    1.456400
      6          8           0       -2.749730    2.597900    1.166440
      7          7           0       -0.934470    2.576630    2.558130
      8          6           0       -1.400520    3.644060    3.428440
      9          6           0        0.352360    1.990040    2.882390
     10          7           0        2.201800    0.142480    0.100570
     11          6           0        2.945000   -0.882100   -0.609050
     12          6           0        2.985300    1.148210    0.799420
     13          1           0       -2.372400    4.042580    3.132210
     14          1           0       -0.667140    4.456030    3.407880
     15          1           0       -1.477050    3.254320    4.448050
     16          1           0        0.636960    1.196510    2.187370
     17          1           0        0.303740    1.572180    3.892430
     18          1           0        1.114240    2.774750    2.851380
     19          1           0        2.292200   -1.601520   -1.108990
     20          1           0        3.575790   -1.417710    0.106710
     21          1           0        3.578020   -0.400320   -1.360120
     22          1           0        2.369290    1.888900    1.312300
     23          1           0        3.620410    1.663040    0.072020
     24          1           0        3.618180    0.646260    1.537660
 ---------------------------------------------------------------------
                    Distance matrix (angstroms):
                    1          2          3          4          5
     1  C    0.000000
     2  O    1.232781   0.000000
     3  N    1.381437   2.310914   0.000000
     4  N    2.193115   2.559986   1.251891   0.000000
     5  C    3.444862   3.939910   2.192841   1.381173   0.000000
     6  O    4.462669   4.768051   3.308005   2.311043   1.232765
     7  N    3.891286   4.674030   2.539130   2.344392   1.397276
     8  C    5.330314   6.122197   3.967815   3.718382   2.511881
     9  C    3.390777   4.375484   2.258699   2.706471   2.465761
    10  N    1.396872   2.287246   2.344575   3.448590   4.537286
    11  C    2.465461   2.757771   3.690442   4.657522   5.863531
    12  C    2.511409   3.628756   2.785809   4.036343   4.784788
    13  H    5.891957   6.552191   4.524743   4.018606   2.656985
    14  H    5.652541   6.581957   4.305921   4.307109   3.208219
    15  H    5.832589   6.599357   4.540337   4.306408   3.208264
    16  H    2.363926   3.367992   1.462698   2.218643   2.573673
    17  H    4.102173   4.991178   3.130688   3.455111   3.172088
    18  H    3.841555   4.968024   2.779444   3.455884   3.171965
    19  H    2.573663   2.340088   3.943275   4.675907   5.994775
    20  H    3.171533   3.505724   4.295041   5.300344   6.452128
    21  H    3.171571   3.506287   4.294458   5.300201   6.451574
    22  H    2.656758   3.884572   2.351297   3.556751   4.033595
    23  H    3.207837   4.236600   3.533838   4.754688   5.472933
    24  H    3.207787   4.236081   3.534597   4.754882   5.473655
                    6          7          8          9         10
     6  O    0.000000
     7  N    2.287449   0.000000
     8  C    2.833983   1.453977   0.000000
     9  C    3.596796   1.450918   2.471142   0.000000
    10  N    5.628749   4.669141   6.025985   3.817385   0.000000
    11  C    6.905991   6.086389   7.461300   5.211633   1.451093
    12  C    5.926793   4.527476   5.690029   3.461187   1.453876
    13  H    2.468548   2.132187   1.091385   3.420475   6.732379
    14  H    3.579648   2.079828   1.094333   2.719674   6.146205
    15  H    3.580442   2.079773   1.094239   2.719639   6.489843
    16  H    3.804716   2.124050   3.417906   1.092584   2.813261
    17  H    4.219811   2.079048   2.722586   1.094144   4.474916
    18  H    4.219071   2.079053   2.722630   1.094163   3.959620
    19  H    6.945054   6.427761   7.857516   5.709063   2.124322
    20  H    7.567057   6.504357   7.837032   5.450473   2.078961
    21  H    7.444008   6.676637   8.004572   5.841027   2.078997
    22  H    5.169944   3.597207   4.665844   2.558011   2.132211
    23  H    6.530728   5.268996   6.356078   4.322645   2.079753
    24  H    6.670606   5.049189   6.144038   3.778839   2.079701
                   11         12         13         14         15
    11  C    0.000000
    12  C    2.471350   0.000000
    13  H    8.156239   6.521061   0.000000
    14  H    7.594664   5.575487   1.776189   0.000000
    15  H    7.889154   6.136837   1.776074   1.783820   0.000000
    16  H    4.179430   2.728267   4.248421   3.716826   3.716759
    17  H    5.767414   4.115486   3.720556   3.081231   2.511876
    18  H    5.357127   3.218235   3.720607   2.511913   3.081254
    19  H    1.092544   3.418103   8.461805   8.115030   8.286563
    20  H    1.094114   2.722585   8.622609   7.962474   8.136725
    21  H    1.094044   2.722660   8.679164   8.021181   8.523202
    22  H    3.420741   1.091392   5.516705   4.494610   5.147002
    23  H    2.719885   1.094315   7.137279   6.108342   6.904050
    24  H    2.719820   1.094298   7.068566   6.031255   6.421348
                   16         17         18         19         20
    16  H    0.000000
    17  H    1.777468   0.000000
    18  H    1.777511   1.785181   0.000000
    19  H    4.629771   6.248244   6.018626   0.000000
    20  H    4.449721   5.829016   5.582935   1.777446   0.000000
    21  H    4.876924   6.496226   5.821341   1.777437   1.785127
    22  H    2.060611   3.320223   2.174545   4.248720   3.720586
    23  H    3.686913   5.060048   3.904053   3.717025   3.081268
    24  H    3.100415   4.169866   3.539215   3.716920   2.511849
                   21         22         23         24
    21  H    0.000000
    22  H    3.720670   0.000000
    23  H    2.512026   1.776122   0.000000
    24  H    3.081245   1.776138   1.783801   0.000000
 Stoichiometry    C6H12N4O2
 Framework group  C1[X(C6H12N4O2)]
 Deg. of freedom    66
 Full point group                 C1      NOp   1
 Largest Abelian subgroup         C1      NOp   1
 Largest concise Abelian subgroup C1      NOp   1
                         Standard orientation:                         
 ---------------------------------------------------------------------
 Center     Atomic      Atomic             Coordinates (Angstroms)
 Number     Number       Type             X           Y           Z
 ---------------------------------------------------------------------
      1          6           0        1.495649   -0.658044    0.078224
      2          8           0        1.844042   -1.790867    0.417465
      3          7           0        0.182818   -0.277987   -0.122770
      4          7           0       -0.626400   -1.211810    0.078152
      5          6           0       -1.938945   -0.831768   -0.122930
      6          8           0       -2.828106   -1.591395   -0.512886
      7          7           0       -2.215355    0.510476    0.149756
      8          6           0       -3.534294    1.104389    0.002391
      9          6           0       -1.155067    1.389478    0.606166
     10          7           0        2.442446    0.347344   -0.131591
     11          6           0        3.853608    0.061444    0.048833
     12          6           0        2.099036    1.702511   -0.530775
     13          1           0       -4.286451    0.393086   -0.343194
     14          1           0       -3.468842    1.924386   -0.719332
     15          1           0       -3.847584    1.502959    0.972108
     16          1           0       -0.194764    0.875698    0.693274
     17          1           0       -1.429077    1.791384    1.586238
     18          1           0       -1.049994    2.213041   -0.106503
     19          1           0        4.035624   -0.973458    0.347999
     20          1           0        4.250578    0.726088    0.821977
     21          1           0        4.374029    0.251659   -0.894518
     22          1           0        1.024665    1.853278   -0.649651
     23          1           0        2.591537    1.920896   -1.483285
     24          1           0        2.468304    2.394856    0.231976
 ---------------------------------------------------------------------
 Rotational constants (GHZ):           1.9584368           0.5314698           0.4359295
 Standard basis: 6-31G(d) (6D, 7F)
 There are   204 symmetry adapted cartesian basis functions of A   symmetry.
 There are   204 symmetry adapted basis functions of A   symmetry.
   204 basis functions,   384 primitive gaussians,   204 cartesian basis functions
    46 alpha electrons       46 beta electrons
       nuclear repulsion energy       744.0756239820 Hartrees.
 NAtoms=   24 NActive=   24 NUniq=   24 SFac= 1.00D+00 NAtFMM=   60 NAOKFM=F Big=F
 Integral buffers will be    131072 words long.
 Raffenetti 2 integral format.
 Two-electron integral symmetry is turned on.
 One-electron integrals computed using PRISM.
 NBasis=   204 RedAO= T EigKep=  1.92D-03  NBF=   204
 NBsUse=   204 1.00D-06 EigRej= -1.00D+00 NBFU=   204
 ExpMin= 1.61D-01 ExpMax= 5.48D+03 ExpMxC= 8.25D+02 IAcc=3 IRadAn=         5 AccDes= 0.00D+00
 Harris functional with IExCor=  402 and IRadAn=       5 diagonalized for initial guess.
 HarFok:  IExCor=  402 AccDes= 0.00D+00 IRadAn=         5 IDoV= 1 UseB2=F ITyADJ=14
 ICtDFT=  3500011 ScaDFX=  1.000000  1.000000  1.000000  1.000000
 FoFCou: FMM=F IPFlag=           0 FMFlag=      100000 FMFlg1=           0
         NFxFlg=           0 DoJE=T BraDBF=F KetDBF=T FulRan=T
         wScrn=  0.000000 ICntrl=       500 IOpCl=  0 I1Cent=   200000004 NGrid=           0
         NMat0=    1 NMatS0=      1 NMatT0=    0 NMatD0=    1 NMtDS0=    0 NMtDT0=    0
 Petite list used in FoFCou.
 Keep R1 ints in memory in canonical form, NReq=222933844.
 Gradient too large for Newton-Raphson -- use scaled steepest descent instead.
     Minimum is close to point  2 DX=  1.18D-02 DF= -4.43D-04 DXR=  3.78D-02 DFR=  1.43D-03 which will be used.
 Gradient too large for Newton-Raphson -- use scaled steepest descent instead.
     Minimum is close to point  3 DX= -1.56D-02 DF= -3.52D-05 DXR=  3.21D-02 DFR=  1.03D-03 which will be used.
 Gradient too large for Newton-Raphson -- use scaled steepest descent instead.
     Accept linear search using points  1 and  2.
 Gradient too large for Newton-Raphson -- use scaled steepest descent instead.
     Accept linear search using points  2 and  3.
 Gradient too large for Newton-Raphson -- use scaled steepest descent instead.
     Accept linear search using points  1 and  2.
 Gradient too large for Newton-Raphson -- use scaled steepest descent instead.
     Accept linear search using points  1 and  2.
     Minimum is close to point  2 DX= -3.23D-02 DF= -1.22D-07 DXR=  4.83D-02 DFR=  9.03D-04 which will be used.
 LinEq1:  Iter=  0 NonCon=     1 RMS=1.53D-04 Max=5.87D-03 NDo=     1
 AX will form     1 AO Fock derivatives at one time.
 LinEq1:  Iter=  1 NonCon=     1 RMS=1.75D-04 Max=8.99D-03 NDo=     1
 LinEq1:  Iter=  2 NonCon=     1 RMS=6.20D-05 Max=2.37D-03 NDo=     1
 LinEq1:  Iter=  3 NonCon=     1 RMS=6.54D-05 Max=2.97D-03 NDo=     1
 LinEq1:  Iter=  4 NonCon=     1 RMS=4.68D-05 Max=1.33D-03 NDo=     1
 LinEq1:  Iter=  5 NonCon=     1 RMS=2.27D-05 Max=5.97D-04 NDo=     1
 LinEq1:  Iter=  6 NonCon=     1 RMS=2.57D-05 Max=7.85D-04 NDo=     1
 LinEq1:  Iter=  7 NonCon=     1 RMS=1.66D-05 Max=7.45D-04 NDo=     1
 LinEq1:  Iter=  8 NonCon=     1 RMS=1.03D-05 Max=4.24D-04 NDo=     1
 LinEq1:  Iter=  9 NonCon=     1 RMS=4.52D-06 Max=8.78D-05 NDo=     1
 LinEq1:  Iter= 10 NonCon=     1 RMS=1.97D-06 Max=3.71D-05 NDo=     1
 LinEq1:  Iter= 11 NonCon=     1 RMS=1.00D-06 Max=2.55D-05 NDo=     1
 LinEq1:  Iter= 12 NonCon=     1 RMS=5.48D-07 Max=9.99D-06 NDo=     1
 LinEq1:  Iter= 13 NonCon=     1 RMS=3.20D-07 Max=9.63D-06 NDo=     1
 LinEq1:  Iter= 14 NonCon=     1 RMS=1.15D-07 Max=3.72D-06 NDo=     1
 LinEq1:  Iter= 15 NonCon=     1 RMS=3.83D-08 Max=8.35D-07 NDo=     1
 LinEq1:  Iter= 16 NonCon=     1 RMS=2.02D-08 Max=3.06D-07 NDo=     1
 LinEq1:  Iter= 17 NonCon=     0 RMS=6.02D-09 Max=1.05D-07 NDo=     1
 Linear equations converged to 1.206D-08 1.206D-07 after    17 iterations.
     Accept linear search using points  1 and  2.
     Minimum is close to point  2 DX= -3.57D-03 DF= -6.56D-10 DXR=  3.58D-03 DFR=  1.28D-05 which will be used.
 LinEq1:  Iter=  0 NonCon=     1 RMS=1.23D-06 Max=5.86D-05 NDo=     1
 LinEq1:  Iter=  1 NonCon=     1 RMS=1.18D-06 Max=3.92D-05 NDo=     1
 LinEq1:  Iter=  2 NonCon=     1 RMS=6.16D-07 Max=3.22D-05 NDo=     1
 LinEq1:  Iter=  3 NonCon=     1 RMS=4.32D-07 Max=1.83D-05 NDo=     1
 LinEq1:  Iter=  4 NonCon=     1 RMS=3.24D-07 Max=1.04D-05 NDo=     1
 LinEq1:  Iter=  5 NonCon=     1 RMS=2.97D-07 Max=1.14D-05 NDo=     1
 LinEq1:  Iter=  6 NonCon=     1 RMS=1.97D-07 Max=6.33D-06 NDo=     1
 LinEq1:  Iter=  7 NonCon=     1 RMS=1.62D-07 Max=5.20D-06 NDo=     1
 LinEq1:  Iter=  8 NonCon=     1 RMS=1.54D-07 Max=5.38D-06 NDo=     1
 LinEq1:  Iter=  9 NonCon=     1 RMS=7.32D-08 Max=1.46D-06 NDo=     1
 LinEq1:  Iter= 10 NonCon=     1 RMS=3.41D-08 Max=5.75D-07 NDo=     1
 LinEq1:  Iter= 11 NonCon=     1 RMS=1.83D-08 Max=3.47D-07 NDo=     1
 LinEq1:  Iter= 12 NonCon=     1 RMS=9.94D-09 Max=2.13D-07 NDo=     1
 LinEq1:  Iter= 13 NonCon=     1 RMS=4.15D-09 Max=6.05D-08 NDo=     1
 LinEq1:  Iter= 14 NonCon=     1 RMS=1.72D-09 Max=5.62D-08 NDo=     1
 LinEq1:  Iter= 15 NonCon=     1 RMS=6.89D-10 Max=1.94D-08 NDo=     1
 LinEq1:  Iter= 16 NonCon=     1 RMS=3.32D-10 Max=6.71D-09 NDo=     1
 LinEq1:  Iter= 17 NonCon=     0 RMS=1.03D-10 Max=1.68D-09 NDo=     1
 Linear equations converged to 4.331D-10 4.331D-09 after    17 iterations.
 SCF Done:  E(RB3LYP) =  -605.198791613     a.u. after    9 cycles
            Convg  =    0.1501D-07                    50 Fock formations.
              S**2 =  0.0000                  -V/T =  2.0084
 DoSCS=F DFT=T ScalE2(SS,OS)=  1.000000  1.000000
 Range of M.O.s used for correlation:     1   204
 NBasis=   204 NAE=    46 NBE=    46 NFC=     0 NFV=     0
 NROrb=    204 NOA=    46 NOB=    46 NVA=   158 NVB=   158
 Symmetrizing basis deriv contribution to polar:
 IMax=3 JMax=2 DiffMx= 0.00D+00
 G2DrvN: will do    25 centers at a time, making    1 passes.
 Calling FoFCou, ICntrl=  3107 FMM=F I1Cent=   0 AccDes= 0.00D+00.
 End of G2Drv F.D. properties file   721 does not exist.
 End of G2Drv F.D. properties file   722 does not exist.
 End of G2Drv F.D. properties file   788 does not exist.
          IDoAtm=111111111111111111111111
          Differentiating once with respect to electric field.
                with respect to dipole field.
          Differentiating once with respect to nuclear coordinates.
 Keep R1 ints in memory in canonical form, NReq=222943279.
          There are    75 degrees of freedom in the 1st order CPHF.  IDoFFX=6 NUNeed=     3.
     72 vectors produced by pass  0 Test12= 9.69D-15 1.33D-09 XBig12= 1.48D+02 6.57D+00.
 AX will form    72 AO Fock derivatives at one time.
     72 vectors produced by pass  1 Test12= 9.69D-15 1.33D-09 XBig12= 3.21D+01 1.03D+00.
     72 vectors produced by pass  2 Test12= 9.69D-15 1.33D-09 XBig12= 3.61D-01 1.04D-01.
     72 vectors produced by pass  3 Test12= 9.69D-15 1.33D-09 XBig12= 1.72D-03 4.72D-03.
     72 vectors produced by pass  4 Test12= 9.69D-15 1.33D-09 XBig12= 2.48D-06 1.53D-04.
     47 vectors produced by pass  5 Test12= 9.69D-15 1.33D-09 XBig12= 1.91D-09 3.53D-06.
      9 vectors produced by pass  6 Test12= 9.69D-15 1.33D-09 XBig12= 1.44D-12 1.13D-07.
      3 vectors produced by pass  7 Test12= 9.69D-15 1.33D-09 XBig12= 1.14D-15 4.53D-09.
 InvSVY:  IOpt=1 It=  1 EMax= 2.55D-15
 Solved reduced A of dimension   419 with    75 vectors.
 Isotropic polarizability for W=    0.000000      105.46 Bohr**3.
 End of Minotr F.D. properties file   721 does not exist.
 End of Minotr F.D. properties file   722 does not exist.
 End of Minotr F.D. properties file   788 does not exist.

 **********************************************************************

            Population analysis using the SCF density.

 **********************************************************************

 Orbital symmetries:
       Occupied  (A) (A) (A) (A) (A) (A) (A) (A) (A) (A) (A) (A)
                 (A) (A) (A) (A) (A) (A) (A) (A) (A) (A) (A) (A)
                 (A) (A) (A) (A) (A) (A) (A) (A) (A) (A) (A) (A)
                 (A) (A) (A) (A) (A) (A) (A) (A) (A) (A)
       Virtual   (A) (A) (A) (A) (A) (A) (A) (A) (A) (A) (A) (A)
                 (A) (A) (A) (A) (A) (A) (A) (A) (A) (A) (A) (A)
                 (A) (A) (A) (A) (A) (A) (A) (A) (A) (A) (A) (A)
                 (A) (A) (A) (A) (A) (A) (A) (A) (A) (A) (A) (A)
                 (A) (A) (A) (A) (A) (A) (A) (A) (A) (A) (A) (A)
                 (A) (A) (A) (A) (A) (A) (A) (A) (A) (A) (A) (A)
                 (A) (A) (A) (A) (A) (A) (A) (A) (A) (A) (A) (A)
                 (A) (A) (A) (A) (A) (A) (A) (A) (A) (A) (A) (A)
                 (A) (A) (A) (A) (A) (A) (A) (A) (A) (A) (A) (A)
                 (A) (A) (A) (A) (A) (A) (A) (A) (A) (A) (A) (A)
                 (A) (A) (A) (A) (A) (A) (A) (A) (A) (A) (A) (A)
                 (A) (A) (A) (A) (A) (A) (A) (A) (A) (A) (A) (A)
                 (A) (A) (A) (A) (A) (A) (A) (A) (A) (A) (A) (A)
                 (A) (A)
 The electronic state is 1-A.
 Alpha  occ. eigenvalues --  -19.12291 -19.11931 -14.41200 -14.40687 -14.39187
 Alpha  occ. eigenvalues --  -14.37661 -10.31879 -10.31215 -10.23901 -10.23027
 Alpha  occ. eigenvalues --  -10.22602 -10.21803  -1.10795  -1.04511  -1.01308
 Alpha  occ. eigenvalues --   -0.95146  -0.93845  -0.81993  -0.74417  -0.73721
 Alpha  occ. eigenvalues --   -0.71377  -0.67758  -0.60418  -0.57625  -0.54106
 Alpha  occ. eigenvalues --   -0.50750  -0.50123  -0.49132  -0.48030  -0.46741
 Alpha  occ. eigenvalues --   -0.45873  -0.43308  -0.42627  -0.42416  -0.42356
 Alpha  occ. eigenvalues --   -0.41094  -0.40156  -0.39693  -0.39331  -0.36978
 Alpha  occ. eigenvalues --   -0.33666  -0.27975  -0.27081  -0.25491  -0.24456
 Alpha  occ. eigenvalues --   -0.23161
 Alpha virt. eigenvalues --   -0.12250   0.03882   0.06438   0.07518   0.08169
 Alpha virt. eigenvalues --    0.11609   0.12468   0.13722   0.14131   0.14561
 Alpha virt. eigenvalues --    0.15070   0.15433   0.15810   0.16589   0.17192
 Alpha virt. eigenvalues --    0.19255   0.19751   0.21905   0.22664   0.25162
 Alpha virt. eigenvalues --    0.26096   0.31242   0.33356   0.37112   0.40403
 Alpha virt. eigenvalues --    0.42581   0.45632   0.47792   0.49001   0.49510
 Alpha virt. eigenvalues --    0.51148   0.51738   0.55419   0.55747   0.59242
 Alpha virt. eigenvalues --    0.60249   0.61702   0.63322   0.64566   0.65747
 Alpha virt. eigenvalues --    0.66423   0.68442   0.68655   0.69669   0.73115
 Alpha virt. eigenvalues --    0.74266   0.77640   0.78153   0.78704   0.79141
 Alpha virt. eigenvalues --    0.80899   0.81699   0.83642   0.86047   0.86139
 Alpha virt. eigenvalues --    0.86765   0.87167   0.88390   0.89074   0.90228
 Alpha virt. eigenvalues --    0.92200   0.93363   0.93673   0.94471   0.96401
 Alpha virt. eigenvalues --    0.97684   1.00037   1.01566   1.02763   1.05055
 Alpha virt. eigenvalues --    1.07975   1.12211   1.13336   1.14854   1.19495
 Alpha virt. eigenvalues --    1.22454   1.27623   1.28123   1.32819   1.34998
 Alpha virt. eigenvalues --    1.37485   1.38716   1.40291   1.41194   1.43167
 Alpha virt. eigenvalues --    1.45274   1.46585   1.53260   1.54098   1.58862
 Alpha virt. eigenvalues --    1.62214   1.66259   1.70343   1.74005   1.77979
 Alpha virt. eigenvalues --    1.78936   1.79781   1.82500   1.84961   1.85326
 Alpha virt. eigenvalues --    1.87632   1.88684   1.89886   1.92915   1.93264
 Alpha virt. eigenvalues --    1.94135   1.97602   2.00686   2.03171   2.04629
 Alpha virt. eigenvalues --    2.05631   2.06480   2.07460   2.08585   2.11805
 Alpha virt. eigenvalues --    2.14043   2.17255   2.18469   2.20632   2.25836
 Alpha virt. eigenvalues --    2.27356   2.31880   2.35378   2.36296   2.36568
 Alpha virt. eigenvalues --    2.37743   2.40579   2.42965   2.43534   2.48525
 Alpha virt. eigenvalues --    2.52821   2.58712   2.58835   2.61146   2.66410
 Alpha virt. eigenvalues --    2.68225   2.71053   2.75982   2.78563   2.79865
 Alpha virt. eigenvalues --    2.92946   2.94575   3.07374   3.13150   3.21744
 Alpha virt. eigenvalues --    3.26667   3.84817   3.96580   3.98940   4.04834
 Alpha virt. eigenvalues --    4.11781   4.13889   4.25563   4.25901   4.33971
 Alpha virt. eigenvalues --    4.36734   4.52152   4.55437
          Condensed to atoms (all electrons):
               1          2          3          4          5          6
     1  C    4.299490   0.588012   0.163070  -0.057159   0.005555  -0.000160
     2  O    0.588012   8.063841  -0.087171  -0.002054   0.000917   0.000004
     3  N    0.163070  -0.087171   7.443686   0.192304  -0.031670   0.002133
     4  N   -0.057159  -0.002054   0.192304   6.987602   0.227275  -0.071737
     5  C    0.005555   0.000917  -0.031670   0.227275   4.275170   0.596271
     6  O   -0.000160   0.000004   0.002133  -0.071737   0.596271   8.061669
     7  N    0.000175  -0.000023  -0.010539  -0.109441   0.277720  -0.108696
     8  C    0.000028   0.000000  -0.000921   0.004943  -0.020072  -0.003588
     9  C    0.004799  -0.000061  -0.151261  -0.005176  -0.034696   0.002953
    10  N    0.311180  -0.097380  -0.105813   0.004130  -0.000176   0.000001
    11  C   -0.029484  -0.008386   0.004107  -0.000086   0.000002  -0.000000
    12  C   -0.028763   0.003053  -0.001680   0.000716  -0.000020  -0.000000
    13  H    0.000001   0.000000  -0.000003   0.000450  -0.000610   0.014698
    14  H   -0.000004   0.000000  -0.000059  -0.000048   0.000996   0.000496
    15  H    0.000001  -0.000000   0.000083  -0.000161   0.000832   0.000335
    16  H    0.003193  -0.001436  -0.068813  -0.008374  -0.011842  -0.000149
    17  H    0.000060   0.000007   0.008856  -0.000982  -0.000079  -0.000075
    18  H   -0.000556  -0.000001  -0.000092   0.001147   0.001543  -0.000011
    19  H   -0.001010   0.018853   0.000671  -0.000010  -0.000000  -0.000000
    20  H    0.001326   0.000669  -0.000080   0.000003  -0.000000   0.000000
    21  H    0.001277   0.000567  -0.000091   0.000004  -0.000000  -0.000000
    22  H   -0.009313   0.000083   0.010651   0.000333  -0.000062   0.000001
    23  H    0.001012  -0.000036  -0.000311  -0.000005   0.000001  -0.000000
    24  H    0.000964  -0.000026   0.000327  -0.000005  -0.000001   0.000000
               7          8          9         10         11         12
     1  C    0.000175   0.000028   0.004799   0.311180  -0.029484  -0.028763
     2  O   -0.000023   0.000000  -0.000061  -0.097380  -0.008386   0.003053
     3  N   -0.010539  -0.000921  -0.151261  -0.105813   0.004107  -0.001680
     4  N   -0.109441   0.004943  -0.005176   0.004130  -0.000086   0.000716
     5  C    0.277720  -0.020072  -0.034696  -0.000176   0.000002  -0.000020
     6  O   -0.108696  -0.003588   0.002953   0.000001  -0.000000  -0.000000
     7  N    7.025062   0.291000   0.295779  -0.000003   0.000000   0.000284
     8  C    0.291000   4.967373  -0.056016  -0.000000  -0.000000   0.000001
     9  C    0.295779  -0.056016   5.128386  -0.000968  -0.000013  -0.002622
    10  N   -0.000003  -0.000000  -0.000968   6.976701   0.294232   0.282908
    11  C    0.000000  -0.000000  -0.000013   0.294232   4.982820  -0.052632
    12  C    0.000284   0.000001  -0.002622   0.282908  -0.052632   5.007505
    13  H   -0.028289   0.373069   0.004161  -0.000000   0.000000   0.000000
    14  H   -0.048067   0.380152  -0.001982   0.000000  -0.000000  -0.000003
    15  H   -0.047392   0.375899  -0.000419  -0.000000   0.000000   0.000000
    16  H   -0.020718   0.003871   0.385918   0.004254   0.000012  -0.000674
    17  H   -0.053638  -0.004617   0.344750  -0.000018   0.000001   0.000285
    18  H   -0.051127  -0.000337   0.377452   0.000112  -0.000002  -0.003075
    19  H    0.000000   0.000000   0.000002  -0.027885   0.370174   0.003844
    20  H   -0.000000   0.000000   0.000010  -0.047727   0.377938  -0.001321
    21  H    0.000000  -0.000000  -0.000002  -0.047863   0.380250  -0.001527
    22  H   -0.000331  -0.000028   0.001685  -0.024229   0.003827   0.371489
    23  H   -0.000005  -0.000000  -0.000012  -0.046850  -0.001342   0.374577
    24  H   -0.000001   0.000000   0.000273  -0.049789  -0.001646   0.374872
              13         14         15         16         17         18
     1  C    0.000001  -0.000004   0.000001   0.003193   0.000060  -0.000556
     2  O    0.000000   0.000000  -0.000000  -0.001436   0.000007  -0.000001
     3  N   -0.000003  -0.000059   0.000083  -0.068813   0.008856  -0.000092
     4  N    0.000450  -0.000048  -0.000161  -0.008374  -0.000982   0.001147
     5  C   -0.000610   0.000996   0.000832  -0.011842  -0.000079   0.001543
     6  O    0.014698   0.000496   0.000335  -0.000149  -0.000075  -0.000011
     7  N   -0.028289  -0.048067  -0.047392  -0.020718  -0.053638  -0.051127
     8  C    0.373069   0.380152   0.375899   0.003871  -0.004617  -0.000337
     9  C    0.004161  -0.001982  -0.000419   0.385918   0.344750   0.377452
    10  N   -0.000000   0.000000  -0.000000   0.004254  -0.000018   0.000112
    11  C    0.000000  -0.000000   0.000000   0.000012   0.000001  -0.000002
    12  C    0.000000  -0.000003   0.000000  -0.000674   0.000285  -0.003075
    13  H    0.479018  -0.025668  -0.024352  -0.000188  -0.000032  -0.000069
    14  H   -0.025668   0.571139  -0.041450   0.000036  -0.001894   0.006992
    15  H   -0.024352  -0.041450   0.570503   0.000025   0.008216  -0.001937
    16  H   -0.000188   0.000036   0.000025   0.528415  -0.024582  -0.031226
    17  H   -0.000032  -0.001894   0.008216  -0.024582   0.627220  -0.042043
    18  H   -0.000069   0.006992  -0.001937  -0.031226  -0.042043   0.579222
    19  H    0.000000  -0.000000   0.000000   0.000010  -0.000000   0.000000
    20  H   -0.000000  -0.000000   0.000000  -0.000050  -0.000000  -0.000000
    21  H   -0.000000   0.000000  -0.000000   0.000016   0.000000   0.000000
    22  H    0.000000   0.000007  -0.000001  -0.003591  -0.000231   0.007796
    23  H   -0.000000   0.000000  -0.000000   0.000425  -0.000004   0.000053
    24  H   -0.000000  -0.000000   0.000000  -0.001130   0.000016   0.000043
              19         20         21         22         23         24
     1  C   -0.001010   0.001326   0.001277  -0.009313   0.001012   0.000964
     2  O    0.018853   0.000669   0.000567   0.000083  -0.000036  -0.000026
     3  N    0.000671  -0.000080  -0.000091   0.010651  -0.000311   0.000327
     4  N   -0.000010   0.000003   0.000004   0.000333  -0.000005  -0.000005
     5  C   -0.000000  -0.000000  -0.000000  -0.000062   0.000001  -0.000001
     6  O   -0.000000   0.000000  -0.000000   0.000001  -0.000000   0.000000
     7  N    0.000000  -0.000000   0.000000  -0.000331  -0.000005  -0.000001
     8  C    0.000000   0.000000  -0.000000  -0.000028  -0.000000   0.000000
     9  C    0.000002   0.000010  -0.000002   0.001685  -0.000012   0.000273
    10  N   -0.027885  -0.047727  -0.047863  -0.024229  -0.046850  -0.049789
    11  C    0.370174   0.377938   0.380250   0.003827  -0.001342  -0.001646
    12  C    0.003844  -0.001321  -0.001527   0.371489   0.374577   0.374872
    13  H    0.000000  -0.000000  -0.000000   0.000000  -0.000000  -0.000000
    14  H   -0.000000  -0.000000   0.000000   0.000007   0.000000  -0.000000
    15  H    0.000000   0.000000  -0.000000  -0.000001  -0.000000   0.000000
    16  H    0.000010  -0.000050   0.000016  -0.003591   0.000425  -0.001130
    17  H   -0.000000  -0.000000   0.000000  -0.000231  -0.000004   0.000016
    18  H    0.000000  -0.000000   0.000000   0.007796   0.000053   0.000043
    19  H    0.466289  -0.023445  -0.023685  -0.000165  -0.000072  -0.000078
    20  H   -0.023445   0.566224  -0.039706  -0.000002  -0.001846   0.007013
    21  H   -0.023685  -0.039706   0.561863  -0.000017   0.007109  -0.001848
    22  H   -0.000165  -0.000002  -0.000017   0.497972  -0.023625  -0.027674
    23  H   -0.000072  -0.001846   0.007109  -0.023625   0.567547  -0.042756
    24  H   -0.000078   0.007013  -0.001848  -0.027674  -0.042756   0.580026
 Mulliken charges:
               1
     1  C    0.746306
     2  O   -0.479432
     3  N   -0.367384
     4  N   -0.163668
     5  C    0.712945
     6  O   -0.494144
     7  N   -0.411749
     8  C   -0.310758
     9  C   -0.292939
    10  N   -0.424815
    11  C   -0.319771
    12  C   -0.327219
    13  H    0.207814
    14  H    0.159354
    15  H    0.159818
    16  H    0.246596
    17  H    0.138787
    18  H    0.156116
    19  H    0.216506
    20  H    0.160997
    21  H    0.163654
    22  H    0.195424
    23  H    0.166143
    24  H    0.161419
 Sum of Mulliken charges =  -0.00000
 Mulliken charges with hydrogens summed into heavy atoms:
               1
     1  C    0.746306
     2  O   -0.479432
     3  N   -0.367384
     4  N   -0.163668
     5  C    0.712945
     6  O   -0.494144
     7  N   -0.411749
     8  C    0.216228
     9  C    0.248558
    10  N   -0.424815
    11  C    0.221386
    12  C    0.195768
 APT charges:
               1
     1  C    1.020957
     2  O   -0.715300
     3  N   -0.056220
     4  N   -0.171877
     5  C    0.919209
     6  O   -0.685308
     7  N   -0.674196
     8  C    0.358415
     9  C    0.248430
    10  N   -0.638989
    11  C    0.291348
    12  C    0.290895
    13  H    0.051077
    14  H   -0.050153
    15  H   -0.037036
    16  H    0.037255
    17  H   -0.069090
    18  H   -0.062701
    19  H    0.067255
    20  H   -0.040794
    21  H   -0.039905
    22  H    0.038670
    23  H   -0.041012
    24  H   -0.040928
 Sum of APT charges =  -0.00000
 APT charges with hydrogens summed into heavy atoms:
               1
     1  C    1.020957
     2  O   -0.715300
     3  N   -0.056220
     4  N   -0.171877
     5  C    0.919209
     6  O   -0.685308
     7  N   -0.674196
     8  C    0.322303
     9  C    0.153894
    10  N   -0.638989
    11  C    0.277903
    12  C    0.247624
 Electronic spatial extent (au):  <R**2>=           2548.0009
 Charge=             -0.0000 electrons
 Dipole moment (field-independent basis, Debye):
    X=              2.3815    Y=              6.9154    Z=              0.0995  Tot=              7.3147
 Quadrupole moment (field-independent basis, Debye-Ang):
   XX=            -63.7371   YY=            -78.9911   ZZ=            -70.2470
   XY=             -3.1913   XZ=             -3.9212   YZ=             -0.0861
 Traceless Quadrupole moment (field-independent basis, Debye-Ang):
   XX=              7.2546   YY=             -7.9994   ZZ=              0.7448
   XY=             -3.1913   XZ=             -3.9212   YZ=             -0.0861
 Octapole moment (field-independent basis, Debye-Ang**2):
  XXX=             34.8114  YYY=             17.8375  ZZZ=             -0.7639  XYY=              3.6173
  XXY=             36.7935  XXZ=              3.3999  XZZ=              1.3165  YZZ=             -1.1762
  YYZ=             -2.7532  XYZ=              5.9927
 Hexadecapole moment (field-independent basis, Debye-Ang**3):
 XXXX=          -2258.1010 YYYY=           -700.8819 ZZZZ=           -137.5667 XXXY=            -72.2848
 XXXZ=            -13.4624 YYYX=             -0.0005 YYYZ=             -1.8546 ZZZX=              1.5137
 ZZZY=             -0.5592 XXYY=           -556.1887 XXZZ=           -428.2745 YYZZ=           -132.6440
 XXYZ=            -11.9595 YYXZ=             -9.4458 ZZXY=              1.4913
 N-N= 7.440756239820D+02 E-N=-2.898977221381D+03  KE= 6.001372501273D+02
  Exact polarizability: 143.185   7.688 108.410  -0.436   1.725  64.776
 Approx polarizability: 182.100  29.302 194.118   2.941   3.809  98.834
 Calling FoFJK, ICntrl=    100127 FMM=F ISym2X=0 I1Cent= 0 IOpClX= 0 NMat=1 NMatS=1 NMatT=0.
 ***** Axes restored to original set *****
 -------------------------------------------------------------------
 Center     Atomic                   Forces (Hartrees/Bohr)
 Number     Number              X              Y              Z
 -------------------------------------------------------------------
      1        6           0.029948368   -0.073362228   -0.044348514
      2        8           0.005000587    0.011233311    0.006658745
      3        7          -0.018932542    0.031992487   -0.067874473
      4        7          -0.007179449   -0.030141956   -0.014550491
      5        6          -0.020664396    0.063798158    0.036934936
      6        8           0.011076379   -0.016616847   -0.007410048
      7        7           0.000897379   -0.022722890   -0.024419967
      8        6          -0.001282306   -0.004809943    0.000747401
      9        6           0.001519206    0.012123554    0.060106521
     10        7          -0.032721487    0.012569367    0.008936162
     11        6           0.000519554   -0.000098032    0.000117609
     12        6           0.004069091   -0.001988672   -0.002361724
     13        1           0.001312973   -0.005704801   -0.005659909
     14        1           0.000838303    0.002265446    0.002016573
     15        1           0.000275894    0.002239837    0.003801741
     16        1           0.005214802    0.012672457    0.038426498
     17        1           0.002201487    0.004810836    0.009909435
     18        1           0.006084254   -0.001792202   -0.001132194
     19        1          -0.003737086    0.005559823    0.003791154
     20        1           0.003695311   -0.001577279   -0.000300780
     21        1           0.003507812   -0.000810540   -0.001399679
     22        1           0.000412460   -0.003886424   -0.005038201
     23        1           0.003775163    0.002523565    0.001154163
     24        1           0.004168242    0.001722973    0.001895042
 -------------------------------------------------------------------
 Cartesian Forces:  Max     0.073362228 RMS     0.020499887
 FormGI is forming the generalized inverse of G from B-inverse, IUseBI=4.

 GradGradGradGradGradGradGradGradGradGradGradGradGradGradGradGradGradGrad
 Berny optimization.
 Internal  Forces:  Max     0.244049044 RMS     0.049009920
 Search for a local minimum.
 Step number   1 out of a maximum of  108
 All quantities printed in internal units (Hartrees-Bohrs-Radians)
 Mixed Optimization -- RFO/linear search
 Second derivative matrix not updated -- analytic derivatives used.
 ITU=  0
     Eigenvalues ---   -0.20728  -0.06893  -0.01956  -0.00151  -0.00008
     Eigenvalues ---    0.00105   0.00127   0.00442   0.01159   0.02003
     Eigenvalues ---    0.05074   0.05675   0.06255   0.06367   0.06379
     Eigenvalues ---    0.06401   0.06424   0.06587   0.06728   0.07025
     Eigenvalues ---    0.10627   0.12570   0.12812   0.13001   0.13616
     Eigenvalues ---    0.14680   0.15859   0.16434   0.16886   0.18070
     Eigenvalues ---    0.18114   0.18533   0.19040   0.20394   0.21658
     Eigenvalues ---    0.22224   0.22720   0.24078   0.26100   0.29809
     Eigenvalues ---    0.31220   0.32145   0.33164   0.33386   0.33557
     Eigenvalues ---    0.33603   0.33631   0.33742   0.33764   0.33822
     Eigenvalues ---    0.35137   0.35169   0.35369   0.36516   0.37317
     Eigenvalues ---    0.37491   0.38572   0.39947   0.42884   0.45277
     Eigenvalues ---    0.52065   0.74411   0.77934   0.78866   0.81954
     Eigenvalues ---    3.07683
 RFO step:  Lambda=-2.11332621D-01 EMin=-2.07283516D-01
 I=     1 Eig=   -2.07D-01 Dot1= -1.34D-02
 I=     1 Stepn= -6.00D-01 RXN=   6.00D-01 EDone=F
 I=     2 Eig=   -6.89D-02 Dot1=  1.05D-03
 I=     2 Stepn=  3.00D-01 RXN=   6.71D-01 EDone=F
 I=     3 Eig=   -1.96D-02 Dot1= -2.28D-04
 I=     3 Stepn= -1.50D-01 RXN=   6.87D-01 EDone=F
 Mixed    3 eigenvectors in step.  Raw Step.Grad=  1.47D-02.
 RFO eigenvector is Hessian eigenvector with negative curvature.
 Taking step of  6.00D-01 in eigenvector direction(s).  Step.Grad= -3.10D-03.
 Linear search not attempted -- first point.
 Maximum step size (   0.300) exceeded in Quadratic search.
    -- Step size not scaled.
 Iteration  1 RMS(Cart)=  0.29351092 RMS(Int)=  0.02851642
 Iteration  2 RMS(Cart)=  0.18302763 RMS(Int)=  0.00672625
 Iteration  3 RMS(Cart)=  0.01220718 RMS(Int)=  0.00047624
 Iteration  4 RMS(Cart)=  0.00007281 RMS(Int)=  0.00047534
 Iteration  5 RMS(Cart)=  0.00000001 RMS(Int)=  0.00047534
 Variable       Old X    -DE/DX   Delta X   Delta X   Delta X     New X
                                 (Linear)    (Quad)   (Total)
    R1        2.32962  -0.01379   0.00000  -0.00056  -0.00056   2.32905
    R2        2.61054   0.05953   0.00000  -0.01034  -0.01034   2.60020
    R3        2.63971  -0.01607   0.00000   0.00252   0.00252   2.64223
    R4        2.36573  -0.00435   0.00000  -0.02134  -0.02134   2.34439
    R5        2.61004   0.08883   0.00000   0.04486   0.04486   2.65490
    R6        2.32959  -0.01467   0.00000   0.00859   0.00859   2.33817
    R7        2.64047   0.07457   0.00000  -0.03358  -0.03358   2.60689
    R8        2.74762  -0.00424   0.00000   0.00273   0.00273   2.75035
    R9        2.74184   0.02606   0.00000  -0.02523  -0.02523   2.71661
   R10        2.06242  -0.00172   0.00000   0.00042   0.00042   2.06283
   R11        2.06799   0.00220   0.00000  -0.00103  -0.00103   2.06696
   R12        2.06781   0.00273   0.00000  -0.00063  -0.00063   2.06719
   R13        2.06468  -0.03229   0.00000  -0.02465  -0.02465   2.04003
   R14        2.06763   0.00721   0.00000  -0.00438  -0.00438   2.06326
   R15        2.06767   0.00298   0.00000   0.01004   0.01004   2.07771
   R16        2.74217  -0.00121   0.00000  -0.00096  -0.00096   2.74121
   R17        2.74743   0.00348   0.00000   0.00277   0.00277   2.75020
   R18        2.06461  -0.00316   0.00000   0.00010   0.00010   2.06471
   R19        2.06758   0.00271   0.00000   0.00011   0.00011   2.06769
   R20        2.06744   0.00263   0.00000   0.00025   0.00025   2.06770
   R21        2.06243  -0.00524   0.00000   0.00198   0.00198   2.06441
   R22        2.06796   0.00261   0.00000  -0.00012  -0.00012   2.06783
   R23        2.06792   0.00290   0.00000  -0.00033  -0.00033   2.06760
    A1        2.16690   0.00218   0.00000   0.00948   0.00948   2.17637
    A2        2.10734   0.00718   0.00000   0.00160   0.00159   2.10893
    A3        2.00895  -0.00936   0.00000  -0.01108  -0.01108   1.99787
    A4        1.96679  -0.01013   0.00000   0.00200   0.00200   1.96879
    A5        1.96672   0.17405   0.00000   0.22794   0.22794   2.19466
    A6        2.16752  -0.13988   0.00000  -0.12030  -0.12127   2.04625
    A7        2.00855   0.24405   0.00000   0.12976   0.12871   2.13725
    A8        2.10712  -0.10417   0.00000  -0.00945  -0.01060   2.09652
    A9        2.15562  -0.11813   0.00000   0.00704   0.00704   2.16266
   A10        2.09300   0.22126   0.00000  -0.02550  -0.02550   2.06750
   A11        2.03456  -0.10313   0.00000   0.01846   0.01846   2.05302
   A12        1.97256  -0.01345   0.00000   0.00807   0.00808   1.98064
   A13        1.89512   0.00437   0.00000  -0.00600  -0.00601   1.88911
   A14        1.89514   0.00649   0.00000  -0.00489  -0.00489   1.89024
   A15        1.89731   0.00309   0.00000   0.00080   0.00081   1.89813
   A16        1.89725   0.00274   0.00000   0.00022   0.00022   1.89748
   A17        1.90567  -0.00312   0.00000   0.00171   0.00168   1.90735
   A18        1.96329   0.03421   0.00000  -0.08305  -0.08354   1.87975
   A19        1.89789  -0.00929   0.00000   0.02331   0.02358   1.92147
   A20        1.89788   0.00235   0.00000  -0.00612  -0.00696   1.89092
   A21        1.89803  -0.01196   0.00000   0.06758   0.06820   1.96623
   A22        1.89808  -0.01063   0.00000   0.00182   0.00005   1.89813
   A23        1.90816  -0.00545   0.00000  -0.00235  -0.00243   1.90573
   A24        2.09285  -0.00920   0.00000  -0.00221  -0.00221   2.09064
   A25        2.15558   0.01555   0.00000   0.00480   0.00480   2.16038
   A26        2.03475  -0.00635   0.00000  -0.00259  -0.00260   2.03216
   A27        1.96350  -0.01173   0.00000  -0.00083  -0.00083   1.96268
   A28        1.89760   0.00491   0.00000   0.00023   0.00023   1.89782
   A29        1.89772   0.00471   0.00000   0.00023   0.00023   1.89795
   A30        1.89809   0.00274   0.00000  -0.00000  -0.00000   1.89809
   A31        1.89816   0.00269   0.00000   0.00056   0.00056   1.89873
   A32        1.90827  -0.00327   0.00000  -0.00019  -0.00019   1.90807
   A33        1.97272  -0.00643   0.00000   0.01221   0.01220   1.98492
   A34        1.89515   0.00513   0.00000   0.00008   0.00007   1.89522
   A35        1.89509   0.00575   0.00000  -0.00292  -0.00292   1.89218
   A36        1.89722  -0.00079   0.00000  -0.00257  -0.00259   1.89463
   A37        1.89727   0.00066   0.00000  -0.00671  -0.00670   1.89057
   A38        1.90559  -0.00440   0.00000  -0.00034  -0.00034   1.90524
    D1        0.00100  -0.00419   0.00000   0.02071   0.02070   0.02170
    D2       -3.14082  -0.00594   0.00000   0.02717   0.02718  -3.11364
    D3        0.00103  -0.00268   0.00000   0.01108   0.01107   0.01209
    D4       -3.14055  -0.00353   0.00000   0.01534   0.01533  -3.12522
    D5       -3.14035  -0.00099   0.00000   0.00486   0.00486  -3.13549
    D6        0.00125  -0.00184   0.00000   0.00912   0.00913   0.01038
    D7       -3.14151  -0.01150   0.00000   0.01199   0.01199  -3.12951
    D8        2.61133  -0.07247   0.00000   0.28541   0.28738   2.89871
    D9       -0.53037  -0.09500   0.00000   0.37479   0.37282  -0.15754
   D10       -3.14020  -0.01179   0.00000  -0.01261  -0.01353   3.12945
   D11        0.00154  -0.02377   0.00000  -0.01315  -0.01407  -0.01253
   D12        0.00129  -0.03348   0.00000   0.07338   0.07430   0.07559
   D13       -3.14016  -0.04545   0.00000   0.07284   0.07376  -3.06639
   D14        0.00019  -0.00601   0.00000  -0.00203  -0.00203  -0.00185
   D15       -2.10638  -0.00429   0.00000  -0.00407  -0.00406  -2.11044
   D16        2.10669  -0.00670   0.00000   0.00005   0.00003   2.10672
   D17       -3.14155   0.00563   0.00000  -0.00151  -0.00151   3.14013
   D18        1.03507   0.00735   0.00000  -0.00356  -0.00354   1.03154
   D19       -1.03504   0.00493   0.00000   0.00057   0.00056  -1.03448
   D20       -0.00021  -0.00487   0.00000   0.09122   0.09022   0.09001
   D21       -2.10365  -0.00534   0.00000   0.04343   0.04372  -2.05994
   D22        2.10327   0.00520   0.00000   0.03636   0.03707   2.14035
   D23        3.14151  -0.01603   0.00000   0.09072   0.08972  -3.05195
   D24        1.03807  -0.01650   0.00000   0.04293   0.04322   1.08129
   D25       -1.03818  -0.00596   0.00000   0.03586   0.03658  -1.00161
   D26       -0.00007  -0.00037   0.00000   0.00192   0.00191   0.00184
   D27       -2.10351   0.00033   0.00000   0.00229   0.00229  -2.10123
   D28        2.10355  -0.00126   0.00000   0.00226   0.00225   2.10580
   D29        3.14151   0.00042   0.00000  -0.00205  -0.00205   3.13946
   D30        1.03807   0.00113   0.00000  -0.00168  -0.00167   1.03639
   D31       -1.03805  -0.00047   0.00000  -0.00171  -0.00171  -1.03976
   D32       -0.00001  -0.00084   0.00000   0.00371   0.00372   0.00371
   D33       -2.10659   0.00074   0.00000  -0.00095  -0.00096  -2.10755
   D34        2.10658  -0.00015   0.00000   0.00106   0.00105   2.10764
   D35        3.14159  -0.00166   0.00000   0.00784   0.00786  -3.13374
   D36        1.03502  -0.00008   0.00000   0.00317   0.00317   1.03819
   D37       -1.03500  -0.00097   0.00000   0.00519   0.00519  -1.02981
         Item               Value     Threshold  Converged?
 Maximum Force            0.244049     0.000450     NO 
 RMS     Force            0.049010     0.000300     NO 
 Maximum Displacement     1.534115     0.001800     NO 
 RMS     Displacement     0.466446     0.001200     NO 
 Predicted change in Energy=-4.376767D-02
 GradGradGradGradGradGradGradGradGradGradGradGradGradGradGradGradGradGrad

                          Input orientation:                          
 ---------------------------------------------------------------------
 Center     Atomic      Atomic             Coordinates (Angstroms)
 Number     Number       Type             X           Y           Z
 ---------------------------------------------------------------------
      1          6           0        0.919230    0.119629   -0.017165
      2          8           0        0.215239   -0.539250   -0.784816
      3          7           0        0.443194    1.047116    0.880855
      4          7           0       -0.793507    1.143620    0.862336
      5          6           0       -1.560781    2.013685    1.654833
      6          8           0       -2.744521    2.176774    1.333750
      7          7           0       -1.016955    2.746055    2.689688
      8          6           0       -1.778493    3.666761    3.520718
      9          6           0        0.384782    2.597054    2.971709
     10          7           0        2.307861   -0.042885   -0.000590
     11          6           0        2.933744   -0.986878   -0.906870
     12          6           0        3.197271    0.685867    0.891539
     13          1           0       -2.833468    3.728613    3.247215
     14          1           0       -1.332198    4.661011    3.427669
     15          1           0       -1.704227    3.333265    4.559900
     16          1           0        0.806034    1.955752    2.212315
     17          1           0        0.524632    2.202724    3.980190
     18          1           0        0.858904    3.586569    2.901605
     19          1           0        2.207834   -1.497977   -1.543735
     20          1           0        3.473077   -1.734838   -0.317893
     21          1           0        3.642014   -0.447160   -1.542701
     22          1           0        2.679438    1.378155    1.559381
     23          1           0        3.910102    1.253793    0.285968
     24          1           0        3.742973   -0.038793    1.503247
 ---------------------------------------------------------------------
                    Distance matrix (angstroms):
                    1          2          3          4          5
     1  C    0.000000
     2  O    1.232482   0.000000
     3  N    1.375966   2.311489   0.000000
     4  N    2.180722   2.561782   1.240598   0.000000
     5  C    3.540266   3.952672   2.355677   1.404911   0.000000
     6  O    4.413603   4.541507   3.412150   2.257453   1.237308
     7  N    4.239573   4.937986   2.879289   2.440685   1.379506
     8  C    5.690033   6.340593   4.332125   3.795186   2.502316
     9  C    3.918755   4.896594   2.603342   2.819626   2.420682
    10  N    1.398206   2.289204   2.332816   3.430877   4.683621
    11  C    2.464589   2.757814   3.679121   4.643437   5.980507
    12  C    2.517109   3.633675   2.777689   4.017051   4.998478
    13  H    6.145217   6.615629   4.850422   4.065867   2.663905
    14  H    6.128619   6.868938   4.764296   4.386703   3.194297
    15  H    6.177338   6.873624   4.834590   4.392714   3.193944
    16  H    2.890457   3.944220   1.652289   2.245113   2.432275
    17  H    4.524803   5.506308   3.308767   3.546858   3.129213
    18  H    4.532387   5.570133   3.271859   3.585677   3.143768
    19  H    2.570518   2.337851   3.933204   4.666396   6.063421
    20  H    3.170429   3.501565   4.284444   5.280360   6.578967
    21  H    3.172075   3.510791   4.282398   5.290428   6.584001
    22  H    2.677259   3.904354   2.360248   3.549961   4.288645
    23  H    3.213025   4.244242   3.523642   4.740071   5.690500
    24  H    3.210961   4.234453   3.529179   4.731650   5.689064
                    6          7          8          9         10
     6  O    0.000000
     7  N    2.268730   0.000000
     8  C    2.817109   1.455421   0.000000
     9  C    3.556977   1.437569   2.474963   0.000000
    10  N    5.677492   5.105897   6.546707   4.416116   0.000000
    11  C    6.875446   6.517518   7.966497   5.863886   1.450585
    12  C    6.141926   5.023686   6.368402   3.986207   1.455343
    13  H    2.465252   2.139153   1.091605   3.422493   7.155816
    14  H    3.542681   2.076308   1.093788   2.723204   6.865103
    15  H    3.581582   2.077221   1.093907   2.725493   6.949338
    16  H    3.664310   2.043466   3.364409   1.079538   3.338710
    17  H    4.206148   2.082569   2.767472   1.091828   4.906045
    18  H    4.174969   2.066451   2.710276   1.099475   4.867766
    19  H    6.805110   6.806831   8.259177   6.362550   2.123345
    20  H    7.529087   7.020280   8.455247   6.254945   2.078729
    21  H    7.479761   7.058026   8.482008   6.344817   2.078824
    22  H    5.487079   4.100252   5.381237   2.957336   2.142646
    23  H    6.799540   5.681602   6.974678   4.630922   2.081025
    24  H    6.857480   5.640915   6.948949   4.514589   2.078723
                   11         12         13         14         15
    11  C    0.000000
    12  C    2.470181   0.000000
    13  H    8.529537   7.153833   0.000000
    14  H    8.299708   6.538335   1.776440   0.000000
    15  H    8.370184   6.670103   1.776126   1.784170   0.000000
    16  H    4.787018   3.012486   4.178520   3.656167   3.702716
    17  H    6.313536   4.357020   3.760641   3.129900   2.565541
    18  H    6.302845   4.233485   3.711230   2.496418   3.063290
    19  H    1.092596   3.417414   8.699722   8.670630   8.712030
    20  H    1.094174   2.720038   9.073687   8.833278   8.734014
    21  H    1.094177   2.721593   9.072609   8.691420   8.950734
    22  H    3.426433   1.092441   6.226200   5.510070   5.660573
    23  H    2.719696   1.094250   7.769778   6.997223   7.356044
    24  H    2.713371   1.094125   7.777167   7.179757   7.098301
                   16         17         18         19         20
    16  H    0.000000
    17  H    1.807087   0.000000
    18  H    1.771293   1.786088   0.000000
    19  H    5.291616   6.858725   6.887181   0.000000
    20  H    5.209177   6.532323   6.746587   1.777536   0.000000
    21  H    5.283646   6.873302   6.615778   1.777945   1.785164
    22  H    2.066297   3.344162   3.161171   4.257214   3.720853
    23  H    3.720053   5.099917   4.646849   3.717226   3.080187
    24  H    3.620303   4.638680   4.839060   3.710791   2.503191
                   21         22         23         24
    21  H    0.000000
    22  H    3.725754   0.000000
    23  H    2.511801   1.775269   0.000000
    24  H    3.074859   1.772568   1.783390   0.000000
 Stoichiometry    C6H12N4O2
 Framework group  C1[X(C6H12N4O2)]
 Deg. of freedom    66
 Full point group                 C1      NOp   1
 Largest Abelian subgroup         C1      NOp   1
 Largest concise Abelian subgroup C1      NOp   1
                         Standard orientation:                         
 ---------------------------------------------------------------------
 Center     Atomic      Atomic             Coordinates (Angstroms)
 Number     Number       Type             X           Y           Z
 ---------------------------------------------------------------------
      1          6           0        1.613269   -0.614195    0.022267
      2          8           0        1.889274   -1.811226    0.122024
      3          7           0        0.335424   -0.107241   -0.035990
      4          7           0       -0.535184   -0.987109    0.047428
      5          6           0       -1.923304   -0.774881    0.004309
      6          8           0       -2.643002   -1.767167   -0.164011
      7          7           0       -2.480926    0.486324    0.042485
      8          6           0       -3.912324    0.743347   -0.014869
      9          6           0       -1.603546    1.620434    0.145458
     10          7           0        2.622636    0.351764   -0.033254
     11          6           0        4.013884   -0.056399    0.011783
     12          6           0        2.369794    1.781639   -0.130986
     13          1           0       -4.514324   -0.163831   -0.093766
     14          1           0       -4.112124    1.374800   -0.885340
     15          1           0       -4.201881    1.278857    0.893987
     16          1           0       -0.588844    1.257060    0.084297
     17          1           0       -1.800477    2.164138    1.071575
     18          1           0       -1.793667    2.283802   -0.710487
     19          1           0        4.128527   -1.140355    0.087026
     20          1           0        4.488670    0.408709    0.880960
     21          1           0        4.511084    0.288123   -0.899985
     22          1           0        1.308549    2.039823   -0.153953
     23          1           0        2.839381    2.157203   -1.045219
     24          1           0        2.824648    2.272979    0.734348
 ---------------------------------------------------------------------
 Rotational constants (GHZ):           2.0488090           0.4796368           0.3933581
 Standard basis: 6-31G(d) (6D, 7F)
 There are   204 symmetry adapted cartesian basis functions of A   symmetry.
 There are   204 symmetry adapted basis functions of A   symmetry.
   204 basis functions,   384 primitive gaussians,   204 cartesian basis functions
    46 alpha electrons       46 beta electrons
       nuclear repulsion energy       728.7791969914 Hartrees.
 NAtoms=   24 NActive=   24 NUniq=   24 SFac= 1.00D+00 NAtFMM=   60 NAOKFM=F Big=F
 Integral buffers will be    131072 words long.
 Raffenetti 2 integral format.
 Two-electron integral symmetry is turned on.
 One-electron integrals computed using PRISM.
 NBasis=   204 RedAO= T EigKep=  1.83D-03  NBF=   204
 NBsUse=   204 1.00D-06 EigRej= -1.00D+00 NBFU=   204
 Initial guess from the checkpoint file:  "azadicarboxylate_6_conf251.chk"
 B after Tr=     0.000000   -0.000000   -0.000000
         Rot=    0.999841    0.007040    0.004375   -0.015801 Ang=   2.04 deg.
 ExpMin= 1.61D-01 ExpMax= 5.48D+03 ExpMxC= 8.25D+02 IAcc=2 IRadAn=         4 AccDes= 0.00D+00
 Harris functional with IExCor=  402 and IRadAn=       4 diagonalized for initial guess.
 HarFok:  IExCor=  402 AccDes= 0.00D+00 IRadAn=         4 IDoV= 1 UseB2=F ITyADJ=14
 ICtDFT=  3500011 ScaDFX=  1.000000  1.000000  1.000000  1.000000
 FoFCou: FMM=F IPFlag=           0 FMFlag=      100000 FMFlg1=           0
         NFxFlg=           0 DoJE=T BraDBF=F KetDBF=T FulRan=T
         wScrn=  0.000000 ICntrl=       500 IOpCl=  0 I1Cent=   200000004 NGrid=           0
         NMat0=    1 NMatS0=      1 NMatT0=    0 NMatD0=    1 NMtDS0=    0 NMtDT0=    0
 Petite list used in FoFCou.
 Keep R1 ints in memory in canonical form, NReq=222933844.
 Gradient too large for Newton-Raphson -- use scaled steepest descent instead.
     Minimum is close to point  4 DX=  6.86D-02 DF= -5.48D-04 DXR=  5.41D-02 DFR=  2.94D-03 which will be used.
 Gradient too large for Newton-Raphson -- use scaled steepest descent instead.
 Gradient too large for Newton-Raphson -- use scaled steepest descent instead.
     Accept linear search using points  1 and  2.
 Gradient too large for Newton-Raphson -- use scaled steepest descent instead.
     Accept linear search using points  1 and  2.
 Gradient too large for Newton-Raphson -- use scaled steepest descent instead.
     Minimum is close to point  2 DX=  8.55D-02 DF= -5.15D-05 DXR=  9.66D-02 DFR=  9.41D-03 which will be used.
 Gradient too large for Newton-Raphson -- use scaled steepest descent instead.
     Accept linear search using points  1 and  2.
     Minimum is close to point  2 DX= -2.75D-02 DF= -2.65D-06 DXR=  3.56D-02 DFR=  7.61D-04 which will be used.
 Gradient too large for Newton-Raphson -- use scaled steepest descent instead.
     Accept linear search using points  1 and  2.
 Gradient too large for Newton-Raphson -- use scaled steepest descent instead.
 Gradient too large for Newton-Raphson -- use scaled steepest descent instead.
     Accept linear search using points  1 and  2.
 Gradient too large for Newton-Raphson -- use scaled steepest descent instead.
     Accept linear search using points  2 and  3.
 Gradient too large for Newton-Raphson -- use scaled steepest descent instead.
     Accept linear search using points  1 and  2.
 Gradient too large for Newton-Raphson -- use scaled steepest descent instead.
     Accept linear search using points  2 and  3.
 Gradient too large for Newton-Raphson -- use scaled steepest descent instead.
     Accept linear search using points  1 and  2.
 Gradient too large for Newton-Raphson -- use scaled steepest descent instead.
     Accept linear search using points  2 and  3.
     Minimum is close to point  3 DX= -1.20D-01 DF= -1.88D-06 DXR=  7.62D-02 DFR=  4.30D-03 which will be used.
 Gradient too large for Newton-Raphson -- use scaled steepest descent instead.
     Accept linear search using points  1 and  2.
 Gradient too large for Newton-Raphson -- use scaled steepest descent instead.
 Gradient too large for Newton-Raphson -- use scaled steepest descent instead.
     Minimum is close to point  3 DX= -2.22D-02 DF= -6.13D-07 DXR=  4.64D-02 DFR=  2.16D-03 which will be used.
 Gradient too large for Newton-Raphson -- use scaled steepest descent instead.
 Gradient too large for Newton-Raphson -- use scaled steepest descent instead.
     Accept linear search using points  1 and  2.
 Gradient too large for Newton-Raphson -- use scaled steepest descent instead.
 Gradient too large for Newton-Raphson -- use scaled steepest descent instead.
     Minimum is close to point  3 DX= -3.53D-02 DF= -1.05D-06 DXR=  7.59D-02 DFR=  5.79D-03 which will be used.
 Gradient too large for Newton-Raphson -- use scaled steepest descent instead.
 Gradient too large for Newton-Raphson -- use scaled steepest descent instead.
     Accept linear search using points  1 and  2.
 Gradient too large for Newton-Raphson -- use scaled steepest descent instead.
 Gradient too large for Newton-Raphson -- use scaled steepest descent instead.
     Minimum is close to point  3 DX= -2.11D-02 DF= -2.06D-07 DXR=  4.42D-02 DFR=  1.95D-03 which will be used.
 LinEq1:  Iter=  0 NonCon=     1 RMS=5.60D-04 Max=4.67D-02 NDo=     1
 AX will form     1 AO Fock derivatives at one time.
 LinEq1:  Iter=  1 NonCon=     1 RMS=5.98D-05 Max=2.31D-03 NDo=     1
 LinEq1:  Iter=  2 NonCon=     1 RMS=6.46D-05 Max=2.16D-03 NDo=     1
 LinEq1:  Iter=  3 NonCon=     1 RMS=3.63D-05 Max=1.12D-03 NDo=     1
 LinEq1:  Iter=  4 NonCon=     1 RMS=3.19D-05 Max=1.21D-03 NDo=     1
 LinEq1:  Iter=  5 NonCon=     1 RMS=1.91D-05 Max=6.95D-04 NDo=     1
 LinEq1:  Iter=  6 NonCon=     1 RMS=1.58D-05 Max=4.86D-04 NDo=     1
 LinEq1:  Iter=  7 NonCon=     1 RMS=1.33D-05 Max=4.45D-04 NDo=     1
 LinEq1:  Iter=  8 NonCon=     1 RMS=7.60D-06 Max=2.16D-04 NDo=     1
 LinEq1:  Iter=  9 NonCon=     1 RMS=7.33D-06 Max=2.04D-04 NDo=     1
 LinEq1:  Iter= 10 NonCon=     1 RMS=3.20D-06 Max=8.90D-05 NDo=     1
 LinEq1:  Iter= 11 NonCon=     1 RMS=1.96D-06 Max=5.87D-05 NDo=     1
 LinEq1:  Iter= 12 NonCon=     1 RMS=9.46D-07 Max=1.62D-05 NDo=     1
 LinEq1:  Iter= 13 NonCon=     1 RMS=4.65D-07 Max=8.44D-06 NDo=     1
 LinEq1:  Iter= 14 NonCon=     1 RMS=2.11D-07 Max=3.64D-06 NDo=     1
 LinEq1:  Iter= 15 NonCon=     1 RMS=6.02D-08 Max=7.10D-07 NDo=     1
 LinEq1:  Iter= 16 NonCon=     1 RMS=1.96D-08 Max=4.33D-07 NDo=     1
 LinEq1:  Iter= 17 NonCon=     0 RMS=8.46D-09 Max=1.10D-07 NDo=     1
 Linear equations converged to 1.206D-08 1.206D-07 after    17 iterations.
     Accept linear search using points  1 and  2.
     Minimum is close to point  2 DX= -8.25D-03 DF= -6.02D-08 DXR=  8.32D-03 DFR=  6.95D-05 which will be used.
 LinEq1:  Iter=  0 NonCon=     1 RMS=1.94D-05 Max=7.93D-04 NDo=     1
 LinEq1:  Iter=  1 NonCon=     1 RMS=1.56D-05 Max=7.73D-04 NDo=     1
 LinEq1:  Iter=  2 NonCon=     1 RMS=1.23D-05 Max=5.15D-04 NDo=     1
 LinEq1:  Iter=  3 NonCon=     1 RMS=1.07D-05 Max=3.98D-04 NDo=     1
 LinEq1:  Iter=  4 NonCon=     1 RMS=8.48D-06 Max=2.42D-04 NDo=     1
 LinEq1:  Iter=  5 NonCon=     1 RMS=5.43D-06 Max=1.24D-04 NDo=     1
 LinEq1:  Iter=  6 NonCon=     1 RMS=5.82D-06 Max=1.60D-04 NDo=     1
 LinEq1:  Iter=  7 NonCon=     1 RMS=4.00D-06 Max=1.24D-04 NDo=     1
 LinEq1:  Iter=  8 NonCon=     1 RMS=2.61D-06 Max=6.92D-05 NDo=     1
 LinEq1:  Iter=  9 NonCon=     1 RMS=9.10D-07 Max=2.12D-05 NDo=     1
 LinEq1:  Iter= 10 NonCon=     1 RMS=5.89D-07 Max=1.74D-05 NDo=     1
 LinEq1:  Iter= 11 NonCon=     1 RMS=2.53D-07 Max=7.98D-06 NDo=     1
 LinEq1:  Iter= 12 NonCon=     1 RMS=1.64D-07 Max=4.69D-06 NDo=     1
 LinEq1:  Iter= 13 NonCon=     1 RMS=6.28D-08 Max=2.24D-06 NDo=     1
 LinEq1:  Iter= 14 NonCon=     1 RMS=2.30D-08 Max=5.70D-07 NDo=     1
 LinEq1:  Iter= 15 NonCon=     1 RMS=1.05D-08 Max=2.47D-07 NDo=     1
 LinEq1:  Iter= 16 NonCon=     0 RMS=3.39D-09 Max=6.91D-08 NDo=     1
 Linear equations converged to 1.206D-08 1.206D-07 after    16 iterations.
     Minimum is close to point  2 DX=  3.54D-05 DF=  0.00D+00 DXR=  3.54D-05 DFR=  0.00D+00 which will be used.
 SCF Done:  E(RB3LYP) =  -605.228819396     a.u. after   28 cycles
            Convg  =    0.2950D-06                   100 Fock formations.
              S**2 =  0.0000                  -V/T =  2.0087
 DoSCS=F DFT=T ScalE2(SS,OS)=  1.000000  1.000000
 Range of M.O.s used for correlation:     1   204
 NBasis=   204 NAE=    46 NBE=    46 NFC=     0 NFV=     0
 NROrb=    204 NOA=    46 NOB=    46 NVA=   158 NVB=   158
 Symmetrizing basis deriv contribution to polar:
 IMax=3 JMax=2 DiffMx= 0.00D+00
 G2DrvN: will do    25 centers at a time, making    1 passes.
 Calling FoFCou, ICntrl=  3107 FMM=F I1Cent=   0 AccDes= 0.00D+00.
 End of G2Drv F.D. properties file   721 does not exist.
 End of G2Drv F.D. properties file   722 does not exist.
 End of G2Drv F.D. properties file   788 does not exist.
          IDoAtm=111111111111111111111111
          Differentiating once with respect to electric field.
                with respect to dipole field.
          Differentiating once with respect to nuclear coordinates.
 Keep R1 ints in memory in canonical form, NReq=222943300.
          There are    75 degrees of freedom in the 1st order CPHF.  IDoFFX=6 NUNeed=     3.
     72 vectors produced by pass  0 Test12= 9.69D-15 1.33D-09 XBig12= 1.54D+02 8.04D+00.
 AX will form    72 AO Fock derivatives at one time.
     72 vectors produced by pass  1 Test12= 9.69D-15 1.33D-09 XBig12= 3.81D+01 1.69D+00.
     72 vectors produced by pass  2 Test12= 9.69D-15 1.33D-09 XBig12= 4.50D-01 1.42D-01.
     72 vectors produced by pass  3 Test12= 9.69D-15 1.33D-09 XBig12= 2.13D-03 7.73D-03.
     72 vectors produced by pass  4 Test12= 9.69D-15 1.33D-09 XBig12= 2.69D-06 1.82D-04.
     47 vectors produced by pass  5 Test12= 9.69D-15 1.33D-09 XBig12= 2.16D-09 5.10D-06.
     10 vectors produced by pass  6 Test12= 9.69D-15 1.33D-09 XBig12= 1.88D-12 1.89D-07.
      2 vectors produced by pass  7 Test12= 9.69D-15 1.33D-09 XBig12= 1.48D-15 6.45D-09.
 InvSVY:  IOpt=1 It=  1 EMax= 7.11D-15
 Solved reduced A of dimension   419 with    75 vectors.
 Isotropic polarizability for W=    0.000000      107.97 Bohr**3.
 End of Minotr F.D. properties file   721 does not exist.
 End of Minotr F.D. properties file   722 does not exist.
 End of Minotr F.D. properties file   788 does not exist.
 Calling FoFJK, ICntrl=    100127 FMM=F ISym2X=0 I1Cent= 0 IOpClX= 0 NMat=1 NMatS=1 NMatT=0.
 ***** Axes restored to original set *****
 -------------------------------------------------------------------
 Center     Atomic                   Forces (Hartrees/Bohr)
 Number     Number              X              Y              Z
 -------------------------------------------------------------------
      1        6           0.024138391   -0.063104496   -0.060660441
      2        8           0.006254756    0.009150257    0.009368380
      3        7          -0.006174145    0.028314430    0.017491242
      4        7          -0.014559223   -0.032670440   -0.025059297
      5        6          -0.030236851    0.055201308    0.026547061
      6        8           0.014712335   -0.013989659   -0.003096362
      7        7          -0.001059181   -0.019953347   -0.016946264
      8        6          -0.000736158   -0.003554469   -0.001680859
[...]
    12  C    0.004212  -0.001793  -0.000768   0.365733   0.372848   0.373436
    13  H   -0.000000   0.000000  -0.000000  -0.000001  -0.000000   0.000000
    14  H   -0.000000   0.000000   0.000000  -0.000000   0.000000  -0.000000
    15  H    0.000000   0.000000   0.000000  -0.000000  -0.000000   0.000000
    16  H   -0.000001  -0.000000  -0.000000   0.000004   0.000000   0.000000
    17  H    0.000000   0.000000  -0.000000   0.000000  -0.000000  -0.000000
    18  H   -0.000000  -0.000000   0.000000   0.000000   0.000000  -0.000000
    19  H    0.483895  -0.022221  -0.024601  -0.000194  -0.000117  -0.000000
    20  H   -0.022221   0.568099  -0.042004  -0.000014  -0.001591   0.006216
    21  H   -0.024601  -0.042004   0.565907  -0.000061   0.005883  -0.001773
    22  H   -0.000194  -0.000014  -0.000061   0.471952  -0.023942  -0.021873
    23  H   -0.000117  -0.001591   0.005883  -0.023942   0.576910  -0.044228
    24  H   -0.000000   0.006216  -0.001773  -0.021873  -0.044228   0.573604
 Mulliken charges:
               1
     1  C    0.704240
     2  O   -0.463698
     3  N   -0.277732
     4  N   -0.277715
     5  C    0.704211
     6  O   -0.463687
     7  N   -0.386787
     8  C   -0.320155
     9  C   -0.322041
    10  N   -0.386812
    11  C   -0.320153
    12  C   -0.322030
    13  H    0.203669
    14  H    0.162313
    15  H    0.160981
    16  H    0.219724
    17  H    0.158813
    18  H    0.160687
    19  H    0.203668
    20  H    0.160977
    21  H    0.162314
    22  H    0.219710
    23  H    0.160689
    24  H    0.158812
 Sum of Mulliken charges =   0.00000
 Mulliken charges with hydrogens summed into heavy atoms:
               1
     1  C    0.704240
     2  O   -0.463698
     3  N   -0.277732
     4  N   -0.277715
     5  C    0.704211
     6  O   -0.463687
     7  N   -0.386787
     8  C    0.206808
     9  C    0.217184
    10  N   -0.386812
    11  C    0.206807
    12  C    0.217181
 Electronic spatial extent (au):  <R**2>=           2861.8100
 Charge=             -0.0000 electrons
 Dipole moment (field-independent basis, Debye):
    X=              0.0003    Y=             -0.0003    Z=              0.0018  Tot=              0.0018
 Quadrupole moment (field-independent basis, Debye-Ang):
   XX=            -46.6833   YY=            -77.3294   ZZ=            -70.9913
   XY=             10.5424   XZ=             -1.1214   YZ=              0.4904
 Traceless Quadrupole moment (field-independent basis, Debye-Ang):
   XX=             18.3180   YY=            -12.3281   ZZ=             -5.9900
   XY=             10.5424   XZ=             -1.1214   YZ=              0.4904
 Octapole moment (field-independent basis, Debye-Ang**2):
  XXX=              0.0034  YYY=             -0.0021  ZZZ=             -0.0013  XYY=              0.0027
  XXY=             -0.0025  XXZ=              0.0063  XZZ=              0.0002  YZZ=              0.0002
  YYZ=              0.0066  XYZ=             -0.0026
 Hexadecapole moment (field-independent basis, Debye-Ang**3):
 XXXX=          -2587.9318 YYYY=           -646.0356 ZZZZ=           -110.8789 XXXY=             -4.1818
 XXXZ=             -3.2799 YYYX=             33.1064 YYYZ=              2.8205 ZZZX=             -2.3627
 ZZZY=             -2.7714 XXYY=           -593.5596 XXZZ=           -502.7463 YYZZ=           -118.9329
 XXYZ=              5.6971 YYXZ=              0.6863 ZZXY=             -0.7744
 N-N= 7.215951681832D+02 E-N=-2.854464787842D+03  KE= 5.997741609307D+02
 Evaluate density.
 Using the total density.
 Monte-Carlo method of calculating molar volume:
 based on  0.001 e/bohr**3 density envelope.
 Number of points per bohr**3 =   20 CutOff= 1.00D-04
 Using the CI density.
 There are       391 points.  Will hold       391 in memory.
 LenV=   805183220 MDV=   805306368.
 Box volume = 7473.208 fraction occupied=0.205
 Integrated density= 6.0414858947933901D+01 error=-3.1585141052066099D+01
 Molar volume = 1529.045 bohr**3/mol (136.450 cm**3/mol)
 Recommended a0 for SCRF calculation =  4.66 angstrom (  8.81 bohr)
 ******************************Gaussian NBO Version 3.1******************************
             N A T U R A L   A T O M I C   O R B I T A L   A N D
          N A T U R A L   B O N D   O R B I T A L   A N A L Y S I S
 ******************************Gaussian NBO Version 3.1******************************
       /RESON  / : Allow strongly delocalized NBO set

 Analyzing the CI density

 Job title: Title Card Required                                             

 Storage needed:    126804 in NPA ( 805303248 available)


 NATURAL POPULATIONS:  Natural atomic orbital occupancies 
                                                          
   NAO  Atom  No  lang   Type(AO)    Occupancy
 --------------------------------------------
     1    C    1  S      Cor( 1S)     1.99935
     2    C    1  S      Val( 2S)     0.73540
     3    C    1  S      Ryd( 3S)     0.00442
     4    C    1  S      Ryd( 4S)     0.00038
     5    C    1  px     Val( 2p)     0.83532
     6    C    1  px     Ryd( 3p)     0.00861
     7    C    1  py     Val( 2p)     0.76704
     8    C    1  py     Ryd( 3p)     0.01945
     9    C    1  pz     Val( 2p)     0.82499
    10    C    1  pz     Ryd( 3p)     0.00357
    11    C    1  dxy    Ryd( 3d)     0.00349
    12    C    1  dxz    Ryd( 3d)     0.00167
    13    C    1  dyz    Ryd( 3d)     0.00259
    14    C    1  dx2y2  Ryd( 3d)     0.00180
    15    C    1  dz2    Ryd( 3d)     0.00041
 
    16    O    2  S      Cor( 1S)     1.99979
    17    O    2  S      Val( 2S)     1.70335
    18    O    2  S      Ryd( 3S)     0.00079
    19    O    2  S      Ryd( 4S)     0.00008
    20    O    2  px     Val( 2p)     1.73136
    21    O    2  px     Ryd( 3p)     0.00156
    22    O    2  py     Val( 2p)     1.57372
    23    O    2  py     Ryd( 3p)     0.00032
    24    O    2  pz     Val( 2p)     1.54199
    25    O    2  pz     Ryd( 3p)     0.00095
    26    O    2  dxy    Ryd( 3d)     0.00447
    27    O    2  dxz    Ryd( 3d)     0.00005
    28    O    2  dyz    Ryd( 3d)     0.00480
    29    O    2  dx2y2  Ryd( 3d)     0.00435
    30    O    2  dz2    Ryd( 3d)     0.00134
 
    31    N    3  S      Cor( 1S)     1.99941
    32    N    3  S      Val( 2S)     1.40064
    33    N    3  S      Ryd( 3S)     0.00616
    34    N    3  S      Ryd( 4S)     0.00004
    35    N    3  px     Val( 2p)     1.13242
    36    N    3  px     Ryd( 3p)     0.00393
    37    N    3  py     Val( 2p)     1.41817
    38    N    3  py     Ryd( 3p)     0.00422
    39    N    3  pz     Val( 2p)     1.26950
    40    N    3  pz     Ryd( 3p)     0.00447
    41    N    3  dxy    Ryd( 3d)     0.00118
    42    N    3  dxz    Ryd( 3d)     0.00137
    43    N    3  dyz    Ryd( 3d)     0.00189
    44    N    3  dx2y2  Ryd( 3d)     0.00076
    45    N    3  dz2    Ryd( 3d)     0.00229
 
    46    N    4  S      Cor( 1S)     1.99941
    47    N    4  S      Val( 2S)     1.40063
    48    N    4  S      Ryd( 3S)     0.00616
    49    N    4  S      Ryd( 4S)     0.00004
    50    N    4  px     Val( 2p)     1.13241
    51    N    4  px     Ryd( 3p)     0.00393
    52    N    4  py     Val( 2p)     1.41815
    53    N    4  py     Ryd( 3p)     0.00422
    54    N    4  pz     Val( 2p)     1.26950
    55    N    4  pz     Ryd( 3p)     0.00447
    56    N    4  dxy    Ryd( 3d)     0.00118
    57    N    4  dxz    Ryd( 3d)     0.00137
    58    N    4  dyz    Ryd( 3d)     0.00189
    59    N    4  dx2y2  Ryd( 3d)     0.00076
    60    N    4  dz2    Ryd( 3d)     0.00229
 
    61    C    5  S      Cor( 1S)     1.99935
    62    C    5  S      Val( 2S)     0.73540
    63    C    5  S      Ryd( 3S)     0.00442
    64    C    5  S      Ryd( 4S)     0.00038
    65    C    5  px     Val( 2p)     0.83533
    66    C    5  px     Ryd( 3p)     0.00861
    67    C    5  py     Val( 2p)     0.76703
    68    C    5  py     Ryd( 3p)     0.01945
    69    C    5  pz     Val( 2p)     0.82498
    70    C    5  pz     Ryd( 3p)     0.00357
    71    C    5  dxy    Ryd( 3d)     0.00349
    72    C    5  dxz    Ryd( 3d)     0.00167
    73    C    5  dyz    Ryd( 3d)     0.00259
    74    C    5  dx2y2  Ryd( 3d)     0.00180
    75    C    5  dz2    Ryd( 3d)     0.00041
 
    76    O    6  S      Cor( 1S)     1.99979
    77    O    6  S      Val( 2S)     1.70335
    78    O    6  S      Ryd( 3S)     0.00079
    79    O    6  S      Ryd( 4S)     0.00008
    80    O    6  px     Val( 2p)     1.73135
    81    O    6  px     Ryd( 3p)     0.00156
    82    O    6  py     Val( 2p)     1.57373
    83    O    6  py     Ryd( 3p)     0.00032
    84    O    6  pz     Val( 2p)     1.54198
    85    O    6  pz     Ryd( 3p)     0.00095
    86    O    6  dxy    Ryd( 3d)     0.00447
    87    O    6  dxz    Ryd( 3d)     0.00005
    88    O    6  dyz    Ryd( 3d)     0.00480
    89    O    6  dx2y2  Ryd( 3d)     0.00435
    90    O    6  dz2    Ryd( 3d)     0.00134
 
    91    N    7  S      Cor( 1S)     1.99930
    92    N    7  S      Val( 2S)     1.20776
    93    N    7  S      Ryd( 3S)     0.00116
    94    N    7  S      Ryd( 4S)     0.00005
    95    N    7  px     Val( 2p)     1.29406
    96    N    7  px     Ryd( 3p)     0.00119
    97    N    7  py     Val( 2p)     1.29363
    98    N    7  py     Ryd( 3p)     0.00128
    99    N    7  pz     Val( 2p)     1.65294
   100    N    7  pz     Ryd( 3p)     0.00407
   101    N    7  dxy    Ryd( 3d)     0.00080
   102    N    7  dxz    Ryd( 3d)     0.00061
   103    N    7  dyz    Ryd( 3d)     0.00050
   104    N    7  dx2y2  Ryd( 3d)     0.00059
   105    N    7  dz2    Ryd( 3d)     0.00050
 
   106    C    8  S      Cor( 1S)     1.99947
   107    C    8  S      Val( 2S)     1.08839
   108    C    8  S      Ryd( 3S)     0.00094
   109    C    8  S      Ryd( 4S)     0.00002
   110    C    8  px     Val( 2p)     0.92322
   111    C    8  px     Ryd( 3p)     0.00214
   112    C    8  py     Val( 2p)     1.21893
   113    C    8  py     Ryd( 3p)     0.00310
   114    C    8  pz     Val( 2p)     1.22836
   115    C    8  pz     Ryd( 3p)     0.00113
   116    C    8  dxy    Ryd( 3d)     0.00072
   117    C    8  dxz    Ryd( 3d)     0.00142
   118    C    8  dyz    Ryd( 3d)     0.00045
   119    C    8  dx2y2  Ryd( 3d)     0.00114
   120    C    8  dz2    Ryd( 3d)     0.00090
 
   121    C    9  S      Cor( 1S)     1.99945
   122    C    9  S      Val( 2S)     1.08828
   123    C    9  S      Ryd( 3S)     0.00104
   124    C    9  S      Ryd( 4S)     0.00002
   125    C    9  px     Val( 2p)     1.27471
   126    C    9  px     Ryd( 3p)     0.00320
   127    C    9  py     Val( 2p)     0.85928
   128    C    9  py     Ryd( 3p)     0.00208
   129    C    9  pz     Val( 2p)     1.23895
   130    C    9  pz     Ryd( 3p)     0.00086
   131    C    9  dxy    Ryd( 3d)     0.00051
   132    C    9  dxz    Ryd( 3d)     0.00074
   133    C    9  dyz    Ryd( 3d)     0.00119
   134    C    9  dx2y2  Ryd( 3d)     0.00131
   135    C    9  dz2    Ryd( 3d)     0.00084
 
   136    N   10  S      Cor( 1S)     1.99930
   137    N   10  S      Val( 2S)     1.20776
   138    N   10  S      Ryd( 3S)     0.00116
   139    N   10  S      Ryd( 4S)     0.00005
   140    N   10  px     Val( 2p)     1.29404
   141    N   10  px     Ryd( 3p)     0.00119
   142    N   10  py     Val( 2p)     1.29363
   143    N   10  py     Ryd( 3p)     0.00128
   144    N   10  pz     Val( 2p)     1.65295
   145    N   10  pz     Ryd( 3p)     0.00407
   146    N   10  dxy    Ryd( 3d)     0.00080
   147    N   10  dxz    Ryd( 3d)     0.00061
   148    N   10  dyz    Ryd( 3d)     0.00050
   149    N   10  dx2y2  Ryd( 3d)     0.00059
   150    N   10  dz2    Ryd( 3d)     0.00050
 
   151    C   11  S      Cor( 1S)     1.99947
   152    C   11  S      Val( 2S)     1.08839
   153    C   11  S      Ryd( 3S)     0.00094
   154    C   11  S      Ryd( 4S)     0.00002
   155    C   11  px     Val( 2p)     0.92324
   156    C   11  px     Ryd( 3p)     0.00214
   157    C   11  py     Val( 2p)     1.21891
   158    C   11  py     Ryd( 3p)     0.00310
   159    C   11  pz     Val( 2p)     1.22836
   160    C   11  pz     Ryd( 3p)     0.00113
   161    C   11  dxy    Ryd( 3d)     0.00072
   162    C   11  dxz    Ryd( 3d)     0.00142
   163    C   11  dyz    Ryd( 3d)     0.00045
   164    C   11  dx2y2  Ryd( 3d)     0.00114
   165    C   11  dz2    Ryd( 3d)     0.00090
 
   166    C   12  S      Cor( 1S)     1.99945
   167    C   12  S      Val( 2S)     1.08828
   168    C   12  S      Ryd( 3S)     0.00104
   169    C   12  S      Ryd( 4S)     0.00002
   170    C   12  px     Val( 2p)     1.27471
   171    C   12  px     Ryd( 3p)     0.00320
   172    C   12  py     Val( 2p)     0.85928
   173    C   12  py     Ryd( 3p)     0.00208
   174    C   12  pz     Val( 2p)     1.23895
   175    C   12  pz     Ryd( 3p)     0.00085
   176    C   12  dxy    Ryd( 3d)     0.00051
   177    C   12  dxz    Ryd( 3d)     0.00074
   178    C   12  dyz    Ryd( 3d)     0.00119
   179    C   12  dx2y2  Ryd( 3d)     0.00131
   180    C   12  dz2    Ryd( 3d)     0.00084
 
   181    H   13  S      Val( 1S)     0.73793
   182    H   13  S      Ryd( 2S)     0.00171
 
   183    H   14  S      Val( 1S)     0.77424
   184    H   14  S      Ryd( 2S)     0.00127
 
   185    H   15  S      Val( 1S)     0.77339
   186    H   15  S      Ryd( 2S)     0.00128
 
   187    H   16  S      Val( 1S)     0.73208
   188    H   16  S      Ryd( 2S)     0.00190
 
   189    H   17  S      Val( 1S)     0.77316
   190    H   17  S      Ryd( 2S)     0.00135
 
   191    H   18  S      Val( 1S)     0.77511
   192    H   18  S      Ryd( 2S)     0.00155
 
   193    H   19  S      Val( 1S)     0.73793
   194    H   19  S      Ryd( 2S)     0.00171
 
   195    H   20  S      Val( 1S)     0.77339
   196    H   20  S      Ryd( 2S)     0.00128
 
   197    H   21  S      Val( 1S)     0.77424
   198    H   21  S      Ryd( 2S)     0.00127
 
   199    H   22  S      Val( 1S)     0.73208
   200    H   22  S      Ryd( 2S)     0.00190
 
   201    H   23  S      Val( 1S)     0.77511
   202    H   23  S      Ryd( 2S)     0.00155
 
   203    H   24  S      Val( 1S)     0.77316
   204    H   24  S      Ryd( 2S)     0.00135


 Summary of Natural Population Analysis:                  
                                                          
                                       Natural Population 
                Natural  -----------------------------------------------
    Atom  No    Charge         Core      Valence    Rydberg      Total
 -----------------------------------------------------------------------
      C    1    0.79150      1.99935     3.16276    0.04640     5.20850
      O    2   -0.56891      1.99979     6.55042    0.01871     8.56891
      N    3   -0.24644      1.99941     5.22072    0.02631     7.24644
      N    4   -0.24641      1.99941     5.22069    0.02631     7.24641
      C    5    0.79151      1.99935     3.16275    0.04640     5.20849
      O    6   -0.56890      1.99979     6.55041    0.01871     8.56890
      N    7   -0.45844      1.99930     5.44839    0.01076     7.45844
      C    8   -0.47032      1.99947     4.45890    0.01196     6.47032
      C    9   -0.47244      1.99945     4.46122    0.01177     6.47244
      N   10   -0.45844      1.99930     5.44839    0.01076     7.45844
      C   11   -0.47032      1.99947     4.45889    0.01196     6.47032
      C   12   -0.47244      1.99945     4.46122    0.01177     6.47244
      H   13    0.26036      0.00000     0.73793    0.00171     0.73964
      H   14    0.22449      0.00000     0.77424    0.00127     0.77551
      H   15    0.22533      0.00000     0.77339    0.00128     0.77467
      H   16    0.26602      0.00000     0.73208    0.00190     0.73398
      H   17    0.22548      0.00000     0.77316    0.00135     0.77452
      H   18    0.22334      0.00000     0.77511    0.00155     0.77666
      H   19    0.26036      0.00000     0.73793    0.00171     0.73964
      H   20    0.22533      0.00000     0.77339    0.00128     0.77467
      H   21    0.22449      0.00000     0.77424    0.00127     0.77551
      H   22    0.26602      0.00000     0.73208    0.00190     0.73398
      H   23    0.22334      0.00000     0.77511    0.00155     0.77666
      H   24    0.22548      0.00000     0.77316    0.00135     0.77452
 =======================================================================
   * Total *   -0.00000     23.99350    67.73657    0.26992    92.00000

                                 Natural Population      
 --------------------------------------------------------
   Core                      23.99350 ( 99.9729% of  24)
   Valence                   67.73657 ( 99.6126% of  68)
   Natural Minimal Basis     91.73008 ( 99.7066% of  92)
   Natural Rydberg Basis      0.26992 (  0.2934% of  92)
 --------------------------------------------------------

    Atom  No          Natural Electron Configuration
 ----------------------------------------------------------------------------
      C    1      [core]2S( 0.74)2p( 2.43)3p( 0.03)3d( 0.01)
      O    2      [core]2S( 1.70)2p( 4.85)3d( 0.02)
      N    3      [core]2S( 1.40)2p( 3.82)3S( 0.01)3p( 0.01)3d( 0.01)
      N    4      [core]2S( 1.40)2p( 3.82)3S( 0.01)3p( 0.01)3d( 0.01)
      C    5      [core]2S( 0.74)2p( 2.43)3p( 0.03)3d( 0.01)
      O    6      [core]2S( 1.70)2p( 4.85)3d( 0.02)
      N    7      [core]2S( 1.21)2p( 4.24)3p( 0.01)
      C    8      [core]2S( 1.09)2p( 3.37)3p( 0.01)
      C    9      [core]2S( 1.09)2p( 3.37)3p( 0.01)
      N   10      [core]2S( 1.21)2p( 4.24)3p( 0.01)
      C   11      [core]2S( 1.09)2p( 3.37)3p( 0.01)
      C   12      [core]2S( 1.09)2p( 3.37)3p( 0.01)
      H   13            1S( 0.74)
      H   14            1S( 0.77)
      H   15            1S( 0.77)
      H   16            1S( 0.73)
      H   17            1S( 0.77)
      H   18            1S( 0.78)
      H   19            1S( 0.74)
      H   20            1S( 0.77)
      H   21            1S( 0.77)
      H   22            1S( 0.73)
      H   23            1S( 0.78)
      H   24            1S( 0.77)


 NBO analysis skipped by request.
 1\1\GINC-DELLA-R2C2N7\SP\RB3LYP TD-FC\6-31G(d)\C6H12N4O2\BJS4\22-Aug-2
 020\0\\# TD(NStates=10, Root=1) B3LYP/6-31G* scf=qc volume pop=NPA den
 sity=current Geom=AllCheck Guess=Read\\Title Card Required\\0,1\C,0,1.
 8467679937,0.0161073908,0.9314842119\O,0,1.6177106611,-0.984144568,1.5
 912801365\N,0,1.3881190852,1.3172921502,1.4198040683\N,0,0.1515367844,
 1.4334725019,1.3605795728\C,0,-0.3071441094,2.7346209241,1.8489297569\
 O,0,-0.0785813368,3.7348081059,1.1888658173\N,0,-1.0667488739,2.656716
 3763,2.9703871248\C,0,-1.6646213712,3.8710015378,3.5053060946\C,0,-1.2
 534163849,1.4300784562,3.7355611255\N,0,2.6069140591,0.0940185085,-0.1
 896190771\C,0,3.2047009739,-1.120336555,-0.7244832834\C,0,2.7941449871
 ,1.3207065419,-0.9545779931\H,0,-1.4500584658,4.6938244213,2.824019015
 2\H,0,-1.2511989701,4.1002350924,4.495844257\H,0,-2.7503963778,3.74563
 45788,3.6010039227\H,0,-0.827976024,0.5795698151,3.2027418086\H,0,-2.3
 239430587,1.2489442469,3.8915786825\H,0,-0.7681118412,1.5096328544,4.7
 172672053\H,0,2.9897512169,-1.9431931382,-0.0433606372\H,0,4.290530934
 9,-0.9951764634,-0.8198197077\H,0,2.7915517789,-1.3493753681,-1.715181
 3872\H,0,2.3687047987,2.1712381138,-0.4217979251\H,0,2.3091722593,1.24
 13894659,-1.9364677079\H,0,3.8647712803,1.5015950107,-1.1101950812\\Ve
 rsion=ES64L-G16RevA.03\State=1-A\HF=-605.2793301\RMSD=6.008e-09\Dipole
 =0.0005851,0.0000492,0.0004112\Quadrupole=3.9519234,-8.5633864,4.61146
 3,-3.1387814,-9.6648371,6.968007\PG=C01 [X(C6H12N4O2)]\\@


 IT IS BETTER TO THINK YOU ARE HALF DRY THAN TO KNOW YOU
 ARE ALL WET.  -- SNOOPY
 Job cpu time:       0 days  0 hours 12 minutes 54.2 seconds.
 Elapsed time:       0 days  0 hours  4 minutes 23.9 seconds.
 File lengths (MBytes):  RWF=    400 Int=      0 D2E=      0 Chk=     24 Scr=      1
 Normal termination of Gaussian 16 at Sat Aug 22 18:12:23 2020.
