 Entering Gaussian System, Link 0=g16
 Input=azadicarboxylate_1_conf17123.com
 Output=azadicarboxylate_1_conf17123.log
 Initial command:
 /opt/export//g16/l1.exe "/scratch/bjs4/job.124958/Gau-124960.inp" -scrdir="/scratch/bjs4/job.124958/"
 Entering Link 1 = /opt/export//g16/l1.exe PID=    124961.
  
 Copyright (c) 1988,1990,1992,1993,1995,1998,2003,2009,2016,
            Gaussian, Inc.  All Rights Reserved.
  
 This is part of the Gaussian(R) 16 program.  It is based on
 the Gaussian(R) 09 system (copyright 2009, Gaussian, Inc.),
 the Gaussian(R) 03 system (copyright 2003, Gaussian, Inc.),
 the Gaussian(R) 98 system (copyright 1998, Gaussian, Inc.),
 the Gaussian(R) 94 system (copyright 1995, Gaussian, Inc.),
 the Gaussian 92(TM) system (copyright 1992, Gaussian, Inc.),
 the Gaussian 90(TM) system (copyright 1990, Gaussian, Inc.),
 the Gaussian 88(TM) system (copyright 1988, Gaussian, Inc.),
 the Gaussian 86(TM) system (copyright 1986, Carnegie Mellon
 University), and the Gaussian 82(TM) system (copyright 1983,
 Carnegie Mellon University). Gaussian is a federally registered
 trademark of Gaussian, Inc.
  
 This software contains proprietary and confidential information,
 including trade secrets, belonging to Gaussian, Inc.
  
 This software is provided under written license and may be
 used, copied, transmitted, or stored only in accord with that
 written license.
  
 The following legend is applicable only to US Government
 contracts under FAR:
  
                    RESTRICTED RIGHTS LEGEND
  
 Use, reproduction and disclosure by the US Government is
 subject to restrictions as set forth in subparagraphs (a)
 and (c) of the Commercial Computer Software - Restricted
 Rights clause in FAR 52.227-19.
  
 Gaussian, Inc.
 340 Quinnipiac St., Bldg. 40, Wallingford CT 06492
  
  
 ---------------------------------------------------------------
 Warning -- This program may not be used in any manner that
 competes with the business of Gaussian, Inc. or will provide
 assistance to any competitor of Gaussian, Inc.  The licensee
 of this program is prohibited from giving any competitor of
 Gaussian, Inc. access to this program.  By using this program,
 the user acknowledges that Gaussian, Inc. is engaged in the
 business of creating and licensing software in the field of
 computational chemistry and represents and warrants to the
 licensee that it is not a competitor of Gaussian, Inc. and that
 it will not use this program in any manner prohibited above.
 ---------------------------------------------------------------
  

 Cite this work as:
 Gaussian 16, Revision A.03,
 M. J. Frisch, G. W. Trucks, H. B. Schlegel, G. E. Scuseria, 
 M. A. Robb, J. R. Cheeseman, G. Scalmani, V. Barone, 
 G. A. Petersson, H. Nakatsuji, X. Li, M. Caricato, A. V. Marenich, 
 J. Bloino, B. G. Janesko, R. Gomperts, B. Mennucci, H. P. Hratchian, 
 J. V. Ortiz, A. F. Izmaylov, J. L. Sonnenberg, D. Williams-Young, 
 F. Ding, F. Lipparini, F. Egidi, J. Goings, B. Peng, A. Petrone, 
 T. Henderson, D. Ranasinghe, V. G. Zakrzewski, J. Gao, N. Rega, 
 G. Zheng, W. Liang, M. Hada, M. Ehara, K. Toyota, R. Fukuda, 
 J. Hasegawa, M. Ishida, T. Nakajima, Y. Honda, O. Kitao, H. Nakai, 
 T. Vreven, K. Throssell, J. A. Montgomery, Jr., J. E. Peralta, 
 F. Ogliaro, M. J. Bearpark, J. J. Heyd, E. N. Brothers, K. N. Kudin, 
 V. N. Staroverov, T. A. Keith, R. Kobayashi, J. Normand, 
 K. Raghavachari, A. P. Rendell, J. C. Burant, S. S. Iyengar, 
 J. Tomasi, M. Cossi, J. M. Millam, M. Klene, C. Adamo, R. Cammi, 
 J. W. Ochterski, R. L. Martin, K. Morokuma, O. Farkas, 
 J. B. Foresman, and D. J. Fox, Gaussian, Inc., Wallingford CT, 2016.
 
 ******************************************
 Gaussian 16:  ES64L-G16RevA.03 25-Dec-2016
                22-Aug-2020 
 ******************************************
 %nprocshared=5
 Will use up to    5 processors via shared memory.
 %Mem=10GB
 %Chk=azadicarboxylate_1_conf171.chk
 ---------------------------------
 # opt=CalcAll B3LYP/6-31G* scf=qc
 ---------------------------------
 1/10=4,18=20,19=15,26=3,38=1/1,3;
 2/9=110,12=2,17=6,18=5,40=1/2;
 3/5=1,6=6,7=1,11=2,25=1,30=1,71=2,74=-5,140=1/1,2,3;
 4//1;
 5/5=2,8=3,38=5/8;
 8/6=4,10=90,11=11/1;
 11/6=1,8=1,9=11,15=111,16=1/1,2,10;
 10/6=1/2;
 6/7=2,8=2,9=2,10=2,18=1,28=1/1;
 7/10=1,25=1/1,2,3,16;
 1/10=4,18=20,19=15,26=3/3(3);
 2/9=110/2;
 7/8=1,9=1,25=1,44=-1/16;
 99//99;
 2/9=110/2;
 3/5=1,6=6,7=1,11=2,25=1,30=1,71=2,74=-5,140=1/1,2,3;
 4/5=5,16=3,69=1/1;
 5/5=2,8=3,38=5/8;
 8/6=4,10=90,11=11/1;
 11/6=1,8=1,9=11,15=111,16=1/1,2,10;
 10/6=1/2;
 7/10=1,25=1/1,2,3,16;
 1/10=4,18=20,19=15,26=3/3(-8);
 2/9=110/2;
 6/7=2,8=2,9=2,10=2,18=1,19=2,28=1/1;
 7/8=1,9=1,25=1,44=-1/16;
 99//99;
 -------------------
 Title Card Required
 -------------------
 Symbolic Z-matrix:
 Charge =  0 Multiplicity = 1
 C                     4.81905   1.51034  -1.48177 
 C                     5.6886    0.56385  -0.64437 
 C                     5.25655  -0.90115  -0.78748 
 C                     7.1372    0.68182  -1.15099 
 O1                    5.71418   0.97604   0.74969 
 C2                    4.6771    0.6551    1.5808 
 O3                    3.68618   0.02232   1.23381 
 N4                    4.9172    1.1559    2.8418 
 N5                    6.1448    1.2226    3.0972 
 C6                    6.3853    1.7078    4.365 
 O7                    7.36659   2.35504   4.7122 
 O8                    5.36009   1.35588   5.19642 
 C                     5.38423   1.74883   6.59339 
 C                     4.92823   3.20273   6.77418 
 C                     4.36658   0.84135   7.30665 
 C                     6.76246   1.49001   7.21622 
 H                     4.86236   1.25528  -2.5459 
 H                     5.15263   2.54756  -1.36036 
 H                     3.76825   1.4855   -1.18112 
 H                     5.31748  -1.23377  -1.82948 
 H                     4.22993  -1.06811  -0.45156 
 H                     5.89366  -1.55303  -0.17891 
 H                     7.21869   0.39097  -2.20493 
 H                     7.81311   0.04675  -0.56702 
 H                     7.5082    1.7082   -1.04961 
 H                     3.93909   3.35557   6.32722 
 H                     5.60122   3.91432   6.28957 
 H                     4.8734    3.47345   7.83422 
 H                     3.36295   0.96334   6.88281 
 H                     4.31461   1.06089   8.37927 
 H                     4.62898  -0.2163    7.18579 
 H                     7.54523   2.10452   6.76426 
 H                     7.06112   0.44594   7.06687 
 H                     6.7601    1.69941   8.29125 
 

 GradGradGradGradGradGradGradGradGradGradGradGradGradGradGradGradGradGrad
 Berny optimization.
 Initialization pass.
                           ----------------------------
                           !    Initial Parameters    !
                           ! (Angstroms and Degrees)  !
 --------------------------                            --------------------------
 ! Name  Definition              Value          Derivative Info.                !
 --------------------------------------------------------------------------------
 ! R1    R(1,2)                  1.534          calculate D2E/DX2 analytically  !
 ! R2    R(1,17)                 1.0951         calculate D2E/DX2 analytically  !
 ! R3    R(1,18)                 1.0963         calculate D2E/DX2 analytically  !
 ! R4    R(1,19)                 1.0932         calculate D2E/DX2 analytically  !
 ! R5    R(2,3)                  1.5341         calculate D2E/DX2 analytically  !
 ! R6    R(2,4)                  1.5392         calculate D2E/DX2 analytically  !
 ! R7    R(2,5)                  1.4539         calculate D2E/DX2 analytically  !
 ! R8    R(3,20)                 1.0955         calculate D2E/DX2 analytically  !
 ! R9    R(3,21)                 1.093          calculate D2E/DX2 analytically  !
 ! R10   R(3,22)                 1.096          calculate D2E/DX2 analytically  !
 ! R11   R(4,23)                 1.0964         calculate D2E/DX2 analytically  !
 ! R12   R(4,24)                 1.096          calculate D2E/DX2 analytically  !
 ! R13   R(4,25)                 1.0961         calculate D2E/DX2 analytically  !
 ! R14   R(5,6)                  1.3672         calculate D2E/DX2 analytically  !
 ! R15   R(6,7)                  1.2259         calculate D2E/DX2 analytically  !
 ! R16   R(6,8)                  1.3779         calculate D2E/DX2 analytically  !
 ! R17   R(8,9)                  1.2557         calculate D2E/DX2 analytically  !
 ! R18   R(9,10)                 1.3786         calculate D2E/DX2 analytically  !
 ! R19   R(10,11)                1.2257         calculate D2E/DX2 analytically  !
 ! R20   R(10,12)                1.3661         calculate D2E/DX2 analytically  !
 ! R21   R(12,13)                1.4514         calculate D2E/DX2 analytically  !
 ! R22   R(13,14)                1.5344         calculate D2E/DX2 analytically  !
 ! R23   R(13,15)                1.5388         calculate D2E/DX2 analytically  !
 ! R24   R(13,16)                1.5344         calculate D2E/DX2 analytically  !
 ! R25   R(14,26)                1.0961         calculate D2E/DX2 analytically  !
 ! R26   R(14,27)                1.0928         calculate D2E/DX2 analytically  !
 ! R27   R(14,28)                1.0954         calculate D2E/DX2 analytically  !
 ! R28   R(15,29)                1.0963         calculate D2E/DX2 analytically  !
 ! R29   R(15,30)                1.0961         calculate D2E/DX2 analytically  !
 ! R30   R(15,31)                1.0964         calculate D2E/DX2 analytically  !
 ! R31   R(16,32)                1.093          calculate D2E/DX2 analytically  !
 ! R32   R(16,33)                1.0962         calculate D2E/DX2 analytically  !
 ! R33   R(16,34)                1.0952         calculate D2E/DX2 analytically  !
 ! A1    A(2,1,17)             111.3655         calculate D2E/DX2 analytically  !
 ! A2    A(2,1,18)             110.5377         calculate D2E/DX2 analytically  !
 ! A3    A(2,1,19)             112.3768         calculate D2E/DX2 analytically  !
 ! A4    A(17,1,18)            108.4172         calculate D2E/DX2 analytically  !
 ! A5    A(17,1,19)            107.4542         calculate D2E/DX2 analytically  !
 ! A6    A(18,1,19)            106.4697         calculate D2E/DX2 analytically  !
 ! A7    A(1,2,3)              112.2503         calculate D2E/DX2 analytically  !
 ! A8    A(1,2,4)              107.8498         calculate D2E/DX2 analytically  !
 ! A9    A(1,2,5)              111.0055         calculate D2E/DX2 analytically  !
 ! A10   A(3,2,4)              107.9119         calculate D2E/DX2 analytically  !
 ! A11   A(3,2,5)              111.4158         calculate D2E/DX2 analytically  !
 ! A12   A(4,2,5)              106.0996         calculate D2E/DX2 analytically  !
 ! A13   A(2,3,20)             111.2859         calculate D2E/DX2 analytically  !
 ! A14   A(2,3,21)             112.4412         calculate D2E/DX2 analytically  !
 ! A15   A(2,3,22)             110.6394         calculate D2E/DX2 analytically  !
 ! A16   A(20,3,21)            107.3488         calculate D2E/DX2 analytically  !
 ! A17   A(20,3,22)            108.3746         calculate D2E/DX2 analytically  !
 ! A18   A(21,3,22)            106.5284         calculate D2E/DX2 analytically  !
 ! A19   A(2,4,23)             111.4714         calculate D2E/DX2 analytically  !
 ! A20   A(2,4,24)             111.1391         calculate D2E/DX2 analytically  !
 ! A21   A(2,4,25)             111.0936         calculate D2E/DX2 analytically  !
 ! A22   A(23,4,24)            108.2189         calculate D2E/DX2 analytically  !
 ! A23   A(23,4,25)            108.1902         calculate D2E/DX2 analytically  !
 ! A24   A(24,4,25)            106.5336         calculate D2E/DX2 analytically  !
 ! A25   A(2,5,6)              120.1956         calculate D2E/DX2 analytically  !
 ! A26   A(5,6,7)              124.2124         calculate D2E/DX2 analytically  !
 ! A27   A(5,6,8)              109.8052         calculate D2E/DX2 analytically  !
 ! A28   A(7,6,8)              125.9809         calculate D2E/DX2 analytically  !
 ! A29   A(6,8,9)              112.0744         calculate D2E/DX2 analytically  !
 ! A30   A(8,9,10)             112.1045         calculate D2E/DX2 analytically  !
 ! A31   A(9,10,11)            125.8736         calculate D2E/DX2 analytically  !
 ! A32   A(9,10,12)            109.7618         calculate D2E/DX2 analytically  !
 ! A33   A(11,10,12)           124.3643         calculate D2E/DX2 analytically  !
 ! A34   A(10,12,13)           120.2366         calculate D2E/DX2 analytically  !
 ! A35   A(12,13,14)           111.4074         calculate D2E/DX2 analytically  !
 ! A36   A(12,13,15)           105.9904         calculate D2E/DX2 analytically  !
 ! A37   A(12,13,16)           111.0978         calculate D2E/DX2 analytically  !
 ! A38   A(14,13,15)           107.9171         calculate D2E/DX2 analytically  !
 ! A39   A(14,13,16)           112.2675         calculate D2E/DX2 analytically  !
 ! A40   A(15,13,16)           107.8421         calculate D2E/DX2 analytically  !
 ! A41   A(13,14,26)           110.6247         calculate D2E/DX2 analytically  !
 ! A42   A(13,14,27)           112.4416         calculate D2E/DX2 analytically  !
 ! A43   A(13,14,28)           111.288          calculate D2E/DX2 analytically  !
 ! A44   A(26,14,27)           106.506          calculate D2E/DX2 analytically  !
 ! A45   A(26,14,28)           108.3581         calculate D2E/DX2 analytically  !
 ! A46   A(27,14,28)           107.3999         calculate D2E/DX2 analytically  !
 ! A47   A(13,15,29)           111.1381         calculate D2E/DX2 analytically  !
 ! A48   A(13,15,30)           111.5203         calculate D2E/DX2 analytically  !
 ! A49   A(13,15,31)           111.0709         calculate D2E/DX2 analytically  !
 ! A50   A(29,15,30)           108.2189         calculate D2E/DX2 analytically  !
 ! A51   A(29,15,31)           106.4891         calculate D2E/DX2 analytically  !
 ! A52   A(30,15,31)           108.2061         calculate D2E/DX2 analytically  !
 ! A53   A(13,16,32)           112.3706         calculate D2E/DX2 analytically  !
 ! A54   A(13,16,33)           110.4923         calculate D2E/DX2 analytically  !
 ! A55   A(13,16,34)           111.3604         calculate D2E/DX2 analytically  !
 ! A56   A(32,16,33)           106.5016         calculate D2E/DX2 analytically  !
 ! A57   A(32,16,34)           107.4534         calculate D2E/DX2 analytically  !
 ! A58   A(33,16,34)           108.4469         calculate D2E/DX2 analytically  !
 ! D1    D(17,1,2,3)           -59.3136         calculate D2E/DX2 analytically  !
 ! D2    D(17,1,2,4)            59.4271         calculate D2E/DX2 analytically  !
 ! D3    D(17,1,2,5)           175.2582         calculate D2E/DX2 analytically  !
 ! D4    D(18,1,2,3)          -179.8997         calculate D2E/DX2 analytically  !
 ! D5    D(18,1,2,4)           -61.159          calculate D2E/DX2 analytically  !
 ! D6    D(18,1,2,5)            54.6721         calculate D2E/DX2 analytically  !
 ! D7    D(19,1,2,3)            61.3077         calculate D2E/DX2 analytically  !
 ! D8    D(19,1,2,4)          -179.9516         calculate D2E/DX2 analytically  !
 ! D9    D(19,1,2,5)           -64.1205         calculate D2E/DX2 analytically  !
 ! D10   D(1,2,3,20)            59.4903         calculate D2E/DX2 analytically  !
 ! D11   D(1,2,3,21)           -60.9838         calculate D2E/DX2 analytically  !
 ! D12   D(1,2,3,22)          -179.9618         calculate D2E/DX2 analytically  !
 ! D13   D(4,2,3,20)           -59.2138         calculate D2E/DX2 analytically  !
 ! D14   D(4,2,3,21)          -179.6879         calculate D2E/DX2 analytically  !
 ! D15   D(4,2,3,22)            61.334          calculate D2E/DX2 analytically  !
 ! D16   D(5,2,3,20)          -175.3062         calculate D2E/DX2 analytically  !
 ! D17   D(5,2,3,21)            64.2197         calculate D2E/DX2 analytically  !
 ! D18   D(5,2,3,22)           -54.7584         calculate D2E/DX2 analytically  !
 ! D19   D(1,2,4,23)           -60.8741         calculate D2E/DX2 analytically  !
 ! D20   D(1,2,4,24)           178.3097         calculate D2E/DX2 analytically  !
 ! D21   D(1,2,4,25)            59.8743         calculate D2E/DX2 analytically  !
 ! D22   D(3,2,4,23)            60.6024         calculate D2E/DX2 analytically  !
 ! D23   D(3,2,4,24)           -60.2137         calculate D2E/DX2 analytically  !
 ! D24   D(3,2,4,25)          -178.6492         calculate D2E/DX2 analytically  !
 ! D25   D(5,2,4,23)          -179.8803         calculate D2E/DX2 analytically  !
 ! D26   D(5,2,4,24)            59.3036         calculate D2E/DX2 analytically  !
 ! D27   D(5,2,4,25)           -59.1318         calculate D2E/DX2 analytically  !
 ! D28   D(1,2,5,6)             80.4701         calculate D2E/DX2 analytically  !
 ! D29   D(3,2,5,6)            -45.424          calculate D2E/DX2 analytically  !
 ! D30   D(4,2,5,6)           -162.6211         calculate D2E/DX2 analytically  !
 ! D31   D(2,5,6,7)              0.0001         calculate D2E/DX2 analytically  !
 ! D32   D(2,5,6,8)           -179.5804         calculate D2E/DX2 analytically  !
 ! D33   D(5,6,8,9)            -29.6471         calculate D2E/DX2 analytically  !
 ! D34   D(7,6,8,9)            150.7816         calculate D2E/DX2 analytically  !
 ! D35   D(6,8,9,10)          -179.2377         calculate D2E/DX2 analytically  !
 ! D36   D(8,9,10,11)         -149.6469         calculate D2E/DX2 analytically  !
 ! D37   D(8,9,10,12)           30.5588         calculate D2E/DX2 analytically  !
 ! D38   D(9,10,12,13)         179.7974         calculate D2E/DX2 analytically  !
 ! D39   D(11,10,12,13)         -0.0007         calculate D2E/DX2 analytically  !
 ! D40   D(10,12,13,14)         80.4708         calculate D2E/DX2 analytically  !
 ! D41   D(10,12,13,15)       -162.3945         calculate D2E/DX2 analytically  !
 ! D42   D(10,12,13,16)        -45.5101         calculate D2E/DX2 analytically  !
 ! D43   D(12,13,14,26)         55.119          calculate D2E/DX2 analytically  !
 ! D44   D(12,13,14,27)        -63.8209         calculate D2E/DX2 analytically  !
 ! D45   D(12,13,14,28)        175.6375         calculate D2E/DX2 analytically  !
 ! D46   D(15,13,14,26)        -60.84           calculate D2E/DX2 analytically  !
 ! D47   D(15,13,14,27)       -179.78           calculate D2E/DX2 analytically  !
 ! D48   D(15,13,14,28)         59.6784         calculate D2E/DX2 analytically  !
 ! D49   D(16,13,14,26)       -179.5484         calculate D2E/DX2 analytically  !
 ! D50   D(16,13,14,27)         61.5117         calculate D2E/DX2 analytically  !
 ! D51   D(16,13,14,28)        -59.0299         calculate D2E/DX2 analytically  !
 ! D52   D(12,13,15,29)        -59.3889         calculate D2E/DX2 analytically  !
 ! D53   D(12,13,15,30)        179.762          calculate D2E/DX2 analytically  !
 ! D54   D(12,13,15,31)         58.9755         calculate D2E/DX2 analytically  !
 ! D55   D(14,13,15,29)         60.0629         calculate D2E/DX2 analytically  !
 ! D56   D(14,13,15,30)        -60.7861         calculate D2E/DX2 analytically  !
 ! D57   D(14,13,15,31)        178.4274         calculate D2E/DX2 analytically  !
 ! D58   D(16,13,15,29)       -178.4412         calculate D2E/DX2 analytically  !
 ! D59   D(16,13,15,30)         60.7097         calculate D2E/DX2 analytically  !
 ! D60   D(16,13,15,31)        -60.0768         calculate D2E/DX2 analytically  !
 ! D61   D(12,13,16,32)         64.5404         calculate D2E/DX2 analytically  !
 ! D62   D(12,13,16,33)        -54.2577         calculate D2E/DX2 analytically  !
 ! D63   D(12,13,16,34)       -174.8472         calculate D2E/DX2 analytically  !
 ! D64   D(14,13,16,32)        -60.9615         calculate D2E/DX2 analytically  !
 ! D65   D(14,13,16,33)       -179.7596         calculate D2E/DX2 analytically  !
 ! D66   D(14,13,16,34)         59.6508         calculate D2E/DX2 analytically  !
 ! D67   D(15,13,16,32)       -179.714          calculate D2E/DX2 analytically  !
 ! D68   D(15,13,16,33)         61.4879         calculate D2E/DX2 analytically  !
 ! D69   D(15,13,16,34)        -59.1016         calculate D2E/DX2 analytically  !
 --------------------------------------------------------------------------------
 Trust Radius=3.00D-01 FncErr=1.00D-07 GrdErr=1.00D-06 EigMax=2.50D+02 EigMin=1.00D-04
 Number of steps in this run=    170 maximum allowed number of steps=    204.
 GradGradGradGradGradGradGradGradGradGradGradGradGradGradGradGradGradGrad

                          Input orientation:                          
 ---------------------------------------------------------------------
 Center     Atomic      Atomic             Coordinates (Angstroms)
 Number     Number       Type             X           Y           Z
 ---------------------------------------------------------------------
      1          6           0        4.819050    1.510340   -1.481770
      2          6           0        5.688600    0.563850   -0.644370
      3          6           0        5.256550   -0.901150   -0.787480
      4          6           0        7.137200    0.681820   -1.150990
      5          8           0        5.714180    0.976040    0.749690
      6          6           0        4.677100    0.655100    1.580800
      7          8           0        3.686180    0.022320    1.233810
      8          7           0        4.917200    1.155900    2.841800
      9          7           0        6.144800    1.222600    3.097200
     10          6           0        6.385300    1.707800    4.365000
     11          8           0        7.366590    2.355040    4.712200
     12          8           0        5.360090    1.355880    5.196420
     13          6           0        5.384230    1.748830    6.593390
     14          6           0        4.928230    3.202730    6.774180
     15          6           0        4.366580    0.841350    7.306650
     16          6           0        6.762460    1.490010    7.216220
     17          1           0        4.862360    1.255280   -2.545900
     18          1           0        5.152630    2.547560   -1.360360
     19          1           0        3.768250    1.485500   -1.181120
     20          1           0        5.317480   -1.233770   -1.829480
     21          1           0        4.229930   -1.068110   -0.451560
     22          1           0        5.893660   -1.553030   -0.178910
     23          1           0        7.218690    0.390970   -2.204930
     24          1           0        7.813110    0.046750   -0.567020
     25          1           0        7.508200    1.708200   -1.049610
     26          1           0        3.939090    3.355570    6.327220
     27          1           0        5.601220    3.914320    6.289570
     28          1           0        4.873400    3.473450    7.834220
     29          1           0        3.362950    0.963340    6.882810
     30          1           0        4.314610    1.060890    8.379270
     31          1           0        4.628980   -0.216300    7.185790
     32          1           0        7.545230    2.104520    6.764260
     33          1           0        7.061120    0.445940    7.066870
     34          1           0        6.760100    1.699410    8.291250
 ---------------------------------------------------------------------
                    Distance matrix (angstroms):
                    1          2          3          4          5
     1  C    0.000000
     2  C    1.534014   0.000000
     3  C    2.547298   1.534071   0.000000
     4  C    2.483884   1.539163   2.484910   0.000000
     5  O    2.462955   1.453946   2.469040   2.392517   0.000000
     6  C    3.182911   2.445985   2.892478   3.676341   1.367217
     7  O    3.297267   2.798303   2.721116   4.246381   2.292758
     8  N    4.339184   3.619249   4.185485   4.592986   2.245986
     9  N    4.775707   3.826410   4.515533   4.395955   2.399381
    10  C    6.056141   5.185345   5.884620   5.660754   3.749179
    11  O    6.750462   5.892101   6.730641   6.101580   4.509278
    12  O    6.701851   5.903394   6.396246   6.625865   4.476948
    13  C    8.098427   7.340435   7.843210   8.011669   5.903804
    14  C    8.428334   7.910546   8.609781   8.604816   6.470730
    15  C    8.825452   8.064953   8.327262   8.901318   6.695363
    16  C    8.912479   7.987479   8.487911   8.414500   6.571078
    17  H    1.095127   2.185535   2.810270   2.729382   3.415331
    18  H    1.096285   2.176008   3.497512   2.731911   2.690228
    19  H    1.093247   2.196653   2.840086   3.463616   2.788229
    20  H    2.810600   2.184869   1.095496   2.727859   3.419466
    21  H    2.838450   2.197314   1.093008   3.464632   2.797240
    22  H    3.498066   2.177127   1.095999   2.736035   2.700131
    23  H    2.744854   2.192353   2.743853   1.096368   3.366844
    24  H    3.455902   2.187903   2.735528   1.095988   2.646283
    25  H    2.730831   2.187396   3.456493   1.096072   2.644248
    26  H    8.072145   7.710872   8.394899   8.561569   6.318382
    27  H    8.172187   7.701481   8.566924   8.256526   6.271883
    28  H    9.520737   9.000934   9.675621   9.677396   7.558739
    29  H    8.507975   7.888389   8.117598   8.880662   6.568379
    30  H    9.884158   9.141169   9.421579   9.946686   7.757350
    31  H    8.839910   7.939952   8.027197   8.752125   6.634962
    32  H    8.705293   7.791568   8.443985   8.052437   6.387587
    33  H    8.901633   7.833322   8.170798   8.221597   6.480896
    34  H    9.965708   9.070993   9.562788   9.504398   7.648029
                    6          7          8          9         10
     6  C    0.000000
     7  O    1.225861   0.000000
     8  N    1.377886   2.320786   0.000000
     9  N    2.185330   3.310243   1.255659   0.000000
    10  C    3.431894   4.464352   2.186332   1.378614   0.000000
    11  O    4.464171   5.575500   3.306939   2.320219   1.225723
    12  O    3.745701   4.503625   2.404242   2.245052   1.366076
    13  C    5.179029   5.881268   3.826762   3.616453   2.443266
    14  C    5.790050   6.507949   4.433198   4.349844   3.187792
    15  C    5.737288   6.165480   4.509657   4.585508   3.671413
    16  C    6.066610   6.885263   4.759429   4.173648   2.884292
    17  H    4.174229   4.146058   5.388896   5.787080   7.091168
    18  H    3.529583   3.906025   4.432865   4.754972   5.916453
    19  H    3.023867   2.824804   4.196738   4.901135   6.136596
    20  H    3.950687   3.690887   5.262281   5.566901   6.940076
    21  H    2.701833   2.079705   4.032962   4.637648   5.962428
    22  H    3.074481   3.057854   4.173304   4.301173   5.614431
    23  H    4.567406   4.943628   5.599237   5.473338   6.752226
    24  H    3.849387   4.502792   4.608314   4.194328   5.396531
    25  H    4.005397   4.760676   4.707588   4.392118   5.529820
    26  H    5.510508   6.092401   4.235965   4.455081   3.542513
    27  H    5.800778   6.661513   4.468096   4.210945   3.031086
    28  H    6.861989   7.542228   5.504290   5.396494   4.175985
    29  H    5.471134   5.735957   4.333882   4.704971   4.003522
    30  H    6.820210   7.247838   5.570971   5.592496   4.562961
    31  H    5.672527   6.030910   4.564674   4.591809   3.839750
    32  H    6.098791   7.057882   4.815819   4.023222   2.694304
    33  H    5.985337   6.752352   4.790788   4.147424   3.057634
    34  H    7.103493   7.878393   5.778251   5.252056   3.944108
                   11         12         13         14         15
    11  O    0.000000
    12  O    2.293214   0.000000
    13  C    2.799307   1.451385   0.000000
    14  C    3.303928   2.467121   1.534420   0.000000
    15  C    4.245290   2.388488   1.538789   2.484973   0.000000
    16  C    2.717235   2.462565   1.534413   2.548178   2.483783
    17  H    7.756330   7.758954   9.167473   9.521596   9.873696
    18  H    6.466426   6.667421   7.997109   8.163966   8.868263
    19  H    6.959553   6.574479   7.945045   8.220780   8.533180
    20  H    7.737699   7.488082   8.935608   9.687983   9.416964
    21  H    6.944135   6.249213   7.674561   8.422530   7.990903
    22  H    6.431601   6.135196   7.551546   8.479078   8.006162
    23  H    7.192088   7.691907   9.089525   9.683833   9.940198
    24  H    5.779078   6.399091   7.750355   8.495644   8.631607
    25  H    5.799734   6.614484   7.932739   8.372667   8.969297
    26  H    3.918814   2.701242   2.177358   1.096144   2.731910
    27  H    2.834781   2.792622   2.197439   1.092759   3.464381
    28  H    4.148957   3.417449   2.185159   1.095436   2.731876
    29  H    4.762091   2.643212   2.187769   2.734368   1.096264
    30  H    4.943360   3.363121   2.192422   2.745965   1.096090
    31  H    4.497215   2.638914   2.187025   3.456695   1.096396
    32  H    2.074999   2.791670   2.196732   2.838107   3.463178
    33  H    3.046711   2.687020   2.175699   3.497825   2.733933
    34  H    3.688805   3.414090   2.185907   2.813756   2.726654
                   16         17         18         19         20
    16  C    0.000000
    17  H    9.948089   0.000000
    18  H    8.790204   1.777568   0.000000
    19  H    8.915191   1.764285   1.754026   0.000000
    20  H    9.556759   2.629784   3.813883   3.196078   0.000000
    21  H    8.470687   3.191296   3.840620   2.695613   1.763199
    22  H    8.043808   3.814817   4.331257   3.841153   1.777158
    23  H    9.496005   2.532900   3.103672   3.761877   2.528901
    24  H    7.985342   3.752790   3.736521   4.336821   3.075989
    25  H    8.302270   3.073189   2.519881   3.748882   3.750019
    26  H    3.498865   9.164928   7.824605   7.739607   9.460114
    27  H    2.843315   9.256454   7.784002   8.066607   9.617812
    28  H    2.807936  10.614485   9.245298   9.297831  10.758356
    29  H    3.456185   9.551651   8.582690   8.090976   9.195188
    30  H    2.743866  10.940620   9.888016   9.585398  10.511412
    31  H    2.732061   9.845090   8.997211   8.581501   9.098592
    32  H    1.092986   9.726154   8.481171   8.819174   9.484694
    33  H    1.096169   9.894186   8.892544   8.941645   9.219910
    34  H    1.095237  11.011017   9.821247   9.935931  10.635501
                   21         22         23         24         25
    21  H    0.000000
    22  H    1.754276   0.000000
    23  H    3.759775   3.104770   0.000000
    24  H    3.754387   2.528678   1.776111   0.000000
    25  H    4.337351   3.741721   1.775859   1.756781   0.000000
    26  H    8.099715   8.381195   9.609486   8.572448   8.358827
    27  H    8.493991   8.474590   9.337384   8.177003   7.897284
    28  H    9.470690   9.514026  10.760418   9.537557   9.432959
    29  H    7.659728   7.912301   9.888446   8.726055   8.981158
    30  H    9.084237   9.086717  10.995807   9.659404   9.976062
    31  H    7.695059   7.591118   9.760174   8.385341   8.933948
    32  H    8.551307   8.019536   9.137245   7.619307   7.824002
    33  H    8.175254   7.606587   9.273302   7.681219   8.226204
    34  H    9.513025   9.114422  10.587356   9.072434   9.370774
                   26         27         28         29         30
    26  H    0.000000
    27  H    1.753937   0.000000
    28  H    1.777042   1.763528   0.000000
    29  H    2.522574   3.751009   3.080145   0.000000
    30  H    3.101206   3.763545   2.535699   1.776110   0.000000
    31  H    3.737826   4.337105   3.754259   1.756753   1.776074
    32  H    3.841923   2.698126   3.187077   4.336797   3.759565
    33  H    4.331293   3.842546   3.813235   3.738722   3.105459
    34  H    3.815544   3.202429   2.629778   3.750484   2.529007
                   31         32         33         34
    31  H    0.000000
    32  H    3.750788   0.000000
    33  H    2.523491   1.754087   0.000000
    34  H    3.071426   1.764155   1.777894   0.000000
 Stoichiometry    C10H18N2O4
 Framework group  C1[X(C10H18N2O4)]
 Deg. of freedom    96
 Full point group                 C1      NOp   1
 Largest Abelian subgroup         C1      NOp   1
 Largest concise Abelian subgroup C1      NOp   1
                         Standard orientation:                         
 ---------------------------------------------------------------------
 Center     Atomic      Atomic             Coordinates (Angstroms)
 Number     Number       Type             X           Y           Z
 ---------------------------------------------------------------------
      1          6           0       -4.326412   -0.168190    1.328122
      2          6           0       -3.665093    0.221509   -0.000032
      3          6           0       -4.082492   -0.703755   -1.150265
      4          6           0       -4.119505    1.649252   -0.352287
      5          8           0       -2.218693    0.280657    0.135560
      6          6           0       -1.476686   -0.866960    0.094550
      7          8           0       -1.949263   -1.988377   -0.053201
      8          7           0       -0.141485   -0.565508    0.252462
      9          7           0        0.140186    0.575462   -0.189724
     10          6           0        1.479196    0.871007   -0.047315
     11          8           0        1.954504    1.988779    0.117203
     12          8           0        2.215970   -0.276985   -0.121085
     13          6           0        3.661659   -0.226462   -0.002981
     14          6           0        4.100743   -0.131410    1.464198
     15          6           0        4.179927   -1.561186   -0.566703
     16          6           0        4.246607    0.904390   -0.859387
     17          1           0       -5.418563   -0.133278    1.255371
     18          1           0       -4.010739    0.510892    2.128770
     19          1           0       -4.051273   -1.176068    1.650098
     20          1           0       -5.166940   -0.682762   -1.304026
     21          1           0       -3.798551   -1.744214   -0.972815
     22          1           0       -3.595172   -0.402571   -2.084622
     23          1           0       -5.207673    1.705592   -0.473695
     24          1           0       -3.652679    1.994592   -1.281805
     25          1           0       -3.824955    2.360703    0.427746
     26          1           0        3.674897   -0.955070    2.048809
     27          1           0        3.765872    0.793171    1.940784
     28          1           0        5.191591   -0.170922    1.556231
     29          1           0        3.770893   -2.411495   -0.008615
     30          1           0        5.273737   -1.617842   -0.524501
     31          1           0        3.869947   -1.695461   -1.609759
     32          1           0        3.927554    1.892440   -0.517945
     33          1           0        3.911678    0.811057   -1.898953
     34          1           0        5.341658    0.889798   -0.845452
 ---------------------------------------------------------------------
 Rotational constants (GHZ):           1.3069256           0.2132017           0.2000285
 Standard basis: 6-31G(d) (6D, 7F)
 There are   276 symmetry adapted cartesian basis functions of A   symmetry.
 There are   276 symmetry adapted basis functions of A   symmetry.
   276 basis functions,   520 primitive gaussians,   276 cartesian basis functions
    62 alpha electrons       62 beta electrons
       nuclear repulsion energy      1165.2404131383 Hartrees.
 NAtoms=   34 NActive=   34 NUniq=   34 SFac= 1.00D+00 NAtFMM=   60 NAOKFM=F Big=F
 Integral buffers will be    131072 words long.
 Raffenetti 2 integral format.
 Two-electron integral symmetry is turned on.
 One-electron integrals computed using PRISM.
 NBasis=   276 RedAO= T EigKep=  2.17D-03  NBF=   276
 NBsUse=   276 1.00D-06 EigRej= -1.00D+00 NBFU=   276
 ExpMin= 1.61D-01 ExpMax= 5.48D+03 ExpMxC= 8.25D+02 IAcc=3 IRadAn=         5 AccDes= 0.00D+00
 Harris functional with IExCor=  402 and IRadAn=       5 diagonalized for initial guess.
 HarFok:  IExCor=  402 AccDes= 0.00D+00 IRadAn=         5 IDoV= 1 UseB2=F ITyADJ=14
 ICtDFT=  3500011 ScaDFX=  1.000000  1.000000  1.000000  1.000000
 FoFCou: FMM=F IPFlag=           0 FMFlag=      100000 FMFlg1=           0
         NFxFlg=           0 DoJE=T BraDBF=F KetDBF=T FulRan=T
         wScrn=  0.000000 ICntrl=       500 IOpCl=  0 I1Cent=   200000004 NGrid=           0
         NMat0=    1 NMatS0=      1 NMatT0=    0 NMatD0=    1 NMtDS0=    0 NMtDT0=    0
 Petite list used in FoFCou.
 Gradient too large for Newton-Raphson -- use scaled steepest descent instead.
     Minimum is close to point  2 DX=  8.98D-03 DF= -4.11D-04 DXR=  2.91D-02 DFR=  8.46D-04 which will be used.
 Gradient too large for Newton-Raphson -- use scaled steepest descent instead.
     Minimum is close to point  3 DX= -9.47D-03 DF= -3.55D-05 DXR=  2.42D-02 DFR=  5.74D-04 which will be used.
 Gradient too large for Newton-Raphson -- use scaled steepest descent instead.
 Gradient too large for Newton-Raphson -- use scaled steepest descent instead.
 Gradient too large for Newton-Raphson -- use scaled steepest descent instead.
     Accept linear search using points  1 and  2.
 Gradient too large for Newton-Raphson -- use scaled steepest descent instead.
     Minimum is close to point  3 DX=  4.15D-02 DF= -1.16D-06 DXR=  4.41D-02 DFR=  1.95D-03 which will be used.
 LinEq1:  Iter=  0 NonCon=     1 RMS=8.73D-05 Max=3.42D-03 NDo=     1
 AX will form     1 AO Fock derivatives at one time.
 LinEq1:  Iter=  1 NonCon=     1 RMS=1.05D-04 Max=7.18D-03 NDo=     1
 LinEq1:  Iter=  2 NonCon=     1 RMS=1.54D-05 Max=1.04D-03 NDo=     1
 LinEq1:  Iter=  3 NonCon=     1 RMS=7.98D-06 Max=2.85D-04 NDo=     1
 LinEq1:  Iter=  4 NonCon=     1 RMS=7.97D-06 Max=2.75D-04 NDo=     1
 LinEq1:  Iter=  5 NonCon=     1 RMS=5.01D-06 Max=1.33D-04 NDo=     1
 LinEq1:  Iter=  6 NonCon=     1 RMS=3.17D-06 Max=8.50D-05 NDo=     1
 LinEq1:  Iter=  7 NonCon=     1 RMS=2.83D-06 Max=7.80D-05 NDo=     1
 LinEq1:  Iter=  8 NonCon=     1 RMS=2.09D-06 Max=6.07D-05 NDo=     1
 LinEq1:  Iter=  9 NonCon=     1 RMS=1.02D-06 Max=2.31D-05 NDo=     1
 LinEq1:  Iter= 10 NonCon=     1 RMS=6.15D-07 Max=2.18D-05 NDo=     1
 LinEq1:  Iter= 11 NonCon=     1 RMS=2.79D-07 Max=1.16D-05 NDo=     1
 LinEq1:  Iter= 12 NonCon=     1 RMS=1.43D-07 Max=4.73D-06 NDo=     1
 LinEq1:  Iter= 13 NonCon=     1 RMS=6.28D-08 Max=1.54D-06 NDo=     1
 LinEq1:  Iter= 14 NonCon=     1 RMS=3.07D-08 Max=8.88D-07 NDo=     1
 LinEq1:  Iter= 15 NonCon=     1 RMS=1.77D-08 Max=4.41D-07 NDo=     1
 LinEq1:  Iter= 16 NonCon=     0 RMS=5.97D-09 Max=1.43D-07 NDo=     1
 Linear equations converged to 1.629D-08 1.629D-07 after    16 iterations.
     Minimum is close to point  2 DX=  5.83D-04 DF= -1.36D-11 DXR=  5.83D-04 DFR=  3.41D-07 which will be used.
 LinEq1:  Iter=  0 NonCon=     1 RMS=2.17D-07 Max=1.35D-05 NDo=     1
 LinEq1:  Iter=  1 NonCon=     1 RMS=1.70D-07 Max=6.15D-06 NDo=     1
 LinEq1:  Iter=  2 NonCon=     1 RMS=1.36D-07 Max=5.56D-06 NDo=     1
 LinEq1:  Iter=  3 NonCon=     1 RMS=7.93D-08 Max=3.89D-06 NDo=     1
 LinEq1:  Iter=  4 NonCon=     1 RMS=5.48D-08 Max=2.18D-06 NDo=     1
 LinEq1:  Iter=  5 NonCon=     1 RMS=2.96D-08 Max=7.63D-07 NDo=     1
 LinEq1:  Iter=  6 NonCon=     1 RMS=1.53D-08 Max=5.76D-07 NDo=     1
 LinEq1:  Iter=  7 NonCon=     1 RMS=1.22D-08 Max=4.77D-07 NDo=     1
 LinEq1:  Iter=  8 NonCon=     1 RMS=1.00D-08 Max=3.72D-07 NDo=     1
 LinEq1:  Iter=  9 NonCon=     1 RMS=5.05D-09 Max=1.38D-07 NDo=     1
 LinEq1:  Iter= 10 NonCon=     1 RMS=2.09D-09 Max=4.91D-08 NDo=     1
 LinEq1:  Iter= 11 NonCon=     1 RMS=1.61D-09 Max=5.06D-08 NDo=     1
 LinEq1:  Iter= 12 NonCon=     1 RMS=1.12D-09 Max=3.08D-08 NDo=     1
 LinEq1:  Iter= 13 NonCon=     1 RMS=4.72D-10 Max=1.16D-08 NDo=     1
 LinEq1:  Iter= 14 NonCon=     1 RMS=2.71D-10 Max=7.50D-09 NDo=     1
 LinEq1:  Iter= 15 NonCon=     1 RMS=1.46D-10 Max=2.92D-09 NDo=     1
 LinEq1:  Iter= 16 NonCon=     1 RMS=7.13D-11 Max=1.40D-09 NDo=     1
 LinEq1:  Iter= 17 NonCon=     0 RMS=2.17D-11 Max=5.99D-10 NDo=     1
 Linear equations converged to 1.360D-10 1.360D-09 after    17 iterations.
 SCF Done:  E(RB3LYP) =  -802.246501971     a.u. after    9 cycles
            Convg  =    0.1840D-09                    53 Fock formations.
              S**2 =  0.0000                  -V/T =  2.0091
 DoSCS=F DFT=T ScalE2(SS,OS)=  1.000000  1.000000
 Range of M.O.s used for correlation:     1   276
 NBasis=   276 NAE=    62 NBE=    62 NFC=     0 NFV=     0
 NROrb=    276 NOA=    62 NOB=    62 NVA=   214 NVB=   214
 Symmetrizing basis deriv contribution to polar:
 IMax=3 JMax=2 DiffMx= 0.00D+00
 G2DrvN: will do    35 centers at a time, making    1 passes.
 Calling FoFCou, ICntrl=  3107 FMM=F I1Cent=   0 AccDes= 0.00D+00.
 End of G2Drv F.D. properties file   721 does not exist.
 End of G2Drv F.D. properties file   722 does not exist.
 End of G2Drv F.D. properties file   788 does not exist.
          IDoAtm=1111111111111111111111111111111111
          Differentiating once with respect to electric field.
                with respect to dipole field.
          Differentiating once with respect to nuclear coordinates.
 Keep R1 ints in memory in canonical form, NReq=741275395.
          There are   105 degrees of freedom in the 1st order CPHF.  IDoFFX=6 NUNeed=     3.
    102 vectors produced by pass  0 Test12= 1.33D-14 1.00D-09 XBig12= 1.33D+02 4.35D+00.
 AX will form   102 AO Fock derivatives at one time.
    102 vectors produced by pass  1 Test12= 1.33D-14 1.00D-09 XBig12= 4.43D+01 1.14D+00.
    102 vectors produced by pass  2 Test12= 1.33D-14 1.00D-09 XBig12= 3.41D-01 1.48D-01.
    102 vectors produced by pass  3 Test12= 1.33D-14 1.00D-09 XBig12= 1.51D-03 6.84D-03.
    102 vectors produced by pass  4 Test12= 1.33D-14 1.00D-09 XBig12= 1.57D-06 1.09D-04.
     55 vectors produced by pass  5 Test12= 1.33D-14 1.00D-09 XBig12= 1.32D-09 4.21D-06.
      8 vectors produced by pass  6 Test12= 1.33D-14 1.00D-09 XBig12= 1.07D-12 1.11D-07.
      3 vectors produced by pass  7 Test12= 1.33D-14 1.00D-09 XBig12= 1.11D-15 4.33D-09.
 InvSVY:  IOpt=1 It=  1 EMax= 5.33D-15
 Solved reduced A of dimension   576 with   105 vectors.
 Isotropic polarizability for W=    0.000000      136.22 Bohr**3.
 End of Minotr F.D. properties file   721 does not exist.
 End of Minotr F.D. properties file   722 does not exist.
 End of Minotr F.D. properties file   788 does not exist.

 **********************************************************************

            Population analysis using the SCF density.

 **********************************************************************

 Orbital symmetries:
       Occupied  (A) (A) (A) (A) (A) (A) (A) (A) (A) (A) (A) (A)
                 (A) (A) (A) (A) (A) (A) (A) (A) (A) (A) (A) (A)
                 (A) (A) (A) (A) (A) (A) (A) (A) (A) (A) (A) (A)
                 (A) (A) (A) (A) (A) (A) (A) (A) (A) (A) (A) (A)
                 (A) (A) (A) (A) (A) (A) (A) (A) (A) (A) (A) (A)
                 (A) (A)
       Virtual   (A) (A) (A) (A) (A) (A) (A) (A) (A) (A) (A) (A)
                 (A) (A) (A) (A) (A) (A) (A) (A) (A) (A) (A) (A)
                 (A) (A) (A) (A) (A) (A) (A) (A) (A) (A) (A) (A)
                 (A) (A) (A) (A) (A) (A) (A) (A) (A) (A) (A) (A)
                 (A) (A) (A) (A) (A) (A) (A) (A) (A) (A) (A) (A)
                 (A) (A) (A) (A) (A) (A) (A) (A) (A) (A) (A) (A)
                 (A) (A) (A) (A) (A) (A) (A) (A) (A) (A) (A) (A)
                 (A) (A) (A) (A) (A) (A) (A) (A) (A) (A) (A) (A)
                 (A) (A) (A) (A) (A) (A) (A) (A) (A) (A) (A) (A)
                 (A) (A) (A) (A) (A) (A) (A) (A) (A) (A) (A) (A)
                 (A) (A) (A) (A) (A) (A) (A) (A) (A) (A) (A) (A)
                 (A) (A) (A) (A) (A) (A) (A) (A) (A) (A) (A) (A)
                 (A) (A) (A) (A) (A) (A) (A) (A) (A) (A) (A) (A)
                 (A) (A) (A) (A) (A) (A) (A) (A) (A) (A) (A) (A)
                 (A) (A) (A) (A) (A) (A) (A) (A) (A) (A) (A) (A)
                 (A) (A) (A) (A) (A) (A) (A) (A) (A) (A) (A) (A)
                 (A) (A) (A) (A) (A) (A) (A) (A) (A) (A) (A) (A)
                 (A) (A) (A) (A) (A) (A) (A) (A) (A) (A)
 The electronic state is 1-A.
 Alpha  occ. eigenvalues --  -19.20071 -19.19964 -19.16247 -19.16150 -14.43129
 Alpha  occ. eigenvalues --  -14.43071 -10.35675 -10.35612 -10.26411 -10.26362
 Alpha  occ. eigenvalues --  -10.18349 -10.18348 -10.18264 -10.18226 -10.17355
 Alpha  occ. eigenvalues --  -10.17242  -1.14325  -1.11472  -1.05839  -1.03167
 Alpha  occ. eigenvalues --   -1.03017  -0.84849  -0.81091  -0.79224  -0.69788
 Alpha  occ. eigenvalues --   -0.69755  -0.69339  -0.69257  -0.65372  -0.62767
 Alpha  occ. eigenvalues --   -0.59785  -0.52069  -0.51844  -0.51511  -0.49947
 Alpha  occ. eigenvalues --   -0.48063  -0.47577  -0.46285  -0.45434  -0.45166
 Alpha  occ. eigenvalues --   -0.44070  -0.43799  -0.42355  -0.41805  -0.40749
 Alpha  occ. eigenvalues --   -0.39880  -0.39449  -0.38943  -0.37434  -0.36988
 Alpha  occ. eigenvalues --   -0.36828  -0.36378  -0.35989  -0.35462  -0.35109
 Alpha  occ. eigenvalues --   -0.34038  -0.33901  -0.31018  -0.30537  -0.29938
 Alpha  occ. eigenvalues --   -0.29251  -0.26400
 Alpha virt. eigenvalues --   -0.13710   0.00801   0.04032   0.08210   0.08322
 Alpha virt. eigenvalues --    0.10006   0.10357   0.14434   0.14464   0.14985
 Alpha virt. eigenvalues --    0.15046   0.15580   0.15598   0.16804   0.17119
 Alpha virt. eigenvalues --    0.18102   0.18185   0.18949   0.18975   0.19236
 Alpha virt. eigenvalues --    0.19707   0.20433   0.20552   0.22070   0.22253
 Alpha virt. eigenvalues --    0.22415   0.22515   0.23911   0.25030   0.25342
 Alpha virt. eigenvalues --    0.25498   0.27490   0.34359   0.36016   0.38195
 Alpha virt. eigenvalues --    0.44726   0.47796   0.48443   0.49355   0.49378
 Alpha virt. eigenvalues --    0.51053   0.51202   0.51453   0.53756   0.55190
 Alpha virt. eigenvalues --    0.55409   0.56954   0.57940   0.58773   0.59439
 Alpha virt. eigenvalues --    0.59516   0.60392   0.60630   0.61144   0.64511
 Alpha virt. eigenvalues --    0.64840   0.67856   0.69360   0.70122   0.70399
 Alpha virt. eigenvalues --    0.70781   0.71232   0.72010   0.72142   0.74113
 Alpha virt. eigenvalues --    0.75067   0.77794   0.80970   0.81854   0.82316
 Alpha virt. eigenvalues --    0.83628   0.85285   0.85524   0.86093   0.87727
 Alpha virt. eigenvalues --    0.88942   0.89145   0.89365   0.89445   0.90198
 Alpha virt. eigenvalues --    0.90337   0.92098   0.92402   0.92703   0.93142
 Alpha virt. eigenvalues --    0.93546   0.93641   0.94501   0.96260   0.96458
 Alpha virt. eigenvalues --    0.97618   0.98599   1.00057   1.02615   1.03610
 Alpha virt. eigenvalues --    1.04559   1.09243   1.10306   1.11657   1.13972
 Alpha virt. eigenvalues --    1.16616   1.16815   1.17945   1.18974   1.21105
 Alpha virt. eigenvalues --    1.28110   1.32159   1.32900   1.37419   1.39656
 Alpha virt. eigenvalues --    1.39841   1.41390   1.42066   1.43938   1.46789
 Alpha virt. eigenvalues --    1.47449   1.49637   1.50282   1.51007   1.54113
 Alpha virt. eigenvalues --    1.56323   1.61388   1.63746   1.66999   1.69343
 Alpha virt. eigenvalues --    1.70196   1.71194   1.72782   1.73267   1.75905
 Alpha virt. eigenvalues --    1.77197   1.78192   1.78624   1.79629   1.82271
 Alpha virt. eigenvalues --    1.83567   1.84086   1.84289   1.84963   1.85660
 Alpha virt. eigenvalues --    1.86813   1.89178   1.90424   1.90869   1.93834
 Alpha virt. eigenvalues --    1.95352   1.96191   2.01099   2.05155   2.06521
 Alpha virt. eigenvalues --    2.07969   2.08900   2.09662   2.09925   2.10155
 Alpha virt. eigenvalues --    2.15172   2.15921   2.16412   2.18107   2.19799
 Alpha virt. eigenvalues --    2.20058   2.22973   2.23008   2.24824   2.25239
 Alpha virt. eigenvalues --    2.25822   2.25875   2.26867   2.27059   2.28867
 Alpha virt. eigenvalues --    2.32537   2.32883   2.37986   2.42419   2.47542
 Alpha virt. eigenvalues --    2.50457   2.54052   2.54373   2.57258   2.59362
 Alpha virt. eigenvalues --    2.61182   2.62749   2.64698   2.69649   2.70944
 Alpha virt. eigenvalues --    2.71262   2.75182   2.75972   2.76238   2.77137
 Alpha virt. eigenvalues --    2.86983   2.90983   2.93371   2.96021   3.10922
 Alpha virt. eigenvalues --    3.11547   3.17648   3.22129   3.77985   3.89967
 Alpha virt. eigenvalues --    4.04297   4.06504   4.16551   4.18897   4.23410
 Alpha virt. eigenvalues --    4.26423   4.29506   4.29941   4.30349   4.31015
 Alpha virt. eigenvalues --    4.42330   4.46206   4.65713   4.67625
          Condensed to atoms (all electrons):
               1          2          3          4          5          6
     1  C    5.181031   0.378441  -0.063889  -0.074652  -0.042391  -0.003650
     2  C    0.378441   4.583196   0.381563   0.402688   0.176781  -0.011288
     3  C   -0.063889   0.381563   5.217433  -0.071964  -0.040454  -0.007661
     4  C   -0.074652   0.402688  -0.071964   5.154708  -0.045539   0.003058
     5  O   -0.042391   0.176781  -0.040454  -0.045539   8.322794   0.282586
     6  C   -0.003650  -0.011288  -0.007661   0.003058   0.282586   4.225356
     7  O   -0.002461  -0.000675  -0.017338   0.000195  -0.076966   0.527966
     8  N   -0.000426   0.003798  -0.000484  -0.000207  -0.101219   0.242236
     9  N    0.000048   0.000511  -0.000113  -0.000022  -0.007327  -0.053922
    10  C    0.000002  -0.000001  -0.000000  -0.000003   0.000197   0.003372
    11  O   -0.000000  -0.000000   0.000000   0.000000   0.000006  -0.000113
    12  O   -0.000000   0.000000  -0.000000  -0.000000  -0.000013   0.000228
    13  C    0.000000  -0.000000   0.000000   0.000000   0.000000  -0.000008
    14  C    0.000000   0.000000  -0.000000  -0.000000  -0.000000  -0.000003
    15  C    0.000000   0.000000  -0.000000  -0.000000  -0.000000  -0.000000
    16  C    0.000000   0.000000  -0.000000  -0.000000  -0.000000   0.000003
    17  H    0.362413  -0.022662  -0.001962  -0.002793   0.002778   0.000098
    18  H    0.363543  -0.027132   0.005504  -0.006489   0.000226   0.000126
    19  H    0.366786  -0.024435  -0.005241   0.005354  -0.003122   0.002699
    20  H   -0.002723  -0.025430   0.355920  -0.003274   0.002470   0.000583
    21  H   -0.004292  -0.023570   0.366718   0.004979  -0.001863  -0.001758
    22  H    0.005642  -0.028151   0.362708  -0.006671  -0.000368   0.001275
    23  H   -0.001619  -0.026627  -0.002314   0.364204   0.002908  -0.000032
    24  H    0.005922  -0.025131  -0.005730   0.363779   0.000310  -0.000024
    25  H   -0.005988  -0.025472   0.006017   0.362347   0.000276  -0.000030
    26  H   -0.000000   0.000000  -0.000000   0.000000  -0.000000   0.000002
    27  H   -0.000000  -0.000000  -0.000000   0.000000   0.000000  -0.000000
    28  H   -0.000000  -0.000000  -0.000000   0.000000   0.000000   0.000000
    29  H   -0.000000   0.000000   0.000000   0.000000  -0.000000   0.000002
    30  H    0.000000  -0.000000   0.000000  -0.000000  -0.000000   0.000000
    31  H    0.000000  -0.000000   0.000000  -0.000000   0.000000  -0.000001
    32  H   -0.000000   0.000000   0.000000  -0.000000  -0.000000   0.000000
    33  H    0.000000  -0.000000  -0.000000  -0.000000  -0.000000  -0.000000
    34  H    0.000000  -0.000000   0.000000  -0.000000   0.000000  -0.000000
               7          8          9         10         11         12
     1  C   -0.002461  -0.000426   0.000048   0.000002  -0.000000  -0.000000
     2  C   -0.000675   0.003798   0.000511  -0.000001  -0.000000   0.000000
     3  C   -0.017338  -0.000484  -0.000113  -0.000000   0.000000  -0.000000
     4  C    0.000195  -0.000207  -0.000022  -0.000003   0.000000  -0.000000
     5  O   -0.076966  -0.101219  -0.007327   0.000197   0.000006  -0.000013
     6  C    0.527966   0.242236  -0.053922   0.003372  -0.000113   0.000228
     7  O    8.065821  -0.059923   0.000782  -0.000109   0.000000   0.000006
     8  N   -0.059923   6.984869   0.203773  -0.053343   0.000750  -0.006512
     9  N    0.000782   0.203773   6.986871   0.241291  -0.059926  -0.101472
    10  C   -0.000109  -0.053343   0.241291   4.226054   0.527442   0.283104
    11  O    0.000000   0.000750  -0.059926   0.527442   8.065089  -0.077088
    12  O    0.000006  -0.006512  -0.101472   0.283104  -0.077088   8.320240
    13  C   -0.000000   0.000489   0.003907  -0.012219  -0.000053   0.177128
    14  C    0.000000  -0.000060  -0.000242  -0.003447  -0.002361  -0.043027
    15  C    0.000000  -0.000019  -0.000230   0.002841   0.000178  -0.045968
    16  C    0.000000   0.000039  -0.000710  -0.007210  -0.018147  -0.039812
    17  H    0.000027   0.000005  -0.000000  -0.000000   0.000000   0.000000
    18  H    0.000072  -0.000001  -0.000012  -0.000000   0.000000  -0.000000
    19  H    0.003834  -0.000014  -0.000007   0.000000   0.000000   0.000000
    20  H    0.000814   0.000009  -0.000000   0.000000  -0.000000   0.000000
    21  H    0.011659   0.000158  -0.000012  -0.000000  -0.000000   0.000000
    22  H   -0.000474  -0.000070   0.000019   0.000001  -0.000000  -0.000000
    23  H    0.000009   0.000003  -0.000000   0.000000  -0.000000   0.000000
    24  H   -0.000007  -0.000026   0.000097   0.000002  -0.000000   0.000000
    25  H    0.000006   0.000006  -0.000001  -0.000001   0.000000  -0.000000
    26  H   -0.000000   0.000041  -0.000019   0.000032   0.000043   0.000240
    27  H   -0.000000  -0.000008  -0.000030   0.002610   0.004038  -0.003063
    28  H   -0.000000   0.000001   0.000004   0.000097   0.000025   0.002772
    29  H    0.000000   0.000036  -0.000002  -0.000077   0.000005   0.000290
    30  H   -0.000000  -0.000001   0.000003  -0.000029   0.000010   0.002947
    31  H    0.000000  -0.000008  -0.000007   0.000095  -0.000003   0.000395
    32  H   -0.000000  -0.000013   0.000159  -0.001866   0.011982  -0.001810
    33  H    0.000000  -0.000014  -0.000044   0.001246  -0.000375  -0.000606
    34  H    0.000000  -0.000000   0.000011   0.000597   0.000774   0.002452
              13         14         15         16         17         18
     1  C    0.000000   0.000000   0.000000   0.000000   0.362413   0.363543
     2  C   -0.000000   0.000000   0.000000   0.000000  -0.022662  -0.027132
     3  C    0.000000  -0.000000  -0.000000  -0.000000  -0.001962   0.005504
     4  C    0.000000  -0.000000  -0.000000  -0.000000  -0.002793  -0.006489
     5  O    0.000000  -0.000000  -0.000000  -0.000000   0.002778   0.000226
     6  C   -0.000008  -0.000003  -0.000000   0.000003   0.000098   0.000126
     7  O   -0.000000   0.000000   0.000000   0.000000   0.000027   0.000072
     8  N    0.000489  -0.000060  -0.000019   0.000039   0.000005  -0.000001
     9  N    0.003907  -0.000242  -0.000230  -0.000710  -0.000000  -0.000012
    10  C   -0.012219  -0.003447   0.002841  -0.007210  -0.000000  -0.000000
    11  O   -0.000053  -0.002361   0.000178  -0.018147   0.000000   0.000000
    12  O    0.177128  -0.043027  -0.045968  -0.039812   0.000000  -0.000000
    13  C    4.583285   0.380413   0.402213   0.379133  -0.000000   0.000000
    14  C    0.380413   5.176453  -0.073597  -0.064436  -0.000000  -0.000000
    15  C    0.402213  -0.073597   5.157043  -0.072227   0.000000  -0.000000
    16  C    0.379133  -0.064436  -0.072227   5.223332  -0.000000  -0.000000
    17  H   -0.000000  -0.000000   0.000000  -0.000000   0.560284  -0.026896
    18  H    0.000000  -0.000000  -0.000000  -0.000000  -0.026896   0.564379
    19  H    0.000000  -0.000000  -0.000000   0.000000  -0.027624  -0.030938
    20  H   -0.000000   0.000000   0.000000   0.000000   0.001622  -0.000028
    21  H    0.000000  -0.000000  -0.000000  -0.000000   0.000145  -0.000059
    22  H    0.000000   0.000000   0.000000   0.000000  -0.000051  -0.000187
    23  H   -0.000000   0.000000   0.000000   0.000000   0.001577   0.000126
    24  H    0.000000  -0.000000   0.000000   0.000000  -0.000021  -0.000044
    25  H    0.000000  -0.000000   0.000000  -0.000000   0.000142   0.004486
    26  H   -0.026886   0.364474  -0.006285   0.005425   0.000000  -0.000000
    27  H   -0.024151   0.366276   0.005416  -0.005345   0.000000  -0.000000
    28  H   -0.022816   0.362744  -0.002790  -0.002071   0.000000   0.000000
    29  H   -0.025366  -0.005919   0.362909   0.006013   0.000000  -0.000000
    30  H   -0.026514  -0.001614   0.364093  -0.002263  -0.000000   0.000000
    31  H   -0.025482   0.005963   0.362884  -0.005928  -0.000000  -0.000000
    32  H   -0.023688  -0.004174   0.004990   0.366148   0.000000   0.000000
    33  H   -0.028037   0.005637  -0.006775   0.362170  -0.000000  -0.000000
    34  H   -0.025110  -0.002535  -0.003549   0.356297  -0.000000  -0.000000
              19         20         21         22         23         24
     1  C    0.366786  -0.002723  -0.004292   0.005642  -0.001619   0.005922
     2  C   -0.024435  -0.025430  -0.023570  -0.028151  -0.026627  -0.025131
     3  C   -0.005241   0.355920   0.366718   0.362708  -0.002314  -0.005730
     4  C    0.005354  -0.003274   0.004979  -0.006671   0.364204   0.363779
     5  O   -0.003122   0.002470  -0.001863  -0.000368   0.002908   0.000310
     6  C    0.002699   0.000583  -0.001758   0.001275  -0.000032  -0.000024
     7  O    0.003834   0.000814   0.011659  -0.000474   0.000009  -0.000007
     8  N   -0.000014   0.000009   0.000158  -0.000070   0.000003  -0.000026
     9  N   -0.000007  -0.000000  -0.000012   0.000019  -0.000000   0.000097
    10  C    0.000000   0.000000  -0.000000   0.000001   0.000000   0.000002
    11  O    0.000000  -0.000000  -0.000000  -0.000000  -0.000000  -0.000000
    12  O    0.000000   0.000000   0.000000  -0.000000   0.000000   0.000000
    13  C    0.000000  -0.000000   0.000000   0.000000  -0.000000   0.000000
    14  C   -0.000000   0.000000  -0.000000   0.000000   0.000000  -0.000000
    15  C   -0.000000   0.000000  -0.000000   0.000000   0.000000   0.000000
    16  C    0.000000   0.000000  -0.000000   0.000000   0.000000   0.000000
    17  H   -0.027624   0.001622   0.000145  -0.000051   0.001577  -0.000021
    18  H   -0.030938  -0.000028  -0.000059  -0.000187   0.000126  -0.000044
    19  H    0.543681   0.000137   0.002566  -0.000027   0.000017  -0.000186
    20  H    0.000137   0.578053  -0.024933  -0.026915   0.002046   0.000059
    21  H    0.002566  -0.024933   0.497808  -0.028875  -0.000002  -0.000046
    22  H   -0.000027  -0.026915  -0.028875   0.571296   0.000195   0.004420
    23  H    0.000017   0.002046  -0.000002   0.000195   0.564393  -0.027071
    24  H   -0.000186   0.000059  -0.000046   0.004420  -0.027071   0.555493
    25  H   -0.000060   0.000020  -0.000182  -0.000043  -0.027841  -0.029313
    26  H    0.000000   0.000000   0.000000  -0.000000  -0.000000  -0.000000
    27  H    0.000000   0.000000   0.000000   0.000000  -0.000000   0.000000
    28  H    0.000000  -0.000000   0.000000   0.000000  -0.000000  -0.000000
    29  H    0.000000   0.000000   0.000000  -0.000000  -0.000000   0.000000
    30  H    0.000000  -0.000000   0.000000   0.000000   0.000000  -0.000000
    31  H   -0.000000   0.000000  -0.000000   0.000000   0.000000   0.000000
    32  H    0.000000   0.000000   0.000000  -0.000000   0.000000  -0.000000
    33  H   -0.000000   0.000000  -0.000000   0.000000   0.000000  -0.000000
    34  H   -0.000000   0.000000  -0.000000   0.000000   0.000000   0.000000
              25         26         27         28         29         30
     1  C   -0.005988  -0.000000  -0.000000  -0.000000  -0.000000   0.000000
     2  C   -0.025472   0.000000  -0.000000  -0.000000   0.000000  -0.000000
     3  C    0.006017  -0.000000  -0.000000  -0.000000   0.000000   0.000000
     4  C    0.362347   0.000000   0.000000   0.000000   0.000000  -0.000000
     5  O    0.000276  -0.000000   0.000000   0.000000  -0.000000  -0.000000
     6  C   -0.000030   0.000002  -0.000000   0.000000   0.000002   0.000000
     7  O    0.000006  -0.000000  -0.000000  -0.000000   0.000000  -0.000000
     8  N    0.000006   0.000041  -0.000008   0.000001   0.000036  -0.000001
     9  N   -0.000001  -0.000019  -0.000030   0.000004  -0.000002   0.000003
    10  C   -0.000001   0.000032   0.002610   0.000097  -0.000077  -0.000029
    11  O    0.000000   0.000043   0.004038   0.000025   0.000005   0.000010
    12  O   -0.000000   0.000240  -0.003063   0.002772   0.000290   0.002947
    13  C    0.000000  -0.026886  -0.024151  -0.022816  -0.025366  -0.026514
    14  C   -0.000000   0.364474   0.366276   0.362744  -0.005919  -0.001614
    15  C    0.000000  -0.006285   0.005416  -0.002790   0.362909   0.364093
    16  C   -0.000000   0.005425  -0.005345  -0.002071   0.006013  -0.002263
    17  H    0.000142   0.000000   0.000000   0.000000   0.000000  -0.000000
    18  H    0.004486  -0.000000  -0.000000   0.000000  -0.000000   0.000000
    19  H   -0.000060   0.000000   0.000000   0.000000   0.000000   0.000000
    20  H    0.000020   0.000000   0.000000  -0.000000   0.000000  -0.000000
    21  H   -0.000182   0.000000   0.000000   0.000000   0.000000   0.000000
    22  H   -0.000043  -0.000000   0.000000   0.000000  -0.000000   0.000000
    23  H   -0.027841  -0.000000  -0.000000  -0.000000  -0.000000   0.000000
    24  H   -0.029313  -0.000000   0.000000  -0.000000   0.000000  -0.000000
    25  H    0.560878  -0.000000   0.000000   0.000000  -0.000000   0.000000
    26  H   -0.000000   0.559388  -0.030641  -0.027000   0.004391   0.000112
    27  H    0.000000  -0.030641   0.543945  -0.027805  -0.000060   0.000006
    28  H    0.000000  -0.027000  -0.027805   0.560657   0.000142   0.001522
    29  H   -0.000000   0.004391  -0.000060   0.000142   0.557536  -0.027550
    30  H    0.000000   0.000112   0.000006   0.001522  -0.027550   0.563743
    31  H   -0.000000  -0.000042  -0.000186  -0.000022  -0.029601  -0.027023
    32  H    0.000000  -0.000060   0.002552   0.000130  -0.000181   0.000001
    33  H   -0.000000  -0.000186  -0.000028  -0.000045  -0.000044   0.000202
    34  H   -0.000000  -0.000027   0.000133   0.001671   0.000017   0.002135
              31         32         33         34
     1  C    0.000000  -0.000000   0.000000   0.000000
     2  C   -0.000000   0.000000  -0.000000  -0.000000
     3  C    0.000000   0.000000  -0.000000   0.000000
     4  C   -0.000000  -0.000000  -0.000000  -0.000000
     5  O    0.000000  -0.000000  -0.000000   0.000000
     6  C   -0.000001   0.000000  -0.000000  -0.000000
     7  O    0.000000  -0.000000   0.000000   0.000000
     8  N   -0.000008  -0.000013  -0.000014  -0.000000
     9  N   -0.000007   0.000159  -0.000044   0.000011
    10  C    0.000095  -0.001866   0.001246   0.000597
    11  O   -0.000003   0.011982  -0.000375   0.000774
    12  O    0.000395  -0.001810  -0.000606   0.002452
    13  C   -0.025482  -0.023688  -0.028037  -0.025110
    14  C    0.005963  -0.004174   0.005637  -0.002535
    15  C    0.362884   0.004990  -0.006775  -0.003549
    16  C   -0.005928   0.366148   0.362170   0.356297
    17  H   -0.000000   0.000000  -0.000000  -0.000000
    18  H   -0.000000   0.000000  -0.000000  -0.000000
    19  H   -0.000000   0.000000  -0.000000  -0.000000
    20  H    0.000000   0.000000   0.000000   0.000000
    21  H   -0.000000   0.000000  -0.000000  -0.000000
    22  H    0.000000  -0.000000   0.000000   0.000000
    23  H    0.000000   0.000000   0.000000   0.000000
    24  H    0.000000  -0.000000  -0.000000   0.000000
    25  H   -0.000000   0.000000  -0.000000  -0.000000
    26  H   -0.000042  -0.000060  -0.000186  -0.000027
    27  H   -0.000186   0.002552  -0.000028   0.000133
    28  H   -0.000022   0.000130  -0.000045   0.001671
    29  H   -0.029601  -0.000181  -0.000044   0.000017
    30  H   -0.027023   0.000001   0.000202   0.002135
    31  H    0.561269  -0.000042   0.004512   0.000057
    32  H   -0.000042   0.497146  -0.028987  -0.024648
    33  H    0.004512  -0.028987   0.572820  -0.026697
    34  H    0.000057  -0.024648  -0.026697   0.575634
 Mulliken charges:
               1
     1  C   -0.461736
     2  C    0.313596
     3  C   -0.478713
     4  C   -0.449698
     5  O   -0.472071
     6  C    0.788900
     7  O   -0.453235
     8  N   -0.213864
     9  N   -0.213377
    10  C    0.789326
    11  O   -0.452275
    12  O   -0.470431
    13  C    0.313764
    14  C   -0.460547
    15  C   -0.451127
    16  C   -0.480412
    17  H    0.152918
    18  H    0.153325
    19  H    0.166581
    20  H    0.141569
    21  H    0.201559
    22  H    0.146276
    23  H    0.150029
    24  H    0.157515
    25  H    0.154751
    26  H    0.156999
    27  H    0.166342
    28  H    0.152785
    29  H    0.157461
    30  H    0.150220
    31  H    0.153169
    32  H    0.202362
    33  H    0.145250
    34  H    0.142789
 Sum of Mulliken charges =   0.00000
 Mulliken charges with hydrogens summed into heavy atoms:
               1
     1  C    0.011088
     2  C    0.313596
     3  C    0.010691
     4  C    0.012597
     5  O   -0.472071
     6  C    0.788900
     7  O   -0.453235
     8  N   -0.213864
     9  N   -0.213377
    10  C    0.789326
    11  O   -0.452275
    12  O   -0.470431
    13  C    0.313764
    14  C    0.015579
    15  C    0.009723
    16  C    0.009988
 APT charges:
               1
     1  C   -0.023695
     2  C    0.651135
     3  C   -0.060480
     4  C    0.012505
     5  O   -0.932611
     6  C    1.235758
     7  O   -0.654577
     8  N   -0.218121
     9  N   -0.193965
    10  C    1.215357
    11  O   -0.645806
    12  O   -0.924122
    13  C    0.650930
    14  C   -0.030893
    15  C    0.014668
    16  C   -0.068780
    17  H   -0.007334
    18  H   -0.013588
    19  H    0.004393
    20  H   -0.011819
    21  H    0.062135
    22  H   -0.016204
    23  H   -0.009726
    24  H   -0.010384
    25  H   -0.012847
    26  H   -0.009808
    27  H    0.002191
    28  H   -0.004279
    29  H   -0.010395
    30  H   -0.009687
    31  H   -0.014462
    32  H    0.063452
    33  H   -0.017722
    34  H   -0.011219
 Sum of APT charges =   0.00000
 APT charges with hydrogens summed into heavy atoms:
               1
     1  C   -0.040224
     2  C    0.651135
     3  C   -0.026368
     4  C   -0.020452
     5  O   -0.932611
     6  C    1.235758
     7  O   -0.654577
     8  N   -0.218121
     9  N   -0.193965
    10  C    1.215357
    11  O   -0.645806
    12  O   -0.924122
    13  C    0.650930
    14  C   -0.042788
    15  C   -0.019876
    16  C   -0.034270
 Electronic spatial extent (au):  <R**2>=           5653.3697
 Charge=              0.0000 electrons
 Dipole moment (field-independent basis, Debye):
    X=              0.0356    Y=             -0.0064    Z=              0.0952  Tot=              0.1018
 Quadrupole moment (field-independent basis, Debye-Ang):
   XX=            -75.4324   YY=           -106.0110   ZZ=            -92.7234
   XY=             -6.9925   XZ=             -0.5342   YZ=             -0.2171
 Traceless Quadrupole moment (field-independent basis, Debye-Ang):
   XX=             15.9565   YY=            -14.6221   ZZ=             -1.3344
   XY=             -6.9925   XZ=             -0.5342   YZ=             -0.2171
 Octapole moment (field-independent basis, Debye-Ang**2):
  XXX=             -0.3322  YYY=             -0.2080  ZZZ=              0.4980  XYY=             -0.0272
  XXY=             -0.5224  XXZ=              4.6351  XZZ=              0.3348  YZZ=              0.2520
  YYZ=              0.4616  XYZ=             -0.2144
 Hexadecapole moment (field-independent basis, Debye-Ang**3):
 XXXX=          -5739.8989 YYYY=           -827.4990 ZZZZ=           -446.7799 XXXY=            -38.7209
 XXXZ=              9.1338 YYYX=            -21.0839 YYYZ=             -1.0257 ZZZX=             -3.4236
 ZZZY=              2.0414 XXYY=          -1205.5192 XXZZ=          -1118.0946 YYZZ=           -200.6774
 XXYZ=             -3.7510 YYXZ=             -3.2309 ZZXY=              8.3740
 N-N= 1.165240413138D+03 E-N=-4.201039189047D+03  KE= 7.950496222504D+02
  Exact polarizability: 177.907   7.163 127.606  -0.530  -0.413 103.161
 Approx polarizability: 204.251  24.144 225.358   0.157  -0.274 144.656
 Calling FoFJK, ICntrl=    100127 FMM=F ISym2X=0 I1Cent= 0 IOpClX= 0 NMat=1 NMatS=1 NMatT=0.
 ***** Axes restored to original set *****
 -------------------------------------------------------------------
 Center     Atomic                   Forces (Hartrees/Bohr)
 Number     Number              X              Y              Z
 -------------------------------------------------------------------
      1        6          -0.008295805    0.006626509    0.007433021
      2        6           0.003777354   -0.011596421   -0.023926473
      3        6          -0.008603353   -0.008504436    0.001372932
      4        6           0.006856402    0.004876577    0.010598288
      5        8          -0.012670920    0.000137486    0.001890888
      6        6           0.000456850   -0.025084882   -0.077585579
      7        8           0.011958045    0.022468361    0.030460932
      8        7           0.002402541    0.013275184    0.029436061
      9        7          -0.001384711   -0.014704497   -0.026838371
     10        6          -0.002654968    0.028143273    0.073729644
     11        8          -0.016519196   -0.013062019   -0.032174827
     12        8           0.010708184    0.002888155   -0.003876018
     13        6           0.002335217   -0.000655495    0.028329610
     14        6           0.000777453    0.006332930   -0.011286324
     15        6          -0.005466468   -0.007420464   -0.009689402
     16        6           0.011688602    0.002379692    0.000252966
     17        1           0.002265777   -0.001534108    0.001394544
     18        1           0.002268664   -0.000703717   -0.001002634
     19        1          -0.001432771   -0.003031566    0.001301706
     20        1           0.004263677    0.002841321   -0.000531040
     21        1           0.003718170    0.001372272   -0.004186232
     22        1           0.002525906    0.000558563   -0.001227382
     23        1          -0.003380209   -0.000005964    0.001958359
     24        1          -0.001365927   -0.001372457   -0.000220618
     25        1          -0.001265668    0.000737370   -0.000723178
     26        1          -0.000843057   -0.001846733    0.001459233
     27        1           0.003740500   -0.000685854   -0.000534728
     28        1           0.000337786   -0.003312252   -0.000245267
     29        1           0.000097213    0.001753908    0.000092385
     30        1           0.002214798    0.001852709   -0.002273256
     31        1           0.001807287    0.000678725    0.000668603
     32        1          -0.003709356   -0.000507670    0.004047367
     33        1          -0.002005744   -0.001169836    0.001627358
     34        1          -0.004602272   -0.001724665    0.000267430
 -------------------------------------------------------------------
 Cartesian Forces:  Max     0.077585579 RMS     0.014341836
 FormGI is forming the generalized inverse of G from B-inverse, IUseBI=4.

 GradGradGradGradGradGradGradGradGradGradGradGradGradGradGradGradGradGrad
 Berny optimization.
 Internal  Forces:  Max     0.052749825 RMS     0.010768977
 Search for a local minimum.
 Step number   1 out of a maximum of  170
 All quantities printed in internal units (Hartrees-Bohrs-Radians)
 Mixed Optimization -- RFO/linear search
 Second derivative matrix not updated -- analytic derivatives used.
 ITU=  0
     Eigenvalues ---   -0.00701  -0.00520  -0.00437  -0.00286   0.00188
     Eigenvalues ---    0.00197   0.00285   0.00290   0.00335   0.00337
     Eigenvalues ---    0.00559   0.00652   0.04463   0.04512   0.04524
     Eigenvalues ---    0.04526   0.04603   0.04609   0.04691   0.04696
     Eigenvalues ---    0.04719   0.04722   0.04814   0.04816   0.04866
     Eigenvalues ---    0.04882   0.05876   0.05891   0.06693   0.06967
     Eigenvalues ---    0.07074   0.10190   0.11068   0.11163   0.12041
     Eigenvalues ---    0.12223   0.12233   0.12246   0.12266   0.12808
     Eigenvalues ---    0.12811   0.13308   0.13365   0.14201   0.14205
     Eigenvalues ---    0.14824   0.14841   0.15213   0.15231   0.15238
     Eigenvalues ---    0.15299   0.17707   0.17755   0.18768   0.18796
     Eigenvalues ---    0.20149   0.20480   0.24937   0.25068   0.26867
     Eigenvalues ---    0.26872   0.27780   0.27848   0.29078   0.29117
     Eigenvalues ---    0.29261   0.30818   0.32483   0.32684   0.33640
     Eigenvalues ---    0.33675   0.33813   0.33825   0.33845   0.33877
     Eigenvalues ---    0.33922   0.33937   0.34059   0.34110   0.34268
     Eigenvalues ---    0.34287   0.34601   0.34629   0.34805   0.34888
     Eigenvalues ---    0.35065   0.35118   0.35652   0.37146   0.58421
     Eigenvalues ---    0.65144   0.78122   0.78869   0.81923   0.86837
     Eigenvalues ---    0.88564
 RFO step:  Lambda=-4.24111958D-02 EMin=-7.00832565D-03
 Linear search not attempted -- first point.
 Maximum step size (   0.300) exceeded in Quadratic search.
    -- Step size scaled by   0.844
 Iteration  1 RMS(Cart)=  0.23547097 RMS(Int)=  0.03026520
 Iteration  2 RMS(Cart)=  0.14980190 RMS(Int)=  0.00476468
 Iteration  3 RMS(Cart)=  0.01011328 RMS(Int)=  0.00030044
 Iteration  4 RMS(Cart)=  0.00004260 RMS(Int)=  0.00029992
 Iteration  5 RMS(Cart)=  0.00000001 RMS(Int)=  0.00029992
 Variable       Old X    -DE/DX   Delta X   Delta X   Delta X     New X
                                 (Linear)    (Quad)   (Total)
    R1        2.89887  -0.00120   0.00000  -0.00430  -0.00430   2.89457
    R2        2.06949  -0.00091   0.00000  -0.00078  -0.00078   2.06871
    R3        2.07168  -0.00009   0.00000  -0.00040  -0.00040   2.07128
    R4        2.06594   0.00180   0.00000  -0.00422  -0.00422   2.06172
    R5        2.89897   0.00345   0.00000   0.00467   0.00467   2.90365
    R6        2.90860  -0.00270   0.00000  -0.01371  -0.01371   2.89488
    R7        2.74756   0.01018   0.00000   0.02383   0.02383   2.77139
    R8        2.07019  -0.00012   0.00000  -0.00213  -0.00213   2.06806
    R9        2.06549  -0.00499   0.00000  -0.00046  -0.00046   2.06502
   R10        2.07114   0.00045   0.00000   0.00135   0.00135   2.07249
   R11        2.07184  -0.00213   0.00000  -0.00345  -0.00345   2.06838
   R12        2.07112  -0.00016   0.00000  -0.00184  -0.00184   2.06928
   R13        2.07128   0.00020   0.00000  -0.00059  -0.00059   2.07068
   R14        2.58366  -0.00729   0.00000  -0.06219  -0.06219   2.52147
   R15        2.31654  -0.02989   0.00000  -0.02157  -0.02157   2.29498
   R16        2.60383   0.05275   0.00000   0.09808   0.09808   2.70191
   R17        2.37285   0.00134   0.00000  -0.01114  -0.01114   2.36171
   R18        2.60520   0.05078   0.00000   0.09339   0.09339   2.69859
   R19        2.31628  -0.02924   0.00000  -0.02871  -0.02871   2.28757
   R20        2.58151  -0.00707   0.00000  -0.06007  -0.06007   2.52144
   R21        2.74272   0.01117   0.00000   0.02897   0.02897   2.77169
   R22        2.89963  -0.00198   0.00000  -0.00567  -0.00567   2.89397
   R23        2.90789  -0.00245   0.00000  -0.01043  -0.01043   2.89746
   R24        2.89962   0.00392   0.00000  -0.00165  -0.00165   2.89797
   R25        2.07141  -0.00009   0.00000  -0.00163  -0.00163   2.06978
   R26        2.06502   0.00209   0.00000   0.00316   0.00316   2.06817
   R27        2.07007  -0.00107   0.00000  -0.00129  -0.00129   2.06879
   R28        2.07164   0.00007   0.00000  -0.00172  -0.00172   2.06992
   R29        2.07131  -0.00196   0.00000  -0.00293  -0.00293   2.06838
   R30        2.07189  -0.00030   0.00000  -0.00186  -0.00186   2.07003
   R31        2.06544  -0.00462   0.00000  -0.00433  -0.00433   2.06112
   R32        2.07146   0.00035   0.00000  -0.00025  -0.00025   2.07121
   R33        2.06970  -0.00006   0.00000  -0.00062  -0.00062   2.06907
    A1        1.94370  -0.00375   0.00000  -0.02751  -0.02773   1.91596
    A2        1.92925  -0.00026   0.00000  -0.00564  -0.00580   1.92345
    A3        1.96134  -0.00247   0.00000  -0.00447  -0.00451   1.95683
    A4        1.89224   0.00127   0.00000  -0.00160  -0.00193   1.89031
    A5        1.87543   0.00272   0.00000   0.01521   0.01510   1.89053
    A6        1.85825   0.00298   0.00000   0.02689   0.02690   1.88515
    A7        1.95914  -0.00365   0.00000   0.02377   0.02316   1.98229
    A8        1.88233   0.00919   0.00000   0.02850   0.02787   1.91020
    A9        1.93741  -0.00567   0.00000   0.02201   0.02257   1.95998
   A10        1.88342  -0.00293   0.00000   0.01849   0.01691   1.90032
   A11        1.94457   0.01166   0.00000  -0.06444  -0.06437   1.88021
   A12        1.85179  -0.00887   0.00000  -0.02806  -0.02845   1.82334
   A13        1.94231  -0.00647   0.00000  -0.00328  -0.00338   1.93893
   A14        1.96247   0.00217   0.00000  -0.01159  -0.01161   1.95086
   A15        1.93102  -0.00100   0.00000  -0.02222  -0.02233   1.90870
   A16        1.87359   0.00230   0.00000   0.00902   0.00901   1.88260
   A17        1.89149   0.00141   0.00000   0.00034   0.00017   1.89166
   A18        1.85927   0.00204   0.00000   0.03023   0.03020   1.88947
   A19        1.94554  -0.00462   0.00000  -0.02057  -0.02066   1.92489
   A20        1.93974  -0.00070   0.00000  -0.00235  -0.00239   1.93735
   A21        1.93895  -0.00015   0.00000  -0.00186  -0.00191   1.93704
   A22        1.88878   0.00210   0.00000   0.00728   0.00721   1.89598
   A23        1.88828   0.00193   0.00000   0.00443   0.00434   1.89261
   A24        1.85936   0.00185   0.00000   0.01504   0.01504   1.87440
   A25        2.09781   0.03723   0.00000  -0.06984  -0.06984   2.02797
   A26        2.16791   0.01983   0.00000   0.02550   0.02534   2.19325
   A27        1.91646   0.01902   0.00000   0.07080   0.07065   1.98712
   A28        2.19878  -0.03893   0.00000  -0.09651  -0.09664   2.10214
   A29        1.95607   0.02628   0.00000   0.01263   0.01263   1.96870
   A30        1.95659   0.02527   0.00000   0.00844   0.00844   1.96503
   A31        2.19691  -0.03801   0.00000  -0.09030  -0.09041   2.10650
   A32        1.91570   0.01901   0.00000   0.02445   0.02433   1.94003
   A33        2.17057   0.01899   0.00000   0.06576   0.06561   2.23618
   A34        2.09852   0.03570   0.00000   0.02849   0.02849   2.12702
   A35        1.94443  -0.00661   0.00000  -0.03945  -0.03908   1.90534
   A36        1.84988  -0.00822   0.00000  -0.03409  -0.03397   1.81591
   A37        1.93902   0.01201   0.00000   0.02505   0.02504   1.96407
   A38        1.88351   0.00920   0.00000   0.03485   0.03449   1.91800
   A39        1.95944  -0.00352   0.00000  -0.00939  -0.01010   1.94934
   A40        1.88220  -0.00311   0.00000   0.02439   0.02426   1.90646
   A41        1.93076  -0.00041   0.00000  -0.00028  -0.00028   1.93048
   A42        1.96248  -0.00266   0.00000  -0.01813  -0.01823   1.94425
   A43        1.94234  -0.00396   0.00000  -0.01661  -0.01675   1.92560
   A44        1.85888   0.00307   0.00000   0.02084   0.02087   1.87976
   A45        1.89121   0.00152   0.00000   0.00462   0.00458   1.89579
   A46        1.87448   0.00296   0.00000   0.01210   0.01188   1.88636
   A47        1.93973  -0.00037   0.00000  -0.00381  -0.00385   1.93588
   A48        1.94640  -0.00440   0.00000  -0.01847  -0.01857   1.92783
   A49        1.93855  -0.00058   0.00000  -0.00459  -0.00464   1.93391
   A50        1.88878   0.00190   0.00000   0.00664   0.00656   1.89533
   A51        1.85859   0.00195   0.00000   0.01651   0.01652   1.87511
   A52        1.88855   0.00191   0.00000   0.00580   0.00570   1.89425
   A53        1.96124   0.00241   0.00000  -0.00626  -0.00634   1.95490
   A54        1.92845  -0.00068   0.00000   0.00416   0.00407   1.93253
   A55        1.94361  -0.00647   0.00000  -0.03284  -0.03300   1.91060
   A56        1.85880   0.00186   0.00000   0.01851   0.01851   1.87731
   A57        1.87542   0.00203   0.00000   0.01980   0.01964   1.89506
[...]
    12    C    1  dxz    Ryd( 3d)     0.00027
    13    C    1  dyz    Ryd( 3d)     0.00061
    14    C    1  dx2y2  Ryd( 3d)     0.00103
    15    C    1  dz2    Ryd( 3d)     0.00101
 
    16    C    2  S      Cor( 1S)     1.99900
    17    C    2  S      Val( 2S)     0.91216
    18    C    2  S      Ryd( 3S)     0.00081
    19    C    2  S      Ryd( 4S)     0.00004
    20    C    2  px     Val( 2p)     0.67497
    21    C    2  px     Ryd( 3p)     0.00339
    22    C    2  py     Val( 2p)     1.06156
    23    C    2  py     Ryd( 3p)     0.00554
    24    C    2  pz     Val( 2p)     1.05387
    25    C    2  pz     Ryd( 3p)     0.00290
    26    C    2  dxy    Ryd( 3d)     0.00096
    27    C    2  dxz    Ryd( 3d)     0.00110
    28    C    2  dyz    Ryd( 3d)     0.00090
    29    C    2  dx2y2  Ryd( 3d)     0.00185
    30    C    2  dz2    Ryd( 3d)     0.00122
 
    31    C    3  S      Cor( 1S)     1.99932
    32    C    3  S      Val( 2S)     1.09990
    33    C    3  S      Ryd( 3S)     0.00050
    34    C    3  S      Ryd( 4S)     0.00002
    35    C    3  px     Val( 2p)     1.24238
    36    C    3  px     Ryd( 3p)     0.00113
    37    C    3  py     Val( 2p)     1.25182
    38    C    3  py     Ryd( 3p)     0.00249
    39    C    3  pz     Val( 2p)     1.10085
    40    C    3  pz     Ryd( 3p)     0.00168
    41    C    3  dxy    Ryd( 3d)     0.00042
    42    C    3  dxz    Ryd( 3d)     0.00035
    43    C    3  dyz    Ryd( 3d)     0.00072
    44    C    3  dx2y2  Ryd( 3d)     0.00098
    45    C    3  dz2    Ryd( 3d)     0.00081
 
    46    C    4  S      Cor( 1S)     1.99932
    47    C    4  S      Val( 2S)     1.09915
    48    C    4  S      Ryd( 3S)     0.00060
    49    C    4  S      Ryd( 4S)     0.00002
    50    C    4  px     Val( 2p)     1.22534
    51    C    4  px     Ryd( 3p)     0.00215
    52    C    4  py     Val( 2p)     1.09607
    53    C    4  py     Ryd( 3p)     0.00168
    54    C    4  pz     Val( 2p)     1.25672
    55    C    4  pz     Ryd( 3p)     0.00252
    56    C    4  dxy    Ryd( 3d)     0.00035
    57    C    4  dxz    Ryd( 3d)     0.00034
    58    C    4  dyz    Ryd( 3d)     0.00085
    59    C    4  dx2y2  Ryd( 3d)     0.00091
    60    C    4  dz2    Ryd( 3d)     0.00083
 
    61    O    5  S      Cor( 1S)     1.99970
    62    O    5  S      Val( 2S)     1.61380
    63    O    5  S      Ryd( 3S)     0.00231
    64    O    5  S      Ryd( 4S)     0.00015
    65    O    5  px     Val( 2p)     1.44324
    66    O    5  px     Ryd( 3p)     0.00127
    67    O    5  py     Val( 2p)     1.70068
    68    O    5  py     Ryd( 3p)     0.00185
    69    O    5  pz     Val( 2p)     1.77040
    70    O    5  pz     Ryd( 3p)     0.00196
    71    O    5  dxy    Ryd( 3d)     0.00143
    72    O    5  dxz    Ryd( 3d)     0.00033
    73    O    5  dyz    Ryd( 3d)     0.00180
    74    O    5  dx2y2  Ryd( 3d)     0.00128
    75    O    5  dz2    Ryd( 3d)     0.00076
 
    76    C    6  S      Cor( 1S)     1.99951
    77    C    6  S      Val( 2S)     0.72883
    78    C    6  S      Ryd( 3S)     0.00405
    79    C    6  S      Ryd( 4S)     0.00044
    80    C    6  px     Val( 2p)     0.79344
    81    C    6  px     Ryd( 3p)     0.00647
    82    C    6  py     Val( 2p)     0.71463
    83    C    6  py     Ryd( 3p)     0.02397
    84    C    6  pz     Val( 2p)     0.78776
    85    C    6  pz     Ryd( 3p)     0.00463
    86    C    6  dxy    Ryd( 3d)     0.00411
    87    C    6  dxz    Ryd( 3d)     0.00172
    88    C    6  dyz    Ryd( 3d)     0.00284
    89    C    6  dx2y2  Ryd( 3d)     0.00301
    90    C    6  dz2    Ryd( 3d)     0.00066
 
    91    O    7  S      Cor( 1S)     1.99977
    92    O    7  S      Val( 2S)     1.70730
    93    O    7  S      Ryd( 3S)     0.00082
    94    O    7  S      Ryd( 4S)     0.00013
    95    O    7  px     Val( 2p)     1.75605
    96    O    7  px     Ryd( 3p)     0.00140
    97    O    7  py     Val( 2p)     1.59435
    98    O    7  py     Ryd( 3p)     0.00042
    99    O    7  pz     Val( 2p)     1.47658
   100    O    7  pz     Ryd( 3p)     0.00071
   101    O    7  dxy    Ryd( 3d)     0.00496
   102    O    7  dxz    Ryd( 3d)     0.00034
   103    O    7  dyz    Ryd( 3d)     0.00501
   104    O    7  dx2y2  Ryd( 3d)     0.00486
   105    O    7  dz2    Ryd( 3d)     0.00168
 
   106    N    8  S      Cor( 1S)     1.99939
   107    N    8  S      Val( 2S)     1.39540
   108    N    8  S      Ryd( 3S)     0.00610
   109    N    8  S      Ryd( 4S)     0.00003
   110    N    8  px     Val( 2p)     1.15641
   111    N    8  px     Ryd( 3p)     0.00384
   112    N    8  py     Val( 2p)     1.37623
   113    N    8  py     Ryd( 3p)     0.00457
   114    N    8  pz     Val( 2p)     1.26762
   115    N    8  pz     Ryd( 3p)     0.00430
   116    N    8  dxy    Ryd( 3d)     0.00090
   117    N    8  dxz    Ryd( 3d)     0.00158
   118    N    8  dyz    Ryd( 3d)     0.00179
   119    N    8  dx2y2  Ryd( 3d)     0.00110
   120    N    8  dz2    Ryd( 3d)     0.00226
 
   121    N    9  S      Cor( 1S)     1.99939
   122    N    9  S      Val( 2S)     1.39540
   123    N    9  S      Ryd( 3S)     0.00610
   124    N    9  S      Ryd( 4S)     0.00003
   125    N    9  px     Val( 2p)     1.15641
   126    N    9  px     Ryd( 3p)     0.00384
   127    N    9  py     Val( 2p)     1.37623
   128    N    9  py     Ryd( 3p)     0.00457
   129    N    9  pz     Val( 2p)     1.26762
   130    N    9  pz     Ryd( 3p)     0.00430
   131    N    9  dxy    Ryd( 3d)     0.00090
   132    N    9  dxz    Ryd( 3d)     0.00158
   133    N    9  dyz    Ryd( 3d)     0.00179
   134    N    9  dx2y2  Ryd( 3d)     0.00110
   135    N    9  dz2    Ryd( 3d)     0.00226
 
   136    C   10  S      Cor( 1S)     1.99951
   137    C   10  S      Val( 2S)     0.72883
   138    C   10  S      Ryd( 3S)     0.00405
   139    C   10  S      Ryd( 4S)     0.00044
   140    C   10  px     Val( 2p)     0.79344
   141    C   10  px     Ryd( 3p)     0.00647
   142    C   10  py     Val( 2p)     0.71463
   143    C   10  py     Ryd( 3p)     0.02397
   144    C   10  pz     Val( 2p)     0.78776
   145    C   10  pz     Ryd( 3p)     0.00463
   146    C   10  dxy    Ryd( 3d)     0.00411
   147    C   10  dxz    Ryd( 3d)     0.00172
   148    C   10  dyz    Ryd( 3d)     0.00284
   149    C   10  dx2y2  Ryd( 3d)     0.00301
   150    C   10  dz2    Ryd( 3d)     0.00066
 
   151    O   11  S      Cor( 1S)     1.99977
   152    O   11  S      Val( 2S)     1.70730
   153    O   11  S      Ryd( 3S)     0.00082
   154    O   11  S      Ryd( 4S)     0.00013
   155    O   11  px     Val( 2p)     1.75605
   156    O   11  px     Ryd( 3p)     0.00140
   157    O   11  py     Val( 2p)     1.59435
   158    O   11  py     Ryd( 3p)     0.00042
   159    O   11  pz     Val( 2p)     1.47658
   160    O   11  pz     Ryd( 3p)     0.00071
   161    O   11  dxy    Ryd( 3d)     0.00496
   162    O   11  dxz    Ryd( 3d)     0.00034
   163    O   11  dyz    Ryd( 3d)     0.00501
   164    O   11  dx2y2  Ryd( 3d)     0.00486
   165    O   11  dz2    Ryd( 3d)     0.00168
 
   166    O   12  S      Cor( 1S)     1.99970
   167    O   12  S      Val( 2S)     1.61380
   168    O   12  S      Ryd( 3S)     0.00231
   169    O   12  S      Ryd( 4S)     0.00015
   170    O   12  px     Val( 2p)     1.44324
   171    O   12  px     Ryd( 3p)     0.00127
   172    O   12  py     Val( 2p)     1.70068
   173    O   12  py     Ryd( 3p)     0.00185
   174    O   12  pz     Val( 2p)     1.77040
   175    O   12  pz     Ryd( 3p)     0.00196
   176    O   12  dxy    Ryd( 3d)     0.00143
   177    O   12  dxz    Ryd( 3d)     0.00033
   178    O   12  dyz    Ryd( 3d)     0.00180
   179    O   12  dx2y2  Ryd( 3d)     0.00128
   180    O   12  dz2    Ryd( 3d)     0.00076
 
   181    C   13  S      Cor( 1S)     1.99900
   182    C   13  S      Val( 2S)     0.91216
   183    C   13  S      Ryd( 3S)     0.00081
   184    C   13  S      Ryd( 4S)     0.00004
   185    C   13  px     Val( 2p)     0.67497
   186    C   13  px     Ryd( 3p)     0.00339
   187    C   13  py     Val( 2p)     1.06156
   188    C   13  py     Ryd( 3p)     0.00554
   189    C   13  pz     Val( 2p)     1.05387
   190    C   13  pz     Ryd( 3p)     0.00290
   191    C   13  dxy    Ryd( 3d)     0.00096
   192    C   13  dxz    Ryd( 3d)     0.00110
   193    C   13  dyz    Ryd( 3d)     0.00090
   194    C   13  dx2y2  Ryd( 3d)     0.00185
   195    C   13  dz2    Ryd( 3d)     0.00122
 
   196    C   14  S      Cor( 1S)     1.99932
   197    C   14  S      Val( 2S)     1.09990
   198    C   14  S      Ryd( 3S)     0.00050
   199    C   14  S      Ryd( 4S)     0.00002
   200    C   14  px     Val( 2p)     1.24238
   201    C   14  px     Ryd( 3p)     0.00113
   202    C   14  py     Val( 2p)     1.25182
   203    C   14  py     Ryd( 3p)     0.00249
   204    C   14  pz     Val( 2p)     1.10085
   205    C   14  pz     Ryd( 3p)     0.00168
   206    C   14  dxy    Ryd( 3d)     0.00042
   207    C   14  dxz    Ryd( 3d)     0.00035
   208    C   14  dyz    Ryd( 3d)     0.00072
   209    C   14  dx2y2  Ryd( 3d)     0.00098
   210    C   14  dz2    Ryd( 3d)     0.00081
 
   211    C   15  S      Cor( 1S)     1.99932
   212    C   15  S      Val( 2S)     1.09915
   213    C   15  S      Ryd( 3S)     0.00060
   214    C   15  S      Ryd( 4S)     0.00002
   215    C   15  px     Val( 2p)     1.22534
   216    C   15  px     Ryd( 3p)     0.00215
   217    C   15  py     Val( 2p)     1.09607
   218    C   15  py     Ryd( 3p)     0.00168
   219    C   15  pz     Val( 2p)     1.25672
   220    C   15  pz     Ryd( 3p)     0.00252
   221    C   15  dxy    Ryd( 3d)     0.00035
   222    C   15  dxz    Ryd( 3d)     0.00034
   223    C   15  dyz    Ryd( 3d)     0.00085
   224    C   15  dx2y2  Ryd( 3d)     0.00091
   225    C   15  dz2    Ryd( 3d)     0.00083
 
   226    C   16  S      Cor( 1S)     1.99932
   227    C   16  S      Val( 2S)     1.09990
   228    C   16  S      Ryd( 3S)     0.00051
   229    C   16  S      Ryd( 4S)     0.00002
   230    C   16  px     Val( 2p)     1.22299
   231    C   16  px     Ryd( 3p)     0.00130
   232    C   16  py     Val( 2p)     1.20877
   233    C   16  py     Ryd( 3p)     0.00230
   234    C   16  pz     Val( 2p)     1.16412
   235    C   16  pz     Ryd( 3p)     0.00183
   236    C   16  dxy    Ryd( 3d)     0.00036
   237    C   16  dxz    Ryd( 3d)     0.00027
   238    C   16  dyz    Ryd( 3d)     0.00061
   239    C   16  dx2y2  Ryd( 3d)     0.00103
   240    C   16  dz2    Ryd( 3d)     0.00101
 
   241    H   17  S      Val( 1S)     0.75771
   242    H   17  S      Ryd( 2S)     0.00074
 
   243    H   18  S      Val( 1S)     0.75805
   244    H   18  S      Ryd( 2S)     0.00112
 
   245    H   19  S      Val( 1S)     0.74141
   246    H   19  S      Ryd( 2S)     0.00138
 
   247    H   20  S      Val( 1S)     0.75946
   248    H   20  S      Ryd( 2S)     0.00077
 
   249    H   21  S      Val( 1S)     0.74130
   250    H   21  S      Ryd( 2S)     0.00125
 
   251    H   22  S      Val( 1S)     0.75724
   252    H   22  S      Ryd( 2S)     0.00112
 
   253    H   23  S      Val( 1S)     0.76041
   254    H   23  S      Ryd( 2S)     0.00068
 
   255    H   24  S      Val( 1S)     0.75319
   256    H   24  S      Ryd( 2S)     0.00104
 
   257    H   25  S      Val( 1S)     0.75432
   258    H   25  S      Ryd( 2S)     0.00105
 
   259    H   26  S      Val( 1S)     0.75724
   260    H   26  S      Ryd( 2S)     0.00112
 
   261    H   27  S      Val( 1S)     0.74130
   262    H   27  S      Ryd( 2S)     0.00125
 
   263    H   28  S      Val( 1S)     0.75946
   264    H   28  S      Ryd( 2S)     0.00077
 
   265    H   29  S      Val( 1S)     0.75319
   266    H   29  S      Ryd( 2S)     0.00104
 
   267    H   30  S      Val( 1S)     0.76041
   268    H   30  S      Ryd( 2S)     0.00068
 
   269    H   31  S      Val( 1S)     0.75432
   270    H   31  S      Ryd( 2S)     0.00105
 
   271    H   32  S      Val( 1S)     0.74141
   272    H   32  S      Ryd( 2S)     0.00138
 
   273    H   33  S      Val( 1S)     0.75805
   274    H   33  S      Ryd( 2S)     0.00112
 
   275    H   34  S      Val( 1S)     0.75771
   276    H   34  S      Ryd( 2S)     0.00074

 WARNING:  1 low occupancy (<1.9990e) core orbital  found on  C    2
           1 low occupancy (<1.9990e) core orbital  found on  C   13


 Summary of Natural Population Analysis:                  
                                                          
                                       Natural Population 
                Natural  -----------------------------------------------
    Atom  No    Charge         Core      Valence    Rydberg      Total
 -----------------------------------------------------------------------
      C    1   -0.70432      1.99932     4.69578    0.00922     6.70432
      C    2    0.27974      1.99900     3.70255    0.01871     5.72026
      C    3   -0.70336      1.99932     4.69495    0.00909     6.70336
      C    4   -0.68686      1.99932     4.67729    0.01025     6.68686
      O    5   -0.54098      1.99970     6.52813    0.01315     8.54098
      C    6    0.92394      1.99951     3.02466    0.05189     5.07606
      O    7   -0.55437      1.99977     6.53429    0.02032     8.55437
      N    8   -0.22153      1.99939     5.19566    0.02648     7.22153
      N    9   -0.22153      1.99939     5.19566    0.02648     7.22153
      C   10    0.92394      1.99951     3.02466    0.05189     5.07606
      O   11   -0.55438      1.99977     6.53429    0.02032     8.55438
      O   12   -0.54098      1.99970     6.52813    0.01315     8.54098
      C   13    0.27974      1.99900     3.70255    0.01871     5.72026
      C   14   -0.70336      1.99932     4.69495    0.00909     6.70336
      C   15   -0.68686      1.99932     4.67729    0.01025     6.68686
      C   16   -0.70432      1.99932     4.69578    0.00922     6.70432
      H   17    0.24155      0.00000     0.75771    0.00074     0.75845
      H   18    0.24083      0.00000     0.75805    0.00112     0.75917
      H   19    0.25721      0.00000     0.74141    0.00138     0.74279
      H   20    0.23977      0.00000     0.75946    0.00077     0.76023
      H   21    0.25745      0.00000     0.74130    0.00125     0.74255
      H   22    0.24163      0.00000     0.75724    0.00112     0.75837
      H   23    0.23891      0.00000     0.76041    0.00068     0.76109
      H   24    0.24576      0.00000     0.75319    0.00104     0.75424
      H   25    0.24463      0.00000     0.75432    0.00105     0.75537
      H   26    0.24163      0.00000     0.75724    0.00112     0.75837
      H   27    0.25745      0.00000     0.74130    0.00125     0.74255
      H   28    0.23977      0.00000     0.75946    0.00077     0.76023
      H   29    0.24576      0.00000     0.75319    0.00104     0.75424
      H   30    0.23891      0.00000     0.76041    0.00068     0.76109
      H   31    0.24463      0.00000     0.75432    0.00105     0.75537
      H   32    0.25721      0.00000     0.74141    0.00138     0.74279
      H   33    0.24083      0.00000     0.75805    0.00112     0.75917
      H   34    0.24155      0.00000     0.75771    0.00074     0.75845
 =======================================================================
   * Total *    0.00000     31.99063    91.67281    0.33656   124.00000

                                 Natural Population      
 --------------------------------------------------------
   Core                      31.99063 ( 99.9707% of  32)
   Valence                   91.67281 ( 99.6444% of  92)
   Natural Minimal Basis    123.66344 ( 99.7286% of 124)
   Natural Rydberg Basis      0.33656 (  0.2714% of 124)
 --------------------------------------------------------

    Atom  No          Natural Electron Configuration
 ----------------------------------------------------------------------------
      C    1      [core]2S( 1.10)2p( 3.60)3p( 0.01)
      C    2      [core]2S( 0.91)2p( 2.79)3p( 0.01)3d( 0.01)
      C    3      [core]2S( 1.10)2p( 3.60)3p( 0.01)
      C    4      [core]2S( 1.10)2p( 3.58)3p( 0.01)
      O    5      [core]2S( 1.61)2p( 4.91)3p( 0.01)3d( 0.01)
      C    6      [core]2S( 0.73)2p( 2.30)3p( 0.04)3d( 0.01)
      O    7      [core]2S( 1.71)2p( 4.83)3d( 0.02)
      N    8      [core]2S( 1.40)2p( 3.80)3S( 0.01)3p( 0.01)3d( 0.01)
      N    9      [core]2S( 1.40)2p( 3.80)3S( 0.01)3p( 0.01)3d( 0.01)
      C   10      [core]2S( 0.73)2p( 2.30)3p( 0.04)3d( 0.01)
      O   11      [core]2S( 1.71)2p( 4.83)3d( 0.02)
      O   12      [core]2S( 1.61)2p( 4.91)3p( 0.01)3d( 0.01)
      C   13      [core]2S( 0.91)2p( 2.79)3p( 0.01)3d( 0.01)
      C   14      [core]2S( 1.10)2p( 3.60)3p( 0.01)
      C   15      [core]2S( 1.10)2p( 3.58)3p( 0.01)
      C   16      [core]2S( 1.10)2p( 3.60)3p( 0.01)
      H   17            1S( 0.76)
      H   18            1S( 0.76)
      H   19            1S( 0.74)
      H   20            1S( 0.76)
      H   21            1S( 0.74)
      H   22            1S( 0.76)
      H   23            1S( 0.76)
      H   24            1S( 0.75)
      H   25            1S( 0.75)
      H   26            1S( 0.76)
      H   27            1S( 0.74)
      H   28            1S( 0.76)
      H   29            1S( 0.75)
      H   30            1S( 0.76)
      H   31            1S( 0.75)
      H   32            1S( 0.74)
      H   33            1S( 0.76)
      H   34            1S( 0.76)


 NBO analysis skipped by request.
 1\1\GINC-DELLA-R2C4N6\SP\RB3LYP TD-FC\6-31G(d)\C10H18N2O4\BJS4\22-Aug-
 2020\0\\# TD(NStates=10, Root=1) B3LYP/6-31G* scf=qc volume pop=NPA de
 nsity=current Geom=AllCheck Guess=Read\\Title Card Required\\0,1\C,0,4
 .5116292342,1.1406820165,-1.5830072675\C,0,5.7448928957,0.5394276624,-
 0.9051523434\C,0,5.7405288101,-0.9908515594,-0.9201056585\C,0,7.035782
 1251,1.0967565187,-1.5048776589\O,0,5.8178076997,1.0169715837,0.503600
 9553\C,0,4.8560765948,0.7452088286,1.3742357346\O,0,3.833969036,0.1194
 925267,1.2294449063\N,0,5.1192951091,1.4364114215,2.6254730704\N,0,5.9
 657409678,0.8558512307,3.3307201215\C,0,6.2289599471,1.5470543949,4.58
 19566001\O,0,7.2510808261,2.1727474078,4.7267540994\O,0,5.2672127497,1
 .2753199988,5.4525823713\C,0,5.3401245144,1.7528690382,6.8613343697\C,
 0,5.3445247459,3.2831481469,6.8762796037\C,0,4.0492161663,1.195573207,
 7.4610492715\C,0,6.5733671344,1.1515891215,7.5392049334\H,0,4.52104738
 6,0.8804759218,-2.6472042759\H,0,4.5234115555,2.2327283469,-1.50051711
 14\H,0,3.5887931691,0.7610750285,-1.1405703997\H,0,5.8091642095,-1.343
 333587,-1.9552211198\H,0,4.8269100175,-1.3900517021,-0.4758411807\H,0,
 6.603305616,-1.3804842098,-0.3696698709\H,0,7.1103916314,0.8094539713,
 -2.5588574628\H,0,7.9094133813,0.7051801677,-0.974672843\H,0,7.0533351
 018,2.1891812413,-1.4402853147\H,0,4.4817620429,3.6727984948,6.3258342
 556\H,0,6.2581570266,3.6823235191,6.4320206361\H,0,5.2758890288,3.6356
 373608,7.9113925818\H,0,3.1755994604,1.5871668854,6.930833277\H,0,3.97
 46023464,1.4828831032,8.5150267729\H,0,4.0316387122,0.103148548,7.3964
 625698\H,0,7.4962168392,1.5311734373,7.0967770553\H,0,6.5615609047,0.0
 595427807,7.4567184002\H,0,6.5639430142,1.4117991478,8.6034009212\\Ver
 sion=ES64L-G16RevA.03\State=1-A\HF=-802.2811441\RMSD=3.592e-09\Dipole=
 -0.0000159,0.0000162,-0.0000138\Quadrupole=-11.2246833,-5.9994448,17.2
 24128,-3.927698,-3.8975461,2.3670977\PG=C01 [X(C10H18N2O4)]\\@


 YE HAVE SOWN MUCH, AND BRING IN LITTLE.
 YE EAT, BUT YE HAVE NOT ENOUGH.
 YE DRINK, BUT YE ARE NOT FILLED WITH DRINK.
 YE CLOTHE YOU, BUT THERE IS NONE WARM.
 AND HE THAT EARNETH WAGES EARNETH WAGES TO PUT
 IT INTO A BAG WITH HOLES.
                                     HAGGAI I,6
 Job cpu time:       0 days  0 hours 31 minutes 35.0 seconds.
 Elapsed time:       0 days  0 hours  6 minutes 20.3 seconds.
 File lengths (MBytes):  RWF=    679 Int=      0 D2E=      0 Chk=    268 Scr=      1
 Normal termination of Gaussian 16 at Sat Aug 22 13:48:47 2020.
