 Entering Gaussian System, Link 0=g16
 Input=azadicarboxylate_5_conf4123.com
 Output=azadicarboxylate_5_conf4123.log
 Initial command:
 /opt/export//g16/l1.exe "/scratch/bjs4/job.32199/Gau-32201.inp" -scrdir="/scratch/bjs4/job.32199/"
 Entering Link 1 = /opt/export//g16/l1.exe PID=     32202.
  
 Copyright (c) 1988,1990,1992,1993,1995,1998,2003,2009,2016,
            Gaussian, Inc.  All Rights Reserved.
  
 This is part of the Gaussian(R) 16 program.  It is based on
 the Gaussian(R) 09 system (copyright 2009, Gaussian, Inc.),
 the Gaussian(R) 03 system (copyright 2003, Gaussian, Inc.),
 the Gaussian(R) 98 system (copyright 1998, Gaussian, Inc.),
 the Gaussian(R) 94 system (copyright 1995, Gaussian, Inc.),
 the Gaussian 92(TM) system (copyright 1992, Gaussian, Inc.),
 the Gaussian 90(TM) system (copyright 1990, Gaussian, Inc.),
 the Gaussian 88(TM) system (copyright 1988, Gaussian, Inc.),
 the Gaussian 86(TM) system (copyright 1986, Carnegie Mellon
 University), and the Gaussian 82(TM) system (copyright 1983,
 Carnegie Mellon University). Gaussian is a federally registered
 trademark of Gaussian, Inc.
  
 This software contains proprietary and confidential information,
 including trade secrets, belonging to Gaussian, Inc.
  
 This software is provided under written license and may be
 used, copied, transmitted, or stored only in accord with that
 written license.
  
 The following legend is applicable only to US Government
 contracts under FAR:
  
                    RESTRICTED RIGHTS LEGEND
  
 Use, reproduction and disclosure by the US Government is
 subject to restrictions as set forth in subparagraphs (a)
 and (c) of the Commercial Computer Software - Restricted
 Rights clause in FAR 52.227-19.
  
 Gaussian, Inc.
 340 Quinnipiac St., Bldg. 40, Wallingford CT 06492
  
  
 ---------------------------------------------------------------
 Warning -- This program may not be used in any manner that
 competes with the business of Gaussian, Inc. or will provide
 assistance to any competitor of Gaussian, Inc.  The licensee
 of this program is prohibited from giving any competitor of
 Gaussian, Inc. access to this program.  By using this program,
 the user acknowledges that Gaussian, Inc. is engaged in the
 business of creating and licensing software in the field of
 computational chemistry and represents and warrants to the
 licensee that it is not a competitor of Gaussian, Inc. and that
 it will not use this program in any manner prohibited above.
 ---------------------------------------------------------------
  

 Cite this work as:
 Gaussian 16, Revision A.03,
 M. J. Frisch, G. W. Trucks, H. B. Schlegel, G. E. Scuseria, 
 M. A. Robb, J. R. Cheeseman, G. Scalmani, V. Barone, 
 G. A. Petersson, H. Nakatsuji, X. Li, M. Caricato, A. V. Marenich, 
 J. Bloino, B. G. Janesko, R. Gomperts, B. Mennucci, H. P. Hratchian, 
 J. V. Ortiz, A. F. Izmaylov, J. L. Sonnenberg, D. Williams-Young, 
 F. Ding, F. Lipparini, F. Egidi, J. Goings, B. Peng, A. Petrone, 
 T. Henderson, D. Ranasinghe, V. G. Zakrzewski, J. Gao, N. Rega, 
 G. Zheng, W. Liang, M. Hada, M. Ehara, K. Toyota, R. Fukuda, 
 J. Hasegawa, M. Ishida, T. Nakajima, Y. Honda, O. Kitao, H. Nakai, 
 T. Vreven, K. Throssell, J. A. Montgomery, Jr., J. E. Peralta, 
 F. Ogliaro, M. J. Bearpark, J. J. Heyd, E. N. Brothers, K. N. Kudin, 
 V. N. Staroverov, T. A. Keith, R. Kobayashi, J. Normand, 
 K. Raghavachari, A. P. Rendell, J. C. Burant, S. S. Iyengar, 
 J. Tomasi, M. Cossi, J. M. Millam, M. Klene, C. Adamo, R. Cammi, 
 J. W. Ochterski, R. L. Martin, K. Morokuma, O. Farkas, 
 J. B. Foresman, and D. J. Fox, Gaussian, Inc., Wallingford CT, 2016.
 
 ******************************************
 Gaussian 16:  ES64L-G16RevA.03 25-Dec-2016
                22-Aug-2020 
 ******************************************
 %nprocshared=5
 Will use up to    5 processors via shared memory.
 %Mem=10GB
 %Chk=azadicarboxylate_5_conf41.chk
 ---------------------------------
 # opt=CalcAll B3LYP/6-31G* scf=qc
 ---------------------------------
 1/10=4,18=20,19=15,26=3,38=1/1,3;
 2/9=110,12=2,17=6,18=5,40=1/2;
 3/5=1,6=6,7=1,11=2,25=1,30=1,71=2,74=-5,140=1/1,2,3;
 4//1;
 5/5=2,8=3,38=5/8;
 8/6=4,10=90,11=11/1;
 11/6=1,8=1,9=11,15=111,16=1/1,2,10;
 10/6=1/2;
 6/7=2,8=2,9=2,10=2,18=1,28=1/1;
 7/10=1,25=1/1,2,3,16;
 1/10=4,18=20,19=15,26=3/3(3);
 2/9=110/2;
 7/8=1,9=1,25=1,44=-1/16;
 99//99;
 2/9=110/2;
 3/5=1,6=6,7=1,11=2,25=1,30=1,71=2,74=-5,140=1/1,2,3;
 4/5=5,16=3,69=1/1;
 5/5=2,8=3,38=5/8;
 8/6=4,10=90,11=11/1;
 11/6=1,8=1,9=11,15=111,16=1/1,2,10;
 10/6=1/2;
 7/10=1,25=1/1,2,3,16;
 1/10=4,18=20,19=15,26=3/3(-8);
 2/9=110/2;
 6/7=2,8=2,9=2,10=2,18=1,19=2,28=1/1;
 7/8=1,9=1,25=1,44=-1/16;
 99//99;
 -------------------
 Title Card Required
 -------------------
 Symbolic Z-matrix:
 Charge =  0 Multiplicity = 1
 C2                    0.8141    0.1461    0.0473 
 O3                    1.90895  -0.07688  -0.47327 
 N4                    0.2028    1.3863    0.0651 
 N5                   -1.0496    1.3066    0.0658 
 C6                   -1.6625    2.5457    0.0392 
 O7                   -2.75799   2.76337  -0.48227 
 N8                   -0.95989   3.57693   0.66703 
 C                    -1.52198   4.92158   0.70843 
 C                    -1.41489   5.51542   2.11114 
 C                     0.02006   5.45703   2.63125 
 C                     0.57947   4.03735   2.539 
 C                     0.42181   3.45461   1.13432 
 N1                    0.10816  -0.8807    0.68426 
 C                     0.67015  -2.22588   0.73384 
 C                     0.56854  -2.80731   2.14188 
 C                    -0.86389  -2.74177   2.66815 
 C                    -1.42113  -1.32185   2.56637 
 C                    -1.26904  -0.75195   1.15587 
 H                    -2.56792   4.92641   0.38947 
 H                    -0.95979   5.53443  -0.00707 
 H                    -2.06634   4.95449   2.79293 
 H                    -1.76816   6.55275   2.10649 
 H                     0.05132   5.80127   3.67139 
 H                     0.64966   6.1397    2.04793 
 H                     0.04813   3.39862   3.25542 
 H                     1.63664   4.03672   2.82713 
 H                     0.76124   2.41551   1.12761 
 H                     1.05174   4.00731   0.4261 
 H                     1.71535  -2.2346    0.41045 
 H                     0.10421  -2.84347   0.02563 
 H                     1.22388  -2.24142   2.81598 
 H                     0.91991  -3.84501   2.14447 
 H                    -0.89086  -3.07721   3.71136 
 H                    -1.49753  -3.42823   2.09358 
 H                    -0.88527  -0.67791   3.27462 
 H                    -2.47685  -1.31681   2.85974 
 H                    -1.60748   0.28723   1.14092 
 H                    -1.9029   -1.31036   0.4558 
 

 GradGradGradGradGradGradGradGradGradGradGradGradGradGradGradGradGradGrad
 Berny optimization.
 Initialization pass.
                           ----------------------------
                           !    Initial Parameters    !
                           ! (Angstroms and Degrees)  !
 --------------------------                            --------------------------
 ! Name  Definition              Value          Derivative Info.                !
 --------------------------------------------------------------------------------
 ! R1    R(1,2)                  1.2326         calculate D2E/DX2 analytically  !
 ! R2    R(1,3)                  1.3828         calculate D2E/DX2 analytically  !
 ! R3    R(1,13)                 1.3994         calculate D2E/DX2 analytically  !
 ! R4    R(3,4)                  1.2549         calculate D2E/DX2 analytically  !
 ! R5    R(4,5)                  1.3827         calculate D2E/DX2 analytically  !
 ! R6    R(5,6)                  1.2326         calculate D2E/DX2 analytically  !
 ! R7    R(5,7)                  1.3969         calculate D2E/DX2 analytically  !
 ! R8    R(7,8)                  1.458          calculate D2E/DX2 analytically  !
 ! R9    R(7,12)                 1.4637         calculate D2E/DX2 analytically  !
 ! R10   R(8,9)                  1.527          calculate D2E/DX2 analytically  !
 ! R11   R(8,19)                 1.0935         calculate D2E/DX2 analytically  !
 ! R12   R(8,20)                 1.0971         calculate D2E/DX2 analytically  !
 ! R13   R(9,10)                 1.5274         calculate D2E/DX2 analytically  !
 ! R14   R(9,21)                 1.0972         calculate D2E/DX2 analytically  !
 ! R15   R(9,22)                 1.0958         calculate D2E/DX2 analytically  !
 ! R16   R(10,11)                1.5287         calculate D2E/DX2 analytically  !
 ! R17   R(10,23)                1.0961         calculate D2E/DX2 analytically  !
 ! R18   R(10,24)                1.0967         calculate D2E/DX2 analytically  !
 ! R19   R(11,12)                1.5289         calculate D2E/DX2 analytically  !
 ! R20   R(11,25)                1.0971         calculate D2E/DX2 analytically  !
 ! R21   R(11,26)                1.0957         calculate D2E/DX2 analytically  !
 ! R22   R(12,27)                1.0932         calculate D2E/DX2 analytically  !
 ! R23   R(12,28)                1.0972         calculate D2E/DX2 analytically  !
 ! R24   R(13,14)                1.4587         calculate D2E/DX2 analytically  !
 ! R25   R(13,18)                1.4614         calculate D2E/DX2 analytically  !
 ! R26   R(14,15)                1.5267         calculate D2E/DX2 analytically  !
 ! R27   R(14,29)                1.0941         calculate D2E/DX2 analytically  !
 ! R28   R(14,30)                1.0969         calculate D2E/DX2 analytically  !
 ! R29   R(15,16)                1.5275         calculate D2E/DX2 analytically  !
 ! R30   R(15,31)                1.0973         calculate D2E/DX2 analytically  !
 ! R31   R(15,32)                1.0956         calculate D2E/DX2 analytically  !
 ! R32   R(16,17)                1.5287         calculate D2E/DX2 analytically  !
 ! R33   R(16,33)                1.0961         calculate D2E/DX2 analytically  !
 ! R34   R(16,34)                1.0967         calculate D2E/DX2 analytically  !
 ! R35   R(17,18)                1.5289         calculate D2E/DX2 analytically  !
 ! R36   R(17,35)                1.097          calculate D2E/DX2 analytically  !
 ! R37   R(17,36)                1.0957         calculate D2E/DX2 analytically  !
 ! R38   R(18,37)                1.093          calculate D2E/DX2 analytically  !
 ! R39   R(18,38)                1.0971         calculate D2E/DX2 analytically  !
 ! A1    A(2,1,3)              124.0792         calculate D2E/DX2 analytically  !
 ! A2    A(2,1,13)             120.501          calculate D2E/DX2 analytically  !
 ! A3    A(3,1,13)             115.4172         calculate D2E/DX2 analytically  !
 ! A4    A(1,3,4)              112.5961         calculate D2E/DX2 analytically  !
 ! A5    A(3,4,5)              112.6722         calculate D2E/DX2 analytically  !
 ! A6    A(4,5,6)              124.08           calculate D2E/DX2 analytically  !
 ! A7    A(4,5,7)              115.4665         calculate D2E/DX2 analytically  !
 ! A8    A(6,5,7)              120.4507         calculate D2E/DX2 analytically  !
 ! A9    A(5,7,8)              119.9801         calculate D2E/DX2 analytically  !
 ! A10   A(5,7,12)             123.8212         calculate D2E/DX2 analytically  !
 ! A11   A(8,7,12)             115.5903         calculate D2E/DX2 analytically  !
 ! A12   A(7,8,9)              110.9596         calculate D2E/DX2 analytically  !
 ! A13   A(7,8,19)             111.3796         calculate D2E/DX2 analytically  !
 ! A14   A(7,8,20)             107.4045         calculate D2E/DX2 analytically  !
 ! A15   A(9,8,19)             109.4697         calculate D2E/DX2 analytically  !
 ! A16   A(9,8,20)             110.2381         calculate D2E/DX2 analytically  !
 ! A17   A(19,8,20)            107.3046         calculate D2E/DX2 analytically  !
 ! A18   A(8,9,10)             111.335          calculate D2E/DX2 analytically  !
 ! A19   A(8,9,21)             109.2903         calculate D2E/DX2 analytically  !
 ! A20   A(8,9,22)             109.9758         calculate D2E/DX2 analytically  !
 ! A21   A(10,9,21)            109.0659         calculate D2E/DX2 analytically  !
 ! A22   A(10,9,22)            109.9066         calculate D2E/DX2 analytically  !
 ! A23   A(21,9,22)            107.1677         calculate D2E/DX2 analytically  !
 ! A24   A(9,10,11)            111.0226         calculate D2E/DX2 analytically  !
 ! A25   A(9,10,23)            109.7507         calculate D2E/DX2 analytically  !
 ! A26   A(9,10,24)            109.5377         calculate D2E/DX2 analytically  !
 ! A27   A(11,10,23)           109.7854         calculate D2E/DX2 analytically  !
 ! A28   A(11,10,24)           109.6281         calculate D2E/DX2 analytically  !
 ! A29   A(23,10,24)           107.0304         calculate D2E/DX2 analytically  !
 ! A30   A(10,11,12)           111.8187         calculate D2E/DX2 analytically  !
 ! A31   A(10,11,25)           108.9082         calculate D2E/DX2 analytically  !
 ! A32   A(10,11,26)           109.7383         calculate D2E/DX2 analytically  !
 ! A33   A(12,11,25)           109.1545         calculate D2E/DX2 analytically  !
 ! A34   A(12,11,26)           109.9294         calculate D2E/DX2 analytically  !
 ! A35   A(25,11,26)           107.1713         calculate D2E/DX2 analytically  !
 ! A36   A(7,12,11)            111.0266         calculate D2E/DX2 analytically  !
 ! A37   A(7,12,27)            111.7518         calculate D2E/DX2 analytically  !
 ! A38   A(7,12,28)            107.0851         calculate D2E/DX2 analytically  !
 ! A39   A(11,12,27)           109.6285         calculate D2E/DX2 analytically  !
 ! A40   A(11,12,28)           109.9883         calculate D2E/DX2 analytically  !
 ! A41   A(27,12,28)           107.2532         calculate D2E/DX2 analytically  !
 ! A42   A(1,13,14)            119.8514         calculate D2E/DX2 analytically  !
 ! A43   A(1,13,18)            123.8921         calculate D2E/DX2 analytically  !
 ! A44   A(14,13,18)           115.6802         calculate D2E/DX2 analytically  !
 ! A45   A(13,14,15)           110.9098         calculate D2E/DX2 analytically  !
 ! A46   A(13,14,29)           111.4288         calculate D2E/DX2 analytically  !
 ! A47   A(13,14,30)           107.3666         calculate D2E/DX2 analytically  !
 ! A48   A(15,14,29)           109.459          calculate D2E/DX2 analytically  !
 ! A49   A(15,14,30)           110.2843         calculate D2E/DX2 analytically  !
 ! A50   A(29,14,30)           107.3102         calculate D2E/DX2 analytically  !
 ! A51   A(14,15,16)           111.3352         calculate D2E/DX2 analytically  !
 ! A52   A(14,15,31)           109.2936         calculate D2E/DX2 analytically  !
 ! A53   A(14,15,32)           109.9711         calculate D2E/DX2 analytically  !
 ! A54   A(16,15,31)           109.0432         calculate D2E/DX2 analytically  !
 ! A55   A(16,15,32)           109.9129         calculate D2E/DX2 analytically  !
 ! A56   A(31,15,32)           107.1856         calculate D2E/DX2 analytically  !
 ! A57   A(15,16,17)           111.0233         calculate D2E/DX2 analytically  !
 ! A58   A(15,16,33)           109.7457         calculate D2E/DX2 analytically  !
 ! A59   A(15,16,34)           109.5389         calculate D2E/DX2 analytically  !
 ! A60   A(17,16,33)           109.7933         calculate D2E/DX2 analytically  !
 ! A61   A(17,16,34)           109.626          calculate D2E/DX2 analytically  !
 ! A62   A(33,16,34)           107.0276         calculate D2E/DX2 analytically  !
 ! A63   A(16,17,18)           111.8013         calculate D2E/DX2 analytically  !
 ! A64   A(16,17,35)           108.9156         calculate D2E/DX2 analytically  !
 ! A65   A(16,17,36)           109.7334         calculate D2E/DX2 analytically  !
 ! A66   A(18,17,35)           109.1616         calculate D2E/DX2 analytically  !
 ! A67   A(18,17,36)           109.9464         calculate D2E/DX2 analytically  !
 ! A68   A(35,17,36)           107.1623         calculate D2E/DX2 analytically  !
 ! A69   A(13,18,17)           111.0164         calculate D2E/DX2 analytically  !
 ! A70   A(13,18,37)           111.7866         calculate D2E/DX2 analytically  !
 ! A71   A(13,18,38)           107.0794         calculate D2E/DX2 analytically  !
 ! A72   A(17,18,37)           109.6467         calculate D2E/DX2 analytically  !
 ! A73   A(17,18,38)           109.9678         calculate D2E/DX2 analytically  !
 ! A74   A(37,18,38)           107.2347         calculate D2E/DX2 analytically  !
 ! D1    D(2,1,3,4)            149.647          calculate D2E/DX2 analytically  !
 ! D2    D(13,1,3,4)           -30.9426         calculate D2E/DX2 analytically  !
 ! D3    D(2,1,13,14)            0.0001         calculate D2E/DX2 analytically  !
 ! D4    D(2,1,13,18)         -170.9097         calculate D2E/DX2 analytically  !
 ! D5    D(3,1,13,14)         -179.4332         calculate D2E/DX2 analytically  !
 ! D6    D(3,1,13,18)            9.657          calculate D2E/DX2 analytically  !
 ! D7    D(1,3,4,5)           -178.0064         calculate D2E/DX2 analytically  !
 ! D8    D(3,4,5,6)            149.647          calculate D2E/DX2 analytically  !
 ! D9    D(3,4,5,7)            -30.9646         calculate D2E/DX2 analytically  !
 ! D10   D(4,5,7,8)           -179.4116         calculate D2E/DX2 analytically  !
 ! D11   D(4,5,7,12)             9.935          calculate D2E/DX2 analytically  !
 ! D12   D(6,5,7,8)              0.0007         calculate D2E/DX2 analytically  !
 ! D13   D(6,5,7,12)          -170.6527         calculate D2E/DX2 analytically  !
 ! D14   D(5,7,8,9)            133.4704         calculate D2E/DX2 analytically  !
 ! D15   D(5,7,8,19)            11.2442         calculate D2E/DX2 analytically  !
 ! D16   D(5,7,8,20)          -105.9803         calculate D2E/DX2 analytically  !
 ! D17   D(12,7,8,9)           -55.1332         calculate D2E/DX2 analytically  !
 ! D18   D(12,7,8,19)         -177.3594         calculate D2E/DX2 analytically  !
 ! D19   D(12,7,8,20)           65.4161         calculate D2E/DX2 analytically  !
 ! D20   D(5,7,12,11)         -134.8054         calculate D2E/DX2 analytically  !
 ! D21   D(5,7,12,27)          -12.0641         calculate D2E/DX2 analytically  !
 ! D22   D(5,7,12,28)          105.1108         calculate D2E/DX2 analytically  !
 ! D23   D(8,7,12,11)           54.168          calculate D2E/DX2 analytically  !
 ! D24   D(8,7,12,27)          176.9093         calculate D2E/DX2 analytically  !
 ! D25   D(8,7,12,28)          -65.9158         calculate D2E/DX2 analytically  !
 ! D26   D(7,8,9,10)            53.4578         calculate D2E/DX2 analytically  !
 ! D27   D(7,8,9,21)           -67.0898         calculate D2E/DX2 analytically  !
 ! D28   D(7,8,9,22)           175.525          calculate D2E/DX2 analytically  !
 ! D29   D(19,8,9,10)          176.7886         calculate D2E/DX2 analytically  !
 ! D30   D(19,8,9,21)           56.2409         calculate D2E/DX2 analytically  !
 ! D31   D(19,8,9,22)          -61.1442         calculate D2E/DX2 analytically  !
 ! D32   D(20,8,9,10)          -65.3983         calculate D2E/DX2 analytically  !
 ! D33   D(20,8,9,21)          174.0541         calculate D2E/DX2 analytically  !
 ! D34   D(20,8,9,22)           56.6689         calculate D2E/DX2 analytically  !
 ! D35   D(8,9,10,11)          -53.1496         calculate D2E/DX2 analytically  !
 ! D36   D(8,9,10,23)         -174.7029         calculate D2E/DX2 analytically  !
 ! D37   D(8,9,10,24)           68.0641         calculate D2E/DX2 analytically  !
 ! D38   D(21,9,10,11)          67.53           calculate D2E/DX2 analytically  !
 ! D39   D(21,9,10,23)         -54.0232         calculate D2E/DX2 analytically  !
 ! D40   D(21,9,10,24)        -171.2563         calculate D2E/DX2 analytically  !
 ! D41   D(22,9,10,11)        -175.2568         calculate D2E/DX2 analytically  !
 ! D42   D(22,9,10,23)          63.1899         calculate D2E/DX2 analytically  !
 ! D43   D(22,9,10,24)         -54.0431         calculate D2E/DX2 analytically  !
 ! D44   D(9,10,11,12)          52.4208         calculate D2E/DX2 analytically  !
 ! D45   D(9,10,11,25)         -68.2916         calculate D2E/DX2 analytically  !
 ! D46   D(9,10,11,26)         174.6786         calculate D2E/DX2 analytically  !
 ! D47   D(23,10,11,12)        173.9537         calculate D2E/DX2 analytically  !
 ! D48   D(23,10,11,25)         53.2413         calculate D2E/DX2 analytically  !
 ! D49   D(23,10,11,26)        -63.7884         calculate D2E/DX2 analytically  !
 ! D50   D(24,10,11,12)        -68.7398         calculate D2E/DX2 analytically  !
 ! D51   D(24,10,11,25)        170.5478         calculate D2E/DX2 analytically  !
 ! D52   D(24,10,11,26)         53.518          calculate D2E/DX2 analytically  !
 ! D53   D(10,11,12,7)         -51.6943         calculate D2E/DX2 analytically  !
 ! D54   D(10,11,12,27)       -175.6541         calculate D2E/DX2 analytically  !
 ! D55   D(10,11,12,28)         66.6484         calculate D2E/DX2 analytically  !
 ! D56   D(25,11,12,7)          68.8747         calculate D2E/DX2 analytically  !
 ! D57   D(25,11,12,27)        -55.0851         calculate D2E/DX2 analytically  !
 ! D58   D(25,11,12,28)       -172.7826         calculate D2E/DX2 analytically  !
 ! D59   D(26,11,12,7)        -173.8427         calculate D2E/DX2 analytically  !
 ! D60   D(26,11,12,27)         62.1975         calculate D2E/DX2 analytically  !
 ! D61   D(26,11,12,28)        -55.5            calculate D2E/DX2 analytically  !
 ! D62   D(1,13,14,15)         133.2485         calculate D2E/DX2 analytically  !
 ! D63   D(1,13,14,29)          11.0368         calculate D2E/DX2 analytically  !
 ! D64   D(1,13,14,30)        -106.1988         calculate D2E/DX2 analytically  !
 ! D65   D(18,13,14,15)        -55.1188         calculate D2E/DX2 analytically  !
 ! D66   D(18,13,14,29)       -177.3305         calculate D2E/DX2 analytically  !
 ! D67   D(18,13,14,30)         65.4339         calculate D2E/DX2 analytically  !
 ! D68   D(1,13,18,17)        -134.5528         calculate D2E/DX2 analytically  !
 ! D69   D(1,13,18,37)         -11.7705         calculate D2E/DX2 analytically  !
 ! D70   D(1,13,18,38)         105.3978         calculate D2E/DX2 analytically  !
 ! D71   D(14,13,18,17)         54.1927         calculate D2E/DX2 analytically  !
 ! D72   D(14,13,18,37)        176.9749         calculate D2E/DX2 analytically  !
 ! D73   D(14,13,18,38)        -65.8568         calculate D2E/DX2 analytically  !
 ! D74   D(13,14,15,16)         53.3822         calculate D2E/DX2 analytically  !
 ! D75   D(13,14,15,31)        -67.1396         calculate D2E/DX2 analytically  !
 ! D76   D(13,14,15,32)        175.4543         calculate D2E/DX2 analytically  !
 ! D77   D(29,14,15,16)        176.7342         calculate D2E/DX2 analytically  !
 ! D78   D(29,14,15,31)         56.2124         calculate D2E/DX2 analytically  !
 ! D79   D(29,14,15,32)        -61.1937         calculate D2E/DX2 analytically  !
 ! D80   D(30,14,15,16)        -65.4249         calculate D2E/DX2 analytically  !
 ! D81   D(30,14,15,31)        174.0534         calculate D2E/DX2 analytically  !
 ! D82   D(30,14,15,32)         56.6473         calculate D2E/DX2 analytically  !
 ! D83   D(14,15,16,17)        -53.1544         calculate D2E/DX2 analytically  !
 ! D84   D(14,15,16,33)       -174.7148         calculate D2E/DX2 analytically  !
 ! D85   D(14,15,16,34)         68.0579         calculate D2E/DX2 analytically  !
 ! D86   D(31,15,16,17)         67.5145         calculate D2E/DX2 analytically  !
 ! D87   D(31,15,16,33)        -54.0458         calculate D2E/DX2 analytically  !
 ! D88   D(31,15,16,34)       -171.2732         calculate D2E/DX2 analytically  !
 ! D89   D(32,15,16,17)       -175.2602         calculate D2E/DX2 analytically  !
 ! D90   D(32,15,16,33)         63.1794         calculate D2E/DX2 analytically  !
 ! D91   D(32,15,16,34)        -54.0479         calculate D2E/DX2 analytically  !
 ! D92   D(15,16,17,18)         52.4333         calculate D2E/DX2 analytically  !
 ! D93   D(15,16,17,35)        -68.2819         calculate D2E/DX2 analytically  !
 ! D94   D(15,16,17,36)        174.6976         calculate D2E/DX2 analytically  !
 ! D95   D(33,16,17,18)        173.9657         calculate D2E/DX2 analytically  !
 ! D96   D(33,16,17,35)         53.2505         calculate D2E/DX2 analytically  !
 ! D97   D(33,16,17,36)        -63.7699         calculate D2E/DX2 analytically  !
 ! D98   D(34,16,17,18)        -68.7278         calculate D2E/DX2 analytically  !
 ! D99   D(34,16,17,35)        170.5569         calculate D2E/DX2 analytically  !
 ! D100  D(34,16,17,36)         53.5365         calculate D2E/DX2 analytically  !
 ! D101  D(16,17,18,13)        -51.7105         calculate D2E/DX2 analytically  !
 ! D102  D(16,17,18,37)       -175.7204         calculate D2E/DX2 analytically  !
 ! D103  D(16,17,18,38)         66.6059         calculate D2E/DX2 analytically  !
 ! D104  D(35,17,18,13)         68.8614         calculate D2E/DX2 analytically  !
 ! D105  D(35,17,18,37)        -55.1485         calculate D2E/DX2 analytically  !
 ! D106  D(35,17,18,38)       -172.8222         calculate D2E/DX2 analytically  !
 ! D107  D(36,17,18,13)       -173.8528         calculate D2E/DX2 analytically  !
 ! D108  D(36,17,18,37)         62.1373         calculate D2E/DX2 analytically  !
 ! D109  D(36,17,18,38)        -55.5364         calculate D2E/DX2 analytically  !
 --------------------------------------------------------------------------------
 Trust Radius=3.00D-01 FncErr=1.00D-07 GrdErr=1.00D-06 EigMax=2.50D+02 EigMin=1.00D-04
 Number of steps in this run=    228 maximum allowed number of steps=    228.
 GradGradGradGradGradGradGradGradGradGradGradGradGradGradGradGradGradGrad

                          Input orientation:                          
 ---------------------------------------------------------------------
 Center     Atomic      Atomic             Coordinates (Angstroms)
 Number     Number       Type             X           Y           Z
 ---------------------------------------------------------------------
      1          6           0        0.814100    0.146100    0.047300
      2          8           0        1.908950   -0.076880   -0.473270
      3          7           0        0.202800    1.386300    0.065100
      4          7           0       -1.049600    1.306600    0.065800
      5          6           0       -1.662500    2.545700    0.039200
      6          8           0       -2.757990    2.763370   -0.482270
      7          7           0       -0.959890    3.576930    0.667030
      8          6           0       -1.521980    4.921580    0.708430
      9          6           0       -1.414890    5.515420    2.111140
     10          6           0        0.020060    5.457030    2.631250
     11          6           0        0.579470    4.037350    2.539000
     12          6           0        0.421810    3.454610    1.134320
     13          7           0        0.108160   -0.880700    0.684260
     14          6           0        0.670150   -2.225880    0.733840
     15          6           0        0.568540   -2.807310    2.141880
     16          6           0       -0.863890   -2.741770    2.668150
     17          6           0       -1.421130   -1.321850    2.566370
     18          6           0       -1.269040   -0.751950    1.155870
     19          1           0       -2.567920    4.926410    0.389470
     20          1           0       -0.959790    5.534430   -0.007070
     21          1           0       -2.066340    4.954490    2.792930
     22          1           0       -1.768160    6.552750    2.106490
     23          1           0        0.051320    5.801270    3.671390
     24          1           0        0.649660    6.139700    2.047930
     25          1           0        0.048130    3.398620    3.255420
     26          1           0        1.636640    4.036720    2.827130
     27          1           0        0.761240    2.415510    1.127610
     28          1           0        1.051740    4.007310    0.426100
     29          1           0        1.715350   -2.234600    0.410450
     30          1           0        0.104210   -2.843470    0.025630
     31          1           0        1.223880   -2.241420    2.815980
     32          1           0        0.919910   -3.845010    2.144470
     33          1           0       -0.890860   -3.077210    3.711360
     34          1           0       -1.497530   -3.428230    2.093580
     35          1           0       -0.885270   -0.677910    3.274620
     36          1           0       -2.476850   -1.316810    2.859740
     37          1           0       -1.607480    0.287230    1.140920
     38          1           0       -1.902900   -1.310360    0.455800
 ---------------------------------------------------------------------
                    Distance matrix (angstroms):
                    1          2          3          4          5
     1  C    0.000000
     2  O    1.232643   0.000000
     3  N    1.382787   2.311209   0.000000
     4  N    2.195559   3.310231   1.254934   0.000000
     5  C    3.448433   4.460472   2.196411   1.382651   0.000000
     6  O    4.459863   5.463280   3.310923   2.311094   1.232643
     7  N    3.911739   4.783394   2.552063   2.350303   1.396877
     8  C    5.357198   6.176755   3.985843   3.701918   2.472331
     9  C    6.169070   7.000065   4.883936   4.693721   3.629529
    10  C    5.959302   6.620431   4.815533   4.995175   4.245654
    11  C    4.626602   5.269552   3.645563   4.028347   3.674296
    12  C    3.504532   4.155400   2.338611   2.814379   2.523837
    13  N    1.399424   2.286667   2.351936   2.550918   3.910442
    14  C    2.473529   2.758612   3.703171   3.985252   5.356469
    15  C    3.629076   4.011353   4.693948   4.883927   6.168753
    16  C    4.245503   4.965763   4.995464   4.816224   5.958733
    17  C    3.673805   4.677477   4.028347   3.646866   4.626315
    18  C    2.524855   3.634479   2.815707   2.339665   3.503749
    19  H    5.865706   6.769017   4.507159   3.938665   2.571042
    20  H    5.673072   6.319320   4.308574   4.229412   3.070578
    21  H    6.241477   7.196227   5.032100   4.666701   3.680813
    22  H    7.207877   8.008014   5.894418   5.674754   4.510133
    23  H    6.759942   7.428435   5.702651   5.866376   5.169983
    24  H    6.320823   6.825550   5.169730   5.493194   4.722067
    25  H    4.632238   5.426314   3.775115   3.969286   3.741363
    26  H    4.851902   5.280956   4.087717   4.721693   4.569466
    27  H    2.513978   3.176801   1.581157   2.374082   2.660094
    28  H    3.887017   4.268991   2.778617   3.440826   3.106943
    29  H    2.571354   2.339700   3.939288   4.505977   5.865063
    30  H    3.072774   3.340660   4.231103   4.307664   5.671384
    31  H    3.678826   3.996714   4.665865   5.031963   6.241652
    32  H    4.509798   4.693567   5.674912   5.893974   7.207092
    33  H    5.169328   5.861062   5.866364   5.703779   6.759978
    34  H    4.723000   5.424424   5.494138   5.170217   6.319457
    35  H    3.739311   4.713341   3.968108   3.776481   4.632892
    36  H    4.569494   5.646381   4.722006   4.089673   4.851556
    37  H    2.660822   3.886318   2.375386   1.583107   2.513464
    38  H    3.109700   4.112766   3.443631   2.780054   3.885942
                    6          7          8          9         10
     6  O    0.000000
     7  N    2.283842   0.000000
     8  C    2.757419   1.457993   0.000000
     9  C    4.012913   2.459720   1.526994   0.000000
    10  C    4.966626   2.890197   2.522267   1.527418   0.000000
    11  C    4.678647   2.466959   2.923857   2.518973   1.528706
    12  C    3.633497   1.463700   2.472186   2.928239   2.532171
    13  N    4.780675   4.583830   6.026972   6.728003   6.630637
    14  C    6.174438   6.027777   7.476113   8.134622   7.940396
    15  C    6.998889   6.728284   8.133929   8.555862   8.296965
    16  C    6.619617   6.628700   7.937287   8.294278   8.246396
    17  C    5.269765   5.274304   6.514793   6.852411   6.930689
    18  C    4.154269   4.367349   5.696764   6.341430   6.510757
    19  H    2.339829   2.117521   1.093503   2.154196   3.464791
    20  H    3.337381   2.070318   1.097079   2.166631   2.815463
    21  H    4.000790   2.764300   2.154658   1.097209   2.152151
    22  H    4.694768   3.403065   2.162381   1.095844   2.161876
    23  H    5.862930   3.872520   3.468178   2.160061   1.096070
    24  H    5.423430   3.326458   2.827383   2.157797   1.096675
    25  H    4.716797   2.783462   3.357352   2.816140   2.151146
    26  H    5.646797   3.408725   3.904964   3.465693   2.160782
    27  H    3.885576   2.126810   3.416020   3.913095   3.472913
    28  H    4.109327   2.071214   2.745839   3.346344   2.833503
    29  H    6.766641   6.402861   7.860026   8.529570   8.183345
    30  H    6.315600   6.539514   7.962833   8.748032   8.700266
    31  H    7.195948   6.575715   7.955506   8.223653   7.794193
    32  H    8.006085   7.797543   9.212933   9.647282   9.358132
    33  H    7.428666   7.317806   8.567178   8.756061   8.650414
    34  H    6.823465   7.169126   8.463957   8.944049   9.029951
    35  H    5.428049   4.990867   6.192336   6.323885   6.234664
    36  H    5.281661   5.572956   6.667640   6.954677   7.222996
    37  H    3.176427   3.386159   4.655272   5.320939   5.621103
    38  H    4.266899   4.981916   6.248680   7.040567   7.363961
                   11         12         13         14         15
    11  C    0.000000
    12  C    1.528911   0.000000
    13  N    5.277254   4.369879   0.000000
    14  C    6.518809   5.700002   1.458698   0.000000
    15  C    6.856179   6.344159   2.459356   1.526749   0.000000
    16  C    6.932275   6.511588   2.888647   2.522098   1.527453
    17  C    5.720505   5.316180   2.464889   2.923848   2.519041
    18  C    5.316713   4.533716   1.461394   2.472051   2.928040
    19  H    3.913690   3.414598   6.400846   7.858686   8.527529
    20  H    3.330622   2.745404   6.540057   7.964174   8.748623
    21  H    2.811750   3.345373   6.574525   7.955246   8.222652
    22  H    3.467805   3.916574   7.797403   9.213787   9.647390
    23  H    2.161634   3.475745   7.319488   8.570139   8.758685
    24  H    2.160081   2.845401   7.172087   8.468186   8.947871
    25  H    1.097067   2.154492   4.992699   6.195182   6.326481
    26  H    1.095732   2.163393   5.577559   6.673539   6.960686
    27  H    2.157644   1.093154   3.389406   4.658954   5.323883
    28  H    2.165245   1.097208   4.984940   6.252437   7.043893
    29  H    6.719993   5.879145   2.119216   1.094121   2.154303
    30  H    7.340884   6.402802   2.070332   1.096935   2.166893
    31  H    6.317827   5.993000   2.764167   2.154568   1.097321
    32  H    7.899567   7.385997   3.402688   2.161906   1.095577
    33  H    7.358890   7.143452   3.871180   3.468017   2.160084
    34  H    7.761908   7.209545   3.324806   2.827256   2.157897
    35  H    4.992021   4.833949   2.781725   3.357247   2.816204
    36  H    6.173410   5.843437   3.406638   3.905057   3.465734
    37  H    4.560787   3.761696   2.125093   3.415997   3.913204
    38  H    6.252990   5.345054   2.069097   2.745190   3.345406
                   16         17         18         19         20
    16  C    0.000000
    17  C    1.528741   0.000000
    18  C    2.531901   1.528865   0.000000
    19  H    8.179064   6.715264   5.875222   0.000000
    20  H    8.698361   7.337847   6.400519   1.764374   0.000000
    21  H    7.790627   6.313483   5.989917   2.455400   3.066070
    22  H    9.355280   7.895647   7.383186   2.496549   2.481446
    23  H    8.650297   7.357175   7.142540   4.289149   3.824214
    24  H    9.030837   7.760907   7.209162   3.817772   2.679497
    25  H    6.235468   4.991628   4.834282   4.170315   4.027583
    26  H    7.226746   6.175130   5.845293   4.940856   4.125200
    27  H    5.622441   4.560771   3.762398   4.234711   3.738597
    28  H    7.365223   6.252662   5.345011   3.734705   2.562418
    29  H    3.465099   3.913900   3.414745   8.344274   8.227304
    30  H    2.816109   3.331268   2.745490   8.224579   8.445257
    31  H    2.151973   2.811404   3.345017   8.464247   8.555809
    32  H    2.161787   3.467680   3.916102   9.601187   9.804912
    33  H    1.096145   2.161823   3.475685   8.826405   9.380395
    34  H    1.096749   2.160140   2.844993   8.593587   9.221235
    35  H    2.151228   1.097006   2.154498   6.524094   7.026252
    36  H    2.160754   1.095735   2.163572   6.714784   7.580208
    37  H    3.472780   2.157724   1.093005   4.796782   5.410221
    38  H    2.832485   2.164888   1.097132   6.272476   6.924944
                   21         22         23         24         25
    21  H    0.000000
    22  H    1.764808   0.000000
    23  H    2.444016   2.514785   0.000000
    24  H    3.055553   2.453547   1.763000   0.000000
    25  H    2.665635   3.816738   2.438395   3.055060   0.000000
    26  H    3.815171   4.294461   2.517866   2.450267   1.764644
    27  H    4.149087   4.947002   4.293969   3.837842   2.450022
    28  H    4.027587   4.153891   3.840708   2.709075   3.063134
    29  H    8.465247   9.603589   8.830511   8.599182   6.527377
    30  H    8.554380   9.804320   9.382212   9.224129   7.028398
    31  H    7.912471   9.316282   8.172606   8.435805   5.778023
    32  H    9.315009  10.739673   9.804930   9.988833   7.379999
    33  H    8.169056   9.802112   8.928421   9.491661   6.559417
    34  H    8.431052   9.984657   9.490632   9.806008   7.095408
    35  H    5.775022   7.377430   6.558536   7.095110   4.182069
    36  H    6.285076   7.937229   7.597202   8.126109   5.363522
    37  H    4.972223   6.341521   6.289637   6.337882   4.110098
    38  H    6.688590   8.035635   8.045761   8.034540   5.815400
                   26         27         28         29         30
    26  H    0.000000
    27  H    2.506594   0.000000
    28  H    2.471420   1.763614   0.000000
    29  H    6.721309   4.800851   6.277106   0.000000
    30  H    7.585101   5.413217   6.927581   1.764818   0.000000
    31  H    6.291704   4.975101   6.692368   2.455232   3.066297
    32  H    7.943639   6.344548   8.039223   2.496592   2.481518
    33  H    7.601192   6.290880   8.047177   4.289327   3.824840
    34  H    8.129366   6.339120   8.035330   3.818413   2.680286
    35  H    5.365446   4.109732   5.815270   4.170129   4.027984
    36  H    6.751455   5.236002   6.835189   4.941245   4.126105
    37  H    5.237012   3.184429   4.628327   4.234904   3.738320
    38  H    6.836872   4.629371   6.083452   3.734703   2.562023
                   31         32         33         34         35
    31  H    0.000000
    32  H    1.764886   0.000000
    33  H    2.443844   2.514667   0.000000
    34  H    3.055561   2.453632   1.763087   0.000000
    35  H    2.665226   3.816600   2.438732   3.055156   0.000000
    36  H    3.814737   4.294343   2.517862   2.450339   1.764496
    37  H    4.149277   4.946738   4.294201   3.837225   2.450665
    38  H    4.026671   4.152627   3.839877   2.707771   3.062892
                   36         37         38
    36  H    0.000000
    37  H    2.506609   0.000000
    38  H    2.471515   1.763223   0.000000
 Stoichiometry    C12H20N4O2
 Framework group  C1[X(C12H20N4O2)]
 Deg. of freedom   108
 Full point group                 C1      NOp   1
 Largest Abelian subgroup         C1      NOp   1
 Largest concise Abelian subgroup C1      NOp   1
                         Standard orientation:                         
 ---------------------------------------------------------------------
 Center     Atomic      Atomic             Coordinates (Angstroms)
 Number     Number       Type             X           Y           Z
 ---------------------------------------------------------------------
      1          6           0        1.348957    1.083139   -1.059378
      2          8           0        1.708439    2.145239   -1.571361
      3          7           0        0.040676    0.635759   -1.040583
      4          7           0       -0.040913   -0.616473   -1.051407
      5          6           0       -1.348485   -1.065160   -1.077029
      6          8           0       -1.706947   -2.118715   -1.607064
      7          7           0       -2.278564   -0.242100   -0.437661
      8          6           0       -3.684026   -0.627509   -0.394290
      9          6           0       -4.253616   -0.458441    1.012370
     10          6           0       -4.009584    0.952192    1.544881
     11          6           0       -2.530260    1.325805    1.450251
     12          6           0       -1.978172    1.108028    0.041230
     13          7           0        2.279269    0.245377   -0.434030
     14          6           0        3.685607    0.629758   -0.386429
     15          6           0        4.254823    0.441118    1.017626
     16          6           0        4.008205   -0.976001    1.531498
     17          6           0        2.528146   -1.345595    1.432130
     18          6           0        1.976829   -1.108349    0.026003
     19          1           0       -3.824242   -1.661131   -0.722488
     20          1           0       -4.222561    0.015364   -1.101592
     21          1           0       -3.778154   -1.182857    1.685441
     22          1           0       -5.327699   -0.675731    1.009955
     23          1           0       -4.342813    1.017488    2.587026
     24          1           0       -4.608189    1.669617    0.970712
     25          1           0       -1.962098    0.710199    2.158613
     26          1           0       -2.392892    2.371394    1.747742
     27          1           0       -0.904154    1.311473    0.032153
     28          1           0       -2.448338    1.810297   -0.658503
     29          1           0        3.827020    1.668226   -0.700574
     30          1           0        4.222674   -0.003970   -1.102819
     31          1           0        3.780359    1.157197    1.700433
     32          1           0        5.329021    0.656496    1.017962
     33          1           0        4.341581   -1.055628    2.572678
     34          1           0        4.605423   -1.686962    0.947784
     35          1           0        1.961089   -0.738319    2.148430
     36          1           0        2.388913   -2.394683    1.716144
     37          1           0        0.902772   -1.310597    0.013430
     38          1           0        2.446526   -1.801922   -0.682544
 ---------------------------------------------------------------------
 Rotational constants (GHZ):           0.7713100           0.2233772           0.2221136
 Standard basis: 6-31G(d) (6D, 7F)
 There are   310 symmetry adapted cartesian basis functions of A   symmetry.
 There are   310 symmetry adapted basis functions of A   symmetry.
   310 basis functions,   584 primitive gaussians,   310 cartesian basis functions
    68 alpha electrons       68 beta electrons
       nuclear repulsion energy      1415.4934017237 Hartrees.
 NAtoms=   38 NActive=   38 NUniq=   38 SFac= 1.00D+00 NAtFMM=   60 NAOKFM=F Big=F
 Integral buffers will be    131072 words long.
 Raffenetti 2 integral format.
 Two-electron integral symmetry is turned on.
 One-electron integrals computed using PRISM.
 NBasis=   310 RedAO= T EigKep=  1.65D-03  NBF=   310
 NBsUse=   310 1.00D-06 EigRej= -1.00D+00 NBFU=   310
 ExpMin= 1.61D-01 ExpMax= 5.48D+03 ExpMxC= 8.25D+02 IAcc=3 IRadAn=         5 AccDes= 0.00D+00
 Harris functional with IExCor=  402 and IRadAn=       5 diagonalized for initial guess.
 HarFok:  IExCor=  402 AccDes= 0.00D+00 IRadAn=         5 IDoV= 1 UseB2=F ITyADJ=14
 ICtDFT=  3500011 ScaDFX=  1.000000  1.000000  1.000000  1.000000
 FoFCou: FMM=F IPFlag=           0 FMFlag=      100000 FMFlg1=           0
         NFxFlg=           0 DoJE=T BraDBF=F KetDBF=T FulRan=T
         wScrn=  0.000000 ICntrl=       500 IOpCl=  0 I1Cent=   200000004 NGrid=           0
         NMat0=    1 NMatS0=      1 NMatT0=    0 NMatD0=    1 NMtDS0=    0 NMtDT0=    0
 Petite list used in FoFCou.
 Gradient too large for Newton-Raphson -- use scaled steepest descent instead.
     Minimum is close to point  2 DX=  2.40D-02 DF= -2.53D-03 DXR=  7.41D-02 DFR=  5.52D-03 which will be used.
 Gradient too large for Newton-Raphson -- use scaled steepest descent instead.
     Minimum is close to point  3 DX=  1.09D-03 DF= -2.98D-07 DXR=  2.18D-03 DFR=  4.73D-06 which will be used.
 Gradient too large for Newton-Raphson -- use scaled steepest descent instead.
     Accept linear search using points  1 and  2.
 Gradient too large for Newton-Raphson -- use scaled steepest descent instead.
     Accept linear search using points  2 and  3.
 Gradient too large for Newton-Raphson -- use scaled steepest descent instead.
     Accept linear search using points  1 and  2.
 Gradient too large for Newton-Raphson -- use scaled steepest descent instead.
     Accept linear search using points  1 and  2.
 Gradient too large for Newton-Raphson -- use scaled steepest descent instead.
     Minimum is close to point  2 DX=  4.17D-02 DF= -3.43D-07 DXR=  9.45D-02 DFR=  9.01D-03 which will be used.
 LinEq1:  Iter=  0 NonCon=     1 RMS=3.90D-05 Max=2.26D-03 NDo=     1
 AX will form     1 AO Fock derivatives at one time.
 LinEq1:  Iter=  1 NonCon=     1 RMS=5.57D-05 Max=4.10D-03 NDo=     1
 LinEq1:  Iter=  2 NonCon=     1 RMS=1.00D-05 Max=5.34D-04 NDo=     1
 LinEq1:  Iter=  3 NonCon=     1 RMS=1.10D-05 Max=5.28D-04 NDo=     1
 LinEq1:  Iter=  4 NonCon=     1 RMS=2.73D-06 Max=1.14D-04 NDo=     1
 LinEq1:  Iter=  5 NonCon=     1 RMS=1.47D-06 Max=4.80D-05 NDo=     1
 LinEq1:  Iter=  6 NonCon=     1 RMS=8.80D-07 Max=3.76D-05 NDo=     1
 LinEq1:  Iter=  7 NonCon=     1 RMS=8.20D-07 Max=3.14D-05 NDo=     1
 LinEq1:  Iter=  8 NonCon=     1 RMS=5.20D-07 Max=1.44D-05 NDo=     1
 LinEq1:  Iter=  9 NonCon=     1 RMS=3.23D-07 Max=1.46D-05 NDo=     1
 LinEq1:  Iter= 10 NonCon=     1 RMS=2.94D-07 Max=9.84D-06 NDo=     1
 LinEq1:  Iter= 11 NonCon=     1 RMS=1.50D-07 Max=1.01D-05 NDo=     1
 LinEq1:  Iter= 12 NonCon=     1 RMS=7.69D-08 Max=4.04D-06 NDo=     1
 LinEq1:  Iter= 13 NonCon=     1 RMS=4.05D-08 Max=1.84D-06 NDo=     1
 LinEq1:  Iter= 14 NonCon=     1 RMS=2.05D-08 Max=7.71D-07 NDo=     1
 LinEq1:  Iter= 15 NonCon=     1 RMS=1.49D-08 Max=5.95D-07 NDo=     1
 LinEq1:  Iter= 16 NonCon=     0 RMS=5.32D-09 Max=1.49D-07 NDo=     1
 Linear equations converged to 1.814D-08 1.814D-07 after    16 iterations.
     Minimum is close to point  2 DX=  7.40D-04 DF= -1.14D-11 DXR=  7.39D-04 DFR=  5.42D-07 which will be used.
 LinEq1:  Iter=  0 NonCon=     1 RMS=1.09D-07 Max=5.45D-06 NDo=     1
 LinEq1:  Iter=  1 NonCon=     1 RMS=1.27D-07 Max=1.32D-05 NDo=     1
 LinEq1:  Iter=  2 NonCon=     1 RMS=1.04D-07 Max=9.19D-06 NDo=     1
 LinEq1:  Iter=  3 NonCon=     1 RMS=3.79D-08 Max=9.99D-07 NDo=     1
 LinEq1:  Iter=  4 NonCon=     1 RMS=2.79D-08 Max=8.89D-07 NDo=     1
 LinEq1:  Iter=  5 NonCon=     1 RMS=9.39D-09 Max=2.21D-07 NDo=     1
 LinEq1:  Iter=  6 NonCon=     1 RMS=3.22D-09 Max=7.90D-08 NDo=     1
 LinEq1:  Iter=  7 NonCon=     1 RMS=1.80D-09 Max=7.95D-08 NDo=     1
 LinEq1:  Iter=  8 NonCon=     1 RMS=1.84D-09 Max=8.55D-08 NDo=     1
 LinEq1:  Iter=  9 NonCon=     1 RMS=1.19D-09 Max=4.49D-08 NDo=     1
 LinEq1:  Iter= 10 NonCon=     1 RMS=7.35D-10 Max=3.92D-08 NDo=     1
 LinEq1:  Iter= 11 NonCon=     1 RMS=5.86D-10 Max=2.73D-08 NDo=     1
 LinEq1:  Iter= 12 NonCon=     1 RMS=5.07D-10 Max=3.69D-08 NDo=     1
 LinEq1:  Iter= 13 NonCon=     1 RMS=2.51D-10 Max=8.97D-09 NDo=     1
 LinEq1:  Iter= 14 NonCon=     1 RMS=1.63D-10 Max=4.45D-09 NDo=     1
 LinEq1:  Iter= 15 NonCon=     1 RMS=7.39D-11 Max=2.01D-09 NDo=     1
 LinEq1:  Iter= 16 NonCon=     1 RMS=3.78D-11 Max=1.36D-09 NDo=     1
 LinEq1:  Iter= 17 NonCon=     0 RMS=1.29D-11 Max=3.43D-10 NDo=     1
 Linear equations converged to 1.001D-10 1.001D-09 after    17 iterations.
 SCF Done:  E(RB3LYP) =  -838.663606894     a.u. after   10 cycles
            Convg  =    0.1290D-09                    53 Fock formations.
              S**2 =  0.0000                  -V/T =  2.0085
 DoSCS=F DFT=T ScalE2(SS,OS)=  1.000000  1.000000
 Range of M.O.s used for correlation:     1   310
 NBasis=   310 NAE=    68 NBE=    68 NFC=     0 NFV=     0
 NROrb=    310 NOA=    68 NOB=    68 NVA=   242 NVB=   242
 Symmetrizing basis deriv contribution to polar:
 IMax=3 JMax=2 DiffMx= 0.00D+00
 G2DrvN: will do    39 centers at a time, making    1 passes.
 Calling FoFCou, ICntrl=  3107 FMM=F I1Cent=   0 AccDes= 0.00D+00.
 End of G2Drv F.D. properties file   721 does not exist.
 End of G2Drv F.D. properties file   722 does not exist.
 End of G2Drv F.D. properties file   788 does not exist.
          IDoAtm=11111111111111111111111111111111111111
          Differentiating once with respect to electric field.
                with respect to dipole field.
          Differentiating once with respect to nuclear coordinates.
 Keep R1 ints in memory in canonical form, NReq=1176942805.
          There are   117 degrees of freedom in the 1st order CPHF.  IDoFFX=6 NUNeed=     3.
    114 vectors produced by pass  0 Test12= 1.65D-14 1.00D-09 XBig12= 1.97D+02 6.45D+00.
 AX will form   114 AO Fock derivatives at one time.
    114 vectors produced by pass  1 Test12= 1.65D-14 1.00D-09 XBig12= 7.54D+01 2.00D+00.
    114 vectors produced by pass  2 Test12= 1.65D-14 1.00D-09 XBig12= 7.27D-01 1.05D-01.
    114 vectors produced by pass  3 Test12= 1.65D-14 1.00D-09 XBig12= 2.10D-03 6.80D-03.
    114 vectors produced by pass  4 Test12= 1.65D-14 1.00D-09 XBig12= 2.98D-06 2.26D-04.
     65 vectors produced by pass  5 Test12= 1.65D-14 1.00D-09 XBig12= 2.75D-09 6.59D-06.
      9 vectors produced by pass  6 Test12= 1.65D-14 1.00D-09 XBig12= 2.46D-12 1.78D-07.
      3 vectors produced by pass  7 Test12= 1.65D-14 1.00D-09 XBig12= 1.93D-15 6.50D-09.
 InvSVY:  IOpt=1 It=  1 EMax= 7.11D-15
 Solved reduced A of dimension   647 with   117 vectors.
 Isotropic polarizability for W=    0.000000      165.22 Bohr**3.
 End of Minotr F.D. properties file   721 does not exist.
 End of Minotr F.D. properties file   722 does not exist.
 End of Minotr F.D. properties file   788 does not exist.

 **********************************************************************

            Population analysis using the SCF density.

 **********************************************************************

 Orbital symmetries:
       Occupied  (A) (A) (A) (A) (A) (A) (A) (A) (A) (A) (A) (A)
                 (A) (A) (A) (A) (A) (A) (A) (A) (A) (A) (A) (A)
                 (A) (A) (A) (A) (A) (A) (A) (A) (A) (A) (A) (A)
                 (A) (A) (A) (A) (A) (A) (A) (A) (A) (A) (A) (A)
                 (A) (A) (A) (A) (A) (A) (A) (A) (A) (A) (A) (A)
                 (A) (A) (A) (A) (A) (A) (A) (A)
       Virtual   (A) (A) (A) (A) (A) (A) (A) (A) (A) (A) (A) (A)
                 (A) (A) (A) (A) (A) (A) (A) (A) (A) (A) (A) (A)
                 (A) (A) (A) (A) (A) (A) (A) (A) (A) (A) (A) (A)
                 (A) (A) (A) (A) (A) (A) (A) (A) (A) (A) (A) (A)
                 (A) (A) (A) (A) (A) (A) (A) (A) (A) (A) (A) (A)
                 (A) (A) (A) (A) (A) (A) (A) (A) (A) (A) (A) (A)
                 (A) (A) (A) (A) (A) (A) (A) (A) (A) (A) (A) (A)
                 (A) (A) (A) (A) (A) (A) (A) (A) (A) (A) (A) (A)
                 (A) (A) (A) (A) (A) (A) (A) (A) (A) (A) (A) (A)
                 (A) (A) (A) (A) (A) (A) (A) (A) (A) (A) (A) (A)
                 (A) (A) (A) (A) (A) (A) (A) (A) (A) (A) (A) (A)
                 (A) (A) (A) (A) (A) (A) (A) (A) (A) (A) (A) (A)
                 (A) (A) (A) (A) (A) (A) (A) (A) (A) (A) (A) (A)
                 (A) (A) (A) (A) (A) (A) (A) (A) (A) (A) (A) (A)
                 (A) (A) (A) (A) (A) (A) (A) (A) (A) (A) (A) (A)
                 (A) (A) (A) (A) (A) (A) (A) (A) (A) (A) (A) (A)
                 (A) (A) (A) (A) (A) (A) (A) (A) (A) (A) (A) (A)
                 (A) (A) (A) (A) (A) (A) (A) (A) (A) (A) (A) (A)
                 (A) (A) (A) (A) (A) (A) (A) (A) (A) (A) (A) (A)
                 (A) (A) (A) (A) (A) (A) (A) (A) (A) (A) (A) (A)
                 (A) (A)
 The electronic state is 1-A.
 Alpha  occ. eigenvalues --  -19.12692 -19.12656 -14.41275 -14.41228 -14.37414
 Alpha  occ. eigenvalues --  -14.37403 -10.31655 -10.31631 -10.22199 -10.22197
 Alpha  occ. eigenvalues --  -10.21397 -10.21391 -10.19060 -10.19052 -10.18798
 Alpha  occ. eigenvalues --  -10.18789 -10.18746 -10.18744  -1.11151  -1.04808
 Alpha  occ. eigenvalues --   -1.02204  -0.94562  -0.93906  -0.82931  -0.80394
 Alpha  occ. eigenvalues --   -0.79160  -0.77117  -0.76869  -0.68490  -0.66572
 Alpha  occ. eigenvalues --   -0.64979  -0.64313  -0.61235  -0.59467  -0.57959
 Alpha  occ. eigenvalues --   -0.56602  -0.54691  -0.51275  -0.49560  -0.47372
 Alpha  occ. eigenvalues --   -0.46730  -0.46597  -0.46011  -0.45640  -0.44047
 Alpha  occ. eigenvalues --   -0.43987  -0.43821  -0.42860  -0.42351  -0.41625
 Alpha  occ. eigenvalues --   -0.40844  -0.39845  -0.39326  -0.36586  -0.36538
 Alpha  occ. eigenvalues --   -0.36120  -0.35890  -0.34212  -0.34091  -0.33817
 Alpha  occ. eigenvalues --   -0.32904  -0.32782  -0.32180  -0.28046  -0.27611
 Alpha  occ. eigenvalues --   -0.24463  -0.24291  -0.22145
 Alpha virt. eigenvalues --   -0.12064   0.03292   0.04865   0.08080   0.08956
 Alpha virt. eigenvalues --    0.10672   0.10949   0.11939   0.12791   0.13546
 Alpha virt. eigenvalues --    0.13556   0.14296   0.14684   0.15850   0.16132
 Alpha virt. eigenvalues --    0.16216   0.16261   0.16650   0.17070   0.17091
 Alpha virt. eigenvalues --    0.17434   0.18289   0.18497   0.19750   0.20113
 Alpha virt. eigenvalues --    0.21273   0.22375   0.23445   0.23486   0.24367
 Alpha virt. eigenvalues --    0.24605   0.24642   0.26021   0.27099   0.27517
 Alpha virt. eigenvalues --    0.27631   0.30612   0.31034   0.33782   0.38007
 Alpha virt. eigenvalues --    0.40391   0.43909   0.48035   0.49662   0.50751
 Alpha virt. eigenvalues --    0.50819   0.52351   0.52589   0.52704   0.53052
 Alpha virt. eigenvalues --    0.54451   0.55002   0.55555   0.56025   0.56966
 Alpha virt. eigenvalues --    0.59448   0.59541   0.60841   0.61741   0.62054
 Alpha virt. eigenvalues --    0.63527   0.63909   0.64053   0.64998   0.66078
 Alpha virt. eigenvalues --    0.66850   0.68543   0.70205   0.70543   0.70674
 Alpha virt. eigenvalues --    0.73253   0.74381   0.76642   0.77436   0.77846
 Alpha virt. eigenvalues --    0.78807   0.80430   0.81717   0.82205   0.82533
 Alpha virt. eigenvalues --    0.83620   0.84452   0.84857   0.85948   0.86183
 Alpha virt. eigenvalues --    0.87057   0.87200   0.87668   0.87978   0.88384
 Alpha virt. eigenvalues --    0.89475   0.90046   0.91511   0.91779   0.93589
 Alpha virt. eigenvalues --    0.93664   0.94503   0.94941   0.95241   0.95465
 Alpha virt. eigenvalues --    0.95892   0.97136   1.00274   1.00788   1.00970
 Alpha virt. eigenvalues --    1.01955   1.03255   1.04927   1.07590   1.11094
 Alpha virt. eigenvalues --    1.11373   1.12561   1.13707   1.15536   1.19590
 Alpha virt. eigenvalues --    1.21277   1.23795   1.24931   1.27708   1.30352
 Alpha virt. eigenvalues --    1.33965   1.34299   1.35580   1.36570   1.37655
 Alpha virt. eigenvalues --    1.40425   1.41568   1.43135   1.43267   1.46737
 Alpha virt. eigenvalues --    1.48529   1.53924   1.54711   1.56974   1.58362
 Alpha virt. eigenvalues --    1.58510   1.58899   1.61139   1.62734   1.66511
 Alpha virt. eigenvalues --    1.66968   1.70773   1.72060   1.72628   1.73886
 Alpha virt. eigenvalues --    1.77468   1.77505   1.78741   1.78899   1.80427
 Alpha virt. eigenvalues --    1.82593   1.84154   1.85328   1.86070   1.87311
 Alpha virt. eigenvalues --    1.87856   1.90255   1.91217   1.91511   1.92752
 Alpha virt. eigenvalues --    1.93667   1.94004   1.96755   1.98295   1.99350
 Alpha virt. eigenvalues --    1.99699   1.99736   2.00800   2.00950   2.01188
 Alpha virt. eigenvalues --    2.02377   2.03683   2.06093   2.11901   2.12115
 Alpha virt. eigenvalues --    2.13937   2.15851   2.15885   2.16753   2.18318
 Alpha virt. eigenvalues --    2.20706   2.26043   2.27807   2.28858   2.29178
 Alpha virt. eigenvalues --    2.30526   2.32193   2.33381   2.34261   2.35945
 Alpha virt. eigenvalues --    2.36116   2.38254   2.38915   2.39929   2.40333
 Alpha virt. eigenvalues --    2.42052   2.42898   2.47734   2.48381   2.50021
 Alpha virt. eigenvalues --    2.53087   2.58898   2.59046   2.59788   2.61884
 Alpha virt. eigenvalues --    2.63823   2.64262   2.66475   2.68271   2.69448
 Alpha virt. eigenvalues --    2.72550   2.73069   2.74268   2.74390   2.75117
 Alpha virt. eigenvalues --    2.76278   2.84599   2.85025   2.94117   2.95129
 Alpha virt. eigenvalues --    3.11142   3.11342   3.21039   3.23418   3.88286
 Alpha virt. eigenvalues --    3.96212   3.99083   4.09794   4.11653   4.17562
 Alpha virt. eigenvalues --    4.18543   4.22617   4.25647   4.26012   4.41706
 Alpha virt. eigenvalues --    4.43312   4.53342   4.54715   4.55261   4.56768
 Alpha virt. eigenvalues --    4.60413   4.67205
          Condensed to atoms (all electrons):
               1          2          3          4          5          6
     1  C    4.301543   0.592263   0.193873  -0.041260   0.001538  -0.000179
     2  O    0.592263   8.065883  -0.069675   0.001298  -0.000179   0.000000
     3  N    0.193873  -0.069675   7.350641   0.122234  -0.041087   0.001299
     4  N   -0.041260   0.001298   0.122234   7.349858   0.193765  -0.069724
     5  C    0.001538  -0.000179  -0.041087   0.193765   4.301164   0.592732
     6  O   -0.000179   0.000000   0.001299  -0.069724   0.592732   8.066486
     7  N    0.000788   0.000010  -0.001652  -0.113220   0.277021  -0.113454
     8  C    0.000021   0.000000  -0.001044   0.004762  -0.023795  -0.003671
     9  C    0.000001  -0.000000   0.000008  -0.000123   0.001628   0.000326
    10  C    0.000003   0.000000  -0.000119  -0.000014  -0.000154  -0.000015
    11  C    0.000008  -0.000003   0.006190  -0.001100   0.000550  -0.000074
    12  C    0.003378   0.000045  -0.126023   0.000397  -0.019781   0.002596
    13  N    0.276968  -0.112791  -0.112964  -0.001780   0.000796   0.000010
    14  C   -0.023668  -0.003703   0.004743  -0.001042   0.000021   0.000000
    15  C    0.001589   0.000319  -0.000124   0.000008   0.000001  -0.000000
    16  C   -0.000152  -0.000015  -0.000014  -0.000118   0.000003   0.000000
    17  C    0.000551  -0.000074  -0.001105   0.006175   0.000010  -0.000003
    18  C   -0.019875   0.002587   0.000322  -0.124872   0.003347   0.000047
    19  H    0.000001  -0.000000  -0.000019   0.000619  -0.002666   0.016273
    20  H   -0.000004  -0.000000  -0.000034  -0.000136   0.000154   0.001029
    21  H   -0.000000  -0.000000  -0.000008  -0.000014   0.000731   0.000026
    22  H   -0.000000   0.000000  -0.000000   0.000002  -0.000055  -0.000007
    23  H   -0.000000  -0.000000   0.000002   0.000000   0.000011   0.000000
    24  H   -0.000000  -0.000000  -0.000003   0.000000  -0.000017   0.000000
    25  H   -0.000042  -0.000000  -0.000112   0.000231   0.000448  -0.000013
    26  H    0.000000   0.000000  -0.000017   0.000004  -0.000032   0.000001
    27  H    0.008156   0.000674  -0.039916  -0.006649  -0.009354  -0.000118
    28  H   -0.000472   0.000006   0.002726   0.000768   0.000240   0.000034
    29  H   -0.002690   0.016267   0.000621  -0.000019   0.000001  -0.000000
    30  H    0.000179   0.001020  -0.000135  -0.000033  -0.000004  -0.000000
    31  H    0.000737   0.000028  -0.000014  -0.000008  -0.000000  -0.000000
    32  H   -0.000055  -0.000007   0.000002  -0.000000  -0.000000   0.000000
    33  H    0.000010   0.000000   0.000000   0.000002  -0.000000  -0.000000
    34  H   -0.000017   0.000000   0.000000  -0.000003  -0.000000  -0.000000
    35  H    0.000455  -0.000013   0.000232  -0.000115  -0.000042  -0.000000
    36  H   -0.000032   0.000001   0.000004  -0.000018   0.000000   0.000000
    37  H   -0.009361  -0.000116  -0.006611  -0.039684   0.008150   0.000669
    38  H    0.000257   0.000032   0.000768   0.002713  -0.000473   0.000006
               7          8          9         10         11         12
     1  C    0.000788   0.000021   0.000001   0.000003   0.000008   0.003378
     2  O    0.000010   0.000000  -0.000000   0.000000  -0.000003   0.000045
     3  N   -0.001652  -0.001044   0.000008  -0.000119   0.006190  -0.126023
     4  N   -0.113220   0.004762  -0.000123  -0.000014  -0.001100   0.000397
     5  C    0.277021  -0.023795   0.001628  -0.000154   0.000550  -0.019781
     6  O   -0.113454  -0.003671   0.000326  -0.000015  -0.000074   0.002596
     7  N    7.101795   0.278314  -0.046756  -0.012405  -0.053639   0.281620
     8  C    0.278314   4.928791   0.372421  -0.039125  -0.016196  -0.040963
     9  C   -0.046756   0.372421   5.027763   0.380718  -0.046164  -0.013701
    10  C   -0.012405  -0.039125   0.380718   5.021708   0.369579  -0.035264
    11  C   -0.053639  -0.016196  -0.046164   0.369579   5.085939   0.335625
    12  C    0.281620  -0.040963  -0.013701  -0.035264   0.335625   5.036809
    13  N    0.000009  -0.000000  -0.000000  -0.000000   0.000008  -0.000473
    14  C   -0.000000   0.000000   0.000000   0.000000  -0.000000   0.000011
    15  C   -0.000000   0.000000  -0.000000  -0.000000   0.000000  -0.000000
    16  C   -0.000000   0.000000  -0.000000   0.000000  -0.000000   0.000000
    17  C    0.000008  -0.000000   0.000000  -0.000000  -0.000001  -0.000014
    18  C   -0.000474   0.000011  -0.000000   0.000000  -0.000013   0.000478
    19  H   -0.032719   0.374461  -0.028562   0.004078   0.000046   0.003596
    20  H   -0.053575   0.375042  -0.046251  -0.006658  -0.001101  -0.002346
    21  H   -0.000586  -0.039233   0.371541  -0.043066  -0.004166  -0.000464
    22  H    0.004252  -0.032244   0.366482  -0.033690   0.005025   0.000061
    23  H   -0.000128   0.004961  -0.033946   0.371116  -0.032321   0.004604
    24  H   -0.000977  -0.003760  -0.041836   0.371442  -0.041530  -0.003714
    25  H   -0.000000  -0.000789  -0.003996  -0.043593   0.368744  -0.039621
    26  H    0.004119   0.000022   0.005212  -0.033295   0.365287  -0.029283
    27  H   -0.028762   0.003564   0.000161   0.003669  -0.029062   0.389096
    28  H   -0.055476  -0.002629  -0.000986  -0.006270  -0.048021   0.375812
    29  H   -0.000000   0.000000   0.000000   0.000000  -0.000000  -0.000000
    30  H    0.000000  -0.000000  -0.000000  -0.000000   0.000000  -0.000000
    31  H    0.000000  -0.000000   0.000000  -0.000000  -0.000000  -0.000000
    32  H    0.000000   0.000000   0.000000   0.000000  -0.000000   0.000000
    33  H    0.000000  -0.000000   0.000000  -0.000000   0.000000  -0.000000
    34  H    0.000000  -0.000000   0.000000   0.000000  -0.000000  -0.000000
    35  H    0.000002  -0.000000   0.000000  -0.000000  -0.000000  -0.000017
    36  H    0.000001  -0.000000  -0.000000   0.000000   0.000000  -0.000000
    37  H   -0.000228   0.000017  -0.000003  -0.000001   0.000035  -0.000023
    38  H    0.000011  -0.000000   0.000000  -0.000000  -0.000000  -0.000009
              13         14         15         16         17         18
     1  C    0.276968  -0.023668   0.001589  -0.000152   0.000551  -0.019875
     2  O   -0.112791  -0.003703   0.000319  -0.000015  -0.000074   0.002587
     3  N   -0.112964   0.004743  -0.000124  -0.000014  -0.001105   0.000322
     4  N   -0.001780  -0.001042   0.000008  -0.000118   0.006175  -0.124872
     5  C    0.000796   0.000021   0.000001   0.000003   0.000010   0.003347
     6  O    0.000010   0.000000  -0.000000   0.000000  -0.000003   0.000047
     7  N    0.000009  -0.000000  -0.000000  -0.000000   0.000008  -0.000474
     8  C   -0.000000   0.000000   0.000000   0.000000  -0.000000   0.000011
     9  C   -0.000000   0.000000  -0.000000  -0.000000   0.000000  -0.000000
    10  C   -0.000000   0.000000  -0.000000   0.000000  -0.000000   0.000000
    11  C    0.000008  -0.000000   0.000000  -0.000000  -0.000001  -0.000013
    12  C   -0.000473   0.000011  -0.000000   0.000000  -0.000014   0.000478
    13  N    7.101523   0.278397  -0.046841  -0.012465  -0.053978   0.282181
    14  C    0.278397   4.928823   0.372497  -0.039156  -0.016218  -0.040988
    15  C   -0.046841   0.372497   5.027639   0.380765  -0.046140  -0.013675
    16  C   -0.012465  -0.039156   0.380765   5.021796   0.369676  -0.035228
    17  C   -0.053978  -0.016218  -0.046140   0.369676   5.086447   0.335744
    18  C    0.282181  -0.040988  -0.013675  -0.035228   0.335744   5.034612
    19  H   -0.000000   0.000000   0.000000   0.000000  -0.000000  -0.000000
    20  H    0.000000  -0.000000  -0.000000  -0.000000   0.000000  -0.000000
    21  H    0.000000  -0.000000   0.000000  -0.000000  -0.000000  -0.000000
    22  H    0.000000   0.000000   0.000000   0.000000  -0.000000   0.000000
    23  H    0.000000  -0.000000   0.000000  -0.000000   0.000000  -0.000000
    24  H    0.000000  -0.000000   0.000000   0.000000  -0.000000  -0.000000
    25  H    0.000002  -0.000000   0.000000  -0.000000  -0.000000  -0.000017
    26  H    0.000001  -0.000000  -0.000000   0.000000   0.000000  -0.000000
    27  H   -0.000224   0.000017  -0.000003  -0.000001   0.000036  -0.000028
    28  H    0.000011  -0.000000   0.000000  -0.000000  -0.000000  -0.000009
    29  H   -0.032580   0.374375  -0.028602   0.004079   0.000045   0.003578
    30  H   -0.053624   0.375010  -0.046221  -0.006668  -0.001098  -0.002322
    31  H   -0.000597  -0.039201   0.371555  -0.043114  -0.004166  -0.000464
    32  H    0.004265  -0.032291   0.366447  -0.033695   0.005026   0.000059
    33  H   -0.000130   0.004962  -0.033946   0.371148  -0.032320   0.004602
    34  H   -0.000980  -0.003747  -0.041846   0.371404  -0.041538  -0.003713
    35  H    0.000009  -0.000786  -0.003998  -0.043591   0.368642  -0.039579
    36  H    0.004142   0.000023   0.005213  -0.033304   0.365203  -0.029272
    37  H   -0.028861   0.003580   0.000157   0.003676  -0.029166   0.389100
    38  H   -0.055728  -0.002654  -0.000991  -0.006306  -0.048143   0.375870
              19         20         21         22         23         24
     1  C    0.000001  -0.000004  -0.000000  -0.000000  -0.000000  -0.000000
     2  O   -0.000000  -0.000000  -0.000000   0.000000  -0.000000  -0.000000
     3  N   -0.000019  -0.000034  -0.000008  -0.000000   0.000002  -0.000003
     4  N    0.000619  -0.000136  -0.000014   0.000002   0.000000   0.000000
     5  C   -0.002666   0.000154   0.000731  -0.000055   0.000011  -0.000017
     6  O    0.016273   0.001029   0.000026  -0.000007   0.000000   0.000000
     7  N   -0.032719  -0.053575  -0.000586   0.004252  -0.000128  -0.000977
     8  C    0.374461   0.375042  -0.039233  -0.032244   0.004961  -0.003760
     9  C   -0.028562  -0.046251   0.371541   0.366482  -0.033946  -0.041836
    10  C    0.004078  -0.006658  -0.043066  -0.033690   0.371116   0.371442
    11  C    0.000046  -0.001101  -0.004166   0.005025  -0.032321  -0.041530
    12  C    0.003596  -0.002346  -0.000464   0.000061   0.004604  -0.003714
    13  N   -0.000000   0.000000   0.000000   0.000000   0.000000   0.000000
    14  C    0.000000  -0.000000  -0.000000   0.000000  -0.000000  -0.000000
    15  C    0.000000  -0.000000   0.000000   0.000000   0.000000   0.000000
    16  C    0.000000  -0.000000  -0.000000   0.000000  -0.000000   0.000000
    17  C   -0.000000   0.000000  -0.000000  -0.000000   0.000000  -0.000000
    18  C   -0.000000  -0.000000  -0.000000   0.000000  -0.000000  -0.000000
    19  H    0.509791  -0.032378  -0.004470  -0.001410  -0.000142  -0.000049
    20  H   -0.032378   0.600536   0.006033  -0.001475  -0.000104   0.005229
    21  H   -0.004470   0.006033   0.597796  -0.032389  -0.005093   0.006162
    22  H   -0.001410  -0.001475  -0.032389   0.590883  -0.002732  -0.004318
    23  H   -0.000142  -0.000104  -0.005093  -0.002732   0.600518  -0.035770
    24  H   -0.000049   0.005229   0.006162  -0.004318  -0.035770   0.609841
    25  H   -0.000031   0.000228   0.005159  -0.000005  -0.005416   0.006291
    26  H    0.000009   0.000037  -0.000013  -0.000150  -0.002361  -0.004541
    27  H   -0.000144  -0.000063  -0.000021   0.000007  -0.000127  -0.000001
    28  H   -0.000176   0.007402   0.000218   0.000051  -0.000110   0.004955
    29  H    0.000000  -0.000000   0.000000  -0.000000  -0.000000   0.000000
    30  H   -0.000000   0.000000   0.000000   0.000000  -0.000000   0.000000
    31  H    0.000000   0.000000   0.000000  -0.000000  -0.000000   0.000000
    32  H   -0.000000   0.000000  -0.000000   0.000000  -0.000000  -0.000000
    33  H   -0.000000  -0.000000  -0.000000  -0.000000   0.000000  -0.000000
    34  H    0.000000   0.000000   0.000000  -0.000000  -0.000000   0.000000
    35  H   -0.000000   0.000000   0.000000  -0.000000  -0.000000   0.000000
    36  H    0.000000   0.000000   0.000000   0.000000  -0.000000   0.000000
    37  H   -0.000001   0.000001   0.000003   0.000000  -0.000000   0.000000
    38  H   -0.000000   0.000000   0.000000  -0.000000   0.000000   0.000000
              25         26         27         28         29         30
     1  C   -0.000042   0.000000   0.008156  -0.000472  -0.002690   0.000179
     2  O   -0.000000   0.000000   0.000674   0.000006   0.016267   0.001020
     3  N   -0.000112  -0.000017  -0.039916   0.002726   0.000621  -0.000135
     4  N    0.000231   0.000004  -0.006649   0.000768  -0.000019  -0.000033
     5  C    0.000448  -0.000032  -0.009354   0.000240   0.000001  -0.000004
     6  O   -0.000013   0.000001  -0.000118   0.000034  -0.000000  -0.000000
     7  N   -0.000000   0.004119  -0.028762  -0.055476  -0.000000   0.000000
     8  C   -0.000789   0.000022   0.003564  -0.002629   0.000000  -0.000000
     9  C   -0.003996   0.005212   0.000161  -0.000986   0.000000  -0.000000
    10  C   -0.043593  -0.033295   0.003669  -0.006270   0.000000  -0.000000
    11  C    0.368744   0.365287  -0.029062  -0.048021  -0.000000   0.000000
    12  C   -0.039621  -0.029283   0.389096   0.375812  -0.000000  -0.000000
    13  N    0.000002   0.000001  -0.000224   0.000011  -0.032580  -0.053624
    14  C   -0.000000  -0.000000   0.000017  -0.000000   0.374375   0.375010
    15  C    0.000000  -0.000000  -0.000003   0.000000  -0.028602  -0.046221
    16  C   -0.000000   0.000000  -0.000001  -0.000000   0.004079  -0.006668
    17  C   -0.000000   0.000000   0.000036  -0.000000   0.000045  -0.001098
    18  C   -0.000017  -0.000000  -0.000028  -0.000009   0.003578  -0.002322
    19  H   -0.000031   0.000009  -0.000144  -0.000176   0.000000  -0.000000
    20  H    0.000228   0.000037  -0.000063   0.007402  -0.000000   0.000000
    21  H    0.005159  -0.000013  -0.000021   0.000218   0.000000   0.000000
    22  H   -0.000005  -0.000150   0.000007   0.000051  -0.000000   0.000000
    23  H   -0.005416  -0.002361  -0.000127  -0.000110  -0.000000  -0.000000
    24  H    0.006291  -0.004541  -0.000001   0.004955   0.000000   0.000000
    25  H    0.613557  -0.033338  -0.004445   0.006212  -0.000000   0.000000
    26  H   -0.033338   0.590678  -0.002185  -0.001637   0.000000   0.000000
    27  H   -0.004445  -0.002185   0.514353  -0.031708  -0.000001   0.000001
    28  H    0.006212  -0.001637  -0.031708   0.596527  -0.000000   0.000000
    29  H   -0.000000   0.000000  -0.000001  -0.000000   0.509804  -0.032368
    30  H    0.000000   0.000000   0.000001   0.000000  -0.032368   0.600510
    31  H    0.000000   0.000000   0.000003   0.000000  -0.004479   0.006031
    32  H   -0.000000   0.000000   0.000000  -0.000000  -0.001395  -0.001478
    33  H   -0.000000  -0.000000  -0.000000   0.000000  -0.000142  -0.000104
    34  H    0.000000   0.000000   0.000000   0.000000  -0.000049   0.005223
    35  H    0.000057  -0.000000   0.000047   0.000000  -0.000031   0.000228
    36  H   -0.000000   0.000000  -0.000000   0.000000   0.000009   0.000037
    37  H    0.000047  -0.000000  -0.000552   0.000010  -0.000144  -0.000064
    38  H    0.000000   0.000000   0.000010   0.000000  -0.000175   0.007425
              31         32         33         34         35         36
     1  C    0.000737  -0.000055   0.000010  -0.000017   0.000455  -0.000032
     2  O    0.000028  -0.000007   0.000000   0.000000  -0.000013   0.000001
     3  N   -0.000014   0.000002   0.000000   0.000000   0.000232   0.000004
     4  N   -0.000008  -0.000000   0.000002  -0.000003  -0.000115  -0.000018
     5  C   -0.000000  -0.000000  -0.000000  -0.000000  -0.000042   0.000000
     6  O   -0.000000   0.000000  -0.000000  -0.000000  -0.000000   0.000000
     7  N    0.000000   0.000000   0.000000   0.000000   0.000002   0.000001
     8  C   -0.000000   0.000000  -0.000000  -0.000000  -0.000000  -0.000000
     9  C    0.000000   0.000000   0.000000   0.000000   0.000000  -0.000000
    10  C   -0.000000   0.000000  -0.000000   0.000000  -0.000000   0.000000
    11  C   -0.000000  -0.000000   0.000000  -0.000000  -0.000000   0.000000
    12  C   -0.000000   0.000000  -0.000000  -0.000000  -0.000017  -0.000000
    13  N   -0.000597   0.004265  -0.000130  -0.000980   0.000009   0.004142
    14  C   -0.039201  -0.032291   0.004962  -0.003747  -0.000786   0.000023
    15  C    0.371555   0.366447  -0.033946  -0.041846  -0.003998   0.005213
    16  C   -0.043114  -0.033695   0.371148   0.371404  -0.043591  -0.033304
    17  C   -0.004166   0.005026  -0.032320  -0.041538   0.368642   0.365203
    18  C   -0.000464   0.000059   0.004602  -0.003713  -0.039579  -0.029272
    19  H    0.000000  -0.000000  -0.000000   0.000000  -0.000000   0.000000
    20  H    0.000000   0.000000  -0.000000   0.000000   0.000000   0.000000
    21  H    0.000000  -0.000000  -0.000000   0.000000   0.000000   0.000000
    22  H   -0.000000   0.000000  -0.000000  -0.000000  -0.000000   0.000000
    23  H   -0.000000  -0.000000   0.000000  -0.000000  -0.000000  -0.000000
    24  H    0.000000  -0.000000  -0.000000   0.000000   0.000000   0.000000
    25  H    0.000000  -0.000000  -0.000000   0.000000   0.000057  -0.000000
    26  H    0.000000   0.000000  -0.000000   0.000000  -0.000000   0.000000
    27  H    0.000003   0.000000  -0.000000   0.000000   0.000047  -0.000000
    28  H    0.000000  -0.000000   0.000000   0.000000   0.000000   0.000000
    29  H   -0.004479  -0.001395  -0.000142  -0.000049  -0.000031   0.000009
    30  H    0.006031  -0.001478  -0.000104   0.005223   0.000228   0.000037
    31  H    0.597809  -0.032369  -0.005092   0.006163   0.005164  -0.000013
    32  H   -0.032369   0.590943  -0.002741  -0.004308  -0.000004  -0.000150
    33  H   -0.005092  -0.002741   0.600510  -0.035769  -0.005414  -0.002366
    34  H    0.006163  -0.004308  -0.035769   0.609874   0.006291  -0.004534
    35  H    0.005164  -0.000004  -0.005414   0.006291   0.613641  -0.033340
    36  H   -0.000013  -0.000150  -0.002366  -0.004534  -0.033340   0.590812
    37  H   -0.000021   0.000007  -0.000128  -0.000001  -0.004437  -0.002186
    38  H    0.000218   0.000052  -0.000110   0.004972   0.006221  -0.001613
              37         38
     1  C   -0.009361   0.000257
     2  O   -0.000116   0.000032
     3  N   -0.006611   0.000768
     4  N   -0.039684   0.002713
     5  C    0.008150  -0.000473
     6  O    0.000669   0.000006
     7  N   -0.000228   0.000011
     8  C    0.000017  -0.000000
     9  C   -0.000003   0.000000
    10  C   -0.000001  -0.000000
    11  C    0.000035  -0.000000
    12  C   -0.000023  -0.000009
    13  N   -0.028861  -0.055728
    14  C    0.003580  -0.002654
    15  C    0.000157  -0.000991
    16  C    0.003676  -0.006306
    17  C   -0.029166  -0.048143
    18  C    0.389100   0.375870
    19  H   -0.000001  -0.000000
    20  H    0.000001   0.000000
    21  H    0.000003   0.000000
    22  H    0.000000  -0.000000
    23  H   -0.000000   0.000000
    24  H    0.000000   0.000000
    25  H    0.000047   0.000000
    26  H   -0.000000   0.000000
    27  H   -0.000552   0.000010
    28  H    0.000010   0.000000
    29  H   -0.000144  -0.000175
    30  H   -0.000064   0.007425
    31  H   -0.000021   0.000218
    32  H    0.000007   0.000052
    33  H   -0.000128  -0.000110
    34  H   -0.000001   0.004972
    35  H   -0.004437   0.006221
    36  H   -0.002186  -0.001613
    37  H    0.514839  -0.031699
    38  H   -0.031699   0.596965
 Mulliken charges:
               1
     1  C    0.715486
     2  O   -0.493858
     3  N   -0.282991
     4  N   -0.282904
     5  C    0.715328
     6  O   -0.494278
     7  N   -0.433898
     8  C   -0.138937
     9  C   -0.263936
    10  C   -0.268644
    11  C   -0.263646
    12  C   -0.122433
    13  N   -0.434306
    14  C   -0.139005
    15  C   -0.263803
    16  C   -0.268721
    17  C   -0.263600
    18  C   -0.122007
    19  H    0.193892
    20  H    0.148432
    21  H    0.141854
    22  H    0.141713
    23  H    0.137040
    24  H    0.132594
    25  H    0.130442
    26  H    0.141480
    27  H    0.233572
    28  H    0.152521
    29  H    0.193895
    30  H    0.148453
    31  H    0.141831
    32  H    0.141694
    33  H    0.137027
    34  H    0.132578
    35  H    0.130377
    36  H    0.141384
    37  H    0.232995
    38  H    0.152378
 Sum of Mulliken charges =  -0.00000
 Mulliken charges with hydrogens summed into heavy atoms:
               1
     1  C    0.715486
     2  O   -0.493858
     3  N   -0.282991
     4  N   -0.282904
     5  C    0.715328
     6  O   -0.494278
     7  N   -0.433898
     8  C    0.203387
     9  C    0.019630
    10  C    0.000990
    11  C    0.008276
    12  C    0.263659
    13  N   -0.434306
    14  C    0.203343
    15  C    0.019722
    16  C    0.000884
    17  C    0.008161
    18  C    0.263367
 APT charges:
               1
     1  C    0.957898
     2  O   -0.705118
     3  N   -0.034331
     4  N   -0.033622
     5  C    0.958072
     6  O   -0.705417
     7  N   -0.704683
     8  C    0.342551
     9  C    0.097641
    10  C    0.124154
    11  C    0.076869
    12  C    0.256373
    13  N   -0.704632
    14  C    0.342894
    15  C    0.097403
    16  C    0.124412
    17  C    0.076714
    18  C    0.257468
    19  H    0.028375
    20  H   -0.083930
    21  H   -0.036529
    22  H   -0.052602
    23  H   -0.061828
    24  H   -0.047541
    25  H   -0.047556
    26  H   -0.046308
    27  H    0.021303
    28  H   -0.084645
    29  H    0.028388
    30  H   -0.083963
    31  H   -0.036520
    32  H   -0.052645
    33  H   -0.061828
    34  H   -0.047574
    35  H   -0.047605
    36  H   -0.046465
    37  H    0.019812
    38  H   -0.084984
 Sum of APT charges =  -0.00000
 APT charges with hydrogens summed into heavy atoms:
               1
     1  C    0.957898
     2  O   -0.705118
     3  N   -0.034331
     4  N   -0.033622
     5  C    0.958072
     6  O   -0.705417
     7  N   -0.704683
     8  C    0.286996
     9  C    0.008510
    10  C    0.014784
    11  C   -0.016995
    12  C    0.193031
    13  N   -0.704632
    14  C    0.287318
    15  C    0.008238
    16  C    0.015011
    17  C   -0.017357
    18  C    0.192297
 Electronic spatial extent (au):  <R**2>=           5490.3094
 Charge=             -0.0000 electrons
 Dipole moment (field-independent basis, Debye):
    X=             -0.0049    Y=             -0.0248    Z=              3.9192  Tot=              3.9193
 Quadrupole moment (field-independent basis, Debye-Ang):
   XX=            -92.3067   YY=           -118.8786   ZZ=           -113.1784
   XY=             -8.6001   XZ=             -0.0771   YZ=             -0.0650
 Traceless Quadrupole moment (field-independent basis, Debye-Ang):
[...]
    52    N    4  py     Val( 2p)     1.37742
    53    N    4  py     Ryd( 3p)     0.00407
    54    N    4  pz     Val( 2p)     1.26128
    55    N    4  pz     Ryd( 3p)     0.00445
    56    N    4  dxy    Ryd( 3d)     0.00098
    57    N    4  dxz    Ryd( 3d)     0.00150
    58    N    4  dyz    Ryd( 3d)     0.00202
    59    N    4  dx2y2  Ryd( 3d)     0.00075
    60    N    4  dz2    Ryd( 3d)     0.00225
 
    61    C    5  S      Cor( 1S)     1.99934
    62    C    5  S      Val( 2S)     0.73358
    63    C    5  S      Ryd( 3S)     0.00455
    64    C    5  S      Ryd( 4S)     0.00039
    65    C    5  px     Val( 2p)     0.83231
    66    C    5  px     Ryd( 3p)     0.00838
    67    C    5  py     Val( 2p)     0.77062
    68    C    5  py     Ryd( 3p)     0.01961
    69    C    5  pz     Val( 2p)     0.82198
    70    C    5  pz     Ryd( 3p)     0.00395
    71    C    5  dxy    Ryd( 3d)     0.00317
    72    C    5  dxz    Ryd( 3d)     0.00193
    73    C    5  dyz    Ryd( 3d)     0.00231
    74    C    5  dx2y2  Ryd( 3d)     0.00214
    75    C    5  dz2    Ryd( 3d)     0.00041
 
    76    O    6  S      Cor( 1S)     1.99979
    77    O    6  S      Val( 2S)     1.70350
    78    O    6  S      Ryd( 3S)     0.00078
    79    O    6  S      Ryd( 4S)     0.00009
    80    O    6  px     Val( 2p)     1.73644
    81    O    6  px     Ryd( 3p)     0.00147
    82    O    6  py     Val( 2p)     1.57331
    83    O    6  py     Ryd( 3p)     0.00037
    84    O    6  pz     Val( 2p)     1.53979
    85    O    6  pz     Ryd( 3p)     0.00093
    86    O    6  dxy    Ryd( 3d)     0.00436
    87    O    6  dxz    Ryd( 3d)     0.00023
    88    O    6  dyz    Ryd( 3d)     0.00459
    89    O    6  dx2y2  Ryd( 3d)     0.00436
    90    O    6  dz2    Ryd( 3d)     0.00136
 
    91    N    7  S      Cor( 1S)     1.99928
    92    N    7  S      Val( 2S)     1.20571
    93    N    7  S      Ryd( 3S)     0.00173
    94    N    7  S      Ryd( 4S)     0.00006
    95    N    7  px     Val( 2p)     1.29908
    96    N    7  px     Ryd( 3p)     0.00149
    97    N    7  py     Val( 2p)     1.30279
    98    N    7  py     Ryd( 3p)     0.00159
    99    N    7  pz     Val( 2p)     1.65036
   100    N    7  pz     Ryd( 3p)     0.00491
   101    N    7  dxy    Ryd( 3d)     0.00072
   102    N    7  dxz    Ryd( 3d)     0.00073
   103    N    7  dyz    Ryd( 3d)     0.00045
   104    N    7  dx2y2  Ryd( 3d)     0.00068
   105    N    7  dz2    Ryd( 3d)     0.00053
 
   106    C    8  S      Cor( 1S)     1.99932
   107    C    8  S      Val( 2S)     1.01813
   108    C    8  S      Ryd( 3S)     0.00118
   109    C    8  S      Ryd( 4S)     0.00003
   110    C    8  px     Val( 2p)     0.95038
   111    C    8  px     Ryd( 3p)     0.00385
   112    C    8  py     Val( 2p)     1.15028
   113    C    8  py     Ryd( 3p)     0.00461
   114    C    8  pz     Val( 2p)     1.12510
   115    C    8  pz     Ryd( 3p)     0.00162
   116    C    8  dxy    Ryd( 3d)     0.00105
   117    C    8  dxz    Ryd( 3d)     0.00147
   118    C    8  dyz    Ryd( 3d)     0.00046
   119    C    8  dx2y2  Ryd( 3d)     0.00090
   120    C    8  dz2    Ryd( 3d)     0.00099
 
   121    C    9  S      Cor( 1S)     1.99932
   122    C    9  S      Val( 2S)     1.04114
   123    C    9  S      Ryd( 3S)     0.00063
   124    C    9  S      Ryd( 4S)     0.00002
   125    C    9  px     Val( 2p)     1.21092
   126    C    9  px     Ryd( 3p)     0.00384
   127    C    9  py     Val( 2p)     1.08326
   128    C    9  py     Ryd( 3p)     0.00176
   129    C    9  pz     Val( 2p)     1.12585
   130    C    9  pz     Ryd( 3p)     0.00158
   131    C    9  dxy    Ryd( 3d)     0.00084
   132    C    9  dxz    Ryd( 3d)     0.00086
   133    C    9  dyz    Ryd( 3d)     0.00044
   134    C    9  dx2y2  Ryd( 3d)     0.00059
   135    C    9  dz2    Ryd( 3d)     0.00074
 
   136    C   10  S      Cor( 1S)     1.99933
   137    C   10  S      Val( 2S)     1.03668
   138    C   10  S      Ryd( 3S)     0.00060
   139    C   10  S      Ryd( 4S)     0.00002
   140    C   10  px     Val( 2p)     1.12460
   141    C   10  px     Ryd( 3p)     0.00154
   142    C   10  py     Val( 2p)     1.05029
   143    C   10  py     Ryd( 3p)     0.00168
   144    C   10  pz     Val( 2p)     1.24310
   145    C   10  pz     Ryd( 3p)     0.00416
   146    C   10  dxy    Ryd( 3d)     0.00059
   147    C   10  dxz    Ryd( 3d)     0.00114
   148    C   10  dyz    Ryd( 3d)     0.00049
   149    C   10  dx2y2  Ryd( 3d)     0.00068
   150    C   10  dz2    Ryd( 3d)     0.00065
 
   151    C   11  S      Cor( 1S)     1.99932
   152    C   11  S      Val( 2S)     1.04165
   153    C   11  S      Ryd( 3S)     0.00066
   154    C   11  S      Ryd( 4S)     0.00002
   155    C   11  px     Val( 2p)     1.10244
   156    C   11  px     Ryd( 3p)     0.00212
   157    C   11  py     Val( 2p)     1.19309
   158    C   11  py     Ryd( 3p)     0.00333
   159    C   11  pz     Val( 2p)     1.12401
   160    C   11  pz     Ryd( 3p)     0.00185
   161    C   11  dxy    Ryd( 3d)     0.00045
   162    C   11  dxz    Ryd( 3d)     0.00109
   163    C   11  dyz    Ryd( 3d)     0.00029
   164    C   11  dx2y2  Ryd( 3d)     0.00095
   165    C   11  dz2    Ryd( 3d)     0.00070
 
   166    C   12  S      Cor( 1S)     1.99930
   167    C   12  S      Val( 2S)     1.01834
   168    C   12  S      Ryd( 3S)     0.00128
   169    C   12  S      Ryd( 4S)     0.00003
   170    C   12  px     Val( 2p)     1.24307
   171    C   12  px     Ryd( 3p)     0.00630
   172    C   12  py     Val( 2p)     0.85073
   173    C   12  py     Ryd( 3p)     0.00263
   174    C   12  pz     Val( 2p)     1.13377
   175    C   12  pz     Ryd( 3p)     0.00126
   176    C   12  dxy    Ryd( 3d)     0.00068
   177    C   12  dxz    Ryd( 3d)     0.00102
   178    C   12  dyz    Ryd( 3d)     0.00092
   179    C   12  dx2y2  Ryd( 3d)     0.00127
   180    C   12  dz2    Ryd( 3d)     0.00094
 
   181    N   13  S      Cor( 1S)     1.99927
   182    N   13  S      Val( 2S)     1.20578
   183    N   13  S      Ryd( 3S)     0.00169
   184    N   13  S      Ryd( 4S)     0.00006
   185    N   13  px     Val( 2p)     1.29915
   186    N   13  px     Ryd( 3p)     0.00168
   187    N   13  py     Val( 2p)     1.30121
   188    N   13  py     Ryd( 3p)     0.00155
   189    N   13  pz     Val( 2p)     1.65277
   190    N   13  pz     Ryd( 3p)     0.00484
   191    N   13  dxy    Ryd( 3d)     0.00073
   192    N   13  dxz    Ryd( 3d)     0.00068
   193    N   13  dyz    Ryd( 3d)     0.00044
   194    N   13  dx2y2  Ryd( 3d)     0.00068
   195    N   13  dz2    Ryd( 3d)     0.00055
 
   196    C   14  S      Cor( 1S)     1.99932
   197    C   14  S      Val( 2S)     1.01799
   198    C   14  S      Ryd( 3S)     0.00122
   199    C   14  S      Ryd( 4S)     0.00003
   200    C   14  px     Val( 2p)     0.91713
   201    C   14  px     Ryd( 3p)     0.00372
   202    C   14  py     Val( 2p)     1.15387
   203    C   14  py     Ryd( 3p)     0.00478
   204    C   14  pz     Val( 2p)     1.15477
   205    C   14  pz     Ryd( 3p)     0.00157
   206    C   14  dxy    Ryd( 3d)     0.00114
   207    C   14  dxz    Ryd( 3d)     0.00119
   208    C   14  dyz    Ryd( 3d)     0.00046
   209    C   14  dx2y2  Ryd( 3d)     0.00088
   210    C   14  dz2    Ryd( 3d)     0.00120
 
   211    C   15  S      Cor( 1S)     1.99932
   212    C   15  S      Val( 2S)     1.04092
   213    C   15  S      Ryd( 3S)     0.00063
   214    C   15  S      Ryd( 4S)     0.00002
   215    C   15  px     Val( 2p)     1.16691
   216    C   15  px     Ryd( 3p)     0.00345
   217    C   15  py     Val( 2p)     1.09315
   218    C   15  py     Ryd( 3p)     0.00170
   219    C   15  pz     Val( 2p)     1.15976
   220    C   15  pz     Ryd( 3p)     0.00212
   221    C   15  dxy    Ryd( 3d)     0.00083
   222    C   15  dxz    Ryd( 3d)     0.00075
   223    C   15  dyz    Ryd( 3d)     0.00052
   224    C   15  dx2y2  Ryd( 3d)     0.00056
   225    C   15  dz2    Ryd( 3d)     0.00083
 
   226    C   16  S      Cor( 1S)     1.99933
   227    C   16  S      Val( 2S)     1.03646
   228    C   16  S      Ryd( 3S)     0.00060
   229    C   16  S      Ryd( 4S)     0.00002
   230    C   16  px     Val( 2p)     1.12661
   231    C   16  px     Ryd( 3p)     0.00200
   232    C   16  py     Val( 2p)     1.04847
   233    C   16  py     Ryd( 3p)     0.00157
   234    C   16  pz     Val( 2p)     1.24283
   235    C   16  pz     Ryd( 3p)     0.00380
   236    C   16  dxy    Ryd( 3d)     0.00060
   237    C   16  dxz    Ryd( 3d)     0.00113
   238    C   16  dyz    Ryd( 3d)     0.00047
   239    C   16  dx2y2  Ryd( 3d)     0.00066
   240    C   16  dz2    Ryd( 3d)     0.00067
 
   241    C   17  S      Cor( 1S)     1.99932
   242    C   17  S      Val( 2S)     1.04084
   243    C   17  S      Ryd( 3S)     0.00066
   244    C   17  S      Ryd( 4S)     0.00002
   245    C   17  px     Val( 2p)     1.05963
   246    C   17  px     Ryd( 3p)     0.00189
   247    C   17  py     Val( 2p)     1.20366
   248    C   17  py     Ryd( 3p)     0.00363
   249    C   17  pz     Val( 2p)     1.15576
   250    C   17  pz     Ryd( 3p)     0.00180
   251    C   17  dxy    Ryd( 3d)     0.00048
   252    C   17  dxz    Ryd( 3d)     0.00089
   253    C   17  dyz    Ryd( 3d)     0.00025
   254    C   17  dx2y2  Ryd( 3d)     0.00095
   255    C   17  dz2    Ryd( 3d)     0.00092
 
   256    C   18  S      Cor( 1S)     1.99930
   257    C   18  S      Val( 2S)     1.01820
   258    C   18  S      Ryd( 3S)     0.00132
   259    C   18  S      Ryd( 4S)     0.00003
   260    C   18  px     Val( 2p)     1.20701
   261    C   18  px     Ryd( 3p)     0.00563
   262    C   18  py     Val( 2p)     0.85789
   263    C   18  py     Ryd( 3p)     0.00246
   264    C   18  pz     Val( 2p)     1.16297
   265    C   18  pz     Ryd( 3p)     0.00186
   266    C   18  dxy    Ryd( 3d)     0.00070
   267    C   18  dxz    Ryd( 3d)     0.00071
   268    C   18  dyz    Ryd( 3d)     0.00100
   269    C   18  dx2y2  Ryd( 3d)     0.00126
   270    C   18  dz2    Ryd( 3d)     0.00115
 
   271    H   19  S      Val( 1S)     0.73035
   272    H   19  S      Ryd( 2S)     0.00205
 
   273    H   20  S      Val( 1S)     0.77220
   274    H   20  S      Ryd( 2S)     0.00205
 
   275    H   21  S      Val( 1S)     0.76125
   276    H   21  S      Ryd( 2S)     0.00189
 
   277    H   22  S      Val( 1S)     0.75449
   278    H   22  S      Ryd( 2S)     0.00113
 
   279    H   23  S      Val( 1S)     0.75454
   280    H   23  S      Ryd( 2S)     0.00111
 
   281    H   24  S      Val( 1S)     0.77227
   282    H   24  S      Ryd( 2S)     0.00194
 
   283    H   25  S      Val( 1S)     0.76008
   284    H   25  S      Ryd( 2S)     0.00199
 
   285    H   26  S      Val( 1S)     0.75295
   286    H   26  S      Ryd( 2S)     0.00112
 
   287    H   27  S      Val( 1S)     0.72415
   288    H   27  S      Ryd( 2S)     0.00243
 
   289    H   28  S      Val( 1S)     0.77258
   290    H   28  S      Ryd( 2S)     0.00217
 
   291    H   29  S      Val( 1S)     0.73017
   292    H   29  S      Ryd( 2S)     0.00203
 
   293    H   30  S      Val( 1S)     0.77304
   294    H   30  S      Ryd( 2S)     0.00201
 
   295    H   31  S      Val( 1S)     0.76181
   296    H   31  S      Ryd( 2S)     0.00188
 
   297    H   32  S      Val( 1S)     0.75326
   298    H   32  S      Ryd( 2S)     0.00113
 
   299    H   33  S      Val( 1S)     0.75453
   300    H   33  S      Ryd( 2S)     0.00111
 
   301    H   34  S      Val( 1S)     0.77136
   302    H   34  S      Ryd( 2S)     0.00194
 
   303    H   35  S      Val( 1S)     0.76214
   304    H   35  S      Ryd( 2S)     0.00207
 
   305    H   36  S      Val( 1S)     0.75245
   306    H   36  S      Ryd( 2S)     0.00110
 
   307    H   37  S      Val( 1S)     0.72412
   308    H   37  S      Ryd( 2S)     0.00243
 
   309    H   38  S      Val( 1S)     0.77351
   310    H   38  S      Ryd( 2S)     0.00227


 Summary of Natural Population Analysis:                  
                                                          
                                       Natural Population 
                Natural  -----------------------------------------------
    Atom  No    Charge         Core      Valence    Rydberg      Total
 -----------------------------------------------------------------------
      C    1    0.79711      1.99934     3.15683    0.04672     5.20289
      O    2   -0.57264      1.99979     6.55431    0.01854     8.57264
      N    3   -0.25250      1.99941     5.22705    0.02603     7.25250
      N    4   -0.24921      1.99941     5.22367    0.02613     7.24921
      C    5    0.79533      1.99934     3.15849    0.04684     5.20467
      O    6   -0.57138      1.99979     6.55304    0.01855     8.57138
      N    7   -0.47011      1.99928     5.45794    0.01289     7.47011
      C    8   -0.25936      1.99932     4.24388    0.01616     6.25936
      C    9   -0.47181      1.99932     4.46117    0.01132     6.47181
      C   10   -0.46554      1.99933     4.45466    0.01155     6.46554
      C   11   -0.47197      1.99932     4.46120    0.01145     6.47197
      C   12   -0.26153      1.99930     4.24592    0.01631     6.26153
      N   13   -0.47109      1.99927     5.45892    0.01290     7.47109
      C   14   -0.25927      1.99932     4.24375    0.01620     6.25927
      C   15   -0.47146      1.99932     4.46074    0.01140     6.47146
      C   16   -0.46524      1.99933     4.45437    0.01154     6.46524
      C   17   -0.47070      1.99932     4.45990    0.01148     6.47070
      C   18   -0.26150      1.99930     4.24608    0.01613     6.26150
      H   19    0.26759      0.00000     0.73035    0.00205     0.73241
      H   20    0.22575      0.00000     0.77220    0.00205     0.77425
      H   21    0.23686      0.00000     0.76125    0.00189     0.76314
      H   22    0.24438      0.00000     0.75449    0.00113     0.75562
      H   23    0.24435      0.00000     0.75454    0.00111     0.75565
      H   24    0.22579      0.00000     0.77227    0.00194     0.77421
      H   25    0.23793      0.00000     0.76008    0.00199     0.76207
      H   26    0.24593      0.00000     0.75295    0.00112     0.75407
      H   27    0.27342      0.00000     0.72415    0.00243     0.72658
      H   28    0.22525      0.00000     0.77258    0.00217     0.77475
      H   29    0.26780      0.00000     0.73017    0.00203     0.73220
      H   30    0.22495      0.00000     0.77304    0.00201     0.77505
      H   31    0.23631      0.00000     0.76181    0.00188     0.76369
      H   32    0.24561      0.00000     0.75326    0.00113     0.75439
      H   33    0.24436      0.00000     0.75453    0.00111     0.75564
      H   34    0.22670      0.00000     0.77136    0.00194     0.77330
      H   35    0.23579      0.00000     0.76214    0.00207     0.76421
      H   36    0.24646      0.00000     0.75245    0.00110     0.75354
      H   37    0.27345      0.00000     0.72412    0.00243     0.72655
      H   38    0.22422      0.00000     0.77351    0.00227     0.77578
 =======================================================================
   * Total *    0.00000     35.98882    99.63317    0.37801   136.00000

                                 Natural Population      
 --------------------------------------------------------
   Core                      35.98882 ( 99.9690% of  36)
   Valence                   99.63317 ( 99.6332% of 100)
   Natural Minimal Basis    135.62199 ( 99.7221% of 136)
   Natural Rydberg Basis      0.37801 (  0.2779% of 136)
 --------------------------------------------------------

    Atom  No          Natural Electron Configuration
 ----------------------------------------------------------------------------
      C    1      [core]2S( 0.73)2p( 2.42)3p( 0.03)3d( 0.01)
      O    2      [core]2S( 1.70)2p( 4.85)3d( 0.01)
      N    3      [core]2S( 1.40)2p( 3.83)3S( 0.01)3p( 0.01)3d( 0.01)
      N    4      [core]2S( 1.40)2p( 3.82)3S( 0.01)3p( 0.01)3d( 0.01)
      C    5      [core]2S( 0.73)2p( 2.42)3p( 0.03)3d( 0.01)
      O    6      [core]2S( 1.70)2p( 4.85)3d( 0.01)
      N    7      [core]2S( 1.21)2p( 4.25)3p( 0.01)
      C    8      [core]2S( 1.02)2p( 3.23)3p( 0.01)
      C    9      [core]2S( 1.04)2p( 3.42)3p( 0.01)
      C   10      [core]2S( 1.04)2p( 3.42)3p( 0.01)
      C   11      [core]2S( 1.04)2p( 3.42)3p( 0.01)
      C   12      [core]2S( 1.02)2p( 3.23)3p( 0.01)
      N   13      [core]2S( 1.21)2p( 4.25)3p( 0.01)
      C   14      [core]2S( 1.02)2p( 3.23)3p( 0.01)
      C   15      [core]2S( 1.04)2p( 3.42)3p( 0.01)
      C   16      [core]2S( 1.04)2p( 3.42)3p( 0.01)
      C   17      [core]2S( 1.04)2p( 3.42)3p( 0.01)
      C   18      [core]2S( 1.02)2p( 3.23)3p( 0.01)
      H   19            1S( 0.73)
      H   20            1S( 0.77)
      H   21            1S( 0.76)
      H   22            1S( 0.75)
      H   23            1S( 0.75)
      H   24            1S( 0.77)
      H   25            1S( 0.76)
      H   26            1S( 0.75)
      H   27            1S( 0.72)
      H   28            1S( 0.77)
      H   29            1S( 0.73)
      H   30            1S( 0.77)
      H   31            1S( 0.76)
      H   32            1S( 0.75)
      H   33            1S( 0.75)
      H   34            1S( 0.77)
      H   35            1S( 0.76)
      H   36            1S( 0.75)
      H   37            1S( 0.72)
      H   38            1S( 0.77)


 NBO analysis skipped by request.
 1\1\GINC-DELLA-R1C3N16\SP\RB3LYP TD-FC\6-31G(d)\C12H20N4O2\BJS4\22-Aug
 -2020\0\\# TD(NStates=10, Root=1) B3LYP/6-31G* scf=qc volume pop=NPA d
 ensity=current Geom=AllCheck Guess=Read\\Title Card Required\\0,1\C,0,
 0.5540981452,-0.0495911319,1.159669983\O,0,1.7511010406,0.1863500057,1
 .1112406835\N,0,-0.3698017732,1.0548526526,1.4152176391\N,0,-0.5353614
 722,1.7752215225,0.4140819256\C,0,-1.4562610328,2.8814271943,0.6777609
 632\O,0,-2.6521810299,2.6481244865,0.754009868\N,0,-0.8604429867,4.097
 575784,0.699681226\C,0,-1.6746297995,5.3005956507,0.8897904545\C,0,-1.
 2461259078,6.0460907908,2.1606815809\C,0,0.2653159156,6.3252033554,2.1
 562671894\C,0,1.0644289777,5.0323868933,1.9278660597\C,0,0.5912134172,
 4.3092624538,0.6593730172\N,0,-0.0383831881,-1.2669127468,1.1201502295
 \C,0,0.7889322842,-2.4699064238,0.9931492271\C,0,0.4546592353,-3.47469
 6195,2.1026167526\C,0,-1.052232933,-3.7720319625,2.1443193871\C,0,-1.8
 623646397,-2.4723315721,2.2644672696\C,0,-1.4900503813,-1.4808656594,1
 .1542199334\H,0,-2.7187110922,4.9880111709,0.9308920278\H,0,-1.5434226
 363,5.9492596332,0.0105832643\H,0,-1.5085319292,5.4347594312,3.0341813
 751\H,0,-1.8127020748,6.9822180894,2.2389607191\H,0,0.5684902664,6.798
 6617133,3.0976663569\H,0,0.4994392593,7.0415467178,1.3546209116\H,0,0.
 9388671595,4.3586590861,2.7856779078\H,0,2.1361280451,5.2483010342,1.8
 39283376\H,0,1.0939771394,3.3486458697,0.5397514368\H,0,0.8241066572,4
 .9184217912,-0.2268937275\H,0,1.8324252717,-2.1542934003,1.026513056\H
 ,0,0.600469238,-2.9224458106,0.0076755377\H,0,0.7778906886,-3.06007462
 61,3.0666069116\H,0,1.0276470869,-4.3955850817,1.9380696176\H,0,-1.286
 241498,-4.4452349535,2.9775869128\H,0,-1.3442599878,-4.2981432021,1.22
 32267942\H,0,-1.6684296554,-2.0018841698,3.2373931648\H,0,-2.938357342
 3,-2.6784258944,2.2127115238\H,0,-1.9917027301,-0.5228297979,1.2972913
 903\H,0,-1.8068857374,-1.8762526987,0.1769880541\\Version=ES64L-G16Rev
 A.03\State=1-A\HF=-838.7633152\RMSD=1.572e-09\Dipole=0.0156832,-0.0441
 146,0.2668629\Quadrupole=-12.4331368,17.5033981,-5.0702612,2.8802608,-
 0.7398844,-0.3663723\PG=C01 [X(C12H20N4O2)]\\@


 AN AIRPLANE IS A COLLECTION OF SPARE PARTS
 FLYING IN CLOSE FORMATION.
 Job cpu time:       0 days  0 hours 54 minutes 18.8 seconds.
 Elapsed time:       0 days  0 hours 11 minutes 10.2 seconds.
 File lengths (MBytes):  RWF=    821 Int=      0 D2E=      0 Chk=    268 Scr=      1
 Normal termination of Gaussian 16 at Sat Aug 22 19:47:20 2020.
