 Entering Gaussian System, Link 0=g16
 Input=azadicarboxylate_2_conf25123.com
 Output=azadicarboxylate_2_conf25123.log
 Initial command:
 /opt/export//g16/l1.exe "/scratch/bjs4/job.101685/Gau-101688.inp" -scrdir="/scratch/bjs4/job.101685/"
 Entering Link 1 = /opt/export//g16/l1.exe PID=    101689.
  
 Copyright (c) 1988,1990,1992,1993,1995,1998,2003,2009,2016,
            Gaussian, Inc.  All Rights Reserved.
  
 This is part of the Gaussian(R) 16 program.  It is based on
 the Gaussian(R) 09 system (copyright 2009, Gaussian, Inc.),
 the Gaussian(R) 03 system (copyright 2003, Gaussian, Inc.),
 the Gaussian(R) 98 system (copyright 1998, Gaussian, Inc.),
 the Gaussian(R) 94 system (copyright 1995, Gaussian, Inc.),
 the Gaussian 92(TM) system (copyright 1992, Gaussian, Inc.),
 the Gaussian 90(TM) system (copyright 1990, Gaussian, Inc.),
 the Gaussian 88(TM) system (copyright 1988, Gaussian, Inc.),
 the Gaussian 86(TM) system (copyright 1986, Carnegie Mellon
 University), and the Gaussian 82(TM) system (copyright 1983,
 Carnegie Mellon University). Gaussian is a federally registered
 trademark of Gaussian, Inc.
  
 This software contains proprietary and confidential information,
 including trade secrets, belonging to Gaussian, Inc.
  
 This software is provided under written license and may be
 used, copied, transmitted, or stored only in accord with that
 written license.
  
 The following legend is applicable only to US Government
 contracts under FAR:
  
                    RESTRICTED RIGHTS LEGEND
  
 Use, reproduction and disclosure by the US Government is
 subject to restrictions as set forth in subparagraphs (a)
 and (c) of the Commercial Computer Software - Restricted
 Rights clause in FAR 52.227-19.
  
 Gaussian, Inc.
 340 Quinnipiac St., Bldg. 40, Wallingford CT 06492
  
  
 ---------------------------------------------------------------
 Warning -- This program may not be used in any manner that
 competes with the business of Gaussian, Inc. or will provide
 assistance to any competitor of Gaussian, Inc.  The licensee
 of this program is prohibited from giving any competitor of
 Gaussian, Inc. access to this program.  By using this program,
 the user acknowledges that Gaussian, Inc. is engaged in the
 business of creating and licensing software in the field of
 computational chemistry and represents and warrants to the
 licensee that it is not a competitor of Gaussian, Inc. and that
 it will not use this program in any manner prohibited above.
 ---------------------------------------------------------------
  

 Cite this work as:
 Gaussian 16, Revision A.03,
 M. J. Frisch, G. W. Trucks, H. B. Schlegel, G. E. Scuseria, 
 M. A. Robb, J. R. Cheeseman, G. Scalmani, V. Barone, 
 G. A. Petersson, H. Nakatsuji, X. Li, M. Caricato, A. V. Marenich, 
 J. Bloino, B. G. Janesko, R. Gomperts, B. Mennucci, H. P. Hratchian, 
 J. V. Ortiz, A. F. Izmaylov, J. L. Sonnenberg, D. Williams-Young, 
 F. Ding, F. Lipparini, F. Egidi, J. Goings, B. Peng, A. Petrone, 
 T. Henderson, D. Ranasinghe, V. G. Zakrzewski, J. Gao, N. Rega, 
 G. Zheng, W. Liang, M. Hada, M. Ehara, K. Toyota, R. Fukuda, 
 J. Hasegawa, M. Ishida, T. Nakajima, Y. Honda, O. Kitao, H. Nakai, 
 T. Vreven, K. Throssell, J. A. Montgomery, Jr., J. E. Peralta, 
 F. Ogliaro, M. J. Bearpark, J. J. Heyd, E. N. Brothers, K. N. Kudin, 
 V. N. Staroverov, T. A. Keith, R. Kobayashi, J. Normand, 
 K. Raghavachari, A. P. Rendell, J. C. Burant, S. S. Iyengar, 
 J. Tomasi, M. Cossi, J. M. Millam, M. Klene, C. Adamo, R. Cammi, 
 J. W. Ochterski, R. L. Martin, K. Morokuma, O. Farkas, 
 J. B. Foresman, and D. J. Fox, Gaussian, Inc., Wallingford CT, 2016.
 
 ******************************************
 Gaussian 16:  ES64L-G16RevA.03 25-Dec-2016
                22-Aug-2020 
 ******************************************
 %nprocshared=4
 Will use up to    4 processors via shared memory.
 %Mem=8GB
 %Chk=azadicarboxylate_2_conf251.chk
 ---------------------------------
 # opt=CalcAll B3LYP/6-31G* scf=qc
 ---------------------------------
 1/10=4,18=20,19=15,26=3,38=1/1,3;
 2/9=110,12=2,17=6,18=5,40=1/2;
 3/5=1,6=6,7=1,11=2,25=1,30=1,71=2,74=-5,140=1/1,2,3;
 4//1;
 5/5=2,8=3,38=5/8;
 8/6=4,10=90,11=11/1;
 11/6=1,8=1,9=11,15=111,16=1/1,2,10;
 10/6=1/2;
 6/7=2,8=2,9=2,10=2,18=1,28=1/1;
 7/10=1,25=1/1,2,3,16;
 1/10=4,18=20,19=15,26=3/3(3);
 2/9=110/2;
 7/8=1,9=1,25=1,44=-1/16;
 99//99;
 2/9=110/2;
 3/5=1,6=6,7=1,11=2,25=1,30=1,71=2,74=-5,140=1/1,2,3;
 4/5=5,16=3,69=1/1;
 5/5=2,8=3,38=5/8;
 8/6=4,10=90,11=11/1;
 11/6=1,8=1,9=11,15=111,16=1/1,2,10;
 10/6=1/2;
 7/10=1,25=1/1,2,3,16;
 1/10=4,18=20,19=15,26=3/3(-8);
 2/9=110/2;
 6/7=2,8=2,9=2,10=2,18=1,19=2,28=1/1;
 7/8=1,9=1,25=1,44=-1/16;
 99//99;
 -------------------
 Title Card Required
 -------------------
 Symbolic Z-matrix:
 Charge =  0 Multiplicity = 1
 C                     4.2275    0.76125  -1.23826 
 C                     3.09947   0.70914  -0.21277 
 C                     2.68251  -0.73675   0.03752 
 O1                    3.55044   1.25981   1.03922 
 C2                    4.6047    0.6255    1.633 
 O3                    5.16011  -0.35896   1.1563 
 N4                    4.9196    1.2612    2.8145 
 N5                    6.1396    1.1728    3.0913 
 C6                    6.4621    1.8155    4.2661 
 O7                    5.73475   1.981     5.23962 
 O8                    7.75154   2.26386   4.19954 
 C                     8.24553   2.96434   5.35674 
 C                     7.4033    4.21088   5.60847 
 C                     8.14952   2.01476   6.54631 
 H                     3.91806   0.31412  -2.18817 
 H                     5.11277   0.22981  -0.87207 
 H                     4.53767   1.79293  -1.43016 
 H                     2.22354   1.25988  -0.57752 
 H                     3.51013  -1.32051   0.45581 
 H                     2.34733  -1.21887  -0.88682 
 H                     1.86588  -0.77999   0.7662 
 H                     9.29929   3.23494   5.21772 
 H                     6.34351   3.95259   5.70978 
 H                     7.47727   4.91049   4.76977 
 H                     7.7266    4.72938   6.51623 
 H                     7.11795   1.67833   6.70101 
 H                     8.50192   2.49352   7.46584 
 H                     8.75108   1.11684   6.37005 
 

 GradGradGradGradGradGradGradGradGradGradGradGradGradGradGradGradGradGrad
 Berny optimization.
 Initialization pass.
                           ----------------------------
                           !    Initial Parameters    !
                           ! (Angstroms and Degrees)  !
 --------------------------                            --------------------------
 ! Name  Definition              Value          Derivative Info.                !
 --------------------------------------------------------------------------------
 ! R1    R(1,2)                  1.5254         calculate D2E/DX2 analytically  !
 ! R2    R(1,15)                 1.0945         calculate D2E/DX2 analytically  !
 ! R3    R(1,16)                 1.0955         calculate D2E/DX2 analytically  !
 ! R4    R(1,17)                 1.0943         calculate D2E/DX2 analytically  !
 ! R5    R(2,3)                  1.5255         calculate D2E/DX2 analytically  !
 ! R6    R(2,4)                  1.4402         calculate D2E/DX2 analytically  !
 ! R7    R(2,18)                 1.0971         calculate D2E/DX2 analytically  !
 ! R8    R(3,19)                 1.0958         calculate D2E/DX2 analytically  !
 ! R9    R(3,20)                 1.0951         calculate D2E/DX2 analytically  !
 ! R10   R(3,21)                 1.0953         calculate D2E/DX2 analytically  !
 ! R11   R(4,5)                  1.3662         calculate D2E/DX2 analytically  !
 ! R12   R(5,6)                  1.2267         calculate D2E/DX2 analytically  !
 ! R13   R(5,7)                  1.3781         calculate D2E/DX2 analytically  !
 ! R14   R(7,8)                  1.2541         calculate D2E/DX2 analytically  !
 ! R15   R(8,9)                  1.3774         calculate D2E/DX2 analytically  !
 ! R16   R(9,10)                 1.2264         calculate D2E/DX2 analytically  !
 ! R17   R(9,11)                 1.3668         calculate D2E/DX2 analytically  !
 ! R18   R(11,12)                1.4401         calculate D2E/DX2 analytically  !
 ! R19   R(12,13)                1.5253         calculate D2E/DX2 analytically  !
 ! R20   R(12,14)                1.5251         calculate D2E/DX2 analytically  !
 ! R21   R(12,22)                1.0968         calculate D2E/DX2 analytically  !
 ! R22   R(13,23)                1.0955         calculate D2E/DX2 analytically  !
 ! R23   R(13,24)                1.0947         calculate D2E/DX2 analytically  !
 ! R24   R(13,25)                1.0943         calculate D2E/DX2 analytically  !
 ! R25   R(14,26)                1.096          calculate D2E/DX2 analytically  !
 ! R26   R(14,27)                1.095          calculate D2E/DX2 analytically  !
 ! R27   R(14,28)                1.0951         calculate D2E/DX2 analytically  !
 ! A1    A(2,1,15)             111.1265         calculate D2E/DX2 analytically  !
 ! A2    A(2,1,16)             110.872          calculate D2E/DX2 analytically  !
 ! A3    A(2,1,17)             111.0831         calculate D2E/DX2 analytically  !
 ! A4    A(15,1,16)            108.6854         calculate D2E/DX2 analytically  !
 ! A5    A(15,1,17)            108.2455         calculate D2E/DX2 analytically  !
 ! A6    A(16,1,17)            106.6737         calculate D2E/DX2 analytically  !
 ! A7    A(1,2,3)              110.1703         calculate D2E/DX2 analytically  !
 ! A8    A(1,2,4)              109.8653         calculate D2E/DX2 analytically  !
 ! A9    A(1,2,18)             110.473          calculate D2E/DX2 analytically  !
 ! A10   A(3,2,4)              107.7804         calculate D2E/DX2 analytically  !
 ! A11   A(3,2,18)             108.1875         calculate D2E/DX2 analytically  !
 ! A12   A(4,2,18)             110.3096         calculate D2E/DX2 analytically  !
 ! A13   A(2,3,19)             111.1699         calculate D2E/DX2 analytically  !
 ! A14   A(2,3,20)             111.2513         calculate D2E/DX2 analytically  !
 ! A15   A(2,3,21)             110.5089         calculate D2E/DX2 analytically  !
 ! A16   A(19,3,20)            108.5934         calculate D2E/DX2 analytically  !
 ! A17   A(19,3,21)            106.7461         calculate D2E/DX2 analytically  !
 ! A18   A(20,3,21)            108.4189         calculate D2E/DX2 analytically  !
 ! A19   A(2,4,5)              116.2288         calculate D2E/DX2 analytically  !
 ! A20   A(4,5,6)              123.5797         calculate D2E/DX2 analytically  !
 ! A21   A(4,5,7)              109.5593         calculate D2E/DX2 analytically  !
 ! A22   A(6,5,7)              126.8609         calculate D2E/DX2 analytically  !
 ! A23   A(5,7,8)              112.2711         calculate D2E/DX2 analytically  !
 ! A24   A(7,8,9)              112.5273         calculate D2E/DX2 analytically  !
 ! A25   A(8,9,10)             126.9507         calculate D2E/DX2 analytically  !
 ! A26   A(8,9,11)             109.4155         calculate D2E/DX2 analytically  !
 ! A27   A(10,9,11)            123.6337         calculate D2E/DX2 analytically  !
 ! A28   A(9,11,12)            116.3626         calculate D2E/DX2 analytically  !
 ! A29   A(11,12,13)           109.9211         calculate D2E/DX2 analytically  !
 ! A30   A(11,12,14)           107.597          calculate D2E/DX2 analytically  !
 ! A31   A(11,12,22)           110.3483         calculate D2E/DX2 analytically  !
 ! A32   A(13,12,14)           110.203          calculate D2E/DX2 analytically  !
 ! A33   A(13,12,22)           110.4747         calculate D2E/DX2 analytically  !
 ! A34   A(14,12,22)           108.2377         calculate D2E/DX2 analytically  !
 ! A35   A(12,13,23)           110.9006         calculate D2E/DX2 analytically  !
 ! A36   A(12,13,24)           111.0104         calculate D2E/DX2 analytically  !
 ! A37   A(12,13,25)           111.162          calculate D2E/DX2 analytically  !
 ! A38   A(23,13,24)           106.6726         calculate D2E/DX2 analytically  !
 ! A39   A(23,13,25)           108.7126         calculate D2E/DX2 analytically  !
 ! A40   A(24,13,25)           108.2272         calculate D2E/DX2 analytically  !
 ! A41   A(12,14,26)           111.1286         calculate D2E/DX2 analytically  !
 ! A42   A(12,14,27)           111.2551         calculate D2E/DX2 analytically  !
 ! A43   A(12,14,28)           110.5119         calculate D2E/DX2 analytically  !
 ! A44   A(26,14,27)           108.578          calculate D2E/DX2 analytically  !
 ! A45   A(26,14,28)           106.7415         calculate D2E/DX2 analytically  !
 ! A46   A(27,14,28)           108.4751         calculate D2E/DX2 analytically  !
 ! D1    D(15,1,2,3)            59.3505         calculate D2E/DX2 analytically  !
 ! D2    D(15,1,2,4)           177.9464         calculate D2E/DX2 analytically  !
 ! D3    D(15,1,2,18)          -60.1272         calculate D2E/DX2 analytically  !
 ! D4    D(16,1,2,3)           -61.6411         calculate D2E/DX2 analytically  !
 ! D5    D(16,1,2,4)            56.9548         calculate D2E/DX2 analytically  !
 ! D6    D(16,1,2,18)          178.8812         calculate D2E/DX2 analytically  !
 ! D7    D(17,1,2,3)           179.9276         calculate D2E/DX2 analytically  !
 ! D8    D(17,1,2,4)           -61.4765         calculate D2E/DX2 analytically  !
 ! D9    D(17,1,2,18)           60.4499         calculate D2E/DX2 analytically  !
 ! D10   D(1,2,3,19)            62.2005         calculate D2E/DX2 analytically  !
 ! D11   D(1,2,3,20)           -58.9631         calculate D2E/DX2 analytically  !
 ! D12   D(1,2,3,21)          -179.4561         calculate D2E/DX2 analytically  !
 ! D13   D(4,2,3,19)           -57.6655         calculate D2E/DX2 analytically  !
 ! D14   D(4,2,3,20)          -178.8291         calculate D2E/DX2 analytically  !
 ! D15   D(4,2,3,21)            60.678          calculate D2E/DX2 analytically  !
 ! D16   D(18,2,3,19)         -176.9424         calculate D2E/DX2 analytically  !
 ! D17   D(18,2,3,20)           61.894          calculate D2E/DX2 analytically  !
 ! D18   D(18,2,3,21)          -58.5989         calculate D2E/DX2 analytically  !
 ! D19   D(1,2,4,5)            -60.7058         calculate D2E/DX2 analytically  !
 ! D20   D(3,2,4,5)             59.3529         calculate D2E/DX2 analytically  !
 ! D21   D(18,2,4,5)           177.2705         calculate D2E/DX2 analytically  !
 ! D22   D(2,4,5,6)              0.0            calculate D2E/DX2 analytically  !
 ! D23   D(2,4,5,7)           -179.95           calculate D2E/DX2 analytically  !
 ! D24   D(4,5,7,8)           -149.6471         calculate D2E/DX2 analytically  !
 ! D25   D(6,5,7,8)             30.405          calculate D2E/DX2 analytically  !
 ! D26   D(5,7,8,9)            179.5215         calculate D2E/DX2 analytically  !
 ! D27   D(7,8,9,10)            29.6469         calculate D2E/DX2 analytically  !
 ! D28   D(7,8,9,11)          -150.2714         calculate D2E/DX2 analytically  !
 ! D29   D(8,9,11,12)          179.9214         calculate D2E/DX2 analytically  !
 ! D30   D(10,9,11,12)          -0.0002         calculate D2E/DX2 analytically  !
 ! D31   D(9,11,12,13)         -60.7061         calculate D2E/DX2 analytically  !
 ! D32   D(9,11,12,14)          59.3139         calculate D2E/DX2 analytically  !
 ! D33   D(9,11,12,22)         177.2055         calculate D2E/DX2 analytically  !
 ! D34   D(11,12,13,23)         55.7926         calculate D2E/DX2 analytically  !
 ! D35   D(11,12,13,24)        -62.6091         calculate D2E/DX2 analytically  !
 ! D36   D(11,12,13,25)        176.8622         calculate D2E/DX2 analytically  !
 ! D37   D(14,12,13,23)        -62.6322         calculate D2E/DX2 analytically  !
 ! D38   D(14,12,13,24)        178.9662         calculate D2E/DX2 analytically  !
 ! D39   D(14,12,13,25)         58.4374         calculate D2E/DX2 analytically  !
 ! D40   D(22,12,13,23)        177.8059         calculate D2E/DX2 analytically  !
 ! D41   D(22,12,13,24)         59.4043         calculate D2E/DX2 analytically  !
 ! D42   D(22,12,13,25)        -61.1245         calculate D2E/DX2 analytically  !
 ! D43   D(11,12,14,26)        -58.2611         calculate D2E/DX2 analytically  !
 ! D44   D(11,12,14,27)       -179.3793         calculate D2E/DX2 analytically  !
 ! D45   D(11,12,14,28)         60.0524         calculate D2E/DX2 analytically  !
 ! D46   D(13,12,14,26)         61.58           calculate D2E/DX2 analytically  !
 ! D47   D(13,12,14,27)        -59.5382         calculate D2E/DX2 analytically  !
 ! D48   D(13,12,14,28)        179.8935         calculate D2E/DX2 analytically  !
 ! D49   D(22,12,14,26)       -177.5097         calculate D2E/DX2 analytically  !
 ! D50   D(22,12,14,27)         61.3721         calculate D2E/DX2 analytically  !
 ! D51   D(22,12,14,28)        -59.1962         calculate D2E/DX2 analytically  !
 --------------------------------------------------------------------------------
 Trust Radius=3.00D-01 FncErr=1.00D-07 GrdErr=1.00D-06 EigMax=2.50D+02 EigMin=1.00D-04
 Number of steps in this run=    134 maximum allowed number of steps=    168.
 GradGradGradGradGradGradGradGradGradGradGradGradGradGradGradGradGradGrad

                          Input orientation:                          
 ---------------------------------------------------------------------
 Center     Atomic      Atomic             Coordinates (Angstroms)
 Number     Number       Type             X           Y           Z
 ---------------------------------------------------------------------
      1          6           0        4.227500    0.761250   -1.238260
      2          6           0        3.099470    0.709140   -0.212770
      3          6           0        2.682510   -0.736750    0.037520
      4          8           0        3.550440    1.259810    1.039220
      5          6           0        4.604700    0.625500    1.633000
      6          8           0        5.160110   -0.358960    1.156300
      7          7           0        4.919600    1.261200    2.814500
      8          7           0        6.139600    1.172800    3.091300
      9          6           0        6.462100    1.815500    4.266100
     10          8           0        5.734750    1.981000    5.239620
     11          8           0        7.751540    2.263860    4.199540
     12          6           0        8.245530    2.964340    5.356740
     13          6           0        7.403300    4.210880    5.608470
     14          6           0        8.149520    2.014760    6.546310
     15          1           0        3.918060    0.314120   -2.188170
     16          1           0        5.112770    0.229810   -0.872070
     17          1           0        4.537670    1.792930   -1.430160
     18          1           0        2.223540    1.259880   -0.577520
     19          1           0        3.510130   -1.320510    0.455810
     20          1           0        2.347330   -1.218870   -0.886820
     21          1           0        1.865880   -0.779990    0.766200
     22          1           0        9.299290    3.234940    5.217720
     23          1           0        6.343510    3.952590    5.709780
     24          1           0        7.477270    4.910490    4.769770
     25          1           0        7.726600    4.729380    6.516230
     26          1           0        7.117950    1.678330    6.701010
     27          1           0        8.501920    2.493520    7.465840
     28          1           0        8.751080    1.116840    6.370050
 ---------------------------------------------------------------------
                    Distance matrix (angstroms):
                    1          2          3          4          5
     1  C    0.000000
     2  C    1.525384   0.000000
     3  C    2.501722   1.525483   0.000000
     4  O    2.427733   1.440170   2.396447   0.000000
     5  C    2.899111   2.383187   2.845364   1.366158   0.000000
     6  O    2.803310   2.694704   2.744612   2.285861   1.226737
     7  N    4.141717   3.575193   4.087541   2.241923   1.378121
     8  N    4.750851   4.513784   4.992337   3.304898   2.186800
     9  C    6.033478   5.708904   6.219338   4.381702   3.435004
    10  O    6.761843   6.187963   6.615450   4.789017   4.015234
    11  O    6.651794   6.597529   7.212568   5.352101   4.378807
    12  C    8.030703   7.911214   8.540454   6.602293   5.708945
    13  C    8.298395   8.041889   8.820453   6.665688   6.040817
    14  C    8.806421   8.537729   8.934392   7.214536   6.215819
    15  H    1.094535   2.174474   2.754017   3.383123   3.894839
    16  H    1.095549   2.172052   2.769071   2.674847   2.586519
    17  H    1.094255   2.173720   3.463378   2.712320   3.278770
    18  H    2.168194   1.097092   2.139032   2.091533   3.310402
    19  H    2.778168   2.176033   1.095763   2.645760   2.524047
    20  H    2.753075   2.176529   1.095075   3.361690   3.853169
    21  H    3.459845   2.167403   1.095321   2.659524   3.198106
    22  H    8.574490   8.620189   9.294653   7.376332   6.457443
    23  H    7.933310   7.491352   8.219937   6.071774   5.541942
    24  H    7.992097   7.851253   8.790633   6.531804   6.037559
    25  H    9.387325   9.102313   9.863828   7.712060   7.101692
    26  H    8.498691   8.055300   8.361091   6.705084   5.754094
    27  H    9.850522   9.556753   9.973972   8.206134   7.259466
    28  H    8.858646   8.685645   8.964612   7.448815   6.314549
                    6          7          8          9         10
     6  O    0.000000
     7  N    2.330749   0.000000
     8  N    2.655167   1.254126   0.000000
     9  C    4.011771   2.189451   1.377398   0.000000
    10  O    4.741216   2.657779   2.330744   1.226446   0.000000
    11  O    4.780795   3.308103   2.239857   1.366789   2.286748
    12  C    6.181249   4.519456   3.574462   2.385362   2.699017
    13  C    6.762925   4.761895   4.142827   2.902699   2.809355
    14  C    6.604796   4.992659   4.084822   2.843668   2.745850
    15  H    3.630593   5.189099   5.791837   7.098161   7.826296
    16  H    2.112623   3.832999   4.201418   5.543996   6.387979
    17  H    3.421672   4.294851   4.836770   6.012597   6.778963
    18  H    3.774946   4.332960   5.366875   6.460245   6.832842
    19  H    2.034133   3.770312   4.480682   5.750391   6.223644
    20  H    3.581273   5.144618   5.993900   7.258879   7.697210
    21  H    3.343859   4.205615   5.242534   6.333333   6.527075
    22  H    6.822321   5.371480   4.331019   3.312105   3.778729
    23  H    6.381542   4.201636   3.824297   2.581749   2.116319
    24  H    6.796580   4.866423   4.310099   3.295939   3.440792
    25  H    7.823485   5.797441   5.186326   3.892652   3.626402
    26  H    6.223142   4.484607   3.773955   2.525419   2.034825
    27  H    7.688604   5.998883   5.144070   3.854726   3.588309
    28  H    6.500480   5.229055   4.192035   3.186559   3.335100
                   11         12         13         14         15
    11  O    0.000000
    12  C    1.440073   0.000000
    13  C    2.428424   1.525314   0.000000
    14  C    2.393276   1.525122   2.501866   0.000000
    15  H    7.700642   9.092653   9.387184   9.853353   0.000000
    16  H    6.068088   7.489320   7.943100   8.212202   1.779483
    17  H    6.499558   7.821920   7.975000   8.758924   1.773520
    18  H    7.374758   8.624673   8.590971   9.297098   2.521915
    19  H    6.697222   8.050035   8.503114   8.351177   3.135132
    20  H    8.197924   9.553536   9.860721   9.968610   2.551620
    21  H    7.462831   8.705917   8.889285   8.983564   3.759896
    22  H    2.091702   1.096796   2.167930   2.139150   9.609164
    23  H    2.667430   2.172316   1.095505   2.777884   9.027673
    24  H    2.721220   2.173075   1.094689   3.463130   9.066836
    25  H    3.383262   2.174643   1.094255   2.747531  10.476931
    26  H    2.646060   2.175390   2.772883   1.096017   9.545569
    27  H    3.359245   2.176169   2.757919   1.094958  10.906946
    28  H    2.650632   2.166941   3.459711   1.095081   9.861317
                   16         17         18         19         20
    16  H    0.000000
    17  H    1.756573   0.000000
    18  H    3.081469   2.523160   0.000000
    19  H    2.595229   3.782358   3.062923   0.000000
    20  H    3.121946   3.763475   2.501038   1.779070   0.000000
    21  H    3.774377   4.310728   2.468719   1.758426   1.776762
    22  H    7.977675   8.303417   9.356918   8.771675  10.267988
    23  H    7.661238   7.674890   7.984672   7.964787   9.285935
    24  H    7.702596   7.536548   8.337994   8.554169   9.791953
    25  H    9.036881   9.051913   9.625092   9.545076  10.914365
    26  H    7.966837   8.531524   8.781079   7.811013   9.419541
    27  H    9.280704   9.764472  10.277916   9.413040  11.019426
    28  H    8.153062   8.891187   9.534043   8.269611   9.956190
                   21         22         23         24         25
    21  H    0.000000
    22  H    9.549412   0.000000
    23  H    8.178354   3.081198   0.000000
    24  H    8.938559   2.515529   1.756873   0.000000
    25  H    9.887570   2.528405   1.779523   1.773440   0.000000
    26  H    8.297563   3.062912   2.598952   3.782282   3.116650
    27  H    9.981887   2.497908   3.141873   3.763037   2.549892
    28  H    9.077834   2.472801   3.778072   4.309904   3.757842
                   26         27         28
    26  H    0.000000
    27  H    1.779009   0.000000
    28  H    1.758385   1.777100   0.000000
 Stoichiometry    C8H14N2O4
 Framework group  C1[X(C8H14N2O4)]
 Deg. of freedom    78
 Full point group                 C1      NOp   1
 Largest Abelian subgroup         C1      NOp   1
 Largest concise Abelian subgroup C1      NOp   1
                         Standard orientation:                         
 ---------------------------------------------------------------------
 Center     Atomic      Atomic             Coordinates (Angstroms)
 Number     Number       Type             X           Y           Z
 ---------------------------------------------------------------------
      1          6           0       -4.068579    1.258493   -0.781489
      2          6           0       -3.922318    0.476596    0.520065
      3          6           0       -4.455455   -0.941845    0.344322
      4          8           0       -2.531184    0.382041    0.880479
      5          6           0       -1.717704   -0.254377   -0.013731
      6          8           0       -2.114390   -0.730219   -1.072550
      7          7           0       -0.425791   -0.267291    0.465864
      8          7           0        0.423794   -0.252659   -0.456538
      9          6           0        1.717160   -0.254841    0.017195
     10          8           0        2.117971   -0.752103    1.064215
     11          8           0        2.526803    0.398493   -0.869229
     12          6           0        3.920540    0.486131   -0.517623
     13          6           0        4.078198    1.242598    0.797474
     14          6           0        4.450054   -0.936836   -0.373475
     15          1           0       -5.116177    1.311843   -1.094060
     16          1           0       -3.486109    0.792898   -1.584094
     17          1           0       -3.691390    2.279796   -0.671657
     18          1           0       -4.491955    0.959390    1.323827
     19          1           0       -3.882765   -1.488850   -0.412983
     20          1           0       -5.509645   -0.935770    0.047947
     21          1           0       -4.361926   -1.505491    1.278818
     22          1           0        4.484795    0.983108   -1.316116
     23          1           0        3.486086    0.774108    1.591233
     24          1           0        3.718630    2.272271    0.703520
     25          1           0        5.125695    1.273252    1.112442
     26          1           0        3.887363   -1.492810    0.385158
     27          1           0        5.508860   -0.940010   -0.094457
     28          1           0        4.337547   -1.485305   -1.314606
 ---------------------------------------------------------------------
 Rotational constants (GHZ):           2.2458755           0.2465979           0.2453209
 Standard basis: 6-31G(d) (6D, 7F)
 There are   238 symmetry adapted cartesian basis functions of A   symmetry.
 There are   238 symmetry adapted basis functions of A   symmetry.
   238 basis functions,   448 primitive gaussians,   238 cartesian basis functions
    54 alpha electrons       54 beta electrons
       nuclear repulsion energy       925.1112218426 Hartrees.
 NAtoms=   28 NActive=   28 NUniq=   28 SFac= 1.00D+00 NAtFMM=   60 NAOKFM=F Big=F
 Integral buffers will be    131072 words long.
 Raffenetti 2 integral format.
 Two-electron integral symmetry is turned on.
 One-electron integrals computed using PRISM.
 NBasis=   238 RedAO= T EigKep=  2.38D-03  NBF=   238
 NBsUse=   238 1.00D-06 EigRej= -1.00D+00 NBFU=   238
 ExpMin= 1.61D-01 ExpMax= 5.48D+03 ExpMxC= 8.25D+02 IAcc=3 IRadAn=         5 AccDes= 0.00D+00
 Harris functional with IExCor=  402 and IRadAn=       5 diagonalized for initial guess.
 HarFok:  IExCor=  402 AccDes= 0.00D+00 IRadAn=         5 IDoV= 1 UseB2=F ITyADJ=14
 ICtDFT=  3500011 ScaDFX=  1.000000  1.000000  1.000000  1.000000
 FoFCou: FMM=F IPFlag=           0 FMFlag=      100000 FMFlg1=           0
         NFxFlg=           0 DoJE=T BraDBF=F KetDBF=T FulRan=T
         wScrn=  0.000000 ICntrl=       500 IOpCl=  0 I1Cent=   200000004 NGrid=           0
         NMat0=    1 NMatS0=      1 NMatT0=    0 NMatD0=    1 NMtDS0=    0 NMtDT0=    0
 Petite list used in FoFCou.
 Keep R1 ints in memory in canonical form, NReq=411287410.
 Gradient too large for Newton-Raphson -- use scaled steepest descent instead.
     Minimum is close to point  2 DX=  1.08D-04 DF= -5.10D-08 DXR=  3.61D-04 DFR=  1.30D-07 which will be used.
 Gradient too large for Newton-Raphson -- use scaled steepest descent instead.
     Minimum is close to point  3 DX=  1.33D-02 DF= -5.34D-05 DXR=  3.21D-02 DFR=  1.01D-03 which will be used.
 Gradient too large for Newton-Raphson -- use scaled steepest descent instead.
     Minimum is close to point  2 DX=  2.85D-02 DF= -3.94D-05 DXR=  6.66D-02 DFR=  4.45D-03 which will be used.
 Gradient too large for Newton-Raphson -- use scaled steepest descent instead.
 Gradient too large for Newton-Raphson -- use scaled steepest descent instead.
     Accept linear search using points  1 and  2.
 Gradient too large for Newton-Raphson -- use scaled steepest descent instead.
     Minimum is close to point  3 DX=  9.94D-03 DF= -4.03D-08 DXR=  9.84D-03 DFR=  9.68D-05 which will be used.
 LinEq1:  Iter=  0 NonCon=     1 RMS=5.75D-05 Max=3.30D-03 NDo=     1
 AX will form     1 AO Fock derivatives at one time.
 LinEq1:  Iter=  1 NonCon=     1 RMS=7.19D-05 Max=4.47D-03 NDo=     1
 LinEq1:  Iter=  2 NonCon=     1 RMS=1.36D-05 Max=2.55D-04 NDo=     1
 LinEq1:  Iter=  3 NonCon=     1 RMS=1.16D-05 Max=4.18D-04 NDo=     1
 LinEq1:  Iter=  4 NonCon=     1 RMS=4.63D-06 Max=2.69D-04 NDo=     1
 LinEq1:  Iter=  5 NonCon=     1 RMS=1.92D-06 Max=8.11D-05 NDo=     1
 LinEq1:  Iter=  6 NonCon=     1 RMS=9.53D-07 Max=3.26D-05 NDo=     1
 LinEq1:  Iter=  7 NonCon=     1 RMS=6.05D-07 Max=1.78D-05 NDo=     1
 LinEq1:  Iter=  8 NonCon=     1 RMS=6.03D-07 Max=1.33D-05 NDo=     1
 LinEq1:  Iter=  9 NonCon=     1 RMS=2.46D-07 Max=7.47D-06 NDo=     1
 LinEq1:  Iter= 10 NonCon=     1 RMS=2.71D-07 Max=1.08D-05 NDo=     1
 LinEq1:  Iter= 11 NonCon=     1 RMS=1.32D-07 Max=6.34D-06 NDo=     1
 LinEq1:  Iter= 12 NonCon=     1 RMS=8.30D-08 Max=4.21D-06 NDo=     1
 LinEq1:  Iter= 13 NonCon=     1 RMS=3.63D-08 Max=1.44D-06 NDo=     1
 LinEq1:  Iter= 14 NonCon=     1 RMS=1.98D-08 Max=5.78D-07 NDo=     1
 LinEq1:  Iter= 15 NonCon=     1 RMS=1.18D-08 Max=2.13D-07 NDo=     1
 LinEq1:  Iter= 16 NonCon=     0 RMS=6.15D-09 Max=1.23D-07 NDo=     1
 Linear equations converged to 1.410D-08 1.410D-07 after    16 iterations.
     Accept linear search using points  1 and  2.
     Minimum is close to point  2 DX= -1.46D-04 DF= -3.41D-13 DXR=  1.46D-04 DFR=  2.23D-08 which will be used.
 LinEq1:  Iter=  0 NonCon=     1 RMS=1.03D-07 Max=3.90D-06 NDo=     1
 LinEq1:  Iter=  1 NonCon=     1 RMS=7.40D-08 Max=4.02D-06 NDo=     1
 LinEq1:  Iter=  2 NonCon=     1 RMS=5.43D-08 Max=2.14D-06 NDo=     1
 LinEq1:  Iter=  3 NonCon=     1 RMS=3.64D-08 Max=1.03D-06 NDo=     1
 LinEq1:  Iter=  4 NonCon=     1 RMS=2.93D-08 Max=1.21D-06 NDo=     1
 LinEq1:  Iter=  5 NonCon=     1 RMS=1.57D-08 Max=3.96D-07 NDo=     1
 LinEq1:  Iter=  6 NonCon=     1 RMS=5.43D-09 Max=1.15D-07 NDo=     1
 LinEq1:  Iter=  7 NonCon=     1 RMS=1.76D-09 Max=3.93D-08 NDo=     1
 LinEq1:  Iter=  8 NonCon=     1 RMS=1.48D-09 Max=4.78D-08 NDo=     1
 LinEq1:  Iter=  9 NonCon=     1 RMS=1.33D-09 Max=3.33D-08 NDo=     1
 LinEq1:  Iter= 10 NonCon=     1 RMS=6.00D-10 Max=2.13D-08 NDo=     1
 LinEq1:  Iter= 11 NonCon=     1 RMS=5.58D-10 Max=2.83D-08 NDo=     1
 LinEq1:  Iter= 12 NonCon=     1 RMS=3.55D-10 Max=1.87D-08 NDo=     1
 LinEq1:  Iter= 13 NonCon=     1 RMS=1.49D-10 Max=4.99D-09 NDo=     1
 LinEq1:  Iter= 14 NonCon=     1 RMS=7.94D-11 Max=1.51D-09 NDo=     1
 LinEq1:  Iter= 15 NonCon=     1 RMS=4.64D-11 Max=9.75D-10 NDo=     1
 LinEq1:  Iter= 16 NonCon=     0 RMS=2.02D-11 Max=3.77D-10 NDo=     1
 Linear equations converged to 7.929D-11 7.929D-10 after    16 iterations.
 SCF Done:  E(RB3LYP) =  -723.607442449     a.u. after    9 cycles
            Convg  =    0.5892D-10                    50 Fock formations.
              S**2 =  0.0000                  -V/T =  2.0088
 DoSCS=F DFT=T ScalE2(SS,OS)=  1.000000  1.000000
 Range of M.O.s used for correlation:     1   238
 NBasis=   238 NAE=    54 NBE=    54 NFC=     0 NFV=     0
 NROrb=    238 NOA=    54 NOB=    54 NVA=   184 NVB=   184
 Symmetrizing basis deriv contribution to polar:
 IMax=3 JMax=2 DiffMx= 0.00D+00
 G2DrvN: will do    29 centers at a time, making    1 passes.
 Calling FoFCou, ICntrl=  3107 FMM=F I1Cent=   0 AccDes= 0.00D+00.
 End of G2Drv F.D. properties file   721 does not exist.
 End of G2Drv F.D. properties file   722 does not exist.
 End of G2Drv F.D. properties file   788 does not exist.
          IDoAtm=1111111111111111111111111111
          Differentiating once with respect to electric field.
                with respect to dipole field.
          Differentiating once with respect to nuclear coordinates.
 Keep R1 ints in memory in canonical form, NReq=411298527.
          There are    87 degrees of freedom in the 1st order CPHF.  IDoFFX=6 NUNeed=     3.
     84 vectors produced by pass  0 Test12= 1.14D-14 1.15D-09 XBig12= 1.29D+02 5.64D+00.
 AX will form    84 AO Fock derivatives at one time.
     84 vectors produced by pass  1 Test12= 1.14D-14 1.15D-09 XBig12= 4.99D+01 1.58D+00.
     84 vectors produced by pass  2 Test12= 1.14D-14 1.15D-09 XBig12= 8.36D-01 1.69D-01.
     84 vectors produced by pass  3 Test12= 1.14D-14 1.15D-09 XBig12= 4.09D-03 1.01D-02.
     84 vectors produced by pass  4 Test12= 1.14D-14 1.15D-09 XBig12= 8.86D-06 3.61D-04.
     51 vectors produced by pass  5 Test12= 1.14D-14 1.15D-09 XBig12= 7.21D-09 1.23D-05.
      7 vectors produced by pass  6 Test12= 1.14D-14 1.15D-09 XBig12= 4.96D-12 3.11D-07.
      3 vectors produced by pass  7 Test12= 1.14D-14 1.15D-09 XBig12= 3.82D-15 9.17D-09.
 InvSVY:  IOpt=1 It=  1 EMax= 1.24D-14
 Solved reduced A of dimension   481 with    87 vectors.
 Isotropic polarizability for W=    0.000000      116.83 Bohr**3.
 End of Minotr F.D. properties file   721 does not exist.
 End of Minotr F.D. properties file   722 does not exist.
 End of Minotr F.D. properties file   788 does not exist.

 **********************************************************************

            Population analysis using the SCF density.

 **********************************************************************

 Orbital symmetries:
       Occupied  (A) (A) (A) (A) (A) (A) (A) (A) (A) (A) (A) (A)
                 (A) (A) (A) (A) (A) (A) (A) (A) (A) (A) (A) (A)
                 (A) (A) (A) (A) (A) (A) (A) (A) (A) (A) (A) (A)
                 (A) (A) (A) (A) (A) (A) (A) (A) (A) (A) (A) (A)
                 (A) (A) (A) (A) (A) (A)
       Virtual   (A) (A) (A) (A) (A) (A) (A) (A) (A) (A) (A) (A)
                 (A) (A) (A) (A) (A) (A) (A) (A) (A) (A) (A) (A)
                 (A) (A) (A) (A) (A) (A) (A) (A) (A) (A) (A) (A)
                 (A) (A) (A) (A) (A) (A) (A) (A) (A) (A) (A) (A)
                 (A) (A) (A) (A) (A) (A) (A) (A) (A) (A) (A) (A)
                 (A) (A) (A) (A) (A) (A) (A) (A) (A) (A) (A) (A)
                 (A) (A) (A) (A) (A) (A) (A) (A) (A) (A) (A) (A)
                 (A) (A) (A) (A) (A) (A) (A) (A) (A) (A) (A) (A)
                 (A) (A) (A) (A) (A) (A) (A) (A) (A) (A) (A) (A)
                 (A) (A) (A) (A) (A) (A) (A) (A) (A) (A) (A) (A)
                 (A) (A) (A) (A) (A) (A) (A) (A) (A) (A) (A) (A)
                 (A) (A) (A) (A) (A) (A) (A) (A) (A) (A) (A) (A)
                 (A) (A) (A) (A) (A) (A) (A) (A) (A) (A) (A) (A)
                 (A) (A) (A) (A) (A) (A) (A) (A) (A) (A) (A) (A)
                 (A) (A) (A) (A) (A) (A) (A) (A) (A) (A) (A) (A)
                 (A) (A) (A) (A)
 The electronic state is 1-A.
 Alpha  occ. eigenvalues --  -19.21166 -19.21158 -19.15980 -19.15959 -14.43234
 Alpha  occ. eigenvalues --  -14.43178 -10.35843 -10.35835 -10.25984 -10.25983
 Alpha  occ. eigenvalues --  -10.17880 -10.17856 -10.17508 -10.17499  -1.14324
 Alpha  occ. eigenvalues --   -1.12335  -1.07298  -1.03434  -1.02571  -0.85001
 Alpha  occ. eigenvalues --   -0.80010  -0.77542  -0.69501  -0.69486  -0.68341
 Alpha  occ. eigenvalues --   -0.63812  -0.58933  -0.52703  -0.52165  -0.51403
 Alpha  occ. eigenvalues --   -0.50930  -0.49903  -0.48164  -0.47912  -0.47726
 Alpha  occ. eigenvalues --   -0.45036  -0.43935  -0.42552  -0.42440  -0.41712
 Alpha  occ. eigenvalues --   -0.40415  -0.38060  -0.37459  -0.37349  -0.37018
 Alpha  occ. eigenvalues --   -0.35584  -0.35571  -0.34997  -0.34437  -0.31248
 Alpha  occ. eigenvalues --   -0.30994  -0.30599  -0.28443  -0.26444
 Alpha virt. eigenvalues --   -0.14015   0.00721   0.03442   0.09680   0.09739
 Alpha virt. eigenvalues --    0.11053   0.11950   0.13934   0.14169   0.15304
 Alpha virt. eigenvalues --    0.15601   0.15621   0.15902   0.18176   0.18212
 Alpha virt. eigenvalues --    0.19113   0.19116   0.19704   0.19723   0.22220
 Alpha virt. eigenvalues --    0.22394   0.24086   0.24174   0.25858   0.25880
 Alpha virt. eigenvalues --    0.29955   0.30692   0.34047   0.41642   0.44229
 Alpha virt. eigenvalues --    0.47028   0.48607   0.50133   0.50851   0.51924
 Alpha virt. eigenvalues --    0.51957   0.52485   0.53288   0.53776   0.54607
 Alpha virt. eigenvalues --    0.57389   0.59659   0.60050   0.61275   0.62405
 Alpha virt. eigenvalues --    0.62918   0.63126   0.65335   0.68248   0.68617
 Alpha virt. eigenvalues --    0.70452   0.71834   0.74170   0.74576   0.76375
 Alpha virt. eigenvalues --    0.76587   0.80065   0.80192   0.82189   0.82443
 Alpha virt. eigenvalues --    0.84822   0.86413   0.87374   0.87887   0.88021
 Alpha virt. eigenvalues --    0.88257   0.89403   0.89484   0.90137   0.90745
 Alpha virt. eigenvalues --    0.91096   0.93285   0.94267   0.96137   0.97736
 Alpha virt. eigenvalues --    0.98108   0.98913   1.00404   1.02093   1.04113
 Alpha virt. eigenvalues --    1.05402   1.09189   1.09830   1.11255   1.11948
 Alpha virt. eigenvalues --    1.14896   1.15175   1.23496   1.27200   1.28340
 Alpha virt. eigenvalues --    1.30699   1.34049   1.35551   1.37859   1.39000
 Alpha virt. eigenvalues --    1.39329   1.41970   1.43854   1.48894   1.49433
 Alpha virt. eigenvalues --    1.50254   1.52438   1.55329   1.58834   1.60008
 Alpha virt. eigenvalues --    1.63413   1.67655   1.72337   1.72423   1.74949
 Alpha virt. eigenvalues --    1.75705   1.76583   1.77820   1.78736   1.79775
 Alpha virt. eigenvalues --    1.80909   1.83665   1.84117   1.85513   1.86688
 Alpha virt. eigenvalues --    1.88868   1.89226   1.90621   1.91080   1.94114
 Alpha virt. eigenvalues --    1.96280   1.97516   1.98861   2.07110   2.07186
 Alpha virt. eigenvalues --    2.08440   2.11690   2.14434   2.15306   2.17578
 Alpha virt. eigenvalues --    2.17621   2.17767   2.24686   2.24785   2.25117
 Alpha virt. eigenvalues --    2.25631   2.26343   2.26497   2.31785   2.38338
 Alpha virt. eigenvalues --    2.39288   2.42790   2.43746   2.47571   2.48171
 Alpha virt. eigenvalues --    2.49580   2.50366   2.50626   2.54130   2.62472
 Alpha virt. eigenvalues --    2.63989   2.66957   2.71730   2.72981   2.73245
 Alpha virt. eigenvalues --    2.75711   2.75820   2.81235   2.84266   2.94244
 Alpha virt. eigenvalues --    2.96518   3.06041   3.07365   3.20400   3.24959
 Alpha virt. eigenvalues --    3.78623   3.91815   4.03262   4.06600   4.24051
 Alpha virt. eigenvalues --    4.24695   4.26153   4.26800   4.28678   4.29093
 Alpha virt. eigenvalues --    4.36527   4.39918   4.56706   4.57042
          Condensed to atoms (all electrons):
               1          2          3          4          5          6
     1  C    5.189102   0.368852  -0.059070  -0.039047  -0.007113  -0.018004
     2  C    0.368852   4.713765   0.371302   0.199748  -0.021121   0.002418
     3  C   -0.059070   0.371302   5.205492  -0.042215  -0.008605  -0.022824
     4  O   -0.039047   0.199748  -0.042215   8.237086   0.301696  -0.077503
     5  C   -0.007113  -0.021121  -0.008605   0.301696   4.264367   0.489719
     6  O   -0.018004   0.002418  -0.022824  -0.077503   0.489719   8.106991
     7  N   -0.000771   0.004812  -0.000995  -0.088881   0.241760  -0.074484
     8  N    0.000056  -0.000097   0.000027   0.001762  -0.051168   0.002131
     9  C   -0.000000   0.000005   0.000000  -0.000221   0.005627   0.000406
    10  O   -0.000000   0.000000   0.000000   0.000000   0.000409   0.000000
    11  O   -0.000000  -0.000000   0.000000   0.000000  -0.000222   0.000000
    12  C   -0.000000   0.000000  -0.000000  -0.000000   0.000005   0.000000
    13  C   -0.000000  -0.000000  -0.000000  -0.000000  -0.000000  -0.000000
    14  C   -0.000000  -0.000000  -0.000000   0.000000   0.000000   0.000000
    15  H    0.362094  -0.025800  -0.002726   0.002820   0.000250   0.000319
    16  H    0.375648  -0.028292  -0.007456  -0.004891   0.001894   0.012575
    17  H    0.362594  -0.030484   0.005786   0.000077   0.000752   0.000398
    18  H   -0.049682   0.395052  -0.051177  -0.031233   0.003445  -0.000078
    19  H   -0.006964  -0.028484   0.375541  -0.005107   0.001014   0.013621
    20  H   -0.002482  -0.027391   0.360525   0.003026   0.000408   0.000475
    21  H    0.005840  -0.031266   0.362022   0.000192   0.001056   0.000489
    22  H    0.000000  -0.000000   0.000000   0.000000  -0.000000   0.000000
    23  H    0.000000  -0.000000   0.000000   0.000000   0.000000  -0.000000
    24  H   -0.000000  -0.000000   0.000000   0.000000  -0.000000   0.000000
    25  H   -0.000000   0.000000   0.000000   0.000000  -0.000000  -0.000000
    26  H    0.000000  -0.000000   0.000000   0.000000   0.000000   0.000000
    27  H    0.000000   0.000000  -0.000000  -0.000000   0.000000   0.000000
    28  H    0.000000  -0.000000  -0.000000  -0.000000  -0.000000   0.000000
               7          8          9         10         11         12
     1  C   -0.000771   0.000056  -0.000000  -0.000000  -0.000000  -0.000000
     2  C    0.004812  -0.000097   0.000005   0.000000  -0.000000   0.000000
     3  C   -0.000995   0.000027   0.000000   0.000000   0.000000  -0.000000
     4  O   -0.088881   0.001762  -0.000221   0.000000   0.000000  -0.000000
     5  C    0.241760  -0.051168   0.005627   0.000409  -0.000222   0.000005
     6  O   -0.074484   0.002131   0.000406   0.000000   0.000000   0.000000
     7  N    6.949292   0.228569  -0.050777   0.002320   0.001827  -0.000099
     8  N    0.228569   6.950477   0.242330  -0.074710  -0.089299   0.004842
     9  C   -0.050777   0.242330   4.263593   0.489605   0.301855  -0.020940
    10  O    0.002320  -0.074710   0.489605   8.106302  -0.077369   0.002439
    11  O    0.001827  -0.089299   0.301855  -0.077369   8.237661   0.199501
    12  C   -0.000099   0.004842  -0.020940   0.002439   0.199501   4.713532
    13  C    0.000055  -0.000756  -0.006967  -0.017821  -0.038684   0.368452
    14  C    0.000027  -0.001010  -0.008648  -0.022740  -0.042691   0.371645
    15  H    0.000006  -0.000001  -0.000000  -0.000000   0.000000   0.000000
    16  H    0.000072   0.000014   0.000000  -0.000000   0.000000  -0.000000
    17  H    0.000027  -0.000012  -0.000000   0.000000   0.000000  -0.000000
    18  H   -0.000121   0.000001  -0.000000   0.000000   0.000000  -0.000000
    19  H    0.000116  -0.000003   0.000000   0.000000   0.000000  -0.000000
    20  H    0.000007  -0.000000   0.000000   0.000000  -0.000000   0.000000
    21  H    0.000012   0.000001  -0.000000   0.000000  -0.000000  -0.000000
    22  H    0.000001  -0.000122   0.003422  -0.000083  -0.031203   0.395137
    23  H    0.000015   0.000060   0.002064   0.012620  -0.005131  -0.028145
    24  H   -0.000012   0.000028   0.000731   0.000413   0.000099  -0.030466
    25  H   -0.000001   0.000006   0.000233   0.000296   0.002825  -0.025828
    26  H   -0.000004   0.000128   0.000940   0.013665  -0.005033  -0.028596
    27  H   -0.000000   0.000008   0.000415   0.000480   0.003049  -0.027392
    28  H    0.000002   0.000010   0.001067   0.000469   0.000179  -0.031318
              13         14         15         16         17         18
     1  C   -0.000000  -0.000000   0.362094   0.375648   0.362594  -0.049682
     2  C   -0.000000  -0.000000  -0.025800  -0.028292  -0.030484   0.395052
     3  C   -0.000000  -0.000000  -0.002726  -0.007456   0.005786  -0.051177
     4  O   -0.000000   0.000000   0.002820  -0.004891   0.000077  -0.031233
     5  C   -0.000000   0.000000   0.000250   0.001894   0.000752   0.003445
     6  O   -0.000000   0.000000   0.000319   0.012575   0.000398  -0.000078
     7  N    0.000055   0.000027   0.000006   0.000072   0.000027  -0.000121
     8  N   -0.000756  -0.001010  -0.000001   0.000014  -0.000012   0.000001
     9  C   -0.006967  -0.008648  -0.000000   0.000000  -0.000000  -0.000000
    10  O   -0.017821  -0.022740  -0.000000  -0.000000   0.000000   0.000000
    11  O   -0.038684  -0.042691   0.000000   0.000000   0.000000   0.000000
    12  C    0.368452   0.371645   0.000000  -0.000000  -0.000000  -0.000000
    13  C    5.188477  -0.059027  -0.000000   0.000000  -0.000000   0.000000
    14  C   -0.059027   5.205991   0.000000   0.000000   0.000000   0.000000
    15  H   -0.000000   0.000000   0.560803  -0.023271  -0.026345  -0.000230
    16  H    0.000000   0.000000  -0.023271   0.495805  -0.030279   0.004217
    17  H   -0.000000   0.000000  -0.026345  -0.030279   0.571835  -0.003941
    18  H    0.000000   0.000000  -0.000230   0.004217  -0.003941   0.575820
    19  H    0.000000   0.000000   0.000281   0.002534   0.000038   0.004331
    20  H    0.000000  -0.000000   0.001863   0.000302   0.000006  -0.000286
    21  H    0.000000  -0.000000   0.000004   0.000055  -0.000206  -0.004409
    22  H   -0.049777  -0.051157  -0.000000  -0.000000  -0.000000   0.000000
    23  H    0.375509  -0.007326   0.000000  -0.000000   0.000000  -0.000000
    24  H    0.362486   0.005784   0.000000   0.000000   0.000000  -0.000000
    25  H    0.362452  -0.002879   0.000000   0.000000   0.000000  -0.000000
    26  H   -0.007000   0.375570  -0.000000   0.000000  -0.000000  -0.000000
    27  H   -0.002397   0.360231  -0.000000  -0.000000  -0.000000  -0.000000
    28  H    0.005854   0.362195  -0.000000  -0.000000  -0.000000  -0.000000
              19         20         21         22         23         24
     1  C   -0.006964  -0.002482   0.005840   0.000000   0.000000  -0.000000
     2  C   -0.028484  -0.027391  -0.031266  -0.000000  -0.000000  -0.000000
     3  C    0.375541   0.360525   0.362022   0.000000   0.000000   0.000000
     4  O   -0.005107   0.003026   0.000192   0.000000   0.000000   0.000000
     5  C    0.001014   0.000408   0.001056  -0.000000   0.000000  -0.000000
     6  O    0.013621   0.000475   0.000489   0.000000  -0.000000   0.000000
     7  N    0.000116   0.000007   0.000012   0.000001   0.000015  -0.000012
     8  N   -0.000003  -0.000000   0.000001  -0.000122   0.000060   0.000028
     9  C    0.000000   0.000000  -0.000000   0.003422   0.002064   0.000731
    10  O    0.000000   0.000000   0.000000  -0.000083   0.012620   0.000413
    11  O    0.000000  -0.000000  -0.000000  -0.031203  -0.005131   0.000099
    12  C   -0.000000   0.000000  -0.000000   0.395137  -0.028145  -0.030466
    13  C    0.000000   0.000000   0.000000  -0.049777   0.375509   0.362486
    14  C    0.000000  -0.000000  -0.000000  -0.051157  -0.007326   0.005784
    15  H    0.000281   0.001863   0.000004  -0.000000   0.000000   0.000000
    16  H    0.002534   0.000302   0.000055  -0.000000  -0.000000   0.000000
    17  H    0.000038   0.000006  -0.000206  -0.000000   0.000000   0.000000
    18  H    0.004331  -0.000286  -0.004409   0.000000  -0.000000  -0.000000
    19  H    0.490179  -0.022891  -0.029649  -0.000000   0.000000  -0.000000
    20  H   -0.022891   0.565393  -0.025544  -0.000000  -0.000000  -0.000000
    21  H   -0.029649  -0.025544   0.571592  -0.000000  -0.000000  -0.000000
    22  H   -0.000000  -0.000000  -0.000000   0.575666   0.004204  -0.004078
    23  H    0.000000  -0.000000  -0.000000   0.004204   0.496066  -0.030216
    24  H   -0.000000  -0.000000  -0.000000  -0.004078  -0.030216   0.572300
    25  H   -0.000000  -0.000000  -0.000000  -0.000074  -0.023225  -0.026502
    26  H   -0.000000  -0.000000  -0.000000   0.004338   0.002501   0.000041
    27  H   -0.000000   0.000000  -0.000000  -0.000364   0.000289   0.000002
    28  H   -0.000000  -0.000000   0.000000  -0.004351   0.000048  -0.000207
              25         26         27         28
     1  C   -0.000000   0.000000   0.000000   0.000000
     2  C    0.000000  -0.000000   0.000000  -0.000000
     3  C    0.000000   0.000000  -0.000000  -0.000000
     4  O    0.000000   0.000000  -0.000000  -0.000000
     5  C   -0.000000   0.000000   0.000000  -0.000000
     6  O   -0.000000   0.000000   0.000000   0.000000
     7  N   -0.000001  -0.000004  -0.000000   0.000002
     8  N    0.000006   0.000128   0.000008   0.000010
     9  C    0.000233   0.000940   0.000415   0.001067
    10  O    0.000296   0.013665   0.000480   0.000469
    11  O    0.002825  -0.005033   0.003049   0.000179
    12  C   -0.025828  -0.028596  -0.027392  -0.031318
    13  C    0.362452  -0.007000  -0.002397   0.005854
    14  C   -0.002879   0.375570   0.360231   0.362195
    15  H    0.000000  -0.000000  -0.000000  -0.000000
    16  H    0.000000   0.000000  -0.000000  -0.000000
    17  H    0.000000  -0.000000  -0.000000  -0.000000
    18  H   -0.000000  -0.000000  -0.000000  -0.000000
    19  H   -0.000000  -0.000000  -0.000000  -0.000000
    20  H   -0.000000  -0.000000   0.000000  -0.000000
    21  H   -0.000000  -0.000000  -0.000000   0.000000
    22  H   -0.000074   0.004338  -0.000364  -0.004351
    23  H   -0.023225   0.002501   0.000289   0.000048
    24  H   -0.026502   0.000041   0.000002  -0.000207
    25  H    0.560148   0.000300   0.001872   0.000008
    26  H    0.000300   0.490222  -0.022919  -0.029682
    27  H    0.001872  -0.022919   0.565821  -0.025409
    28  H    0.000008  -0.029682  -0.025409   0.571082
 Mulliken charges:
               1
     1  C   -0.481052
     2  C    0.136983
     3  C   -0.485627
     4  O   -0.457310
     5  C    0.775828
     6  O   -0.436649
     7  N   -0.212777
     8  N   -0.213271
     9  C    0.775259
    10  O   -0.436295
    11  O   -0.457364
    12  C    0.137232
    13  C   -0.480857
    14  C   -0.485966
    15  H    0.149933
    16  H    0.201074
    17  H    0.149755
    18  H    0.158291
    19  H    0.205445
    20  H    0.146589
    21  H    0.149811
    22  H    0.158441
    23  H    0.200665
    24  H    0.149595
    25  H    0.150369
    26  H    0.205528
    27  H    0.146317
    28  H    0.150053
 Sum of Mulliken charges =   0.00000
 Mulliken charges with hydrogens summed into heavy atoms:
               1
     1  C    0.019711
     2  C    0.295274
     3  C    0.016218
     4  O   -0.457310
     5  C    0.775828
     6  O   -0.436649
     7  N   -0.212777
     8  N   -0.213271
     9  C    0.775259
    10  O   -0.436295
    11  O   -0.457364
    12  C    0.295673
    13  C    0.019773
    14  C    0.015932
 APT charges:
               1
     1  C   -0.043060
     2  C    0.636879
     3  C   -0.058387
     4  O   -0.886955
     5  C    1.225672
     6  O   -0.658743
     7  N   -0.220720
     8  N   -0.219509
     9  C    1.224553
    10  O   -0.658954
    11  O   -0.885778
    12  C    0.636674
    13  C   -0.042198
    14  C   -0.059283
    15  H   -0.007902
    16  H    0.054731
    17  H   -0.024847
    18  H   -0.054808
    19  H    0.073336
    20  H   -0.011935
    21  H   -0.023591
    22  H   -0.054723
    23  H    0.054133
    24  H   -0.025550
    25  H   -0.007494
    26  H    0.073567
    27  H   -0.012195
    28  H   -0.022911
 Sum of APT charges =   0.00000
 APT charges with hydrogens summed into heavy atoms:
               1
     1  C   -0.021079
     2  C    0.582072
     3  C   -0.020578
     4  O   -0.886955
     5  C    1.225672
     6  O   -0.658743
     7  N   -0.220720
     8  N   -0.219509
     9  C    1.224553
    10  O   -0.658954
    11  O   -0.885778
    12  C    0.581950
    13  C   -0.021110
    14  C   -0.020822
 Electronic spatial extent (au):  <R**2>=           4602.9406
 Charge=              0.0000 electrons
 Dipole moment (field-independent basis, Debye):
    X=              0.0042    Y=              1.4813    Z=              0.0048  Tot=              1.4813
 Quadrupole moment (field-independent basis, Debye-Ang):
   XX=            -61.4885   YY=            -81.6389   ZZ=            -88.9482
   XY=              0.0731   XZ=             -4.8812   YZ=              0.0892
 Traceless Quadrupole moment (field-independent basis, Debye-Ang):
   XX=             15.8700   YY=             -4.2804   ZZ=            -11.5896
   XY=              0.0731   XZ=             -4.8812   YZ=              0.0892
 Octapole moment (field-independent basis, Debye-Ang**2):
  XXX=              0.0090  YYY=             -2.1264  ZZZ=              0.0013  XYY=             -0.1062
  XXY=             18.1615  XXZ=              0.0012  XZZ=              0.1293  YZZ=              2.3832
  YYZ=             -0.0742  XYZ=              5.6753
 Hexadecapole moment (field-independent basis, Debye-Ang**3):
 XXXX=          -4740.6778 YYYY=           -411.9559 ZZZZ=           -348.7511 XXXY=              0.6599
 XXXZ=            -53.4915 YYYX=              0.3689 YYYZ=             -0.0449 ZZZX=            -11.6757
 ZZZY=             -0.0336 XXYY=           -950.9637 XXZZ=           -942.0858 YYZZ=           -127.9075
 XXYZ=             -0.1002 YYXZ=             -8.9545 ZZXY=              0.0772
 N-N= 9.251112218426D+02 E-N=-3.539240523317D+03  KE= 7.173183102778D+02
  Exact polarizability: 173.052   0.093  87.606  -3.776  -0.073  89.843
 Approx polarizability: 196.717   0.160 125.969  -6.868  -0.436 158.921
 Calling FoFJK, ICntrl=    100127 FMM=F ISym2X=0 I1Cent= 0 IOpClX= 0 NMat=1 NMatS=1 NMatT=0.
 ***** Axes restored to original set *****
 -------------------------------------------------------------------
 Center     Atomic                   Forces (Hartrees/Bohr)
 Number     Number              X              Y              Z
 -------------------------------------------------------------------
      1        6           0.007845037    0.008253224   -0.006339647
      2        6           0.009555622   -0.029628600   -0.014493233
      3        6          -0.009593933   -0.011355523    0.004378444
      4        8           0.011783263    0.006867202    0.023683558
      5        6          -0.012299526   -0.033200618   -0.066614727
      6        8           0.001040704    0.018532248    0.027765611
      7        7           0.008664317    0.024834225    0.036091206
      8        7          -0.007041408   -0.018076551   -0.040704502
      9        6           0.014188977    0.039574561    0.062777734
     10        8          -0.000640478   -0.015409909   -0.028993459
     11        8          -0.013588271   -0.013450510   -0.019783260
     12        6          -0.015538036    0.002333723    0.030809979
     13        6          -0.003524062    0.011473822   -0.006246437
     14        6           0.004312659   -0.011156332    0.009722139
     15        1          -0.001986324    0.000534563    0.000310085
     16        1          -0.005466077   -0.000469072   -0.004583112
     17        1          -0.001975725    0.002569213   -0.001666847
     18        1           0.005072962    0.008506675    0.010828236
     19        1          -0.005677203    0.001328248   -0.007187637
     20        1          -0.001218989    0.001834730   -0.000685960
     21        1          -0.003086231    0.000946814   -0.001265507
     22        1          -0.004042522   -0.004132441   -0.013453658
     23        1           0.005736740    0.001912157    0.003783400
     24        1           0.002811066    0.001756231   -0.000766106
     25        1           0.001966043   -0.000626552   -0.000088626
     26        1           0.007252477    0.004890880    0.003292546
     27        1           0.001907266    0.000936130   -0.000918281
     28        1           0.003541653    0.000421464    0.000348061
 -------------------------------------------------------------------
 Cartesian Forces:  Max     0.066614727 RMS     0.016584839
 FormGI is forming the generalized inverse of G from B-inverse, IUseBI=4.

 GradGradGradGradGradGradGradGradGradGradGradGradGradGradGradGradGradGrad
 Berny optimization.
 Internal  Forces:  Max     0.076335312 RMS     0.014890569
 Search for a local minimum.
 Step number   1 out of a maximum of  134
 All quantities printed in internal units (Hartrees-Bohrs-Radians)
 Mixed Optimization -- RFO/linear search
 Second derivative matrix not updated -- analytic derivatives used.
 ITU=  0
     Eigenvalues ---   -0.00257  -0.00215   0.00055   0.00062   0.00190
     Eigenvalues ---    0.00191   0.00354   0.00377   0.03732   0.03774
     Eigenvalues ---    0.04298   0.04315   0.04686   0.04689   0.04763
     Eigenvalues ---    0.04770   0.05003   0.05009   0.05365   0.05426
     Eigenvalues ---    0.06018   0.06033   0.07474   0.07759   0.07772
     Eigenvalues ---    0.10615   0.11895   0.11922   0.11932   0.12476
     Eigenvalues ---    0.12484   0.12927   0.12932   0.14711   0.14722
     Eigenvalues ---    0.15233   0.15317   0.15970   0.16019   0.18319
     Eigenvalues ---    0.18464   0.20747   0.22053   0.24492   0.25351
     Eigenvalues ---    0.26285   0.26293   0.27751   0.28030   0.30253
     Eigenvalues ---    0.30352   0.32031   0.32036   0.32306   0.32344
     Eigenvalues ---    0.33533   0.33598   0.33924   0.33950   0.34071
     Eigenvalues ---    0.34099   0.34335   0.34363   0.34659   0.34675
     Eigenvalues ---    0.34983   0.34997   0.36732   0.37084   0.38479
     Eigenvalues ---    0.38609   0.47074   0.51230   0.77662   0.77900
     Eigenvalues ---    0.79662   1.01939   1.02778
 RFO step:  Lambda=-4.91728546D-02 EMin=-2.56676689D-03
 Linear search not attempted -- first point.
 Maximum step size (   0.300) exceeded in Quadratic search.
    -- Step size scaled by   0.948
 Iteration  1 RMS(Cart)=  0.23044186 RMS(Int)=  0.05254707
 Iteration  2 RMS(Cart)=  0.14767548 RMS(Int)=  0.02534802
 Iteration  3 RMS(Cart)=  0.12094912 RMS(Int)=  0.00381069
 Iteration  4 RMS(Cart)=  0.00692782 RMS(Int)=  0.00062567
 Iteration  5 RMS(Cart)=  0.00002727 RMS(Int)=  0.00062559
 Iteration  6 RMS(Cart)=  0.00000001 RMS(Int)=  0.00062559
 Variable       Old X    -DE/DX   Delta X   Delta X   Delta X     New X
                                 (Linear)    (Quad)   (Total)
    R1        2.88256   0.00746   0.00000   0.00450   0.00450   2.88706
    R2        2.06837   0.00007   0.00000   0.00049   0.00049   2.06887
    R3        2.07029  -0.00572   0.00000  -0.00550  -0.00550   2.06479
    R4        2.06784   0.00215   0.00000   0.00259   0.00259   2.07043
    R5        2.88275   0.01144   0.00000   0.00744   0.00744   2.89018
    R6        2.72153   0.02673   0.00000   0.03372   0.03372   2.75525
    R7        2.07320  -0.00338   0.00000  -0.00746  -0.00746   2.06574
    R8        2.07069  -0.00774   0.00000  -0.00673  -0.00673   2.06396
    R9        2.06939   0.00014   0.00000  -0.00008  -0.00008   2.06931
   R10        2.06986   0.00142   0.00000   0.00069   0.00069   2.07055
   R11        2.58166  -0.01028   0.00000  -0.06456  -0.06456   2.51710
   R12        2.31820  -0.02519   0.00000  -0.03498  -0.03498   2.28321
   R13        2.60427   0.04379   0.00000   0.11453   0.11453   2.71880
   R14        2.36996  -0.00267   0.00000  -0.01882  -0.01882   2.35113
   R15        2.60290   0.04420   0.00000   0.09112   0.09112   2.69402
   R16        2.31765  -0.02471   0.00000  -0.03251  -0.03251   2.28513
   R17        2.58286  -0.01082   0.00000  -0.06715  -0.06715   2.51571
   R18        2.72134   0.02660   0.00000   0.03859   0.03859   2.75994
   R19        2.88242   0.00745   0.00000   0.00330   0.00330   2.88572
   R20        2.88206   0.01169   0.00000   0.00751   0.00751   2.88957
   R21        2.07264  -0.00320   0.00000  -0.00697  -0.00697   2.06567
   R22        2.07021  -0.00565   0.00000  -0.00514  -0.00514   2.06506
   R23        2.06866   0.00190   0.00000   0.00211   0.00211   2.07078
   R24        2.06784   0.00021   0.00000   0.00080   0.00080   2.06864
   R25        2.07117  -0.00786   0.00000  -0.00745  -0.00745   2.06373
   R26        2.06917   0.00025   0.00000   0.00038   0.00038   2.06955
   R27        2.06940   0.00154   0.00000   0.00091   0.00091   2.07032
    A1        1.93952  -0.00368   0.00000  -0.01889  -0.01900   1.92052
    A2        1.93508   0.00300   0.00000  -0.00557  -0.00564   1.92944
    A3        1.93877  -0.00103   0.00000  -0.00070  -0.00074   1.93802
    A4        1.89692  -0.00051   0.00000   0.00323   0.00308   1.90000
    A5        1.88924   0.00062   0.00000   0.00070   0.00061   1.88985
    A6        1.86181   0.00178   0.00000   0.02311   0.02311   1.88491
    A7        1.92283   0.00595   0.00000   0.02636   0.02540   1.94824
    A8        1.91751   0.00351   0.00000   0.01229   0.01085   1.92836
    A9        1.92812  -0.00283   0.00000  -0.00324  -0.00394   1.92418
   A10        1.88112   0.01325   0.00000   0.03533   0.03470   1.91582
   A11        1.88823  -0.00502   0.00000   0.01558   0.01593   1.90415
   A12        1.92527  -0.01460   0.00000  -0.08548  -0.08535   1.83991
   A13        1.94028   0.00439   0.00000  -0.01056  -0.01066   1.92962
   A14        1.94170  -0.00395   0.00000  -0.02004  -0.02017   1.92153
   A15        1.92874  -0.00086   0.00000   0.00441   0.00440   1.93315
   A16        1.89531  -0.00104   0.00000   0.00636   0.00614   1.90145
   A17        1.86307   0.00141   0.00000   0.02264   0.02266   1.88573
   A18        1.89227   0.00018   0.00000  -0.00084  -0.00088   1.89139
   A19        2.02858   0.07634   0.00000   0.04244   0.04244   2.07102
   A20        2.15687   0.03814   0.00000   0.07184   0.07160   2.22847
   A21        1.91217  -0.02563   0.00000  -0.04114  -0.04136   1.87081
   A22        2.21414  -0.01251   0.00000  -0.03074  -0.03094   2.18320
   A23        1.95950   0.00131   0.00000  -0.01495  -0.01495   1.94455
   A24        1.96397  -0.00022   0.00000  -0.00130  -0.00130   1.96267
   A25        2.21571  -0.01242   0.00000  -0.06523  -0.06663   2.14908
   A26        1.90966  -0.02507   0.00000  -0.01830  -0.01987   1.88979
   A27        2.15782   0.03750   0.00000   0.08366   0.08187   2.23969
   A28        2.03091   0.07498   0.00000   0.03732   0.03732   2.06823
   A29        1.91848   0.00315   0.00000   0.01733   0.01604   1.93453
   A30        1.87792   0.01376   0.00000   0.02866   0.02787   1.90579
   A31        1.92594  -0.01465   0.00000  -0.08677  -0.08657   1.83937
   A32        1.92340   0.00578   0.00000   0.02796   0.02697   1.95038
   A33        1.92815  -0.00260   0.00000  -0.00384  -0.00448   1.92367
   A34        1.88910  -0.00515   0.00000   0.01736   0.01756   1.90667
   A35        1.93558   0.00291   0.00000  -0.00276  -0.00284   1.93274
   A36        1.93750  -0.00084   0.00000   0.00130   0.00125   1.93874
   A37        1.94014  -0.00371   0.00000  -0.02046  -0.02057   1.91957
   A38        1.86179   0.00174   0.00000   0.02225   0.02222   1.88400
   A39        1.89739  -0.00052   0.00000   0.00148   0.00135   1.89874
   A40        1.88892   0.00059   0.00000  -0.00003  -0.00010   1.88882
   A41        1.93956   0.00438   0.00000  -0.01580  -0.01589   1.92367
   A42        1.94177  -0.00386   0.00000  -0.01653  -0.01665   1.92511
   A43        1.92880  -0.00087   0.00000   0.00360   0.00361   1.93241
   A44        1.89504  -0.00105   0.00000   0.00977   0.00956   1.90461
   A45        1.86299   0.00143   0.00000   0.02218   0.02222   1.88521
   A46        1.89325   0.00011   0.00000  -0.00126  -0.00129   1.89196
    D1        1.03586  -0.00781   0.00000  -0.00355  -0.00358   1.03228
    D2        3.10575   0.01426   0.00000   0.06355   0.06363  -3.11381
    D3       -1.04942  -0.00358   0.00000  -0.03761  -0.03761  -1.08702
    D4       -1.07584  -0.00671   0.00000   0.00893   0.00884  -1.06700
    D5        0.99405   0.01536   0.00000   0.07603   0.07606   1.07011
    D6        3.12207  -0.00248   0.00000  -0.02513  -0.02518   3.09689
    D7        3.14033  -0.01021   0.00000  -0.01590  -0.01593   3.12440
    D8       -1.07297   0.01187   0.00000   0.05120   0.05128  -1.02168
    D9        1.05505  -0.00598   0.00000  -0.04996  -0.04995   1.00510
   D10        1.08560   0.00392   0.00000  -0.00538  -0.00510   1.08050
   D11       -1.02910   0.00493   0.00000   0.00758   0.00774  -1.02136
   D12       -3.13210   0.00791   0.00000   0.01897   0.01917  -3.11293
   D13       -1.00645  -0.01185   0.00000  -0.05707  -0.05732  -1.06377
   D14       -3.12116  -0.01084   0.00000  -0.04412  -0.04448   3.11755
   D15        1.05903  -0.00786   0.00000  -0.03273  -0.03305   1.02598
   D16       -3.08823   0.00091   0.00000   0.01626   0.01641  -3.07181
   D17        1.08025   0.00192   0.00000   0.02921   0.02926   1.10951
   D18       -1.02274   0.00489   0.00000   0.04060   0.04069  -0.98206
   D19       -1.05952  -0.00575   0.00000  -0.02999  -0.02971  -1.08922
   D20        1.03590   0.01148   0.00000   0.03036   0.03084   1.06675
   D21        3.09395   0.00507   0.00000   0.02214   0.02138   3.11533
   D22       -0.00000  -0.00006   0.00000  -0.02137  -0.02205  -0.02205
   D23       -3.14072   0.00313   0.00000   0.01550   0.01618  -3.12454
   D24       -2.61183   0.00021   0.00000   0.08057   0.08128  -2.53055
   D25        0.53067   0.00350   0.00000   0.11890   0.11819   0.64886
   D26        3.13324   0.01066   0.00000   0.11426   0.11426  -3.03568
   D27        0.51744   0.00356   0.00000   0.62484   0.62201   1.13944
   D28       -2.62273   0.00015   0.00000   0.52224   0.52507  -2.09767
   D29        3.14022   0.00323   0.00000  -0.04067  -0.03816   3.10206
   D30       -0.00000   0.00000   0.00000  -0.13900  -0.14151  -0.14151
   D31       -1.05952  -0.00562   0.00000   0.03425   0.03443  -1.02509
   D32        1.03522   0.01147   0.00000   0.09530   0.09564   1.13086
   D33        3.09282   0.00522   0.00000   0.08484   0.08433  -3.10604
   D34        0.97376   0.01558   0.00000   0.08465   0.08475   1.05851
   D35       -1.09273   0.01207   0.00000   0.05780   0.05795  -1.03479
   D36        3.08683   0.01438   0.00000   0.07075   0.07089  -3.12546
   D37       -1.09314  -0.00680   0.00000   0.02170   0.02154  -1.07159
   D38        3.12355  -0.01031   0.00000  -0.00514  -0.00526   3.11829
   D39        1.01993  -0.00799   0.00000   0.00780   0.00769   1.02762
   D40        3.10330  -0.00244   0.00000  -0.01527  -0.01530   3.08800
   D41        1.03680  -0.00594   0.00000  -0.04211  -0.04210   0.99470
   D42       -1.06682  -0.00363   0.00000  -0.02916  -0.02915  -1.09598
   D43       -1.01685  -0.01168   0.00000  -0.04737  -0.04758  -1.06443
   D44       -3.13076  -0.01071   0.00000  -0.03761  -0.03793   3.11449
   D45        1.04811  -0.00769   0.00000  -0.02746  -0.02775   1.02036
   D46        1.07477   0.00382   0.00000   0.00713   0.00733   1.08210
   D47       -1.03914   0.00479   0.00000   0.01689   0.01697  -1.02217
   D48        3.13973   0.00781   0.00000   0.02704   0.02715  -3.11630
   D49       -3.09813   0.00089   0.00000   0.03020   0.03041  -3.06772
   D50        1.07115   0.00187   0.00000   0.03996   0.04006   1.11121
   D51       -1.03317   0.00489   0.00000   0.05011   0.05024  -0.98293
         Item               Value     Threshold  Converged?
 Maximum Force            0.076335     0.000450     NO 
 RMS     Force            0.014891     0.000300     NO 
 Maximum Displacement     1.469511     0.001800     NO 
 RMS     Displacement     0.477100     0.001200     NO 
 Predicted change in Energy=-3.172491D-02
 GradGradGradGradGradGradGradGradGradGradGradGradGradGradGradGradGradGrad

                          Input orientation:                          
 ---------------------------------------------------------------------
 Center     Atomic      Atomic             Coordinates (Angstroms)
 Number     Number       Type             X           Y           Z
 ---------------------------------------------------------------------
      1          6           0        4.439466    0.403254   -1.307729
      2          6           0        3.311628    0.801643   -0.357290
      3          6           0        2.383273   -0.376621   -0.059002
      4          8           0        3.856209    1.328058    0.888554
      5          6           0        4.598984    0.526554    1.650189
      6          8           0        4.877981   -0.631950    1.450597
      7          7           0        4.982935    1.281139    2.813427
      8          7           0        6.126628    0.975395    3.196101
      9          6           0        6.476509    1.607065    4.425309
     10          8           0        5.914016    1.376265    5.470582
     11          8           0        7.558362    2.354492    4.217486
     12          6           0        8.082410    3.145883    5.327497
     13          6           0        7.026957    4.120068    5.846043
     14          6           0        8.574080    2.204760    6.427805
     15          1           0        4.022809    0.035669   -2.251052
     16          1           0        5.055599   -0.382335   -0.863786
     17          1           0        5.088200    1.258111   -1.528532
     18          1           0        2.725947    1.618701   -0.786661
     19          1           0        2.931463   -1.181008    0.436328
     20          1           0        1.951994   -0.760713   -0.989359
     21          1           0        1.563944   -0.068394    0.599955
     22          1           0        8.933457    3.694782    4.916020
     23          1           0        6.148625    3.581300    6.209962
     24          1           0        6.699638    4.804284    5.055154
     25          1           0        7.439294    4.716816    6.665911
     26          1           0        7.748334    1.593914    6.798807
     27          1           0        8.996701    2.779594    7.258665
     28          1           0        9.348227    1.531065    6.044280
 ---------------------------------------------------------------------
                    Distance matrix (angstroms):
                    1          2          3          4          5
     1  C    0.000000
     2  C    1.527765   0.000000
     3  C    2.528923   1.529420   0.000000
     4  O    2.453388   1.458015   2.444040   0.000000
     5  C    2.964781   2.400610   2.940481   1.331994   0.000000
     6  O    2.978642   2.788746   2.927054   2.280688   1.208225
     7  N    4.248525   3.616162   4.213936   2.230885   1.438729
     8  N    4.843381   4.536628   5.141628   3.256369   2.219234
     9  C    6.202131   5.791237   6.387380   4.410493   3.520497
    10  O    7.004752   6.408331   6.790806   5.023133   4.128768
    11  O    6.637986   6.432314   7.247681   5.083433   4.323228
    12  C    8.051042   7.782841   8.596660   6.392923   5.702433
    13  C    8.466775   7.955938   8.755202   6.513498   6.034368
    14  C    8.954270   8.700554   9.331038   7.328725   6.437653
    15  H    1.094797   2.163060   2.768239   3.399287   3.973994
    16  H    1.092637   2.167897   2.790885   2.726660   2.711945
    17  H    1.095624   2.176323   3.485470   2.713853   3.298299
    18  H    2.164479   1.093145   2.151331   2.041644   3.261792
    19  H    2.797444   2.169161   1.092200   2.712024   2.677657
    20  H    2.764723   2.165426   1.095031   3.393458   3.953583
    21  H    3.482863   2.174323   1.095686   2.699601   3.266254
    22  H    8.352554   8.233044   9.177803   6.899298   6.284185
    23  H    8.338878   7.674884   8.315222   6.216885   5.703017
    24  H    8.060007   7.536199   8.463295   6.126156   5.857090
    25  H    9.549070   9.038339   9.835187   7.596054   7.126229
    26  H    8.836414   8.457055   8.927285   7.081695   6.129105
    27  H    9.989920   9.707477  10.356030   8.313238   7.474698
    28  H    8.911787   8.829082   9.455152   7.535581   6.547702
                    6          7          8          9         10
     6  O    0.000000
     7  N    2.351219   0.000000
     8  N    2.681317   1.244166   0.000000
     9  C    4.051838   2.221520   1.425614   0.000000
    10  O    4.611570   2.817168   2.319303   1.209241   0.000000
    11  O    4.874317   3.123507   2.234950   1.331256   2.287149
    12  C    6.290528   4.405061   3.616483   2.400171   2.802491
    13  C    6.820537   4.629720   4.209721   2.938820   2.984638
    14  C    6.817674   5.178139   4.236186   2.960918   2.945949
    15  H    3.857361   5.303017   5.914441   7.284485   8.062102
    16  H    2.334572   4.036622   4.412846   5.826768   6.629764
    17  H    3.534365   4.343296   4.845659   6.123511   7.048654
    18  H    3.834319   4.262461   5.276443   6.421174   7.026780
    19  H    2.262551   3.990151   4.740833   6.021019   6.385842
    20  H    3.812002   5.274177   6.161145   7.442864   7.873698
    21  H    3.467568   4.290710   5.352340   6.447774   6.688286
    22  H    6.868527   5.084603   4.269833   3.261281   3.847088
    23  H    6.482097   4.264508   3.984292   2.681436   2.337500
    24  H    6.772290   4.514970   4.294741   3.266297   3.541341
    25  H    7.897413   5.716574   5.268862   3.951937   3.861939
    26  H    6.465041   4.860917   3.998998   2.692806   2.275143
    27  H    7.895325   6.173801   5.291208   3.969143   3.830081
    28  H    6.764885   5.436603   4.335851   3.297516   3.485240
                   11         12         13         14         15
    11  O    0.000000
    12  C    1.460496   0.000000
    13  C    2.460050   1.527058   0.000000
    14  C    2.437132   1.529095   2.529909   0.000000
    15  H    7.727811   9.142658   9.553542  10.037011   0.000000
    16  H    6.290737   7.742215   8.317433   8.499416   1.779295
    17  H    6.349841   7.715834   8.144564   8.737894   1.775235
    18  H    6.995363   8.270846   8.291458   9.305516   2.516403
    19  H    6.942990   8.317317   8.610429   8.899458   3.145370
    20  H    8.261180   9.630480   9.813255  10.375951   2.552326
    21  H    7.408776   8.670157   8.655008   9.395375   3.766310
    22  H    2.043334   1.093108   2.163458   2.152862   9.427115
    23  H    2.731735   2.169760   1.092784   2.797347   9.416972
    24  H    2.727741   2.176355   1.095808   3.486435   9.126102
    25  H    3.404341   2.161662   1.094676   2.766742  10.634743
    26  H    2.697737   2.164479   2.794566   1.092076   9.909975
    27  H    3.390914   2.167835   2.769885   1.095158  11.077159
    28  H    2.686787   2.173410   3.482891   1.095564   9.970398
                   16         17         18         19         20
    16  H    0.000000
    17  H    1.770315   0.000000
    18  H    3.072031   2.502127   0.000000
    19  H    2.615364   3.802827   3.062076   0.000000
    20  H    3.129105   3.768574   2.510319   1.780053   0.000000
    21  H    3.799046   4.325558   2.473710   1.770534   1.776459
    22  H    8.066401   7.890223   8.681236   8.936716  10.171812
    23  H    8.181872   8.148988   8.032387   8.146445   9.396542
    24  H    8.039759   7.649640   7.750158   8.447272   9.489227
    25  H    9.401047   9.199956   9.346378   9.690850  10.895731
    26  H    8.358930   8.748351   9.097488   8.448880   9.989862
    27  H    9.565788   9.736843  10.266318   9.950767  11.410151
    28  H    8.355186   8.693090   9.514412   8.943117  10.460812
                   21         22         23         24         25
    21  H    0.000000
    22  H    9.332718   0.000000
    23  H    8.112444   3.072858   0.000000
    24  H    8.364636   2.498059   1.769997   0.000000
    25  H    9.706379   2.517776   1.778515   1.774622   0.000000
    26  H    8.912671   3.059910   2.618303   3.800863   3.140969
    27  H   10.377636   2.515861   3.139116   3.772443   2.555328
    28  H    9.632965   2.475213   3.803732   4.325201   3.765563
                   26         27         28
    26  H    0.000000
    27  H    1.782057   0.000000
    28  H    1.770005   1.776831   0.000000
 Stoichiometry    C8H14N2O4
 Framework group  C1[X(C8H14N2O4)]
 Deg. of freedom    78
 Full point group                 C1      NOp   1
 Largest Abelian subgroup         C1      NOp   1
 Largest concise Abelian subgroup C1      NOp   1
                         Standard orientation:                         
 ---------------------------------------------------------------------
 Center     Atomic      Atomic             Coordinates (Angstroms)
 Number     Number       Type             X           Y           Z
 ---------------------------------------------------------------------
      1          6           0       -4.157754    0.952226   -1.160422
      2          6           0       -3.896666    0.704912    0.324413
      3          6           0       -4.561614   -0.585309    0.806387
      4          8           0       -2.463797    0.649574    0.588298
      5          6           0       -1.744342   -0.310790    0.010117
      6          8           0       -2.137386   -1.191281   -0.717935
      7          7           0       -0.385191   -0.149211    0.453447
      8          7           0        0.423704   -0.446122   -0.444039
      9          6           0        1.774225   -0.427306    0.012157
     10          8           0        2.201738   -1.194183    0.843659
     11          8           0        2.447075    0.464511   -0.711846
     12          6           0        3.852877    0.701612   -0.394749
     13          6           0        4.012478    1.169431    1.050097
     14          6           0        4.652005   -0.572831   -0.669197
     15          1           0       -5.234599    1.020615   -1.345646
     16          1           0       -3.746680    0.138604   -1.762829
     17          1           0       -3.692068    1.887122   -1.491324
     18          1           0       -4.269514    1.543131    0.918835
     19          1           0       -4.153719   -1.448415    0.275755
     20          1           0       -5.641853   -0.539340    0.633003
     21          1           0       -4.389972   -0.733736    1.878319
[...]
   XY=              0.0010   XZ=              2.8823   YZ=              0.0023
 Traceless Quadrupole moment (field-independent basis, Debye-Ang):
   XX=             17.8879   YY=            -12.8591   ZZ=             -5.0288
   XY=              0.0010   XZ=              2.8823   YZ=              0.0023
 Octapole moment (field-independent basis, Debye-Ang**2):
  XXX=             -0.0016  YYY=             10.9660  ZZZ=             -0.0005  XYY=             -0.0023
  XXY=             43.9612  XXZ=             -0.0120  XZZ=              0.0021  YZZ=              0.3010
  YYZ=             -0.0028  XYZ=             -3.6050
 Hexadecapole moment (field-independent basis, Debye-Ang**3):
 XXXX=          -4621.5508 YYYY=           -445.9181 ZZZZ=           -442.9274 XXXY=              0.0086
 XXXZ=             27.8451 YYYX=              0.0070 YYYZ=             -0.0024 ZZZX=             -7.8783
 ZZZY=             -0.0044 XXYY=           -938.5937 XXZZ=           -919.2653 YYZZ=           -146.8123
 XXYZ=              0.0048 YYXZ=              7.6399 ZZXY=             -0.0066
 N-N= 9.109197981579D+02 E-N=-3.511076064751D+03  KE= 7.171534440149D+02
 Evaluate density.
 Using the total density.
 Monte-Carlo method of calculating molar volume:
 based on  0.001 e/bohr**3 density envelope.
 Number of points per bohr**3 =   20 CutOff= 1.00D-04
 Using the CI density.
 There are       412 points.  Will hold       412 in memory.
 LenV=  1073585238 MDV=  1073741824.
 Box volume = 8766.372 fraction occupied=0.209
 Integrated density= 9.9491716122174552D+01 error=-8.5082838778254484D+00
 Molar volume = 1829.874 bohr**3/mol (163.296 cm**3/mol)
 Recommended a0 for SCRF calculation =  4.92 angstrom (  9.30 bohr)
 ******************************Gaussian NBO Version 3.1******************************
             N A T U R A L   A T O M I C   O R B I T A L   A N D
          N A T U R A L   B O N D   O R B I T A L   A N A L Y S I S
 ******************************Gaussian NBO Version 3.1******************************
       /RESON  / : Allow strongly delocalized NBO set

 Analyzing the CI density

 Job title: Title Card Required                                             

 Storage needed:    172550 in NPA (1073737624 available)


 NATURAL POPULATIONS:  Natural atomic orbital occupancies 
                                                          
   NAO  Atom  No  lang   Type(AO)    Occupancy
 --------------------------------------------
     1    C    1  S      Cor( 1S)     1.99939
     2    C    1  S      Val( 2S)     1.10905
     3    C    1  S      Ryd( 3S)     0.00041
     4    C    1  S      Ryd( 4S)     0.00002
     5    C    1  px     Val( 2p)     1.22459
     6    C    1  px     Ryd( 3p)     0.00130
     7    C    1  py     Val( 2p)     1.22718
     8    C    1  py     Ryd( 3p)     0.00129
     9    C    1  pz     Val( 2p)     1.14109
    10    C    1  pz     Ryd( 3p)     0.00172
    11    C    1  dxy    Ryd( 3d)     0.00034
    12    C    1  dxz    Ryd( 3d)     0.00067
    13    C    1  dyz    Ryd( 3d)     0.00043
    14    C    1  dx2y2  Ryd( 3d)     0.00101
    15    C    1  dz2    Ryd( 3d)     0.00078
 
    16    C    2  S      Cor( 1S)     1.99912
    17    C    2  S      Val( 2S)     0.97455
    18    C    2  S      Ryd( 3S)     0.00090
    19    C    2  S      Ryd( 4S)     0.00005
    20    C    2  px     Val( 2p)     0.69189
    21    C    2  px     Ryd( 3p)     0.00415
    22    C    2  py     Val( 2p)     1.18259
    23    C    2  py     Ryd( 3p)     0.00502
    24    C    2  pz     Val( 2p)     1.04870
    25    C    2  pz     Ryd( 3p)     0.00199
    26    C    2  dxy    Ryd( 3d)     0.00082
    27    C    2  dxz    Ryd( 3d)     0.00125
    28    C    2  dyz    Ryd( 3d)     0.00064
    29    C    2  dx2y2  Ryd( 3d)     0.00218
    30    C    2  dz2    Ryd( 3d)     0.00126
 
    31    C    3  S      Cor( 1S)     1.99939
    32    C    3  S      Val( 2S)     1.10910
    33    C    3  S      Ryd( 3S)     0.00042
    34    C    3  S      Ryd( 4S)     0.00002
    35    C    3  px     Val( 2p)     1.20309
    36    C    3  px     Ryd( 3p)     0.00139
    37    C    3  py     Val( 2p)     1.26207
    38    C    3  py     Ryd( 3p)     0.00160
    39    C    3  pz     Val( 2p)     1.12860
    40    C    3  pz     Ryd( 3p)     0.00145
    41    C    3  dxy    Ryd( 3d)     0.00039
    42    C    3  dxz    Ryd( 3d)     0.00056
    43    C    3  dyz    Ryd( 3d)     0.00062
    44    C    3  dx2y2  Ryd( 3d)     0.00094
    45    C    3  dz2    Ryd( 3d)     0.00072
 
    46    O    4  S      Cor( 1S)     1.99972
    47    O    4  S      Val( 2S)     1.61708
    48    O    4  S      Ryd( 3S)     0.00197
    49    O    4  S      Ryd( 4S)     0.00011
    50    O    4  px     Val( 2p)     1.52911
    51    O    4  px     Ryd( 3p)     0.00121
    52    O    4  py     Val( 2p)     1.61376
    53    O    4  py     Ryd( 3p)     0.00121
    54    O    4  pz     Val( 2p)     1.76157
    55    O    4  pz     Ryd( 3p)     0.00179
    56    O    4  dxy    Ryd( 3d)     0.00142
    57    O    4  dxz    Ryd( 3d)     0.00044
    58    O    4  dyz    Ryd( 3d)     0.00167
    59    O    4  dx2y2  Ryd( 3d)     0.00134
    60    O    4  dz2    Ryd( 3d)     0.00083
 
    61    C    5  S      Cor( 1S)     1.99951
    62    C    5  S      Val( 2S)     0.73174
    63    C    5  S      Ryd( 3S)     0.00412
    64    C    5  S      Ryd( 4S)     0.00046
    65    C    5  px     Val( 2p)     0.80461
    66    C    5  px     Ryd( 3p)     0.00956
    67    C    5  py     Val( 2p)     0.71028
    68    C    5  py     Ryd( 3p)     0.02116
    69    C    5  pz     Val( 2p)     0.78132
    70    C    5  pz     Ryd( 3p)     0.00468
    71    C    5  dxy    Ryd( 3d)     0.00341
    72    C    5  dxz    Ryd( 3d)     0.00146
    73    C    5  dyz    Ryd( 3d)     0.00292
    74    C    5  dx2y2  Ryd( 3d)     0.00380
    75    C    5  dz2    Ryd( 3d)     0.00073
 
    76    O    6  S      Cor( 1S)     1.99977
    77    O    6  S      Val( 2S)     1.70726
    78    O    6  S      Ryd( 3S)     0.00085
    79    O    6  S      Ryd( 4S)     0.00013
    80    O    6  px     Val( 2p)     1.70817
    81    O    6  px     Ryd( 3p)     0.00112
    82    O    6  py     Val( 2p)     1.62310
    83    O    6  py     Ryd( 3p)     0.00071
    84    O    6  pz     Val( 2p)     1.48658
    85    O    6  pz     Ryd( 3p)     0.00068
    86    O    6  dxy    Ryd( 3d)     0.00503
    87    O    6  dxz    Ryd( 3d)     0.00135
    88    O    6  dyz    Ryd( 3d)     0.00406
    89    O    6  dx2y2  Ryd( 3d)     0.00495
    90    O    6  dz2    Ryd( 3d)     0.00159
 
    91    N    7  S      Cor( 1S)     1.99939
    92    N    7  S      Val( 2S)     1.39547
    93    N    7  S      Ryd( 3S)     0.00622
    94    N    7  S      Ryd( 4S)     0.00003
    95    N    7  px     Val( 2p)     1.12099
    96    N    7  px     Ryd( 3p)     0.00370
    97    N    7  py     Val( 2p)     1.45207
    98    N    7  py     Ryd( 3p)     0.00462
    99    N    7  pz     Val( 2p)     1.23138
   100    N    7  pz     Ryd( 3p)     0.00446
   101    N    7  dxy    Ryd( 3d)     0.00095
   102    N    7  dxz    Ryd( 3d)     0.00147
   103    N    7  dyz    Ryd( 3d)     0.00239
   104    N    7  dx2y2  Ryd( 3d)     0.00072
   105    N    7  dz2    Ryd( 3d)     0.00212
 
   106    N    8  S      Cor( 1S)     1.99939
   107    N    8  S      Val( 2S)     1.39547
   108    N    8  S      Ryd( 3S)     0.00622
   109    N    8  S      Ryd( 4S)     0.00003
   110    N    8  px     Val( 2p)     1.12099
   111    N    8  px     Ryd( 3p)     0.00370
   112    N    8  py     Val( 2p)     1.45207
   113    N    8  py     Ryd( 3p)     0.00462
   114    N    8  pz     Val( 2p)     1.23138
   115    N    8  pz     Ryd( 3p)     0.00446
   116    N    8  dxy    Ryd( 3d)     0.00095
   117    N    8  dxz    Ryd( 3d)     0.00147
   118    N    8  dyz    Ryd( 3d)     0.00239
   119    N    8  dx2y2  Ryd( 3d)     0.00072
   120    N    8  dz2    Ryd( 3d)     0.00212
 
   121    C    9  S      Cor( 1S)     1.99951
   122    C    9  S      Val( 2S)     0.73174
   123    C    9  S      Ryd( 3S)     0.00412
   124    C    9  S      Ryd( 4S)     0.00046
   125    C    9  px     Val( 2p)     0.80461
   126    C    9  px     Ryd( 3p)     0.00956
   127    C    9  py     Val( 2p)     0.71026
   128    C    9  py     Ryd( 3p)     0.02116
   129    C    9  pz     Val( 2p)     0.78135
   130    C    9  pz     Ryd( 3p)     0.00468
   131    C    9  dxy    Ryd( 3d)     0.00341
   132    C    9  dxz    Ryd( 3d)     0.00146
   133    C    9  dyz    Ryd( 3d)     0.00292
   134    C    9  dx2y2  Ryd( 3d)     0.00380
   135    C    9  dz2    Ryd( 3d)     0.00073
 
   136    O   10  S      Cor( 1S)     1.99977
   137    O   10  S      Val( 2S)     1.70726
   138    O   10  S      Ryd( 3S)     0.00085
   139    O   10  S      Ryd( 4S)     0.00013
   140    O   10  px     Val( 2p)     1.70817
   141    O   10  px     Ryd( 3p)     0.00112
   142    O   10  py     Val( 2p)     1.62316
   143    O   10  py     Ryd( 3p)     0.00071
   144    O   10  pz     Val( 2p)     1.48652
   145    O   10  pz     Ryd( 3p)     0.00068
   146    O   10  dxy    Ryd( 3d)     0.00503
   147    O   10  dxz    Ryd( 3d)     0.00135
   148    O   10  dyz    Ryd( 3d)     0.00406
   149    O   10  dx2y2  Ryd( 3d)     0.00495
   150    O   10  dz2    Ryd( 3d)     0.00159
 
   151    O   11  S      Cor( 1S)     1.99972
   152    O   11  S      Val( 2S)     1.61708
   153    O   11  S      Ryd( 3S)     0.00197
   154    O   11  S      Ryd( 4S)     0.00011
   155    O   11  px     Val( 2p)     1.52912
   156    O   11  px     Ryd( 3p)     0.00121
   157    O   11  py     Val( 2p)     1.61370
   158    O   11  py     Ryd( 3p)     0.00121
   159    O   11  pz     Val( 2p)     1.76161
   160    O   11  pz     Ryd( 3p)     0.00179
   161    O   11  dxy    Ryd( 3d)     0.00142
   162    O   11  dxz    Ryd( 3d)     0.00044
   163    O   11  dyz    Ryd( 3d)     0.00167
   164    O   11  dx2y2  Ryd( 3d)     0.00134
   165    O   11  dz2    Ryd( 3d)     0.00083
 
   166    C   12  S      Cor( 1S)     1.99912
   167    C   12  S      Val( 2S)     0.97455
   168    C   12  S      Ryd( 3S)     0.00090
   169    C   12  S      Ryd( 4S)     0.00005
   170    C   12  px     Val( 2p)     0.69189
   171    C   12  px     Ryd( 3p)     0.00415
   172    C   12  py     Val( 2p)     1.18261
   173    C   12  py     Ryd( 3p)     0.00502
   174    C   12  pz     Val( 2p)     1.04867
   175    C   12  pz     Ryd( 3p)     0.00199
   176    C   12  dxy    Ryd( 3d)     0.00082
   177    C   12  dxz    Ryd( 3d)     0.00125
   178    C   12  dyz    Ryd( 3d)     0.00064
   179    C   12  dx2y2  Ryd( 3d)     0.00218
   180    C   12  dz2    Ryd( 3d)     0.00127
 
   181    C   13  S      Cor( 1S)     1.99939
   182    C   13  S      Val( 2S)     1.10905
   183    C   13  S      Ryd( 3S)     0.00041
   184    C   13  S      Ryd( 4S)     0.00002
   185    C   13  px     Val( 2p)     1.22460
   186    C   13  px     Ryd( 3p)     0.00130
   187    C   13  py     Val( 2p)     1.22727
   188    C   13  py     Ryd( 3p)     0.00129
   189    C   13  pz     Val( 2p)     1.14100
   190    C   13  pz     Ryd( 3p)     0.00172
   191    C   13  dxy    Ryd( 3d)     0.00034
   192    C   13  dxz    Ryd( 3d)     0.00067
   193    C   13  dyz    Ryd( 3d)     0.00043
   194    C   13  dx2y2  Ryd( 3d)     0.00101
   195    C   13  dz2    Ryd( 3d)     0.00078
 
   196    C   14  S      Cor( 1S)     1.99939
   197    C   14  S      Val( 2S)     1.10910
   198    C   14  S      Ryd( 3S)     0.00042
   199    C   14  S      Ryd( 4S)     0.00002
   200    C   14  px     Val( 2p)     1.20309
   201    C   14  px     Ryd( 3p)     0.00139
   202    C   14  py     Val( 2p)     1.26205
   203    C   14  py     Ryd( 3p)     0.00160
   204    C   14  pz     Val( 2p)     1.12864
   205    C   14  pz     Ryd( 3p)     0.00145
   206    C   14  dxy    Ryd( 3d)     0.00039
   207    C   14  dxz    Ryd( 3d)     0.00056
   208    C   14  dyz    Ryd( 3d)     0.00062
   209    C   14  dx2y2  Ryd( 3d)     0.00094
   210    C   14  dz2    Ryd( 3d)     0.00072
 
   211    H   15  S      Val( 1S)     0.75878
   212    H   15  S      Ryd( 2S)     0.00075
 
   213    H   16  S      Val( 1S)     0.74615
   214    H   16  S      Ryd( 2S)     0.00135
 
   215    H   17  S      Val( 1S)     0.75527
   216    H   17  S      Ryd( 2S)     0.00106
 
   217    H   18  S      Val( 1S)     0.75307
   218    H   18  S      Ryd( 2S)     0.00168
 
   219    H   19  S      Val( 1S)     0.74646
   220    H   19  S      Ryd( 2S)     0.00146
 
   221    H   20  S      Val( 1S)     0.75696
   222    H   20  S      Ryd( 2S)     0.00073
 
   223    H   21  S      Val( 1S)     0.75611
   224    H   21  S      Ryd( 2S)     0.00106
 
   225    H   22  S      Val( 1S)     0.75307
   226    H   22  S      Ryd( 2S)     0.00168
 
   227    H   23  S      Val( 1S)     0.74615
   228    H   23  S      Ryd( 2S)     0.00135
 
   229    H   24  S      Val( 1S)     0.75527
   230    H   24  S      Ryd( 2S)     0.00106
 
   231    H   25  S      Val( 1S)     0.75878
   232    H   25  S      Ryd( 2S)     0.00075
 
   233    H   26  S      Val( 1S)     0.74646
   234    H   26  S      Ryd( 2S)     0.00146
 
   235    H   27  S      Val( 1S)     0.75696
   236    H   27  S      Ryd( 2S)     0.00073
 
   237    H   28  S      Val( 1S)     0.75611
   238    H   28  S      Ryd( 2S)     0.00106


 Summary of Natural Population Analysis:                  
                                                          
                                       Natural Population 
                Natural  -----------------------------------------------
    Atom  No    Charge         Core      Valence    Rydberg      Total
 -----------------------------------------------------------------------
      C    1   -0.70929      1.99939     4.70192    0.00798     6.70929
      C    2    0.08488      1.99912     3.89773    0.01827     5.91512
      C    3   -0.71036      1.99939     4.70287    0.00810     6.71036
      O    4   -0.53324      1.99972     6.52152    0.01199     8.53324
      C    5    0.92025      1.99951     3.02795    0.05229     5.07975
      O    6   -0.54536      1.99977     6.52511    0.02049     8.54536
      N    7   -0.22599      1.99939     5.19991    0.02669     7.22599
      N    8   -0.22599      1.99939     5.19991    0.02669     7.22599
      C    9    0.92025      1.99951     3.02795    0.05229     5.07975
      O   10   -0.54537      1.99977     6.52511    0.02049     8.54537
      O   11   -0.53324      1.99972     6.52152    0.01199     8.53324
      C   12    0.08488      1.99912     3.89773    0.01827     5.91512
      C   13   -0.70929      1.99939     4.70192    0.00798     6.70929
      C   14   -0.71036      1.99939     4.70287    0.00810     6.71036
      H   15    0.24048      0.00000     0.75878    0.00075     0.75952
      H   16    0.25250      0.00000     0.74615    0.00135     0.74750
      H   17    0.24367      0.00000     0.75527    0.00106     0.75633
      H   18    0.24524      0.00000     0.75307    0.00168     0.75476
      H   19    0.25207      0.00000     0.74646    0.00146     0.74793
      H   20    0.24231      0.00000     0.75696    0.00073     0.75769
      H   21    0.24283      0.00000     0.75611    0.00106     0.75717
      H   22    0.24524      0.00000     0.75307    0.00168     0.75476
      H   23    0.25250      0.00000     0.74615    0.00135     0.74750
      H   24    0.24367      0.00000     0.75527    0.00106     0.75633
      H   25    0.24048      0.00000     0.75878    0.00075     0.75952
      H   26    0.25207      0.00000     0.74646    0.00146     0.74793
      H   27    0.24231      0.00000     0.75696    0.00073     0.75769
      H   28    0.24283      0.00000     0.75611    0.00106     0.75717
 =======================================================================
   * Total *   -0.00000     27.99259    79.69964    0.30778   108.00000

                                 Natural Population      
 --------------------------------------------------------
   Core                      27.99259 ( 99.9735% of  28)
   Valence                   79.69964 ( 99.6245% of  80)
   Natural Minimal Basis    107.69222 ( 99.7150% of 108)
   Natural Rydberg Basis      0.30778 (  0.2850% of 108)
 --------------------------------------------------------

    Atom  No          Natural Electron Configuration
 ----------------------------------------------------------------------------
      C    1      [core]2S( 1.11)2p( 3.59)
      C    2      [core]2S( 0.97)2p( 2.92)3p( 0.01)3d( 0.01)
      C    3      [core]2S( 1.11)2p( 3.59)
      O    4      [core]2S( 1.62)2p( 4.90)3d( 0.01)
      C    5      [core]2S( 0.73)2p( 2.30)3p( 0.04)3d( 0.01)
      O    6      [core]2S( 1.71)2p( 4.82)3d( 0.02)
      N    7      [core]2S( 1.40)2p( 3.80)3S( 0.01)3p( 0.01)3d( 0.01)
      N    8      [core]2S( 1.40)2p( 3.80)3S( 0.01)3p( 0.01)3d( 0.01)
      C    9      [core]2S( 0.73)2p( 2.30)3p( 0.04)3d( 0.01)
      O   10      [core]2S( 1.71)2p( 4.82)3d( 0.02)
      O   11      [core]2S( 1.62)2p( 4.90)3d( 0.01)
      C   12      [core]2S( 0.97)2p( 2.92)3p( 0.01)3d( 0.01)
      C   13      [core]2S( 1.11)2p( 3.59)
      C   14      [core]2S( 1.11)2p( 3.59)
      H   15            1S( 0.76)
      H   16            1S( 0.75)
      H   17            1S( 0.76)
      H   18            1S( 0.75)
      H   19            1S( 0.75)
      H   20            1S( 0.76)
      H   21            1S( 0.76)
      H   22            1S( 0.75)
      H   23            1S( 0.75)
      H   24            1S( 0.76)
      H   25            1S( 0.76)
      H   26            1S( 0.75)
      H   27            1S( 0.76)
      H   28            1S( 0.76)


 NBO analysis skipped by request.
 1\1\GINC-DELLA-R2C4N2\SP\RB3LYP TD-FC\6-31G(d)\C8H14N2O4\BJS4\22-Aug-2
 020\0\\# TD(NStates=10, Root=1) B3LYP/6-31G* scf=qc volume pop=NPA den
 sity=current Geom=AllCheck Guess=Read\\Title Card Required\\0,1\C,0,4.
 5439285567,-0.5902486288,-0.9772631578\C,0,3.9457349614,0.7197227013,-
 0.4754774126\C,0,2.4215300346,0.7459351885,-0.4297211525\O,0,4.5239135
 771,1.1010620333,0.8261718685\C,0,4.3081347656,0.3414373837,1.89400191
 85\O,0,3.6803590492,-0.6835799692,1.9915745857\N,0,4.8604567643,0.9910
 342954,3.0704614691\N,0,6.085272582,0.8066995874,3.1958338286\C,0,6.61
 66751788,1.3572769525,4.4309750572\O,0,6.8767554766,0.6406733115,5.365
 3843959\O,0,6.8358982551,2.6581809298,4.2778676026\C,0,7.4950521571,3.
 4234048052,5.3520864609\C,0,6.6286494289,3.4632145591,6.6064429372\C,0
 ,8.921636527,2.9348219294,5.5803926423\H,0,4.2401230393,-0.7483498902,
 -2.0182289478\H,0,4.201530485,-1.438195112,-0.3802850447\H,0,5.6374417
 119,-0.5503867434,-0.9444275289\H,0,4.3014330187,1.5419068221,-1.10273
 20977\H,0,2.0271942509,-0.0662337137,0.1846649576\H,0,2.0304984997,0.6
 363891248,-1.4475043908\H,0,2.0645919232,1.7008912903,-0.0304348935\H,
 0,7.5232467305,4.4196269582,4.9018610631\H,0,6.5856366233,2.4855703732
 ,7.0912042963\H,0,5.6111548978,3.7833862743,6.3602052084\H,0,7.0517727
 083,4.1867549323,7.312388651\H,0,8.9349474393,1.9421736489,6.035431331
 3\H,0,9.4369510668,3.6333107445,6.2492370654\H,0,9.4731502909,2.901310
 2116,4.6351492869\\Version=ES64L-G16RevA.03\State=1-A\HF=-723.6457335\
 RMSD=2.327e-13\Dipole=0.2707178,1.2825706,-0.7599666\Quadrupole=-1.138
 6065,-5.2178576,6.3564642,2.0614724,6.479688,8.0633357\PG=C01 [X(C8H14
 N2O4)]\\@


 IT IS UNWORTHY OF EXCELLENT MEN TO LOSE HOURS LIKE SLAVES IN THE LABOR
 OF CALCULATION WHICH COULD BE SAFELY RELEGATED TO ANYONE ELSE
 IF A MACHINE WERE USED.
    -- G.W. VON LEIBNIZ
 Job cpu time:       0 days  0 hours 19 minutes 38.4 seconds.
 Elapsed time:       0 days  0 hours  5 minutes  8.5 seconds.
 File lengths (MBytes):  RWF=    524 Int=      0 D2E=      0 Chk=    268 Scr=      1
 Normal termination of Gaussian 16 at Sat Aug 22 14:36:58 2020.
