 Entering Gaussian System, Link 0=g16
 Input=azadicarboxylate_4_conf19123.com
 Output=azadicarboxylate_4_conf19123.log
 Initial command:
 /opt/export//g16/l1.exe "/scratch/bjs4/job.217891/Gau-217893.inp" -scrdir="/scratch/bjs4/job.217891/"
 Entering Link 1 = /opt/export//g16/l1.exe PID=    217895.
  
 Copyright (c) 1988,1990,1992,1993,1995,1998,2003,2009,2016,
            Gaussian, Inc.  All Rights Reserved.
  
 This is part of the Gaussian(R) 16 program.  It is based on
 the Gaussian(R) 09 system (copyright 2009, Gaussian, Inc.),
 the Gaussian(R) 03 system (copyright 2003, Gaussian, Inc.),
 the Gaussian(R) 98 system (copyright 1998, Gaussian, Inc.),
 the Gaussian(R) 94 system (copyright 1995, Gaussian, Inc.),
 the Gaussian 92(TM) system (copyright 1992, Gaussian, Inc.),
 the Gaussian 90(TM) system (copyright 1990, Gaussian, Inc.),
 the Gaussian 88(TM) system (copyright 1988, Gaussian, Inc.),
 the Gaussian 86(TM) system (copyright 1986, Carnegie Mellon
 University), and the Gaussian 82(TM) system (copyright 1983,
 Carnegie Mellon University). Gaussian is a federally registered
 trademark of Gaussian, Inc.
  
 This software contains proprietary and confidential information,
 including trade secrets, belonging to Gaussian, Inc.
  
 This software is provided under written license and may be
 used, copied, transmitted, or stored only in accord with that
 written license.
  
 The following legend is applicable only to US Government
 contracts under FAR:
  
                    RESTRICTED RIGHTS LEGEND
  
 Use, reproduction and disclosure by the US Government is
 subject to restrictions as set forth in subparagraphs (a)
 and (c) of the Commercial Computer Software - Restricted
 Rights clause in FAR 52.227-19.
  
 Gaussian, Inc.
 340 Quinnipiac St., Bldg. 40, Wallingford CT 06492
  
  
 ---------------------------------------------------------------
 Warning -- This program may not be used in any manner that
 competes with the business of Gaussian, Inc. or will provide
 assistance to any competitor of Gaussian, Inc.  The licensee
 of this program is prohibited from giving any competitor of
 Gaussian, Inc. access to this program.  By using this program,
 the user acknowledges that Gaussian, Inc. is engaged in the
 business of creating and licensing software in the field of
 computational chemistry and represents and warrants to the
 licensee that it is not a competitor of Gaussian, Inc. and that
 it will not use this program in any manner prohibited above.
 ---------------------------------------------------------------
  

 Cite this work as:
 Gaussian 16, Revision A.03,
 M. J. Frisch, G. W. Trucks, H. B. Schlegel, G. E. Scuseria, 
 M. A. Robb, J. R. Cheeseman, G. Scalmani, V. Barone, 
 G. A. Petersson, H. Nakatsuji, X. Li, M. Caricato, A. V. Marenich, 
 J. Bloino, B. G. Janesko, R. Gomperts, B. Mennucci, H. P. Hratchian, 
 J. V. Ortiz, A. F. Izmaylov, J. L. Sonnenberg, D. Williams-Young, 
 F. Ding, F. Lipparini, F. Egidi, J. Goings, B. Peng, A. Petrone, 
 T. Henderson, D. Ranasinghe, V. G. Zakrzewski, J. Gao, N. Rega, 
 G. Zheng, W. Liang, M. Hada, M. Ehara, K. Toyota, R. Fukuda, 
 J. Hasegawa, M. Ishida, T. Nakajima, Y. Honda, O. Kitao, H. Nakai, 
 T. Vreven, K. Throssell, J. A. Montgomery, Jr., J. E. Peralta, 
 F. Ogliaro, M. J. Bearpark, J. J. Heyd, E. N. Brothers, K. N. Kudin, 
 V. N. Staroverov, T. A. Keith, R. Kobayashi, J. Normand, 
 K. Raghavachari, A. P. Rendell, J. C. Burant, S. S. Iyengar, 
 J. Tomasi, M. Cossi, J. M. Millam, M. Klene, C. Adamo, R. Cammi, 
 J. W. Ochterski, R. L. Martin, K. Morokuma, O. Farkas, 
 J. B. Foresman, and D. J. Fox, Gaussian, Inc., Wallingford CT, 2016.
 
 ******************************************
 Gaussian 16:  ES64L-G16RevA.03 25-Dec-2016
                22-Aug-2020 
 ******************************************
 %nprocshared=5
 Will use up to    5 processors via shared memory.
 %Mem=10GB
 %Chk=azadicarboxylate_4_conf191.chk
 ---------------------------------
 # opt=CalcAll B3LYP/6-31G* scf=qc
 ---------------------------------
 1/10=4,18=20,19=15,26=3,38=1/1,3;
 2/9=110,12=2,17=6,18=5,40=1/2;
 3/5=1,6=6,7=1,11=2,25=1,30=1,71=2,74=-5,140=1/1,2,3;
 4//1;
 5/5=2,8=3,38=5/8;
 8/6=4,10=90,11=11/1;
 11/6=1,8=1,9=11,15=111,16=1/1,2,10;
 10/6=1/2;
 6/7=2,8=2,9=2,10=2,18=1,28=1/1;
 7/10=1,25=1/1,2,3,16;
 1/10=4,18=20,19=15,26=3/3(3);
 2/9=110/2;
 7/8=1,9=1,25=1,44=-1/16;
 99//99;
 2/9=110/2;
 3/5=1,6=6,7=1,11=2,25=1,30=1,71=2,74=-5,140=1/1,2,3;
 4/5=5,16=3,69=1/1;
 5/5=2,8=3,38=5/8;
 8/6=4,10=90,11=11/1;
 11/6=1,8=1,9=11,15=111,16=1/1,2,10;
 10/6=1/2;
 7/10=1,25=1/1,2,3,16;
 1/10=4,18=20,19=15,26=3/3(-8);
 2/9=110/2;
 6/7=2,8=2,9=2,10=2,18=1,19=2,28=1/1;
 7/8=1,9=1,25=1,44=-1/16;
 99//99;
 -------------------
 Title Card Required
 -------------------
 Symbolic Z-matrix:
 Charge =  0 Multiplicity = 1
 C                    -3.34754  -0.71117  -1.44358 
 C                    -3.05782   0.02842  -0.15765 
 O1                   -3.64991   1.33488  -0.1805 
 C2                   -5.0001    1.3961   -0.3376 
 O3                   -5.72516   0.41476  -0.45845 
 N4                   -5.3965    2.7153   -0.3106 
 N5                   -6.637     2.8452   -0.4364 
 C6                   -7.0368    4.1615   -0.3722 
 O7                   -6.38476   5.14408  -0.71049 
 O8                   -8.28794   4.22093   0.16027 
 C                    -8.86003   5.52544   0.32713 
 C                    -8.01581   6.36513   1.25835 
 C                    -6.97672   7.17602   0.77861 
 C                    -6.21695   7.95262   1.65627 
 C                    -6.49784   7.9426    3.02077 
 C                    -7.54619   7.1657    3.50771 
 C                    -8.30431   6.38599   2.63183 
 C                    -2.45347  -1.65934  -1.96279 
 C                    -2.74633  -2.33974  -3.147 
 C                    -3.9433   -2.09474  -3.8164 
 C                    -4.85417  -1.17837  -3.29637 
 C                    -4.56135  -0.4948   -2.11436 
 H                    -1.97378   0.15907  -0.06674 
 H                    -3.38854  -0.56819   0.69971 
 H                    -9.89275   5.48878   0.68997 
 H                    -8.87642   6.00645  -0.65769 
 H                    -6.74625   7.20499  -0.28462 
 H                    -5.4047    8.56551   1.27385 
 H                    -5.90202   8.54296   3.70369 
 H                    -7.77307   7.16513   4.57089 
 H                    -9.12167   5.78939   3.0325 
 H                    -1.517    -1.87158  -1.4511 
 H                    -2.03854  -3.06131  -3.54705 
 H                    -4.16734  -2.6204   -4.74096 
 H                    -5.79313  -0.99404  -3.81218 
 H                    -5.28859   0.21379  -1.72314 
 

 GradGradGradGradGradGradGradGradGradGradGradGradGradGradGradGradGradGrad
 Berny optimization.
 Initialization pass.
                           ----------------------------
                           !    Initial Parameters    !
                           ! (Angstroms and Degrees)  !
 --------------------------                            --------------------------
 ! Name  Definition              Value          Derivative Info.                !
 --------------------------------------------------------------------------------
 ! R1    R(1,2)                  1.5115         calculate D2E/DX2 analytically  !
 ! R2    R(1,18)                 1.4028         calculate D2E/DX2 analytically  !
 ! R3    R(1,22)                 1.4036         calculate D2E/DX2 analytically  !
 ! R4    R(2,3)                  1.4345         calculate D2E/DX2 analytically  !
 ! R5    R(2,23)                 1.0957         calculate D2E/DX2 analytically  !
 ! R6    R(2,24)                 1.0956         calculate D2E/DX2 analytically  !
 ! R7    R(3,4)                  1.3607         calculate D2E/DX2 analytically  !
 ! R8    R(4,5)                  1.2261         calculate D2E/DX2 analytically  !
 ! R9    R(4,6)                  1.3777         calculate D2E/DX2 analytically  !
 ! R10   R(6,7)                  1.2536         calculate D2E/DX2 analytically  !
 ! R11   R(7,8)                  1.3772         calculate D2E/DX2 analytically  !
 ! R12   R(8,9)                  1.2268         calculate D2E/DX2 analytically  !
 ! R13   R(8,10)                 1.361          calculate D2E/DX2 analytically  !
 ! R14   R(10,11)                1.4342         calculate D2E/DX2 analytically  !
 ! R15   R(11,12)                1.5116         calculate D2E/DX2 analytically  !
 ! R16   R(11,25)                1.0952         calculate D2E/DX2 analytically  !
 ! R17   R(11,26)                1.0961         calculate D2E/DX2 analytically  !
 ! R18   R(12,13)                1.4026         calculate D2E/DX2 analytically  !
 ! R19   R(12,17)                1.4036         calculate D2E/DX2 analytically  !
 ! R20   R(13,14)                1.3967         calculate D2E/DX2 analytically  !
 ! R21   R(13,27)                1.0883         calculate D2E/DX2 analytically  !
 ! R22   R(14,15)                1.3931         calculate D2E/DX2 analytically  !
 ! R23   R(14,28)                1.087          calculate D2E/DX2 analytically  !
 ! R24   R(15,16)                1.3927         calculate D2E/DX2 analytically  !
 ! R25   R(15,29)                1.0871         calculate D2E/DX2 analytically  !
 ! R26   R(16,17)                1.3964         calculate D2E/DX2 analytically  !
 ! R27   R(16,30)                1.0871         calculate D2E/DX2 analytically  !
 ! R28   R(17,31)                1.0884         calculate D2E/DX2 analytically  !
 ! R29   R(18,19)                1.3968         calculate D2E/DX2 analytically  !
 ! R30   R(18,32)                1.088          calculate D2E/DX2 analytically  !
 ! R31   R(19,20)                1.3931         calculate D2E/DX2 analytically  !
 ! R32   R(19,33)                1.087          calculate D2E/DX2 analytically  !
 ! R33   R(20,21)                1.3928         calculate D2E/DX2 analytically  !
 ! R34   R(20,34)                1.0869         calculate D2E/DX2 analytically  !
 ! R35   R(21,22)                1.3965         calculate D2E/DX2 analytically  !
 ! R36   R(21,35)                1.0871         calculate D2E/DX2 analytically  !
 ! R37   R(22,36)                1.0881         calculate D2E/DX2 analytically  !
 ! A1    A(2,1,18)             121.5638         calculate D2E/DX2 analytically  !
 ! A2    A(2,1,22)             119.7964         calculate D2E/DX2 analytically  !
 ! A3    A(18,1,22)            118.5851         calculate D2E/DX2 analytically  !
 ! A4    A(1,2,3)              110.6686         calculate D2E/DX2 analytically  !
 ! A5    A(1,2,23)             108.5775         calculate D2E/DX2 analytically  !
 ! A6    A(1,2,24)             109.9653         calculate D2E/DX2 analytically  !
 ! A7    A(3,2,23)             107.5227         calculate D2E/DX2 analytically  !
 ! A8    A(3,2,24)             112.5691         calculate D2E/DX2 analytically  !
 ! A9    A(23,2,24)            107.377          calculate D2E/DX2 analytically  !
 ! A10   A(2,3,4)              116.8958         calculate D2E/DX2 analytically  !
 ! A11   A(3,4,5)              124.2054         calculate D2E/DX2 analytically  !
 ! A12   A(3,4,6)              109.0455         calculate D2E/DX2 analytically  !
 ! A13   A(5,4,6)              126.7378         calculate D2E/DX2 analytically  !
 ! A14   A(4,6,7)              112.4552         calculate D2E/DX2 analytically  !
 ! A15   A(6,7,8)              112.4347         calculate D2E/DX2 analytically  !
 ! A16   A(7,8,9)              126.7534         calculate D2E/DX2 analytically  !
 ! A17   A(7,8,10)             109.077          calculate D2E/DX2 analytically  !
 ! A18   A(9,8,10)             124.1586         calculate D2E/DX2 analytically  !
 ! A19   A(8,10,11)            116.8672         calculate D2E/DX2 analytically  !
 ! A20   A(10,11,12)           110.7422         calculate D2E/DX2 analytically  !
 ! A21   A(10,11,25)           112.596          calculate D2E/DX2 analytically  !
 ! A22   A(10,11,26)           107.4926         calculate D2E/DX2 analytically  !
 ! A23   A(12,11,25)           109.9452         calculate D2E/DX2 analytically  !
 ! A24   A(12,11,26)           108.5464         calculate D2E/DX2 analytically  !
 ! A25   A(25,11,26)           107.3519         calculate D2E/DX2 analytically  !
 ! A26   A(11,12,13)           121.6126         calculate D2E/DX2 analytically  !
 ! A27   A(11,12,17)           119.7545         calculate D2E/DX2 analytically  !
 ! A28   A(13,12,17)           118.5784         calculate D2E/DX2 analytically  !
 ! A29   A(12,13,14)           120.6321         calculate D2E/DX2 analytically  !
 ! A30   A(12,13,27)           120.4253         calculate D2E/DX2 analytically  !
 ! A31   A(14,13,27)           118.9417         calculate D2E/DX2 analytically  !
 ! A32   A(13,14,15)           120.1191         calculate D2E/DX2 analytically  !
 ! A33   A(13,14,28)           119.9284         calculate D2E/DX2 analytically  !
 ! A34   A(15,14,28)           119.9524         calculate D2E/DX2 analytically  !
 ! A35   A(14,15,16)           119.8821         calculate D2E/DX2 analytically  !
 ! A36   A(14,15,29)           120.0531         calculate D2E/DX2 analytically  !
 ! A37   A(16,15,29)           120.0645         calculate D2E/DX2 analytically  !
 ! A38   A(15,16,17)           120.0558         calculate D2E/DX2 analytically  !
 ! A39   A(15,16,30)           119.9546         calculate D2E/DX2 analytically  !
 ! A40   A(17,16,30)           119.9895         calculate D2E/DX2 analytically  !
 ! A41   A(12,17,16)           120.6968         calculate D2E/DX2 analytically  !
 ! A42   A(12,17,31)           120.4277         calculate D2E/DX2 analytically  !
 ! A43   A(16,17,31)           118.8748         calculate D2E/DX2 analytically  !
 ! A44   A(1,18,19)            120.6233         calculate D2E/DX2 analytically  !
 ! A45   A(1,18,32)            120.4194         calculate D2E/DX2 analytically  !
 ! A46   A(19,18,32)           118.9563         calculate D2E/DX2 analytically  !
 ! A47   A(18,19,20)           120.1218         calculate D2E/DX2 analytically  !
 ! A48   A(18,19,33)           119.9225         calculate D2E/DX2 analytically  !
 ! A49   A(20,19,33)           119.9557         calculate D2E/DX2 analytically  !
 ! A50   A(19,20,21)           119.8811         calculate D2E/DX2 analytically  !
 ! A51   A(19,20,34)           120.0518         calculate D2E/DX2 analytically  !
 ! A52   A(21,20,34)           120.0667         calculate D2E/DX2 analytically  !
 ! A53   A(20,21,22)           120.0634         calculate D2E/DX2 analytically  !
 ! A54   A(20,21,35)           119.9534         calculate D2E/DX2 analytically  !
 ! A55   A(22,21,35)           119.9831         calculate D2E/DX2 analytically  !
 ! A56   A(1,22,21)            120.689          calculate D2E/DX2 analytically  !
 ! A57   A(1,22,36)            120.433          calculate D2E/DX2 analytically  !
 ! A58   A(21,22,36)           118.8773         calculate D2E/DX2 analytically  !
 ! D1    D(18,1,2,3)           149.6465         calculate D2E/DX2 analytically  !
 ! D2    D(18,1,2,23)           31.8537         calculate D2E/DX2 analytically  !
 ! D3    D(18,1,2,24)          -85.3607         calculate D2E/DX2 analytically  !
 ! D4    D(22,1,2,3)           -33.0816         calculate D2E/DX2 analytically  !
 ! D5    D(22,1,2,23)         -150.8744         calculate D2E/DX2 analytically  !
 ! D6    D(22,1,2,24)           91.9112         calculate D2E/DX2 analytically  !
 ! D7    D(2,1,18,19)          179.4493         calculate D2E/DX2 analytically  !
 ! D8    D(2,1,18,32)           -0.9247         calculate D2E/DX2 analytically  !
 ! D9    D(22,1,18,19)           2.1454         calculate D2E/DX2 analytically  !
 ! D10   D(22,1,18,32)        -178.2286         calculate D2E/DX2 analytically  !
 ! D11   D(2,1,22,21)         -179.3352         calculate D2E/DX2 analytically  !
 ! D12   D(2,1,22,36)            0.977          calculate D2E/DX2 analytically  !
 ! D13   D(18,1,22,21)          -1.9823         calculate D2E/DX2 analytically  !
 ! D14   D(18,1,22,36)         178.3299         calculate D2E/DX2 analytically  !
 ! D15   D(1,2,3,4)             59.2941         calculate D2E/DX2 analytically  !
 ! D16   D(23,2,3,4)           177.7303         calculate D2E/DX2 analytically  !
 ! D17   D(24,2,3,4)           -64.2099         calculate D2E/DX2 analytically  !
 ! D18   D(2,3,4,5)              0.0004         calculate D2E/DX2 analytically  !
 ! D19   D(2,3,4,6)            178.8514         calculate D2E/DX2 analytically  !
 ! D20   D(3,4,6,7)           -179.294          calculate D2E/DX2 analytically  !
 ! D21   D(5,4,6,7)             -0.4797         calculate D2E/DX2 analytically  !
 ! D22   D(4,6,7,8)            178.3141         calculate D2E/DX2 analytically  !
 ! D23   D(6,7,8,9)             29.6471         calculate D2E/DX2 analytically  !
 ! D24   D(6,7,8,10)          -149.1785         calculate D2E/DX2 analytically  !
 ! D25   D(7,8,10,11)          178.8631         calculate D2E/DX2 analytically  !
 ! D26   D(9,8,10,11)            0.0002         calculate D2E/DX2 analytically  !
 ! D27   D(8,10,11,12)         -60.706          calculate D2E/DX2 analytically  !
 ! D28   D(8,10,11,25)         175.7412         calculate D2E/DX2 analytically  !
 ! D29   D(8,10,11,26)          57.7159         calculate D2E/DX2 analytically  !
 ! D30   D(10,11,12,13)         90.3528         calculate D2E/DX2 analytically  !
 ! D31   D(10,11,12,17)        -92.3711         calculate D2E/DX2 analytically  !
 ! D32   D(25,11,12,13)       -144.582          calculate D2E/DX2 analytically  !
 ! D33   D(25,11,12,17)         32.694          calculate D2E/DX2 analytically  !
 ! D34   D(26,11,12,13)        -27.4272         calculate D2E/DX2 analytically  !
 ! D35   D(26,11,12,17)        149.8489         calculate D2E/DX2 analytically  !
 ! D36   D(11,12,13,14)        179.4387         calculate D2E/DX2 analytically  !
 ! D37   D(11,12,13,27)         -0.9225         calculate D2E/DX2 analytically  !
 ! D38   D(17,12,13,14)          2.1316         calculate D2E/DX2 analytically  !
 ! D39   D(17,12,13,27)       -178.2296         calculate D2E/DX2 analytically  !
 ! D40   D(11,12,17,16)       -179.3175         calculate D2E/DX2 analytically  !
 ! D41   D(11,12,17,31)          0.9741         calculate D2E/DX2 analytically  !
 ! D42   D(13,12,17,16)         -1.959          calculate D2E/DX2 analytically  !
 ! D43   D(13,12,17,31)        178.3326         calculate D2E/DX2 analytically  !
 ! D44   D(12,13,14,15)         -0.8837         calculate D2E/DX2 analytically  !
 ! D45   D(12,13,14,28)        179.0849         calculate D2E/DX2 analytically  !
 ! D46   D(27,13,14,15)        179.4723         calculate D2E/DX2 analytically  !
 ! D47   D(27,13,14,28)         -0.5592         calculate D2E/DX2 analytically  !
 ! D48   D(13,14,15,16)         -0.5827         calculate D2E/DX2 analytically  !
 ! D49   D(13,14,15,29)        179.6388         calculate D2E/DX2 analytically  !
 ! D50   D(28,14,15,16)        179.4488         calculate D2E/DX2 analytically  !
 ! D51   D(28,14,15,29)         -0.3297         calculate D2E/DX2 analytically  !
 ! D52   D(14,15,16,17)          0.7553         calculate D2E/DX2 analytically  !
 ! D53   D(14,15,16,30)       -179.3555         calculate D2E/DX2 analytically  !
 ! D54   D(29,15,16,17)       -179.4662         calculate D2E/DX2 analytically  !
 ! D55   D(29,15,16,30)          0.423          calculate D2E/DX2 analytically  !
 ! D56   D(15,16,17,12)          0.535          calculate D2E/DX2 analytically  !
 ! D57   D(15,16,17,31)       -179.7521         calculate D2E/DX2 analytically  !
 ! D58   D(30,16,17,12)       -179.3542         calculate D2E/DX2 analytically  !
 ! D59   D(30,16,17,31)          0.3587         calculate D2E/DX2 analytically  !
 ! D60   D(1,18,19,20)          -0.8854         calculate D2E/DX2 analytically  !
 ! D61   D(1,18,19,33)         179.0824         calculate D2E/DX2 analytically  !
 ! D62   D(32,18,19,20)        179.4831         calculate D2E/DX2 analytically  !
 ! D63   D(32,18,19,33)         -0.5491         calculate D2E/DX2 analytically  !
 ! D64   D(18,19,20,21)         -0.5834         calculate D2E/DX2 analytically  !
 ! D65   D(18,19,20,34)        179.6302         calculate D2E/DX2 analytically  !
 ! D66   D(33,19,20,21)        179.4489         calculate D2E/DX2 analytically  !
 ! D67   D(33,19,20,34)         -0.3376         calculate D2E/DX2 analytically  !
 ! D68   D(19,20,21,22)          0.7466         calculate D2E/DX2 analytically  !
 ! D69   D(19,20,21,35)       -179.356          calculate D2E/DX2 analytically  !
 ! D70   D(34,20,21,22)       -179.467          calculate D2E/DX2 analytically  !
 ! D71   D(34,20,21,35)          0.4304         calculate D2E/DX2 analytically  !
 ! D72   D(20,21,22,1)           0.5559         calculate D2E/DX2 analytically  !
 ! D73   D(20,21,22,36)       -179.7515         calculate D2E/DX2 analytically  !
 ! D74   D(35,21,22,1)        -179.3414         calculate D2E/DX2 analytically  !
 ! D75   D(35,21,22,36)          0.3511         calculate D2E/DX2 analytically  !
 --------------------------------------------------------------------------------
 Trust Radius=3.00D-01 FncErr=1.00D-07 GrdErr=1.00D-06 EigMax=2.50D+02 EigMin=1.00D-04
 Number of steps in this run=    180 maximum allowed number of steps=    216.
 GradGradGradGradGradGradGradGradGradGradGradGradGradGradGradGradGradGrad

                          Input orientation:                          
 ---------------------------------------------------------------------
 Center     Atomic      Atomic             Coordinates (Angstroms)
 Number     Number       Type             X           Y           Z
 ---------------------------------------------------------------------
      1          6           0       -3.347540   -0.711170   -1.443580
      2          6           0       -3.057820    0.028420   -0.157650
      3          8           0       -3.649910    1.334880   -0.180500
      4          6           0       -5.000100    1.396100   -0.337600
      5          8           0       -5.725160    0.414760   -0.458450
      6          7           0       -5.396500    2.715300   -0.310600
      7          7           0       -6.637000    2.845200   -0.436400
      8          6           0       -7.036800    4.161500   -0.372200
      9          8           0       -6.384760    5.144080   -0.710490
     10          8           0       -8.287940    4.220930    0.160270
     11          6           0       -8.860030    5.525440    0.327130
     12          6           0       -8.015810    6.365130    1.258350
     13          6           0       -6.976720    7.176020    0.778610
     14          6           0       -6.216950    7.952620    1.656270
     15          6           0       -6.497840    7.942600    3.020770
     16          6           0       -7.546190    7.165700    3.507710
     17          6           0       -8.304310    6.385990    2.631830
     18          6           0       -2.453470   -1.659340   -1.962790
     19          6           0       -2.746330   -2.339740   -3.147000
     20          6           0       -3.943300   -2.094740   -3.816400
     21          6           0       -4.854170   -1.178370   -3.296370
     22          6           0       -4.561350   -0.494800   -2.114360
     23          1           0       -1.973780    0.159070   -0.066740
     24          1           0       -3.388540   -0.568190    0.699710
     25          1           0       -9.892750    5.488780    0.689970
     26          1           0       -8.876420    6.006450   -0.657690
     27          1           0       -6.746250    7.204990   -0.284620
     28          1           0       -5.404700    8.565510    1.273850
     29          1           0       -5.902020    8.542960    3.703690
     30          1           0       -7.773070    7.165130    4.570890
     31          1           0       -9.121670    5.789390    3.032500
     32          1           0       -1.517000   -1.871580   -1.451100
     33          1           0       -2.038540   -3.061310   -3.547050
     34          1           0       -4.167340   -2.620400   -4.740960
     35          1           0       -5.793130   -0.994040   -3.812180
     36          1           0       -5.288590    0.213790   -1.723140
 ---------------------------------------------------------------------
                    Distance matrix (angstroms):
                    1          2          3          4          5
     1  C    0.000000
     2  C    1.511472   0.000000
     3  O    2.423452   1.434549   0.000000
     4  C    2.897367   2.382306   1.360677   0.000000
     5  O    2.809142   2.711907   2.287037   1.226110   0.000000
     6  N    4.150009   3.565409   2.230036   1.377734   2.328596
     7  N    4.948002   4.563166   3.356972   2.188400   2.595954
     8  C    6.204950   5.741138   4.415603   3.434644   3.970630
     9  O    6.636722   6.127327   4.719142   4.012940   4.781743
    10  O    7.162786   6.710616   5.473274   4.363190   4.630074
    11  C    8.509892   8.007364   6.705508   5.691430   6.046784
    12  C    8.897595   8.169493   6.814308   6.027671   6.603134
    13  C    8.961966   8.205032   6.790175   6.209704   6.986512
    14  C    9.638664   8.721431   7.331978   6.960186   7.844312
    15  C   10.234381   9.196213   7.875328   7.508564   8.328888
    16  C   10.207302   9.193535   7.923532   7.386289   8.038766
    17  C    9.568083   8.702043   7.422018   6.680892   7.201211
    18  C    1.402842   2.544072   3.684207   4.296776   4.155585
    19  C    2.432146   3.826411   4.808265   5.189288   4.867135
    20  C    2.810600   4.321844   5.006809   5.040321   4.555046
    21  C    2.433319   3.812450   4.180348   3.924731   3.369047
    22  C    1.403601   2.522514   2.813941   2.631517   2.218962
    23  H    2.130780   1.095663   2.050581   3.280582   3.780432
    24  H    2.148445   1.095621   2.112998   2.744371   2.786991
    25  H    9.264512   8.789213   7.548884   6.460956   6.665835
    26  H    8.735706   8.357212   7.026214   6.031885   6.421615
    27  H    8.692526   8.069931   6.637496   6.065892   6.868775
    28  H    9.882971   8.968776   7.581321   7.359410   8.338962
    29  H   10.893056   9.772247   8.492076   8.259727   9.133582
    30  H   10.853353   9.773705   8.577177   8.066247   8.663469
    31  H    9.779220   8.951877   7.752818   6.902602   7.253252
    32  H    2.167368   2.767154   4.055258   4.904039   4.890942
    33  H    3.414854   4.698233   5.766859   6.240185   5.934112
    34  H    3.897428   5.408698   6.058859   6.017918   5.475298
    35  H    3.416313   4.677920   4.817298   4.291197   3.638247
    36  H    2.168267   2.731567   2.514330   1.844127   1.352931
                    6          7          8          9         10
     6  N    0.000000
     7  N    1.253611   0.000000
     8  C    2.187664   1.377174   0.000000
     9  O    2.652460   2.328862   1.226809   0.000000
    10  O    3.293792   2.230303   1.361032   2.287471   0.000000
    11  C    4.505511   3.564902   2.381924   2.710914   1.434181
    12  C    4.758534   4.142849   2.910866   2.833305   2.424341
    13  C    4.856078   4.510838   3.227275   2.587782   3.291534
    14  C    5.654311   5.535472   4.377149   3.676630   4.522447
    15  C    6.295684   6.160753   5.108761   4.665491   5.023718
    16  C    6.245536   5.920249   4.933396   4.819655   4.519648
    17  C    5.530571   4.973043   3.947041   4.049459   3.285782
    18  C    5.525272   6.334246   7.577537   7.956747   8.551374
    19  C    6.373539   7.026256   8.268843   8.670774   9.202710
    20  C    6.126900   6.563797   7.782853   8.246691   8.635826
    21  C    4.936559   5.248526   6.467523   7.000204   7.272660
    22  C    3.775681   4.275450   5.553747   6.090373   6.426471
    23  H    4.278877   5.394216   6.461186   6.687412   7.511249
    24  H    3.979188   4.847109   6.068670   6.602729   6.872466
    25  H    5.376764   4.342480   3.323602   3.792901   2.112686
    26  H    4.802289   3.880396   2.620982   2.637203   2.050231
    27  H    4.688264   4.363799   3.058582   2.135273   3.388119
    28  H    6.060982   6.096348   4.976800   4.074838   5.331839
    29  H    7.094483   7.081314   6.090796   5.591995   6.076873
    30  H    7.019830   6.710097   5.830783   5.822802   5.327943
    31  H    5.873946   5.184121   4.311460   4.681568   3.377111
    32  H    6.114796   7.035057   8.248047   8.571060   9.249909
    33  H    7.424266   8.106099   9.339768   9.708971  10.287383
    34  H    7.043339   7.382496   8.562361   9.024898   9.370443
    35  H    5.116403   5.181483   6.321374   6.902682   7.014296
    36  H    2.874798   3.224628   4.523902   5.151195   5.347944
                   11         12         13         14         15
    11  C    0.000000
    12  C    1.511608   0.000000
    13  C    2.544623   1.402641   0.000000
    14  C    3.826707   2.431946   1.396655   0.000000
    15  C    4.321840   2.810475   2.417489   1.393147   0.000000
    16  C    3.812180   2.433326   2.787901   2.411214   1.392739
    17  C    2.522105   1.403608   2.412689   2.786237   2.416121
    18  C    9.894888  10.281415  10.297507  10.938517  11.549461
    19  C   10.550259  11.088250  11.129075  11.876417  12.563508
    20  C    9.970467  10.672761  10.782520  11.664864  12.410510
    21  C    8.609166   9.361935   9.534491  10.476678  11.216060
    22  C    7.789917   8.388510   8.546623   9.397743  10.065251
    23  H    8.739193   8.762258   8.659192   9.039506   9.517519
    24  H    8.198070   8.354318   8.535458   9.028794   9.353535
    25  H    1.095220   2.148010   3.370143   4.529431   4.793670
    26  H    1.096134   2.130847   2.653246   4.026757   4.789299
    27  H    2.768247   2.167465   1.088308   2.146197   3.395788
    28  H    4.698682   3.414646   2.155735   1.087028   2.152836
    29  H    5.408919   3.897530   3.402881   2.153976   1.087112
    30  H    4.677560   3.416408   3.875007   3.396566   2.152567
    31  H    2.730779   2.168412   3.406402   3.874399   3.394250
    32  H   10.573462  10.836007  10.799964  11.325201  11.879584
    33  H   11.630747  12.152259  12.161410  12.877900  13.568627
    34  H   10.679962  11.469184  11.590001  12.526540  13.313627
    35  H    8.309235   9.209124   9.445958  10.494108  11.271617
    36  H    6.721043   7.359755   7.588227   8.495396   9.148851
                   16         17         18         19         20
    16  C    0.000000
    17  C    1.396374   0.000000
    18  C   11.564752  10.957655   0.000000
    19  C   12.556959  11.850079   1.396805   0.000000
    20  C   12.344195  11.511770   2.417651   1.393147   0.000000
    21  C   11.098017  10.211100   2.788033   2.411241   1.392785
    22  C    9.959930   9.158676   2.412941   2.786476   2.416347
    23  H    9.639570   9.280756   2.670529   4.040902   4.797772
    24  H    9.218675   8.732611   3.025536   4.283457   4.799309
    25  H    4.032129   2.664385  10.652495  11.272949  10.640165
    26  H    4.523708   3.360402  10.085728  10.650519   9.997120
    27  H    3.875979   3.406463   9.991024  10.737525  10.335133
    28  H    3.396407   3.873262  11.123541  12.063802  11.903246
    29  H    2.153729   3.401823  12.169158  13.240978  13.173800
    30  H    1.087118   2.156207  12.200754  13.235426  13.067477
    31  H    2.145272   1.088368  11.175929  12.038020  11.656863
    32  H   11.942084  11.442262   1.088048   2.146277   3.395788
    33  H   13.590275  12.910845   2.155822   1.087046   2.152886
    34  H   13.237256  12.352636   3.402825   2.153775   1.086887
    35  H   11.101143  10.114155   3.875074   3.396522   2.152540
    36  H    8.988192   8.133657   3.406458   3.874400   3.394238
                   21         22         23         24         25
    21  C    0.000000
    22  C    1.396481   0.000000
    23  H    4.529448   3.363898   0.000000
    24  H    4.299889   3.049567   1.765757   0.000000
    25  H    9.259000   8.490661   9.575411   8.887729   0.000000
    26  H    8.646546   7.937756   9.065733   8.670943   1.765530
    27  H    9.106664   8.210268   8.512869   8.524403   3.714252
    28  H   10.776511   9.709811   9.178051   9.371180   5.472639
    29  H   12.025102  10.831815   9.996841   9.917385   5.859731
    30  H   11.833332  10.662187  10.209028   9.696101   4.729137
    31  H   10.335174   9.315457   9.612394   8.872965   2.484427
    32  H    3.875857   3.406392   2.499728   3.134880  11.353954
    33  H    3.396480   3.873518   4.742109   5.106184  12.359004
    34  H    2.153608   3.401830   5.863914   5.866770  11.315216
    35  H    1.087053   2.156181   5.472241   5.130356   8.893998
    36  H    2.145200   1.088132   3.706025   3.176773   7.405870
                   26         27         28         29         30
    26  H    0.000000
    27  H    2.472510   0.000000
    28  H    4.725725   2.465684   0.000000
    29  H    5.856840   4.290630   2.480314   0.000000
    30  H    5.467904   4.963056   4.294265   2.480177   0.000000
    31  H    3.704695   4.318545   4.961407   4.289381   2.465365
    32  H   10.809899  10.539917  11.466142  12.420262  12.532554
    33  H   11.718757  11.755973  13.029008  14.218256  14.260640
    34  H   10.642888  11.092702  12.760626  14.104674  13.981003
    35  H    8.274318   8.976425  10.835293  12.143086  11.864572
    36  H    6.896566   7.284984   8.873931   9.960013   9.700958
                   31         32         33         34         35
    31  H    0.000000
    32  H   11.688633   0.000000
    33  H   13.107101   2.465860   0.000000
    34  H   12.477846   4.290479   2.480244   0.000000
    35  H   10.195281   4.962868   4.294281   2.480095   0.000000
    36  H    8.270183   4.318294   4.961426   4.289181   2.465259
                   36
    36  H    0.000000
 Stoichiometry    C16H14N2O4
 Framework group  C1[X(C16H14N2O4)]
 Deg. of freedom   102
 Full point group                 C1      NOp   1
 Largest Abelian subgroup         C1      NOp   1
 Largest concise Abelian subgroup C1      NOp   1
                         Standard orientation:                         
 ---------------------------------------------------------------------
 Center     Atomic      Atomic             Coordinates (Angstroms)
 Number     Number       Type             X           Y           Z
 ---------------------------------------------------------------------
      1          6           0       -4.340125    0.849215   -0.134261
      2          6           0       -3.321224    1.900633   -0.509638
      3          8           0       -2.023146    1.548796   -0.010505
      4          6           0       -1.499124    0.367653   -0.436819
      5          8           0       -2.064433   -0.398290   -1.209542
      6          7           0       -0.248154    0.204845    0.117002
      7          7           0        0.301309   -0.861699   -0.246476
      8          6           0        1.566527   -1.006327    0.277846
      9          8           0        1.973483   -0.562062    1.346525
     10          8           0        2.332668   -1.712975   -0.597417
     11          6           0        3.699051   -1.940328   -0.225687
     12          6           0        4.433355   -0.629770   -0.057778
     13          6           0        4.487131    0.029655    1.179019
     14          6           0        5.181379    1.234028    1.313746
     15          6           0        5.845293    1.784409    0.219599
     16          6           0        5.826038    1.125282   -1.007146
     17          6           0        5.129313   -0.077071   -1.144185
     18          6           0       -5.687297    1.175957    0.080996
     19          6           0       -6.614648    0.186592    0.416020
     20          6           0       -6.211304   -1.142682    0.521868
     21          6           0       -4.883176   -1.486091    0.281045
     22          6           0       -3.954113   -0.497670   -0.050653
     23          1           0       -3.608959    2.848461   -0.041334
     24          1           0       -3.326679    2.056536   -1.594097
     25          1           0        4.229674   -2.576801   -0.941823
     26          1           0        3.695771   -2.463999    0.737260
     27          1           0        3.982534   -0.387462    2.048392
     28          1           0        5.203171    1.742969    2.274024
     29          1           0        6.380432    2.724887    0.324191
     30          1           0        6.352473    1.548393   -1.859008
     31          1           0        5.130410   -0.577957   -2.110445
     32          1           0       -6.024658    2.206816   -0.004821
     33          1           0       -7.652805    0.454707    0.594942
     34          1           0       -6.932605   -1.910765    0.788509
     35          1           0       -4.569402   -2.524380    0.353055
     36          1           0       -2.922470   -0.788068   -0.238837
 ---------------------------------------------------------------------
 Rotational constants (GHZ):           0.8876958           0.0973897           0.0929684
 Standard basis: 6-31G(d) (6D, 7F)
 There are   358 symmetry adapted cartesian basis functions of A   symmetry.
 There are   358 symmetry adapted basis functions of A   symmetry.
   358 basis functions,   672 primitive gaussians,   358 cartesian basis functions
    78 alpha electrons       78 beta electrons
       nuclear repulsion energy      1630.2654911006 Hartrees.
 NAtoms=   36 NActive=   36 NUniq=   36 SFac= 1.00D+00 NAtFMM=   60 NAOKFM=F Big=F
 Integral buffers will be    131072 words long.
 Raffenetti 2 integral format.
 Two-electron integral symmetry is turned on.
 One-electron integrals computed using PRISM.
 NBasis=   358 RedAO= T EigKep=  4.46D-04  NBF=   358
 NBsUse=   358 1.00D-06 EigRej= -1.00D+00 NBFU=   358
 ExpMin= 1.61D-01 ExpMax= 5.48D+03 ExpMxC= 8.25D+02 IAcc=3 IRadAn=         5 AccDes= 0.00D+00
 Harris functional with IExCor=  402 and IRadAn=       5 diagonalized for initial guess.
 HarFok:  IExCor=  402 AccDes= 0.00D+00 IRadAn=         5 IDoV= 1 UseB2=F ITyADJ=14
 ICtDFT=  3500011 ScaDFX=  1.000000  1.000000  1.000000  1.000000
 FoFCou: FMM=F IPFlag=           0 FMFlag=      100000 FMFlg1=           0
         NFxFlg=           0 DoJE=T BraDBF=F KetDBF=T FulRan=T
         wScrn=  0.000000 ICntrl=       500 IOpCl=  0 I1Cent=   200000004 NGrid=           0
         NMat0=    1 NMatS0=      1 NMatT0=    0 NMatD0=    1 NMtDS0=    0 NMtDT0=    0
 Petite list used in FoFCou.
 Gradient too large for Newton-Raphson -- use scaled steepest descent instead.
     Minimum is close to point  2 DX=  3.03D-02 DF= -3.71D-03 DXR=  9.16D-02 DFR=  8.46D-03 which will be used.
 Gradient too large for Newton-Raphson -- use scaled steepest descent instead.
     Minimum is close to point  3 DX=  8.52D-03 DF= -2.07D-05 DXR=  1.68D-02 DFR=  2.78D-04 which will be used.
 Gradient too large for Newton-Raphson -- use scaled steepest descent instead.
     Accept linear search using points  1 and  2.
 Gradient too large for Newton-Raphson -- use scaled steepest descent instead.
     Accept linear search using points  2 and  3.
 Gradient too large for Newton-Raphson -- use scaled steepest descent instead.
     Accept linear search using points  1 and  2.
 Gradient too large for Newton-Raphson -- use scaled steepest descent instead.
     Accept linear search using points  1 and  2.
 Gradient too large for Newton-Raphson -- use scaled steepest descent instead.
     Minimum is close to point  2 DX=  2.87D-02 DF= -2.64D-07 DXR=  6.69D-02 DFR=  4.50D-03 which will be used.
 LinEq1:  Iter=  0 NonCon=     1 RMS=6.89D-05 Max=5.99D-03 NDo=     1
 AX will form     1 AO Fock derivatives at one time.
 LinEq1:  Iter=  1 NonCon=     1 RMS=6.71D-05 Max=3.44D-03 NDo=     1
 LinEq1:  Iter=  2 NonCon=     1 RMS=2.23D-05 Max=2.01D-03 NDo=     1
 LinEq1:  Iter=  3 NonCon=     1 RMS=2.26D-05 Max=1.21D-03 NDo=     1
 LinEq1:  Iter=  4 NonCon=     1 RMS=1.05D-05 Max=6.52D-04 NDo=     1
 LinEq1:  Iter=  5 NonCon=     1 RMS=9.67D-06 Max=5.69D-04 NDo=     1
 LinEq1:  Iter=  6 NonCon=     1 RMS=7.51D-06 Max=4.02D-04 NDo=     1
 LinEq1:  Iter=  7 NonCon=     1 RMS=5.27D-06 Max=1.99D-04 NDo=     1
 LinEq1:  Iter=  8 NonCon=     1 RMS=4.60D-06 Max=1.58D-04 NDo=     1
 LinEq1:  Iter=  9 NonCon=     1 RMS=2.44D-06 Max=1.09D-04 NDo=     1
 LinEq1:  Iter= 10 NonCon=     1 RMS=1.94D-06 Max=7.97D-05 NDo=     1
 LinEq1:  Iter= 11 NonCon=     1 RMS=1.01D-06 Max=3.78D-05 NDo=     1
 LinEq1:  Iter= 12 NonCon=     1 RMS=5.84D-07 Max=2.25D-05 NDo=     1
 LinEq1:  Iter= 13 NonCon=     1 RMS=2.60D-07 Max=9.50D-06 NDo=     1
 LinEq1:  Iter= 14 NonCon=     1 RMS=1.68D-07 Max=5.82D-06 NDo=     1
 LinEq1:  Iter= 15 NonCon=     1 RMS=1.07D-07 Max=4.62D-06 NDo=     1
 LinEq1:  Iter= 16 NonCon=     1 RMS=5.98D-08 Max=1.93D-06 NDo=     1
 LinEq1:  Iter= 17 NonCon=     1 RMS=2.98D-08 Max=1.38D-06 NDo=     1
 LinEq1:  Iter= 18 NonCon=     1 RMS=1.16D-08 Max=3.65D-07 NDo=     1
 LinEq1:  Iter= 19 NonCon=     1 RMS=6.60D-09 Max=3.20D-07 NDo=     1
 LinEq1:  Iter= 20 NonCon=     0 RMS=4.39D-09 Max=1.61D-07 NDo=     1
 Linear equations converged to 2.090D-08 2.090D-07 after    20 iterations.
     Accept linear search using points  1 and  2.
     Minimum is close to point  2 DX= -8.89D-04 DF= -3.50D-11 DXR=  8.90D-04 DFR=  7.91D-07 which will be used.
 LinEq1:  Iter=  0 NonCon=     1 RMS=1.02D-06 Max=9.08D-05 NDo=     1
 LinEq1:  Iter=  1 NonCon=     1 RMS=6.26D-07 Max=3.57D-05 NDo=     1
 LinEq1:  Iter=  2 NonCon=     1 RMS=5.83D-07 Max=3.73D-05 NDo=     1
 LinEq1:  Iter=  3 NonCon=     1 RMS=3.14D-07 Max=1.15D-05 NDo=     1
 LinEq1:  Iter=  4 NonCon=     1 RMS=2.50D-07 Max=1.19D-05 NDo=     1
 LinEq1:  Iter=  5 NonCon=     1 RMS=2.02D-07 Max=6.79D-06 NDo=     1
 LinEq1:  Iter=  6 NonCon=     1 RMS=1.67D-07 Max=7.66D-06 NDo=     1
 LinEq1:  Iter=  7 NonCon=     1 RMS=1.22D-07 Max=5.53D-06 NDo=     1
 LinEq1:  Iter=  8 NonCon=     1 RMS=1.06D-07 Max=5.02D-06 NDo=     1
 LinEq1:  Iter=  9 NonCon=     1 RMS=6.73D-08 Max=3.48D-06 NDo=     1
 LinEq1:  Iter= 10 NonCon=     1 RMS=4.21D-08 Max=1.41D-06 NDo=     1
 LinEq1:  Iter= 11 NonCon=     1 RMS=3.03D-08 Max=1.18D-06 NDo=     1
 LinEq1:  Iter= 12 NonCon=     1 RMS=1.96D-08 Max=6.78D-07 NDo=     1
 LinEq1:  Iter= 13 NonCon=     1 RMS=9.21D-09 Max=3.28D-07 NDo=     1
 LinEq1:  Iter= 14 NonCon=     1 RMS=5.91D-09 Max=1.73D-07 NDo=     1
 LinEq1:  Iter= 15 NonCon=     1 RMS=2.90D-09 Max=9.57D-08 NDo=     1
 LinEq1:  Iter= 16 NonCon=     1 RMS=1.92D-09 Max=6.63D-08 NDo=     1
 LinEq1:  Iter= 17 NonCon=     1 RMS=9.72D-10 Max=2.83D-08 NDo=     1
 LinEq1:  Iter= 18 NonCon=     1 RMS=4.94D-10 Max=8.96D-09 NDo=     1
 LinEq1:  Iter= 19 NonCon=     1 RMS=3.41D-10 Max=1.02D-08 NDo=     1
 LinEq1:  Iter= 20 NonCon=     0 RMS=1.31D-10 Max=3.11D-09 NDo=     1
 Linear equations converged to 8.202D-10 8.202D-09 after    20 iterations.
 SCF Done:  E(RB3LYP) =  -1028.37563844     a.u. after   10 cycles
            Convg  =    0.5045D-08                    59 Fock formations.
              S**2 =  0.0000                  -V/T =  2.0087
 DoSCS=F DFT=T ScalE2(SS,OS)=  1.000000  1.000000
 Range of M.O.s used for correlation:     1   358
 NBasis=   358 NAE=    78 NBE=    78 NFC=     0 NFV=     0
 NROrb=    358 NOA=    78 NOB=    78 NVA=   280 NVB=   280

 **** Warning!!: The smallest alpha delta epsilon is  0.89369773D-01

 Symmetrizing basis deriv contribution to polar:
 IMax=3 JMax=2 DiffMx= 0.00D+00
 G2DrvN: will do    37 centers at a time, making    1 passes.
 Calling FoFCou, ICntrl=  3107 FMM=F I1Cent=   0 AccDes= 0.00D+00.
 End of G2Drv F.D. properties file   721 does not exist.
 End of G2Drv F.D. properties file   722 does not exist.
 End of G2Drv F.D. properties file   788 does not exist.
          IDoAtm=111111111111111111111111111111111111
          Differentiating once with respect to electric field.
                with respect to dipole field.
          Differentiating once with respect to nuclear coordinates.
 CalDSu exits because no D1Ps are significant.
          There are   111 degrees of freedom in the 1st order CPHF.  IDoFFX=6 NUNeed=     3.
    108 vectors produced by pass  0 Test12= 2.18D-14 1.00D-09 XBig12= 3.74D+02 1.01D+01.
 AX will form   108 AO Fock derivatives at one time.
    108 vectors produced by pass  1 Test12= 2.18D-14 1.00D-09 XBig12= 5.74D+01 1.62D+00.
    108 vectors produced by pass  2 Test12= 2.18D-14 1.00D-09 XBig12= 1.41D+00 1.46D-01.
    108 vectors produced by pass  3 Test12= 2.18D-14 1.00D-09 XBig12= 1.32D-02 1.11D-02.
    108 vectors produced by pass  4 Test12= 2.18D-14 1.00D-09 XBig12= 3.26D-05 5.32D-04.
     95 vectors produced by pass  5 Test12= 2.18D-14 1.00D-09 XBig12= 4.20D-08 1.66D-05.
     23 vectors produced by pass  6 Test12= 2.18D-14 1.00D-09 XBig12= 4.63D-11 4.65D-07.
      3 vectors produced by pass  7 Test12= 2.18D-14 1.00D-09 XBig12= 4.00D-14 1.56D-08.
 InvSVY:  IOpt=1 It=  1 EMax= 1.42D-14
 Solved reduced A of dimension   661 with   111 vectors.
 Isotropic polarizability for W=    0.000000      206.62 Bohr**3.
 End of Minotr F.D. properties file   721 does not exist.
 End of Minotr F.D. properties file   722 does not exist.
 End of Minotr F.D. properties file   788 does not exist.

 **********************************************************************

            Population analysis using the SCF density.

 **********************************************************************

 Orbital symmetries:
       Occupied  (A) (A) (A) (A) (A) (A) (A) (A) (A) (A) (A) (A)
                 (A) (A) (A) (A) (A) (A) (A) (A) (A) (A) (A) (A)
                 (A) (A) (A) (A) (A) (A) (A) (A) (A) (A) (A) (A)
                 (A) (A) (A) (A) (A) (A) (A) (A) (A) (A) (A) (A)
                 (A) (A) (A) (A) (A) (A) (A) (A) (A) (A) (A) (A)
                 (A) (A) (A) (A) (A) (A) (A) (A) (A) (A) (A) (A)
                 (A) (A) (A) (A) (A) (A)
       Virtual   (A) (A) (A) (A) (A) (A) (A) (A) (A) (A) (A) (A)
                 (A) (A) (A) (A) (A) (A) (A) (A) (A) (A) (A) (A)
                 (A) (A) (A) (A) (A) (A) (A) (A) (A) (A) (A) (A)
                 (A) (A) (A) (A) (A) (A) (A) (A) (A) (A) (A) (A)
                 (A) (A) (A) (A) (A) (A) (A) (A) (A) (A) (A) (A)
                 (A) (A) (A) (A) (A) (A) (A) (A) (A) (A) (A) (A)
                 (A) (A) (A) (A) (A) (A) (A) (A) (A) (A) (A) (A)
                 (A) (A) (A) (A) (A) (A) (A) (A) (A) (A) (A) (A)
                 (A) (A) (A) (A) (A) (A) (A) (A) (A) (A) (A) (A)
                 (A) (A) (A) (A) (A) (A) (A) (A) (A) (A) (A) (A)
                 (A) (A) (A) (A) (A) (A) (A) (A) (A) (A) (A) (A)
                 (A) (A) (A) (A) (A) (A) (A) (A) (A) (A) (A) (A)
                 (A) (A) (A) (A) (A) (A) (A) (A) (A) (A) (A) (A)
                 (A) (A) (A) (A) (A) (A) (A) (A) (A) (A) (A) (A)
                 (A) (A) (A) (A) (A) (A) (A) (A) (A) (A) (A) (A)
                 (A) (A) (A) (A) (A) (A) (A) (A) (A) (A) (A) (A)
                 (A) (A) (A) (A) (A) (A) (A) (A) (A) (A) (A) (A)
                 (A) (A) (A) (A) (A) (A) (A) (A) (A) (A) (A) (A)
                 (A) (A) (A) (A) (A) (A) (A) (A) (A) (A) (A) (A)
                 (A) (A) (A) (A) (A) (A) (A) (A) (A) (A) (A) (A)
                 (A) (A) (A) (A) (A) (A) (A) (A) (A) (A) (A) (A)
                 (A) (A) (A) (A) (A) (A) (A) (A) (A) (A) (A) (A)
                 (A) (A) (A) (A) (A) (A) (A) (A) (A) (A) (A) (A)
                 (A) (A) (A) (A)
 The electronic state is 1-A.
 Alpha  occ. eigenvalues --  -19.22532 -19.21406 -19.17761 -19.16008 -14.42912
 Alpha  occ. eigenvalues --  -14.42861 -10.36338 -10.35721 -10.26424 -10.26040
 Alpha  occ. eigenvalues --  -10.19888 -10.19800 -10.19401 -10.19089 -10.19032
 Alpha  occ. eigenvalues --  -10.19006 -10.18776 -10.18715 -10.18622 -10.18331
 Alpha  occ. eigenvalues --  -10.17988 -10.16347  -1.15428  -1.13056  -1.07652
 Alpha  occ. eigenvalues --   -1.05658  -1.02896  -0.86110  -0.85407  -0.83894
 Alpha  occ. eigenvalues --   -0.78441  -0.76697  -0.74366  -0.73897  -0.72102
 Alpha  occ. eigenvalues --   -0.69794  -0.64018  -0.60892  -0.60795  -0.60155
 Alpha  occ. eigenvalues --   -0.58337  -0.56191  -0.54838  -0.54353  -0.52592
 Alpha  occ. eigenvalues --   -0.51934  -0.50295  -0.49609  -0.48171  -0.47926
 Alpha  occ. eigenvalues --   -0.47113  -0.46598  -0.46204  -0.44902  -0.43543
 Alpha  occ. eigenvalues --   -0.43174  -0.42552  -0.42152  -0.41561  -0.40374
 Alpha  occ. eigenvalues --   -0.38912  -0.37978  -0.37036  -0.36515  -0.36075
 Alpha  occ. eigenvalues --   -0.35449  -0.35218  -0.33904  -0.33662  -0.32866
 Alpha  occ. eigenvalues --   -0.31370  -0.30413  -0.27293  -0.26685  -0.25097
 Alpha  occ. eigenvalues --   -0.24442  -0.24347  -0.23548
 Alpha virt. eigenvalues --   -0.14611  -0.01070  -0.00785   0.00054   0.00189
 Alpha virt. eigenvalues --    0.01360   0.04269   0.09295   0.09890   0.10861
 Alpha virt. eigenvalues --    0.11502   0.11635   0.12133   0.13438   0.13593
 Alpha virt. eigenvalues --    0.15346   0.15648   0.16375   0.16434   0.17667
 Alpha virt. eigenvalues --    0.18078   0.18955   0.19256   0.19985   0.21877
 Alpha virt. eigenvalues --    0.22252   0.24124   0.24542   0.25842   0.29433
 Alpha virt. eigenvalues --    0.29940   0.30644   0.31051   0.31806   0.32586
 Alpha virt. eigenvalues --    0.33112   0.33459   0.33605   0.34467   0.36859
 Alpha virt. eigenvalues --    0.41804   0.42085   0.46523   0.47357   0.48745
 Alpha virt. eigenvalues --    0.49831   0.50163   0.51076   0.51819   0.52715
 Alpha virt. eigenvalues --    0.53144   0.53885   0.54381   0.54871   0.55530
 Alpha virt. eigenvalues --    0.56128   0.56498   0.58016   0.58388   0.58898
 Alpha virt. eigenvalues --    0.59479   0.59587   0.60143   0.60339   0.61019
 Alpha virt. eigenvalues --    0.61345   0.61362   0.61583   0.62068   0.62238
 Alpha virt. eigenvalues --    0.62549   0.63683   0.64236   0.65482   0.65944
 Alpha virt. eigenvalues --    0.66283   0.68146   0.69284   0.69601   0.70102
 Alpha virt. eigenvalues --    0.71898   0.72826   0.73330   0.74707   0.76013
 Alpha virt. eigenvalues --    0.77953   0.79670   0.80657   0.81616   0.82592
 Alpha virt. eigenvalues --    0.83216   0.83644   0.83852   0.84140   0.84554
 Alpha virt. eigenvalues --    0.85035   0.85817   0.85905   0.87479   0.88352
 Alpha virt. eigenvalues --    0.89009   0.89834   0.90428   0.90936   0.91975
 Alpha virt. eigenvalues --    0.94148   0.94603   0.95061   0.95321   0.96671
 Alpha virt. eigenvalues --    0.97632   0.98627   0.99071   1.01084   1.03155
 Alpha virt. eigenvalues --    1.04996   1.05558   1.08248   1.09308   1.10610
 Alpha virt. eigenvalues --    1.12166   1.12349   1.13257   1.14674   1.15724
 Alpha virt. eigenvalues --    1.16153   1.18406   1.19253   1.20215   1.22880
 Alpha virt. eigenvalues --    1.23333   1.24667   1.26718   1.28332   1.28840
 Alpha virt. eigenvalues --    1.31665   1.32089   1.35855   1.37564   1.39329
 Alpha virt. eigenvalues --    1.40797   1.41171   1.43692   1.44009   1.44454
 Alpha virt. eigenvalues --    1.44589   1.45674   1.47810   1.47998   1.48264
 Alpha virt. eigenvalues --    1.49432   1.50626   1.50781   1.51672   1.53501
 Alpha virt. eigenvalues --    1.54197   1.55895   1.57745   1.61336   1.63332
 Alpha virt. eigenvalues --    1.66045   1.67585   1.70044   1.71700   1.72590
 Alpha virt. eigenvalues --    1.75162   1.76728   1.77738   1.78517   1.80393
 Alpha virt. eigenvalues --    1.81305   1.81902   1.83422   1.84529   1.84708
 Alpha virt. eigenvalues --    1.86506   1.88032   1.89241   1.90647   1.91117
 Alpha virt. eigenvalues --    1.91395   1.91687   1.92743   1.95135   1.96479
 Alpha virt. eigenvalues --    1.98046   1.98944   1.99708   2.01380   2.02902
 Alpha virt. eigenvalues --    2.04994   2.05193   2.06192   2.06935   2.09042
 Alpha virt. eigenvalues --    2.09764   2.11416   2.12657   2.13535   2.14525
 Alpha virt. eigenvalues --    2.14865   2.15504   2.16613   2.17537   2.19307
 Alpha virt. eigenvalues --    2.22536   2.23639   2.25399   2.25667   2.27291
 Alpha virt. eigenvalues --    2.29416   2.30947   2.32262   2.32422   2.34098
 Alpha virt. eigenvalues --    2.35017   2.37164   2.37792   2.40356   2.42127
 Alpha virt. eigenvalues --    2.45475   2.48074   2.49198   2.53116   2.57070
 Alpha virt. eigenvalues --    2.57481   2.58681   2.61786   2.62838   2.64442
 Alpha virt. eigenvalues --    2.65060   2.66144   2.67441   2.69450   2.69916
 Alpha virt. eigenvalues --    2.71722   2.72642   2.73485   2.74203   2.75199
 Alpha virt. eigenvalues --    2.76674   2.77165   2.78211   2.79977   2.80665
 Alpha virt. eigenvalues --    2.82924   2.88820   2.89933   2.93617   2.96334
 Alpha virt. eigenvalues --    3.04989   3.05557   3.08093   3.11107   3.22206
 Alpha virt. eigenvalues --    3.27407   3.40738   3.41992   3.80904   3.94120
 Alpha virt. eigenvalues --    4.00987   4.04441   4.09217   4.09876   4.11900
 Alpha virt. eigenvalues --    4.12508   4.15970   4.16648   4.23832   4.27303
 Alpha virt. eigenvalues --    4.30549   4.32023   4.35098   4.35439   4.38706
 Alpha virt. eigenvalues --    4.41582   4.44563   4.46024   4.70857   4.71885
          Condensed to atoms (all electrons):
               1          2          3          4          5          6
     1  C    4.796187   0.313137  -0.030148  -0.006020  -0.013696  -0.000207
     2  C    0.313137   5.029713   0.187738  -0.024059   0.019687   0.005183
     3  O   -0.030148   0.187738   8.185805   0.307692  -0.076036  -0.090201
     4  C   -0.006020  -0.024059   0.307692   4.356508   0.399821   0.278626
     5  O   -0.013696   0.019687  -0.076036   0.399821   8.335872  -0.072446
     6  N   -0.000207   0.005183  -0.090201   0.278626  -0.072446   6.937195
     7  N   -0.000007  -0.000114   0.002990  -0.062753  -0.000847   0.223313
     8  C    0.000001   0.000003  -0.000152   0.005460   0.000407  -0.048850
     9  O   -0.000000   0.000000   0.000003   0.000306  -0.000004  -0.000570
    10  O    0.000000  -0.000000   0.000000  -0.000195   0.000004   0.001921
    11  C    0.000000   0.000000  -0.000000   0.000003   0.000000  -0.000015
    12  C   -0.000000  -0.000000   0.000000  -0.000001  -0.000000   0.000064
    13  C    0.000000  -0.000000   0.000000  -0.000000   0.000000   0.000027
    14  C    0.000000  -0.000000  -0.000000  -0.000000  -0.000000   0.000000
    15  C   -0.000000   0.000000   0.000000   0.000000  -0.000000  -0.000000
    16  C   -0.000000   0.000000   0.000000   0.000000   0.000000   0.000000
    17  C    0.000000  -0.000000  -0.000000  -0.000000   0.000000  -0.000002
    18  C    0.536822  -0.059105   0.001905   0.000120  -0.000594  -0.000005
    19  C   -0.018290   0.005552  -0.000032  -0.000016  -0.000003  -0.000000
    20  C   -0.036717   0.000258  -0.000006  -0.000077  -0.000065  -0.000001
    21  C   -0.032608   0.008214   0.000023  -0.000073   0.003634  -0.000035
    22  C    0.551618  -0.062115  -0.002704   0.016378  -0.138370  -0.000845
    23  H   -0.039041   0.375058  -0.026153   0.003200   0.000190  -0.000040
    24  H   -0.035366   0.351023  -0.030919  -0.001498   0.003586  -0.000218
    25  H    0.000000  -0.000000   0.000000  -0.000000   0.000000   0.000001
    26  H   -0.000000  -0.000000  -0.000000  -0.000000   0.000000  -0.000008
    27  H    0.000000  -0.000000  -0.000000   0.000000  -0.000000  -0.000022
    28  H   -0.000000   0.000000   0.000000  -0.000000  -0.000000  -0.000000
    29  H   -0.000000   0.000000   0.000000  -0.000000   0.000000  -0.000000
    30  H    0.000000   0.000000  -0.000000  -0.000000   0.000000  -0.000000
    31  H    0.000000  -0.000000   0.000000  -0.000000   0.000000  -0.000000
    32  H   -0.051580  -0.008804   0.000008   0.000014  -0.000001   0.000000
    33  H    0.003873  -0.000152   0.000000   0.000000  -0.000000   0.000000
    34  H    0.000790   0.000011  -0.000000   0.000000   0.000002   0.000000
    35  H    0.004323  -0.000207   0.000001   0.000219   0.000176   0.000003
    36  H   -0.046762  -0.013837   0.002328  -0.032287  -0.037700  -0.010879
               7          8          9         10         11         12
     1  C   -0.000007   0.000001  -0.000000   0.000000   0.000000  -0.000000
     2  C   -0.000114   0.000003   0.000000  -0.000000   0.000000  -0.000000
     3  O    0.002990  -0.000152   0.000003   0.000000  -0.000000   0.000000
     4  C   -0.062753   0.005460   0.000306  -0.000195   0.000003  -0.000001
     5  O   -0.000847   0.000407  -0.000004   0.000004   0.000000  -0.000000
     6  N    0.223313  -0.048850  -0.000570   0.001921  -0.000015   0.000064
     7  N    6.941611   0.253902  -0.073183  -0.092418   0.004558  -0.001395
     8  C    0.253902   4.234413   0.512504   0.302615  -0.015503  -0.006787
     9  O   -0.073183   0.512504   8.079002  -0.077439   0.004449  -0.009952
    10  O   -0.092418   0.302615  -0.077439   8.220858   0.187995  -0.042242
    11  C    0.004558  -0.015503   0.004449   0.187995   4.993118   0.336749
    12  C   -0.001395  -0.006787  -0.009952  -0.042242   0.336749   4.762228
    13  C   -0.000026   0.001945  -0.015587  -0.002879  -0.050067   0.548366
    14  C    0.000006   0.000107   0.000103  -0.000057   0.005971  -0.026089
    15  C    0.000000  -0.000013   0.000011   0.000006   0.000390  -0.034469
    16  C   -0.000000  -0.000014   0.000004  -0.000039   0.005751  -0.024290
    17  C   -0.000044   0.000179   0.000072   0.001432  -0.053759   0.544907
    18  C    0.000000   0.000000  -0.000000   0.000000  -0.000000   0.000000
    19  C   -0.000000  -0.000000  -0.000000   0.000000  -0.000000   0.000000
    20  C    0.000000   0.000000  -0.000000  -0.000000  -0.000000  -0.000000
    21  C    0.000011  -0.000000   0.000000  -0.000000   0.000000  -0.000000
    22  C   -0.000293  -0.000004  -0.000000   0.000000  -0.000000   0.000000
    23  H    0.000000  -0.000000   0.000000   0.000000  -0.000000   0.000000
    24  H    0.000016  -0.000000   0.000000  -0.000000  -0.000000   0.000000
    25  H   -0.000064   0.003353   0.000171  -0.026725   0.368940  -0.033848
    26  H   -0.000255  -0.006786   0.005308  -0.035945   0.358915  -0.038815
    27  H    0.000076  -0.001543   0.007869   0.000419  -0.008367  -0.039262
    28  H   -0.000000   0.000008  -0.000043   0.000001  -0.000167   0.003926
    29  H    0.000000   0.000000   0.000000  -0.000000   0.000008   0.000640
    30  H   -0.000000   0.000000  -0.000000   0.000001  -0.000177   0.004042
    31  H    0.000001   0.000041  -0.000006   0.000358  -0.008020  -0.046982
    32  H    0.000000   0.000000   0.000000  -0.000000   0.000000  -0.000000
    33  H   -0.000000   0.000000  -0.000000  -0.000000  -0.000000   0.000000
    34  H   -0.000000  -0.000000   0.000000  -0.000000   0.000000  -0.000000
    35  H   -0.000005   0.000000   0.000000   0.000000   0.000000  -0.000000
    36  H    0.004108   0.000051  -0.000000   0.000001  -0.000000   0.000000
              13         14         15         16         17         18
     1  C    0.000000   0.000000  -0.000000  -0.000000   0.000000   0.536822
     2  C   -0.000000  -0.000000   0.000000   0.000000  -0.000000  -0.059105
     3  O    0.000000  -0.000000   0.000000   0.000000  -0.000000   0.001905
     4  C   -0.000000  -0.000000   0.000000   0.000000  -0.000000   0.000120
     5  O    0.000000  -0.000000  -0.000000   0.000000   0.000000  -0.000594
     6  N    0.000027   0.000000  -0.000000   0.000000  -0.000002  -0.000005
     7  N   -0.000026   0.000006   0.000000  -0.000000  -0.000044   0.000000
     8  C    0.001945   0.000107  -0.000013  -0.000014   0.000179   0.000000
     9  O   -0.015587   0.000103   0.000011   0.000004   0.000072  -0.000000
    10  O   -0.002879  -0.000057   0.000006  -0.000039   0.001432   0.000000
    11  C   -0.050067   0.005971   0.000390   0.005751  -0.053759  -0.000000
    12  C    0.548366  -0.026089  -0.034469  -0.024290   0.544907   0.000000
    13  C    4.921409   0.520463  -0.033495  -0.045046  -0.040599  -0.000000
    14  C    0.520463   4.884548   0.546263  -0.028427  -0.044976  -0.000000
    15  C   -0.033495   0.546263   4.845561   0.554107  -0.035693  -0.000000
    16  C   -0.045046  -0.028427   0.554107   4.859166   0.533244   0.000000
    17  C   -0.040599  -0.044976  -0.035693   0.533244   4.941792   0.000000
    18  C   -0.000000  -0.000000  -0.000000   0.000000   0.000000   4.957179
    19  C   -0.000000  -0.000000   0.000000   0.000000   0.000000   0.531917
    20  C   -0.000000  -0.000000   0.000000   0.000000   0.000000  -0.034357
    21  C    0.000000   0.000000  -0.000000  -0.000000  -0.000000  -0.050011
    22  C   -0.000000  -0.000000   0.000000   0.000000   0.000000  -0.030197
    23  H   -0.000000  -0.000000  -0.000000   0.000000   0.000000  -0.001570
    24  H    0.000000   0.000000  -0.000000  -0.000000  -0.000000   0.000425
    25  H    0.004100  -0.000195   0.000006   0.000049  -0.005392   0.000000
    26  H   -0.004839   0.000130   0.000001  -0.000189   0.004727   0.000000
    27  H    0.355958  -0.041332   0.004551   0.000402   0.005225  -0.000000
    28  H   -0.038267   0.358010  -0.043991   0.004626   0.000820   0.000000
    29  H    0.004795  -0.043264   0.358380  -0.043739   0.004931   0.000000
    30  H    0.000763   0.004634  -0.043062   0.357263  -0.040496   0.000000
    31  H    0.005507   0.000427   0.004854  -0.043060   0.354550   0.000000
    32  H    0.000000   0.000000  -0.000000  -0.000000  -0.000000   0.355150
    33  H   -0.000000   0.000000   0.000000   0.000000   0.000000  -0.041527
    34  H    0.000000   0.000000   0.000000   0.000000  -0.000000   0.004905
    35  H    0.000000   0.000000  -0.000000  -0.000000  -0.000000   0.001001
    36  H    0.000000  -0.000000  -0.000000  -0.000000   0.000000   0.005508
              19         20         21         22         23         24
     1  C   -0.018290  -0.036717  -0.032608   0.551618  -0.039041  -0.035366
     2  C    0.005552   0.000258   0.008214  -0.062115   0.375058   0.351023
     3  O   -0.000032  -0.000006   0.000023  -0.002704  -0.026153  -0.030919
     4  C   -0.000016  -0.000077  -0.000073   0.016378   0.003200  -0.001498
     5  O   -0.000003  -0.000065   0.003634  -0.138370   0.000190   0.003586
     6  N   -0.000000  -0.000001  -0.000035  -0.000845  -0.000040  -0.000218
     7  N   -0.000000   0.000000   0.000011  -0.000293   0.000000   0.000016
     8  C   -0.000000   0.000000  -0.000000  -0.000004  -0.000000  -0.000000
     9  O   -0.000000  -0.000000   0.000000  -0.000000   0.000000   0.000000
    10  O    0.000000  -0.000000  -0.000000   0.000000   0.000000  -0.000000
    11  C   -0.000000  -0.000000   0.000000  -0.000000  -0.000000  -0.000000
    12  C    0.000000  -0.000000  -0.000000   0.000000   0.000000   0.000000
    13  C   -0.000000  -0.000000   0.000000  -0.000000  -0.000000   0.000000
    14  C   -0.000000  -0.000000   0.000000  -0.000000  -0.000000   0.000000
    15  C    0.000000   0.000000  -0.000000   0.000000  -0.000000  -0.000000
    16  C    0.000000   0.000000  -0.000000   0.000000   0.000000  -0.000000
    17  C    0.000000   0.000000  -0.000000   0.000000   0.000000  -0.000000
    18  C    0.531917  -0.034357  -0.050011  -0.030197  -0.001570   0.000425
    19  C    4.859914   0.552265  -0.026130  -0.048131   0.000043  -0.000173
    20  C    0.552265   4.852285   0.538750  -0.029367   0.000011   0.000024
    21  C   -0.026130   0.538750   4.936276   0.512105  -0.000116  -0.000085
    22  C   -0.048131  -0.029367   0.512105   5.056415   0.002369  -0.001081
    23  H    0.000043   0.000011  -0.000116   0.002369   0.541788  -0.038580
    24  H   -0.000173   0.000024  -0.000085  -0.001081  -0.038580   0.567928
    25  H   -0.000000   0.000000   0.000000  -0.000000   0.000000  -0.000000
    26  H    0.000000   0.000000  -0.000000  -0.000000   0.000000  -0.000000
    27  H   -0.000000  -0.000000  -0.000000   0.000000  -0.000000   0.000000
    28  H    0.000000   0.000000  -0.000000   0.000000   0.000000  -0.000000
    29  H    0.000000   0.000000  -0.000000   0.000000  -0.000000  -0.000000
    30  H    0.000000   0.000000  -0.000000  -0.000000   0.000000  -0.000000
    31  H    0.000000   0.000000  -0.000000   0.000000   0.000000  -0.000000
    32  H   -0.043326   0.005093   0.000424   0.005585   0.005071   0.000230
    33  H    0.357861  -0.042674   0.004721   0.000663  -0.000006   0.000005
    34  H   -0.045269   0.355180  -0.042683   0.005151  -0.000000  -0.000000
    35  H    0.004358  -0.045921   0.355522  -0.036502   0.000003   0.000001
    36  H    0.000410   0.005033  -0.027703   0.335356  -0.000352   0.000225
              25         26         27         28         29         30
     1  C    0.000000  -0.000000   0.000000  -0.000000  -0.000000   0.000000
     2  C   -0.000000  -0.000000  -0.000000   0.000000   0.000000   0.000000
     3  O    0.000000  -0.000000  -0.000000   0.000000   0.000000  -0.000000
     4  C   -0.000000  -0.000000   0.000000  -0.000000  -0.000000  -0.000000
     5  O    0.000000   0.000000  -0.000000  -0.000000   0.000000   0.000000
     6  N    0.000001  -0.000008  -0.000022  -0.000000  -0.000000  -0.000000
     7  N   -0.000064  -0.000255   0.000076  -0.000000   0.000000  -0.000000
     8  C    0.003353  -0.006786  -0.001543   0.000008   0.000000   0.000000
     9  O    0.000171   0.005308   0.007869  -0.000043   0.000000  -0.000000
    10  O   -0.026725  -0.035945   0.000419   0.000001  -0.000000   0.000001
    11  C    0.368940   0.358915  -0.008367  -0.000167   0.000008  -0.000177
    12  C   -0.033848  -0.038815  -0.039262   0.003926   0.000640   0.004042
    13  C    0.004100  -0.004839   0.355958  -0.038267   0.004795   0.000763
    14  C   -0.000195   0.000130  -0.041332   0.358010  -0.043264   0.004634
    15  C    0.000006   0.000001   0.004551  -0.043991   0.358380  -0.043062
    16  C    0.000049  -0.000189   0.000402   0.004626  -0.043739   0.357263
    17  C   -0.005392   0.004727   0.005225   0.000820   0.004931  -0.040496
    18  C    0.000000   0.000000  -0.000000   0.000000   0.000000   0.000000
    19  C   -0.000000   0.000000  -0.000000   0.000000   0.000000   0.000000
    20  C    0.000000   0.000000  -0.000000   0.000000   0.000000   0.000000
    21  C    0.000000  -0.000000  -0.000000  -0.000000  -0.000000  -0.000000
    22  C   -0.000000  -0.000000   0.000000   0.000000   0.000000  -0.000000
    23  H    0.000000   0.000000  -0.000000   0.000000  -0.000000   0.000000
    24  H   -0.000000  -0.000000   0.000000  -0.000000  -0.000000  -0.000000
    25  H    0.546363  -0.037503   0.000027   0.000003  -0.000000  -0.000006
    26  H   -0.037503   0.580928   0.005427  -0.000004  -0.000000   0.000003
    27  H    0.000027   0.005427   0.554379  -0.005355  -0.000170   0.000016
    28  H    0.000003  -0.000004  -0.005355   0.592480  -0.005669  -0.000191
    29  H   -0.000000  -0.000000  -0.000170  -0.005669   0.599267  -0.005737
    30  H   -0.000006   0.000003   0.000016  -0.000191  -0.005737   0.598510
    31  H    0.004943   0.000085  -0.000159   0.000017  -0.000187  -0.005760
    32  H    0.000000  -0.000000   0.000000  -0.000000  -0.000000  -0.000000
    33  H   -0.000000   0.000000  -0.000000   0.000000   0.000000   0.000000
    34  H   -0.000000  -0.000000   0.000000  -0.000000   0.000000   0.000000
    35  H   -0.000000  -0.000000   0.000000  -0.000000  -0.000000  -0.000000
    36  H    0.000000   0.000000  -0.000000   0.000000  -0.000000   0.000000
              31         32         33         34         35         36
     1  C    0.000000  -0.051580   0.003873   0.000790   0.004323  -0.046762
     2  C   -0.000000  -0.008804  -0.000152   0.000011  -0.000207  -0.013837
     3  O    0.000000   0.000008   0.000000  -0.000000   0.000001   0.002328
     4  C   -0.000000   0.000014   0.000000   0.000000   0.000219  -0.032287
     5  O    0.000000  -0.000001  -0.000000   0.000002   0.000176  -0.037700
     6  N   -0.000000   0.000000   0.000000   0.000000   0.000003  -0.010879
     7  N    0.000001   0.000000  -0.000000  -0.000000  -0.000005   0.004108
     8  C    0.000041   0.000000   0.000000  -0.000000   0.000000   0.000051
     9  O   -0.000006   0.000000  -0.000000   0.000000   0.000000  -0.000000
    10  O    0.000358  -0.000000  -0.000000  -0.000000   0.000000   0.000001
    11  C   -0.008020   0.000000  -0.000000   0.000000   0.000000  -0.000000
    12  C   -0.046982  -0.000000   0.000000  -0.000000  -0.000000   0.000000
    13  C    0.005507   0.000000  -0.000000   0.000000   0.000000   0.000000
    14  C    0.000427   0.000000   0.000000   0.000000   0.000000  -0.000000
    15  C    0.004854  -0.000000   0.000000   0.000000  -0.000000  -0.000000
    16  C   -0.043060  -0.000000   0.000000   0.000000  -0.000000  -0.000000
    17  C    0.354550  -0.000000   0.000000  -0.000000  -0.000000   0.000000
    18  C    0.000000   0.355150  -0.041527   0.004905   0.001001   0.005508
    19  C    0.000000  -0.043326   0.357861  -0.045269   0.004358   0.000410
    20  C    0.000000   0.005093  -0.042674   0.355180  -0.045921   0.005033
    21  C   -0.000000   0.000424   0.004721  -0.042683   0.355522  -0.027703
    22  C    0.000000   0.005585   0.000663   0.005151  -0.036502   0.335356
    23  H    0.000000   0.005071  -0.000006  -0.000000   0.000003  -0.000352
    24  H   -0.000000   0.000230   0.000005  -0.000000   0.000001   0.000225
    25  H    0.004943   0.000000  -0.000000  -0.000000  -0.000000   0.000000
    26  H    0.000085  -0.000000   0.000000  -0.000000  -0.000000   0.000000
    27  H   -0.000159   0.000000  -0.000000   0.000000   0.000000  -0.000000
    28  H    0.000017  -0.000000   0.000000  -0.000000  -0.000000   0.000000
    29  H   -0.000187  -0.000000   0.000000   0.000000  -0.000000  -0.000000
    30  H   -0.005760  -0.000000   0.000000   0.000000  -0.000000   0.000000
    31  H    0.605413  -0.000000   0.000000  -0.000000  -0.000000   0.000000
    32  H   -0.000000   0.619842  -0.005946  -0.000186   0.000019  -0.000161
    33  H    0.000000  -0.005946   0.601411  -0.005817  -0.000196   0.000010
    34  H   -0.000000  -0.000186  -0.005817   0.609142  -0.005308  -0.000181
    35  H   -0.000000   0.000019  -0.000196  -0.005308   0.600400  -0.007037
    36  H    0.000000  -0.000161   0.000010  -0.000181  -0.007037   0.602515
 Mulliken charges:
               1
     1  C    0.103690
     2  C   -0.127183
     3  O   -0.432145
     4  C    0.758632
     5  O   -0.423615
     6  N   -0.221991
     7  N   -0.199189
     8  C    0.764663
     9  O   -0.433017
    10  O   -0.437672
    11  C   -0.130770
    12  C    0.103209
    13  C   -0.132525
    14  C   -0.136322
    15  C   -0.123407
    16  C   -0.129809
    17  C   -0.170917
    18  C   -0.177565
    19  C   -0.130950
    20  C   -0.119715
    21  C   -0.180235
    22  C   -0.136029
    23  H    0.178126
    24  H    0.184455
    25  H    0.175778
    26  H    0.168820
    27  H    0.161861
    28  H    0.133796
    29  H    0.130746
    30  H    0.130197
    31  H    0.127976
    32  H    0.118568
    33  H    0.127775
    34  H    0.124262
    35  H    0.129148
    36  H    0.221355
 Sum of Mulliken charges =  -0.00000
 Mulliken charges with hydrogens summed into heavy atoms:
               1
     1  C    0.103690
     2  C    0.235397
     3  O   -0.432145
     4  C    0.758632
     5  O   -0.423615
     6  N   -0.221991
     7  N   -0.199189
     8  C    0.764663
     9  O   -0.433017
    10  O   -0.437672
    11  C    0.213829
    12  C    0.103209
    13  C    0.029337
    14  C   -0.002526
    15  C    0.007339
    16  C    0.000388
    17  C   -0.042941
    18  C   -0.058998
    19  C   -0.003175
    20  C    0.004547
    21  C   -0.051087
    22  C    0.085326
 APT charges:
               1
     1  C   -0.051992
     2  C    0.525976
     3  O   -0.697381
     4  C    0.804598
     5  O   -0.362790
     6  N    0.037545
     7  N   -0.352840
     8  C    1.330760
     9  O   -0.662774
    10  O   -0.962229
    11  C    0.720068
    12  C   -0.110578
    13  C   -0.044628
    14  C   -0.012028
    15  C    0.008806
    16  C   -0.045220
    17  C   -0.010727
    18  C   -0.016569
    19  C   -0.034361
    20  C   -0.025935
    21  C   -0.039735
    22  C   -0.083057
    23  H   -0.011723
    24  H   -0.051937
    25  H   -0.024804
    26  H   -0.062966
    27  H    0.079716
    28  H    0.014438
    29  H    0.012216
    30  H    0.011578
    31  H    0.018904
    32  H    0.000014
    33  H    0.006653
    34  H   -0.009814
    35  H    0.018977
    36  H    0.083839
 Sum of APT charges =  -0.00000
 APT charges with hydrogens summed into heavy atoms:
               1
     1  C   -0.051992
     2  C    0.462316
     3  O   -0.697381
     4  C    0.804598
     5  O   -0.362790
     6  N    0.037545
     7  N   -0.352840
     8  C    1.330760
     9  O   -0.662774
    10  O   -0.962229
    11  C    0.632298
    12  C   -0.110578
    13  C    0.035087
    14  C    0.002411
    15  C    0.021022
    16  C   -0.033642
    17  C    0.008177
    18  C   -0.016554
    19  C   -0.027708
    20  C   -0.035748
    21  C   -0.020759
    22  C    0.000781
 Electronic spatial extent (au):  <R**2>=          11058.4400
 Charge=             -0.0000 electrons
 Dipole moment (field-independent basis, Debye):
    X=              0.6811    Y=              0.7502    Z=             -0.6897  Tot=              1.2258
 Quadrupole moment (field-independent basis, Debye-Ang):
   XX=           -106.8663   YY=           -113.9471   ZZ=           -126.2971
   XY=             -7.1646   XZ=             -4.4745   YZ=             -4.3041
 Traceless Quadrupole moment (field-independent basis, Debye-Ang):
   XX=              8.8372   YY=              1.7563   ZZ=            -10.5936
   XY=             -7.1646   XZ=             -4.4745   YZ=             -4.3041
 Octapole moment (field-independent basis, Debye-Ang**2):
  XXX=            -25.6178  YYY=             -2.6859  ZZZ=             -6.2820  XYY=             -0.5479
  XXY=             29.6721  XXZ=             -8.3991  XZZ=             29.6739  YZZ=              5.1887
  YYZ=              1.8959  XYZ=             16.2831
 Hexadecapole moment (field-independent basis, Debye-Ang**3):
 XXXX=         -12827.5150 YYYY=          -1116.5704 ZZZZ=           -521.8095 XXXY=             18.3832
 XXXZ=           -222.3198 YYYX=            -65.6362 YYYZ=             -6.0095 ZZZX=             21.5477
 ZZZY=              4.8459 XXYY=          -2132.7293 XXZZ=          -2321.2447 YYZZ=           -279.6632
 XXYZ=            -19.4680 YYXZ=             12.3480 ZZXY=             -7.5255
 N-N= 1.630265491101D+03 E-N=-5.656529797314D+03  KE= 1.019511789137D+03
  Exact polarizability: 305.815  14.058 183.308 -15.857   2.668 130.734
 Approx polarizability: 363.257  25.699 321.911 -22.179  19.552 238.579
 Calling FoFJK, ICntrl=    100127 FMM=F ISym2X=0 I1Cent= 0 IOpClX= 0 NMat=1 NMatS=1 NMatT=0.
 ***** Axes restored to original set *****
 -------------------------------------------------------------------
 Center     Atomic                   Forces (Hartrees/Bohr)
 Number     Number              X              Y              Z
 -------------------------------------------------------------------
      1        6          -0.002959047   -0.009556296   -0.004826809
      2        6           0.006240203   -0.017282923   -0.016157622
      3        8          -0.021233105    0.011172667    0.002322228
      4        6           0.016734699   -0.036319402    0.033880937
      5        8          -0.023039068    0.042598976    0.084562168
      6        7          -0.004704392    0.038556867    0.005170280
      7        7           0.005946978   -0.038809165   -0.005056190
      8        6          -0.012317879    0.071026861    0.009559127
      9        8          -0.011744842   -0.034136096   -0.008521090
     10        8           0.004288963   -0.022147170   -0.006364784
     11        6           0.016124112    0.027611866   -0.006905968
     12        6          -0.006031900    0.009101135    0.009199262
     13        6           0.002003759    0.009766367   -0.000465232
     14        6          -0.001852188   -0.001151574   -0.001432257
     15        6           0.001842644    0.001110784    0.002283723
     16        6          -0.001091916   -0.001598587    0.001436566
     17        6           0.002331218   -0.000672281    0.000032093
     18        6           0.000028073    0.001914983    0.001222147
     19        6           0.001097087   -0.000615705    0.001928688
     20        6          -0.001993821   -0.003346372   -0.003678819
     21        6           0.006755935   -0.003367333    0.001343898
     22        6           0.014170299   -0.013485452   -0.050788066
     23        1          -0.003414631    0.007575550    0.003129367
     24        1          -0.006017765    0.006391816    0.004224523
     25        1           0.004123964   -0.016222886   -0.000234513
     26        1          -0.001540931   -0.001336595   -0.001295649
     27        1          -0.003199966    0.001218684    0.006009086
     28        1          -0.000640313   -0.000158955   -0.000617897
     29        1          -0.000248974    0.000123587    0.000144290
     30        1          -0.000572816   -0.000086140   -0.000322955
     31        1          -0.000210337   -0.000702837   -0.001758611
     32        1           0.000858511    0.001583901    0.000562074
     33        1           0.000404587    0.000375376    0.000547647
     34        1           0.000473130   -0.000698213   -0.000405218
     35        1          -0.000063790    0.000789300    0.000395942
     36        1           0.019453519   -0.029224738   -0.059122364
 -------------------------------------------------------------------
 Cartesian Forces:  Max     0.084562168 RMS     0.017630619
 FormGI is forming the generalized inverse of G from B-inverse, IUseBI=4.

 GradGradGradGradGradGradGradGradGradGradGradGradGradGradGradGradGradGrad
 Berny optimization.
 Internal  Forces:  Max     0.316592897 RMS     0.052268286
 Search for a local minimum.
 Step number   1 out of a maximum of  180
 All quantities printed in internal units (Hartrees-Bohrs-Radians)
 Mixed Optimization -- RFO/linear search
 Second derivative matrix not updated -- analytic derivatives used.
 ITU=  0
     Eigenvalues ---   -0.49442  -0.11307  -0.04561  -0.01473  -0.01254
     Eigenvalues ---   -0.00792  -0.00143   0.00480   0.00579   0.01340
     Eigenvalues ---    0.01601   0.01720   0.01735   0.01760   0.02130
     Eigenvalues ---    0.02220   0.02364   0.02376   0.02507   0.02603
     Eigenvalues ---    0.02675   0.02698   0.02798   0.02812   0.02944
     Eigenvalues ---    0.04248   0.05144   0.06374   0.06606   0.07253
     Eigenvalues ---    0.08184   0.08552   0.09965   0.10076   0.10548
     Eigenvalues ---    0.11011   0.11109   0.11132   0.11510   0.11673
     Eigenvalues ---    0.11741   0.12012   0.12476   0.12554   0.12740
     Eigenvalues ---    0.12786   0.13012   0.16470   0.18384   0.18455
     Eigenvalues ---    0.19187   0.19262   0.19455   0.19961   0.20074
     Eigenvalues ---    0.21408   0.22871   0.23837   0.24320   0.24590
     Eigenvalues ---    0.27494   0.28113   0.28715   0.29316   0.30272
     Eigenvalues ---    0.30985   0.31772   0.32780   0.33625   0.33806
     Eigenvalues ---    0.34365   0.34951   0.35502   0.35568   0.35586
     Eigenvalues ---    0.35743   0.35886   0.35917   0.35948   0.36066
     Eigenvalues ---    0.36109   0.36147   0.38050   0.38865   0.40363
     Eigenvalues ---    0.41338   0.41558   0.41805   0.45847   0.47187
     Eigenvalues ---    0.47278   0.47387   0.47488   0.48931   0.51339
     Eigenvalues ---    0.51515   0.53520   0.76601   0.78033   0.80228
     Eigenvalues ---    1.27662   5.01397
 RFO step:  Lambda=-4.98625904D-01 EMin=-4.94415049D-01
 I=     1 Eig=   -4.94D-01 Dot1=  2.46D-02
[...]
    96    N    7  px     Ryd( 3p)     0.00379
    97    N    7  py     Val( 2p)     1.15297
    98    N    7  py     Ryd( 3p)     0.00444
    99    N    7  pz     Val( 2p)     1.43502
   100    N    7  pz     Ryd( 3p)     0.00434
   101    N    7  dxy    Ryd( 3d)     0.00212
   102    N    7  dxz    Ryd( 3d)     0.00114
   103    N    7  dyz    Ryd( 3d)     0.00207
   104    N    7  dx2y2  Ryd( 3d)     0.00149
   105    N    7  dz2    Ryd( 3d)     0.00085
 
   106    C    8  S      Cor( 1S)     1.99950
   107    C    8  S      Val( 2S)     0.73060
   108    C    8  S      Ryd( 3S)     0.00399
   109    C    8  S      Ryd( 4S)     0.00046
   110    C    8  px     Val( 2p)     0.78883
   111    C    8  px     Ryd( 3p)     0.00531
   112    C    8  py     Val( 2p)     0.77570
   113    C    8  py     Ryd( 3p)     0.01106
   114    C    8  pz     Val( 2p)     0.73576
   115    C    8  pz     Ryd( 3p)     0.01714
   116    C    8  dxy    Ryd( 3d)     0.00203
   117    C    8  dxz    Ryd( 3d)     0.00338
   118    C    8  dyz    Ryd( 3d)     0.00167
   119    C    8  dx2y2  Ryd( 3d)     0.00192
   120    C    8  dz2    Ryd( 3d)     0.00334
 
   121    O    9  S      Cor( 1S)     1.99977
   122    O    9  S      Val( 2S)     1.70727
   123    O    9  S      Ryd( 3S)     0.00088
   124    O    9  S      Ryd( 4S)     0.00013
   125    O    9  px     Val( 2p)     1.74440
   126    O    9  px     Ryd( 3p)     0.00114
   127    O    9  py     Val( 2p)     1.50564
   128    O    9  py     Ryd( 3p)     0.00070
   129    O    9  pz     Val( 2p)     1.57879
   130    O    9  pz     Ryd( 3p)     0.00079
   131    O    9  dxy    Ryd( 3d)     0.00207
   132    O    9  dxz    Ryd( 3d)     0.00350
   133    O    9  dyz    Ryd( 3d)     0.00460
   134    O    9  dx2y2  Ryd( 3d)     0.00221
   135    O    9  dz2    Ryd( 3d)     0.00464
 
   136    O   10  S      Cor( 1S)     1.99973
   137    O   10  S      Val( 2S)     1.62928
   138    O   10  S      Ryd( 3S)     0.00200
   139    O   10  S      Ryd( 4S)     0.00010
   140    O   10  px     Val( 2p)     1.46516
   141    O   10  px     Ryd( 3p)     0.00111
   142    O   10  py     Val( 2p)     1.75634
   143    O   10  py     Ryd( 3p)     0.00177
   144    O   10  pz     Val( 2p)     1.65915
   145    O   10  pz     Ryd( 3p)     0.00140
   146    O   10  dxy    Ryd( 3d)     0.00088
   147    O   10  dxz    Ryd( 3d)     0.00110
   148    O   10  dyz    Ryd( 3d)     0.00137
   149    O   10  dx2y2  Ryd( 3d)     0.00084
   150    O   10  dz2    Ryd( 3d)     0.00171
 
   151    C   11  S      Cor( 1S)     1.99912
   152    C   11  S      Val( 2S)     1.03275
   153    C   11  S      Ryd( 3S)     0.00119
   154    C   11  S      Ryd( 4S)     0.00005
   155    C   11  px     Val( 2p)     0.74651
   156    C   11  px     Ryd( 3p)     0.00317
   157    C   11  py     Val( 2p)     1.10720
   158    C   11  py     Ryd( 3p)     0.00246
   159    C   11  pz     Val( 2p)     1.21878
   160    C   11  pz     Ryd( 3p)     0.00615
   161    C   11  dxy    Ryd( 3d)     0.00133
   162    C   11  dxz    Ryd( 3d)     0.00085
   163    C   11  dyz    Ryd( 3d)     0.00071
   164    C   11  dx2y2  Ryd( 3d)     0.00173
   165    C   11  dz2    Ryd( 3d)     0.00147
 
   166    C   12  S      Cor( 1S)     1.99901
   167    C   12  S      Val( 2S)     0.88900
   168    C   12  S      Ryd( 3S)     0.00070
   169    C   12  S      Ryd( 4S)     0.00006
   170    C   12  px     Val( 2p)     1.04475
   171    C   12  px     Ryd( 3p)     0.00354
   172    C   12  py     Val( 2p)     1.05728
   173    C   12  py     Ryd( 3p)     0.00306
   174    C   12  pz     Val( 2p)     1.08704
   175    C   12  pz     Ryd( 3p)     0.00433
   176    C   12  dxy    Ryd( 3d)     0.00052
   177    C   12  dxz    Ryd( 3d)     0.00062
   178    C   12  dyz    Ryd( 3d)     0.00059
   179    C   12  dx2y2  Ryd( 3d)     0.00044
   180    C   12  dz2    Ryd( 3d)     0.00064
 
   181    C   13  S      Cor( 1S)     1.99903
   182    C   13  S      Val( 2S)     0.95729
   183    C   13  S      Ryd( 3S)     0.00062
   184    C   13  S      Ryd( 4S)     0.00004
   185    C   13  px     Val( 2p)     1.04859
   186    C   13  px     Ryd( 3p)     0.00264
   187    C   13  py     Val( 2p)     1.10356
   188    C   13  py     Ryd( 3p)     0.00320
   189    C   13  pz     Val( 2p)     1.08990
   190    C   13  pz     Ryd( 3p)     0.00406
   191    C   13  dxy    Ryd( 3d)     0.00055
   192    C   13  dxz    Ryd( 3d)     0.00055
   193    C   13  dyz    Ryd( 3d)     0.00070
   194    C   13  dx2y2  Ryd( 3d)     0.00044
   195    C   13  dz2    Ryd( 3d)     0.00055
 
   196    C   14  S      Cor( 1S)     1.99910
   197    C   14  S      Val( 2S)     0.96238
   198    C   14  S      Ryd( 3S)     0.00058
   199    C   14  S      Ryd( 4S)     0.00003
   200    C   14  px     Val( 2p)     1.03387
   201    C   14  px     Ryd( 3p)     0.00253
   202    C   14  py     Val( 2p)     1.03540
   203    C   14  py     Ryd( 3p)     0.00293
   204    C   14  pz     Val( 2p)     1.18455
   205    C   14  pz     Ryd( 3p)     0.00500
   206    C   14  dxy    Ryd( 3d)     0.00040
   207    C   14  dxz    Ryd( 3d)     0.00053
   208    C   14  dyz    Ryd( 3d)     0.00052
   209    C   14  dx2y2  Ryd( 3d)     0.00051
   210    C   14  dz2    Ryd( 3d)     0.00081
 
   211    C   15  S      Cor( 1S)     1.99910
   212    C   15  S      Val( 2S)     0.96510
   213    C   15  S      Ryd( 3S)     0.00053
   214    C   15  S      Ryd( 4S)     0.00003
   215    C   15  px     Val( 2p)     1.08686
   216    C   15  px     Ryd( 3p)     0.00281
   217    C   15  py     Val( 2p)     1.07545
   218    C   15  py     Ryd( 3p)     0.00306
   219    C   15  pz     Val( 2p)     1.08258
   220    C   15  pz     Ryd( 3p)     0.00425
   221    C   15  dxy    Ryd( 3d)     0.00062
   222    C   15  dxz    Ryd( 3d)     0.00065
   223    C   15  dyz    Ryd( 3d)     0.00059
   224    C   15  dx2y2  Ryd( 3d)     0.00038
   225    C   15  dz2    Ryd( 3d)     0.00056
 
   226    C   16  S      Cor( 1S)     1.99910
   227    C   16  S      Val( 2S)     0.96164
   228    C   16  S      Ryd( 3S)     0.00058
   229    C   16  S      Ryd( 4S)     0.00003
   230    C   16  px     Val( 2p)     1.05573
   231    C   16  px     Ryd( 3p)     0.00266
   232    C   16  py     Val( 2p)     1.10313
   233    C   16  py     Ryd( 3p)     0.00324
   234    C   16  pz     Val( 2p)     1.09700
   235    C   16  pz     Ryd( 3p)     0.00456
   236    C   16  dxy    Ryd( 3d)     0.00054
   237    C   16  dxz    Ryd( 3d)     0.00055
   238    C   16  dyz    Ryd( 3d)     0.00071
   239    C   16  dx2y2  Ryd( 3d)     0.00042
   240    C   16  dz2    Ryd( 3d)     0.00054
 
   241    C   17  S      Cor( 1S)     1.99903
   242    C   17  S      Val( 2S)     0.95423
   243    C   17  S      Ryd( 3S)     0.00062
   244    C   17  S      Ryd( 4S)     0.00005
   245    C   17  px     Val( 2p)     1.03183
   246    C   17  px     Ryd( 3p)     0.00236
   247    C   17  py     Val( 2p)     1.02944
   248    C   17  py     Ryd( 3p)     0.00243
   249    C   17  pz     Val( 2p)     1.18384
   250    C   17  pz     Ryd( 3p)     0.00495
   251    C   17  dxy    Ryd( 3d)     0.00041
   252    C   17  dxz    Ryd( 3d)     0.00051
   253    C   17  dyz    Ryd( 3d)     0.00049
   254    C   17  dx2y2  Ryd( 3d)     0.00054
   255    C   17  dz2    Ryd( 3d)     0.00082
 
   256    C   18  S      Cor( 1S)     1.99903
   257    C   18  S      Val( 2S)     0.95729
   258    C   18  S      Ryd( 3S)     0.00062
   259    C   18  S      Ryd( 4S)     0.00004
   260    C   18  px     Val( 2p)     1.04859
   261    C   18  px     Ryd( 3p)     0.00264
   262    C   18  py     Val( 2p)     1.10353
   263    C   18  py     Ryd( 3p)     0.00320
   264    C   18  pz     Val( 2p)     1.08993
   265    C   18  pz     Ryd( 3p)     0.00406
   266    C   18  dxy    Ryd( 3d)     0.00055
   267    C   18  dxz    Ryd( 3d)     0.00055
   268    C   18  dyz    Ryd( 3d)     0.00070
   269    C   18  dx2y2  Ryd( 3d)     0.00044
   270    C   18  dz2    Ryd( 3d)     0.00055
 
   271    C   19  S      Cor( 1S)     1.99910
   272    C   19  S      Val( 2S)     0.96238
   273    C   19  S      Ryd( 3S)     0.00058
   274    C   19  S      Ryd( 4S)     0.00003
   275    C   19  px     Val( 2p)     1.03387
   276    C   19  px     Ryd( 3p)     0.00253
   277    C   19  py     Val( 2p)     1.03539
   278    C   19  py     Ryd( 3p)     0.00293
   279    C   19  pz     Val( 2p)     1.18455
   280    C   19  pz     Ryd( 3p)     0.00500
   281    C   19  dxy    Ryd( 3d)     0.00040
   282    C   19  dxz    Ryd( 3d)     0.00053
   283    C   19  dyz    Ryd( 3d)     0.00052
   284    C   19  dx2y2  Ryd( 3d)     0.00051
   285    C   19  dz2    Ryd( 3d)     0.00081
 
   286    C   20  S      Cor( 1S)     1.99910
   287    C   20  S      Val( 2S)     0.96510
   288    C   20  S      Ryd( 3S)     0.00053
   289    C   20  S      Ryd( 4S)     0.00003
   290    C   20  px     Val( 2p)     1.08688
   291    C   20  px     Ryd( 3p)     0.00281
   292    C   20  py     Val( 2p)     1.07545
   293    C   20  py     Ryd( 3p)     0.00306
   294    C   20  pz     Val( 2p)     1.08256
   295    C   20  pz     Ryd( 3p)     0.00425
   296    C   20  dxy    Ryd( 3d)     0.00062
   297    C   20  dxz    Ryd( 3d)     0.00065
   298    C   20  dyz    Ryd( 3d)     0.00059
   299    C   20  dx2y2  Ryd( 3d)     0.00038
   300    C   20  dz2    Ryd( 3d)     0.00056
 
   301    C   21  S      Cor( 1S)     1.99910
   302    C   21  S      Val( 2S)     0.96164
   303    C   21  S      Ryd( 3S)     0.00058
   304    C   21  S      Ryd( 4S)     0.00003
   305    C   21  px     Val( 2p)     1.05573
   306    C   21  px     Ryd( 3p)     0.00266
   307    C   21  py     Val( 2p)     1.10311
   308    C   21  py     Ryd( 3p)     0.00324
   309    C   21  pz     Val( 2p)     1.09702
   310    C   21  pz     Ryd( 3p)     0.00456
   311    C   21  dxy    Ryd( 3d)     0.00054
   312    C   21  dxz    Ryd( 3d)     0.00055
   313    C   21  dyz    Ryd( 3d)     0.00071
   314    C   21  dx2y2  Ryd( 3d)     0.00042
   315    C   21  dz2    Ryd( 3d)     0.00054
 
   316    C   22  S      Cor( 1S)     1.99903
   317    C   22  S      Val( 2S)     0.95423
   318    C   22  S      Ryd( 3S)     0.00062
   319    C   22  S      Ryd( 4S)     0.00005
   320    C   22  px     Val( 2p)     1.03183
   321    C   22  px     Ryd( 3p)     0.00236
   322    C   22  py     Val( 2p)     1.02943
   323    C   22  py     Ryd( 3p)     0.00243
   324    C   22  pz     Val( 2p)     1.18385
   325    C   22  pz     Ryd( 3p)     0.00495
   326    C   22  dxy    Ryd( 3d)     0.00041
   327    C   22  dxz    Ryd( 3d)     0.00051
   328    C   22  dyz    Ryd( 3d)     0.00049
   329    C   22  dx2y2  Ryd( 3d)     0.00054
   330    C   22  dz2    Ryd( 3d)     0.00082
 
   331    H   23  S      Val( 1S)     0.75722
   332    H   23  S      Ryd( 2S)     0.00114
 
   333    H   24  S      Val( 1S)     0.75584
   334    H   24  S      Ryd( 2S)     0.00221
 
   335    H   25  S      Val( 1S)     0.75722
   336    H   25  S      Ryd( 2S)     0.00114
 
   337    H   26  S      Val( 1S)     0.75584
   338    H   26  S      Ryd( 2S)     0.00221
 
   339    H   27  S      Val( 1S)     0.74704
   340    H   27  S      Ryd( 2S)     0.00135
 
   341    H   28  S      Val( 1S)     0.75886
   342    H   28  S      Ryd( 2S)     0.00084
 
   343    H   29  S      Val( 1S)     0.76051
   344    H   29  S      Ryd( 2S)     0.00082
 
   345    H   30  S      Val( 1S)     0.75957
   346    H   30  S      Ryd( 2S)     0.00085
 
   347    H   31  S      Val( 1S)     0.76182
   348    H   31  S      Ryd( 2S)     0.00106
 
   349    H   32  S      Val( 1S)     0.74704
   350    H   32  S      Ryd( 2S)     0.00135
 
   351    H   33  S      Val( 1S)     0.75886
   352    H   33  S      Ryd( 2S)     0.00084
 
   353    H   34  S      Val( 1S)     0.76051
   354    H   34  S      Ryd( 2S)     0.00082
 
   355    H   35  S      Val( 1S)     0.75957
   356    H   35  S      Ryd( 2S)     0.00085
 
   357    H   36  S      Val( 1S)     0.76182
   358    H   36  S      Ryd( 2S)     0.00106


 Summary of Natural Population Analysis:                  
                                                          
                                       Natural Population 
                Natural  -----------------------------------------------
    Atom  No    Charge         Core      Valence    Rydberg      Total
 -----------------------------------------------------------------------
      C    1   -0.09156      1.99901     4.07806    0.01449     6.09156
      C    2   -0.12347      1.99912     4.10523    0.01912     6.12347
      O    3   -0.52193      1.99973     6.50992    0.01228     8.52193
      C    4    0.91933      1.99950     3.03088    0.05029     5.08067
      O    5   -0.55653      1.99977     6.53610    0.02066     8.55653
      N    6   -0.21130      1.99938     5.18564    0.02628     7.21130
      N    7   -0.21130      1.99938     5.18564    0.02628     7.21130
      C    8    0.91933      1.99950     3.03088    0.05029     5.08067
      O    9   -0.55653      1.99977     6.53611    0.02066     8.55653
      O   10   -0.52193      1.99973     6.50992    0.01228     8.52193
      C   11   -0.12347      1.99912     4.10523    0.01912     6.12347
      C   12   -0.09156      1.99901     4.07806    0.01449     6.09156
      C   13   -0.21173      1.99903     4.19934    0.01335     6.21173
      C   14   -0.22914      1.99910     4.21620    0.01384     6.22914
      C   15   -0.22256      1.99910     4.20998    0.01347     6.22256
      C   16   -0.23043      1.99910     4.21750    0.01384     6.23043
      C   17   -0.21154      1.99903     4.19934    0.01317     6.21154
      C   18   -0.21173      1.99903     4.19934    0.01335     6.21173
      C   19   -0.22914      1.99910     4.21620    0.01384     6.22914
      C   20   -0.22256      1.99910     4.20998    0.01347     6.22256
      C   21   -0.23043      1.99910     4.21750    0.01384     6.23043
      C   22   -0.21154      1.99903     4.19934    0.01317     6.21154
      H   23    0.24163      0.00000     0.75722    0.00114     0.75837
      H   24    0.24196      0.00000     0.75584    0.00221     0.75804
      H   25    0.24163      0.00000     0.75722    0.00114     0.75837
      H   26    0.24196      0.00000     0.75584    0.00221     0.75804
      H   27    0.25161      0.00000     0.74704    0.00135     0.74839
      H   28    0.24030      0.00000     0.75886    0.00084     0.75970
      H   29    0.23867      0.00000     0.76051    0.00082     0.76133
      H   30    0.23959      0.00000     0.75957    0.00085     0.76041
      H   31    0.23712      0.00000     0.76182    0.00106     0.76288
      H   32    0.25161      0.00000     0.74704    0.00135     0.74839
      H   33    0.24030      0.00000     0.75886    0.00084     0.75970
      H   34    0.23867      0.00000     0.76051    0.00082     0.76133
      H   35    0.23959      0.00000     0.75957    0.00085     0.76041
      H   36    0.23712      0.00000     0.76182    0.00106     0.76288
 =======================================================================
   * Total *    0.00000     43.98374   111.57814    0.43813   156.00000

                                 Natural Population      
 --------------------------------------------------------
   Core                      43.98374 ( 99.9630% of  44)
   Valence                  111.57814 ( 99.6233% of 112)
   Natural Minimal Basis    155.56187 ( 99.7191% of 156)
   Natural Rydberg Basis      0.43813 (  0.2809% of 156)
 --------------------------------------------------------

    Atom  No          Natural Electron Configuration
 ----------------------------------------------------------------------------
      C    1      [core]2S( 0.89)2p( 3.19)3p( 0.01)
      C    2      [core]2S( 1.03)2p( 3.07)3p( 0.01)3d( 0.01)
      O    3      [core]2S( 1.63)2p( 4.88)3d( 0.01)
      C    4      [core]2S( 0.73)2p( 2.30)3p( 0.03)3d( 0.01)
      O    5      [core]2S( 1.71)2p( 4.83)3d( 0.02)
      N    6      [core]2S( 1.39)2p( 3.79)3S( 0.01)3p( 0.01)3d( 0.01)
      N    7      [core]2S( 1.39)2p( 3.79)3S( 0.01)3p( 0.01)3d( 0.01)
      C    8      [core]2S( 0.73)2p( 2.30)3p( 0.03)3d( 0.01)
      O    9      [core]2S( 1.71)2p( 4.83)3d( 0.02)
      O   10      [core]2S( 1.63)2p( 4.88)3d( 0.01)
      C   11      [core]2S( 1.03)2p( 3.07)3p( 0.01)3d( 0.01)
      C   12      [core]2S( 0.89)2p( 3.19)3p( 0.01)
      C   13      [core]2S( 0.96)2p( 3.24)3p( 0.01)
      C   14      [core]2S( 0.96)2p( 3.25)3p( 0.01)
      C   15      [core]2S( 0.97)2p( 3.24)3p( 0.01)
      C   16      [core]2S( 0.96)2p( 3.26)3p( 0.01)
      C   17      [core]2S( 0.95)2p( 3.25)3p( 0.01)
      C   18      [core]2S( 0.96)2p( 3.24)3p( 0.01)
      C   19      [core]2S( 0.96)2p( 3.25)3p( 0.01)
      C   20      [core]2S( 0.97)2p( 3.24)3p( 0.01)
      C   21      [core]2S( 0.96)2p( 3.26)3p( 0.01)
      C   22      [core]2S( 0.95)2p( 3.25)3p( 0.01)
      H   23            1S( 0.76)
      H   24            1S( 0.76)
      H   25            1S( 0.76)
      H   26            1S( 0.76)
      H   27            1S( 0.75)
      H   28            1S( 0.76)
      H   29            1S( 0.76)
      H   30            1S( 0.76)
      H   31            1S( 0.76)
      H   32            1S( 0.75)
      H   33            1S( 0.76)
      H   34            1S( 0.76)
      H   35            1S( 0.76)
      H   36            1S( 0.76)


 NBO analysis skipped by request.
 1\1\GINC-DELLA-R2C1N12\SP\RB3LYP TD-FC\6-31G(d)\C16H14N2O4\BJS4\22-Aug
 -2020\0\\# TD(NStates=10, Root=1) B3LYP/6-31G* scf=qc volume pop=NPA d
 ensity=current Geom=AllCheck Guess=Read\\Title Card Required\\0,1\C,0,
 -3.2041157314,-0.5774404159,-1.8888193256\C,0,-2.6602903381,0.47647215
 96,-0.9618290064\O,0,-3.5772785973,1.6156649658,-0.8365401485\C,0,-4.4
 752655075,1.5441941746,0.1415795309\O,0,-4.6361479849,0.6614036661,0.9
 480443182\N,0,-5.2225178047,2.7818903885,0.2348731318\N,0,-6.076843447
 1,2.9022451054,-0.6634906113\C,0,-6.8240966617,4.1399416819,-0.5701906
 281\O,0,-6.6633065622,5.0226808904,-1.3767299051\O,0,-7.721971811,4.06
 85347865,0.4080368494\C,0,-8.6389390137,5.2077402747,0.5333599757\C,0,
 -8.0949872259,6.2617216582,1.4601981228\C,0,-7.323930469,7.3208815436,
 0.9625263052\C,0,-6.8176964347,8.290029085,1.8285543077\C,0,-7.0759280
 091,8.2096924361,3.198569648\C,0,-7.8422740886,7.1566067953,3.70203242
 34\C,0,-8.3490250444,6.1884818777,2.8355487815\C,0,-3.9752647337,-1.63
 66213877,-1.3913347549\C,0,-4.4813803588,-2.6057046498,-2.2575036969\C
 ,0,-4.2229363621,-2.5252832049,-3.6274741269\C,0,-3.4564965277,-1.4721
 768874,-4.1307504942\C,0,-2.9498649997,-0.5041154045,-3.264125924\H,0,
 -1.7496437077,0.9291585206,-1.3574743828\H,0,-2.4747977339,0.082602665
 6,0.0392025595\H,0,-9.5495346207,4.7550865517,0.9291601461\H,0,-8.8245
 631775,5.6015346631,-0.4676768157\H,0,-7.1156165608,7.3739069113,-0.10
 20555876\H,0,-6.2224013048,9.1086613939,1.4333543258\H,0,-6.6825438396
 ,8.9665124229,3.872006685\H,0,-8.0470701528,7.0907662791,4.7671132528\
 H,0,-8.9468746696,5.3689744272,3.2279156705\H,0,-4.1837418493,-1.68971
 39675,-0.326788038\H,0,-5.0767487748,-3.4243535919,-1.8624485992\H,0,-
 4.6162284137,-3.2820535285,-4.3010207594\H,0,-3.2515350407,-1.40627056
 89,-5.1957954351\H,0,-2.3519424411,0.3154082819,-3.6563477949\\Version
 =ES64L-G16RevA.03\State=1-A\HF=-1028.4826443\RMSD=4.190e-13\Dipole=0.0
 001201,0.0000157,0.0000494\Quadrupole=0.7954904,2.3488802,-3.1443706,-
 4.2234574,-5.2058275,11.5813587\PG=C01 [X(C16H14N2O4)]\\@


 JUST WHEN YOU THINK YOU'VE GOT THE WORLD ON A STRING,
 YOU FIND OUT IT'S YOUR LEASH.
 Job cpu time:       0 days  0 hours 40 minutes 40.4 seconds.
 Elapsed time:       0 days  0 hours  8 minutes 41.6 seconds.
 File lengths (MBytes):  RWF=   1047 Int=      0 D2E=      0 Chk=    268 Scr=      1
 Normal termination of Gaussian 16 at Sat Aug 22 17:36:55 2020.
