 Entering Gaussian System, Link 0=g16
 Input=azadicarboxylate_6_conf8123.com
 Output=azadicarboxylate_6_conf8123.log
 Initial command:
 /opt/export//g16/l1.exe "/scratch/bjs4/job.10134/Gau-10136.inp" -scrdir="/scratch/bjs4/job.10134/"
 Entering Link 1 = /opt/export//g16/l1.exe PID=     10138.
  
 Copyright (c) 1988,1990,1992,1993,1995,1998,2003,2009,2016,
            Gaussian, Inc.  All Rights Reserved.
  
 This is part of the Gaussian(R) 16 program.  It is based on
 the Gaussian(R) 09 system (copyright 2009, Gaussian, Inc.),
 the Gaussian(R) 03 system (copyright 2003, Gaussian, Inc.),
 the Gaussian(R) 98 system (copyright 1998, Gaussian, Inc.),
 the Gaussian(R) 94 system (copyright 1995, Gaussian, Inc.),
 the Gaussian 92(TM) system (copyright 1992, Gaussian, Inc.),
 the Gaussian 90(TM) system (copyright 1990, Gaussian, Inc.),
 the Gaussian 88(TM) system (copyright 1988, Gaussian, Inc.),
 the Gaussian 86(TM) system (copyright 1986, Carnegie Mellon
 University), and the Gaussian 82(TM) system (copyright 1983,
 Carnegie Mellon University). Gaussian is a federally registered
 trademark of Gaussian, Inc.
  
 This software contains proprietary and confidential information,
 including trade secrets, belonging to Gaussian, Inc.
  
 This software is provided under written license and may be
 used, copied, transmitted, or stored only in accord with that
 written license.
  
 The following legend is applicable only to US Government
 contracts under FAR:
  
                    RESTRICTED RIGHTS LEGEND
  
 Use, reproduction and disclosure by the US Government is
 subject to restrictions as set forth in subparagraphs (a)
 and (c) of the Commercial Computer Software - Restricted
 Rights clause in FAR 52.227-19.
  
 Gaussian, Inc.
 340 Quinnipiac St., Bldg. 40, Wallingford CT 06492
  
  
 ---------------------------------------------------------------
 Warning -- This program may not be used in any manner that
 competes with the business of Gaussian, Inc. or will provide
 assistance to any competitor of Gaussian, Inc.  The licensee
 of this program is prohibited from giving any competitor of
 Gaussian, Inc. access to this program.  By using this program,
 the user acknowledges that Gaussian, Inc. is engaged in the
 business of creating and licensing software in the field of
 computational chemistry and represents and warrants to the
 licensee that it is not a competitor of Gaussian, Inc. and that
 it will not use this program in any manner prohibited above.
 ---------------------------------------------------------------
  

 Cite this work as:
 Gaussian 16, Revision A.03,
 M. J. Frisch, G. W. Trucks, H. B. Schlegel, G. E. Scuseria, 
 M. A. Robb, J. R. Cheeseman, G. Scalmani, V. Barone, 
 G. A. Petersson, H. Nakatsuji, X. Li, M. Caricato, A. V. Marenich, 
 J. Bloino, B. G. Janesko, R. Gomperts, B. Mennucci, H. P. Hratchian, 
 J. V. Ortiz, A. F. Izmaylov, J. L. Sonnenberg, D. Williams-Young, 
 F. Ding, F. Lipparini, F. Egidi, J. Goings, B. Peng, A. Petrone, 
 T. Henderson, D. Ranasinghe, V. G. Zakrzewski, J. Gao, N. Rega, 
 G. Zheng, W. Liang, M. Hada, M. Ehara, K. Toyota, R. Fukuda, 
 J. Hasegawa, M. Ishida, T. Nakajima, Y. Honda, O. Kitao, H. Nakai, 
 T. Vreven, K. Throssell, J. A. Montgomery, Jr., J. E. Peralta, 
 F. Ogliaro, M. J. Bearpark, J. J. Heyd, E. N. Brothers, K. N. Kudin, 
 V. N. Staroverov, T. A. Keith, R. Kobayashi, J. Normand, 
 K. Raghavachari, A. P. Rendell, J. C. Burant, S. S. Iyengar, 
 J. Tomasi, M. Cossi, J. M. Millam, M. Klene, C. Adamo, R. Cammi, 
 J. W. Ochterski, R. L. Martin, K. Morokuma, O. Farkas, 
 J. B. Foresman, and D. J. Fox, Gaussian, Inc., Wallingford CT, 2016.
 
 ******************************************
 Gaussian 16:  ES64L-G16RevA.03 25-Dec-2016
                22-Aug-2020 
 ******************************************
 %nprocshared=3
 Will use up to    3 processors via shared memory.
 %Mem=6GB
 %Chk=azadicarboxylate_6_conf81.chk
 ---------------------------------
 # opt=CalcAll B3LYP/6-31G* scf=qc
 ---------------------------------
 1/10=4,18=20,19=15,26=3,38=1/1,3;
 2/9=110,12=2,17=6,18=5,40=1/2;
 3/5=1,6=6,7=1,11=2,25=1,30=1,71=2,74=-5,140=1/1,2,3;
 4//1;
 5/5=2,8=3,38=5/8;
 8/6=4,10=90,11=11/1;
 11/6=1,8=1,9=11,15=111,16=1/1,2,10;
 10/6=1/2;
 6/7=2,8=2,9=2,10=2,18=1,28=1/1;
 7/10=1,25=1/1,2,3,16;
 1/10=4,18=20,19=15,26=3/3(3);
 2/9=110/2;
 7/8=1,9=1,25=1,44=-1/16;
 99//99;
 2/9=110/2;
 3/5=1,6=6,7=1,11=2,25=1,30=1,71=2,74=-5,140=1/1,2,3;
 4/5=5,16=3,69=1/1;
 5/5=2,8=3,38=5/8;
 8/6=4,10=90,11=11/1;
 11/6=1,8=1,9=11,15=111,16=1/1,2,10;
 10/6=1/2;
 7/10=1,25=1/1,2,3,16;
 1/10=4,18=20,19=15,26=3/3(-8);
 2/9=110/2;
 6/7=2,8=2,9=2,10=2,18=1,19=2,28=1/1;
 7/8=1,9=1,25=1,44=-1/16;
 99//99;
 -------------------
 Title Card Required
 -------------------
 Symbolic Z-matrix:
 Charge =  0 Multiplicity = 1
 C2                    0.8051    0.1255    0.0867 
 O3                    1.89899  -0.36292   0.37755 
 N4                    0.1995    1.147     0.7925 
 N5                   -1.0503    1.0879    0.7508 
 C6                   -1.6557    2.1093    1.4564 
 O7                   -2.87582   2.24737   1.56566 
 N8                   -0.77792   3.01167   2.06272 
 C                     0.66924   2.91604   1.95973 
 C                    -1.30138   4.11584   2.84502 
 N1                    0.08465  -0.34188  -1.01501 
 C                    -1.19358   0.25734  -1.3508 
 C                     0.54297  -1.4213   -1.87439 
 H                     0.99917   2.06635   1.3595 
 H                     1.08472   2.81651   2.96723 
 H                     1.04793   3.83588   1.50382 
 H                    -2.39343   4.12391   2.87799 
 H                    -0.95593   5.05502   2.40257 
 H                    -0.9192    4.03482   3.86706 
 H                    -1.47282   1.05936  -0.66345 
 H                    -1.96453  -0.51832  -1.31803 
 H                    -1.13443   0.66673  -2.36363 
 H                     1.50846  -1.82892  -1.56978 
 H                     0.62964  -1.04039  -2.89661 
 H                    -0.19997  -2.22443  -1.85174 
 

 GradGradGradGradGradGradGradGradGradGradGradGradGradGradGradGradGradGrad
 Berny optimization.
 Initialization pass.
                           ----------------------------
                           !    Initial Parameters    !
                           ! (Angstroms and Degrees)  !
 --------------------------                            --------------------------
 ! Name  Definition              Value          Derivative Info.                !
 --------------------------------------------------------------------------------
 ! R1    R(1,2)                  1.2328         calculate D2E/DX2 analytically  !
 ! R2    R(1,3)                  1.3814         calculate D2E/DX2 analytically  !
 ! R3    R(1,10)                 1.3969         calculate D2E/DX2 analytically  !
 ! R4    R(3,4)                  1.2519         calculate D2E/DX2 analytically  !
 ! R5    R(4,5)                  1.3812         calculate D2E/DX2 analytically  !
 ! R6    R(5,6)                  1.2328         calculate D2E/DX2 analytically  !
 ! R7    R(5,7)                  1.3973         calculate D2E/DX2 analytically  !
 ! R8    R(7,8)                  1.454          calculate D2E/DX2 analytically  !
 ! R9    R(7,9)                  1.4509         calculate D2E/DX2 analytically  !
 ! R10   R(8,13)                 1.0914         calculate D2E/DX2 analytically  !
 ! R11   R(8,14)                 1.0943         calculate D2E/DX2 analytically  !
 ! R12   R(8,15)                 1.0942         calculate D2E/DX2 analytically  !
 ! R13   R(9,16)                 1.0926         calculate D2E/DX2 analytically  !
 ! R14   R(9,17)                 1.0941         calculate D2E/DX2 analytically  !
 ! R15   R(9,18)                 1.0942         calculate D2E/DX2 analytically  !
 ! R16   R(10,11)                1.4511         calculate D2E/DX2 analytically  !
 ! R17   R(10,12)                1.4539         calculate D2E/DX2 analytically  !
 ! R18   R(11,19)                1.0925         calculate D2E/DX2 analytically  !
 ! R19   R(11,20)                1.0941         calculate D2E/DX2 analytically  !
 ! R20   R(11,21)                1.094          calculate D2E/DX2 analytically  !
 ! R21   R(12,22)                1.0914         calculate D2E/DX2 analytically  !
 ! R22   R(12,23)                1.0943         calculate D2E/DX2 analytically  !
 ! R23   R(12,24)                1.0943         calculate D2E/DX2 analytically  !
 ! A1    A(2,1,3)              124.154          calculate D2E/DX2 analytically  !
 ! A2    A(2,1,10)             120.7416         calculate D2E/DX2 analytically  !
 ! A3    A(3,1,10)             115.1045         calculate D2E/DX2 analytically  !
 ! A4    A(1,3,4)              112.6888         calculate D2E/DX2 analytically  !
 ! A5    A(3,4,5)              112.6849         calculate D2E/DX2 analytically  !
 ! A6    A(4,5,6)              124.1897         calculate D2E/DX2 analytically  !
 ! A7    A(4,5,7)              115.0815         calculate D2E/DX2 analytically  !
 ! A8    A(6,5,7)              120.7288         calculate D2E/DX2 analytically  !
 ! A9    A(5,7,8)              123.5079         calculate D2E/DX2 analytically  !
 ! A10   A(5,7,9)              119.9196         calculate D2E/DX2 analytically  !
 ! A11   A(8,7,9)              116.5726         calculate D2E/DX2 analytically  !
 ! A12   A(7,8,13)             113.0201         calculate D2E/DX2 analytically  !
 ! A13   A(7,8,14)             108.5815         calculate D2E/DX2 analytically  !
 ! A14   A(7,8,15)             108.583          calculate D2E/DX2 analytically  !
 ! A15   A(13,8,14)            108.7082         calculate D2E/DX2 analytically  !
 ! A16   A(13,8,15)            108.7051         calculate D2E/DX2 analytically  !
 ! A17   A(14,8,15)            109.1865         calculate D2E/DX2 analytically  !
 ! A18   A(7,9,16)             112.4882         calculate D2E/DX2 analytically  !
 ! A19   A(7,9,17)             108.7409         calculate D2E/DX2 analytically  !
 ! A20   A(7,9,18)             108.7395         calculate D2E/DX2 analytically  !
 ! A21   A(16,9,17)            108.7498         calculate D2E/DX2 analytically  !
 ! A22   A(16,9,18)            108.7525         calculate D2E/DX2 analytically  !
 ! A23   A(17,9,18)            109.3297         calculate D2E/DX2 analytically  !
 ! A24   A(1,10,11)            119.9112         calculate D2E/DX2 analytically  !
 ! A25   A(1,10,12)            123.506          calculate D2E/DX2 analytically  !
 ! A26   A(11,10,12)           116.5828         calculate D2E/DX2 analytically  !
 ! A27   A(10,11,19)           112.5004         calculate D2E/DX2 analytically  !
 ! A28   A(10,11,20)           108.724          calculate D2E/DX2 analytically  !
 ! A29   A(10,11,21)           108.731          calculate D2E/DX2 analytically  !
 ! A30   A(19,11,20)           108.7526         calculate D2E/DX2 analytically  !
 ! A31   A(19,11,21)           108.7567         calculate D2E/DX2 analytically  !
 ! A32   A(20,11,21)           109.3361         calculate D2E/DX2 analytically  !
 ! A33   A(10,12,22)           113.0289         calculate D2E/DX2 analytically  !
 ! A34   A(10,12,23)           108.5837         calculate D2E/DX2 analytically  !
 ! A35   A(10,12,24)           108.5807         calculate D2E/DX2 analytically  !
 ! A36   A(22,12,23)           108.7026         calculate D2E/DX2 analytically  !
 ! A37   A(22,12,24)           108.7062         calculate D2E/DX2 analytically  !
 ! A38   A(23,12,24)           109.1818         calculate D2E/DX2 analytically  !
 ! D1    D(2,1,3,4)           -149.5902         calculate D2E/DX2 analytically  !
 ! D2    D(10,1,3,4)            30.3973         calculate D2E/DX2 analytically  !
 ! D3    D(2,1,10,11)         -179.2351         calculate D2E/DX2 analytically  !
 ! D4    D(2,1,10,12)            0.7659         calculate D2E/DX2 analytically  !
 ! D5    D(3,1,10,11)            0.777          calculate D2E/DX2 analytically  !
 ! D6    D(3,1,10,12)         -179.222          calculate D2E/DX2 analytically  !
 ! D7    D(1,3,4,5)           -179.9952         calculate D2E/DX2 analytically  !
 ! D8    D(3,4,5,6)           -179.3227         calculate D2E/DX2 analytically  !
 ! D9    D(3,4,5,7)              0.6708         calculate D2E/DX2 analytically  !
 ! D10   D(4,5,7,8)              0.7858         calculate D2E/DX2 analytically  !
 ! D11   D(4,5,7,9)           -179.2063         calculate D2E/DX2 analytically  !
 ! D12   D(6,5,7,8)           -179.2203         calculate D2E/DX2 analytically  !
 ! D13   D(6,5,7,9)              0.7875         calculate D2E/DX2 analytically  !
 ! D14   D(5,7,8,13)             0.0104         calculate D2E/DX2 analytically  !
 ! D15   D(5,7,8,14)          -120.687          calculate D2E/DX2 analytically  !
 ! D16   D(5,7,8,15)           120.705          calculate D2E/DX2 analytically  !
 ! D17   D(9,7,8,13)          -179.9972         calculate D2E/DX2 analytically  !
 ! D18   D(9,7,8,14)            59.3054         calculate D2E/DX2 analytically  !
 ! D19   D(9,7,8,15)           -59.3026         calculate D2E/DX2 analytically  !
 ! D20   D(5,7,9,16)            -0.012          calculate D2E/DX2 analytically  !
 ! D21   D(5,7,9,17)          -120.5307         calculate D2E/DX2 analytically  !
 ! D22   D(5,7,9,18)           120.5091         calculate D2E/DX2 analytically  !
 ! D23   D(8,7,9,16)           179.9953         calculate D2E/DX2 analytically  !
 ! D24   D(8,7,9,17)            59.4766         calculate D2E/DX2 analytically  !
 ! D25   D(8,7,9,18)           -59.4836         calculate D2E/DX2 analytically  !
 ! D26   D(1,10,11,19)          -0.0042         calculate D2E/DX2 analytically  !
 ! D27   D(1,10,11,20)        -120.5225         calculate D2E/DX2 analytically  !
 ! D28   D(1,10,11,21)         120.5242         calculate D2E/DX2 analytically  !
 ! D29   D(12,10,11,19)        179.9948         calculate D2E/DX2 analytically  !
 ! D30   D(12,10,11,20)         59.4765         calculate D2E/DX2 analytically  !
 ! D31   D(12,10,11,21)        -59.4768         calculate D2E/DX2 analytically  !
 ! D32   D(1,10,12,22)          -0.0014         calculate D2E/DX2 analytically  !
 ! D33   D(1,10,12,23)        -120.699          calculate D2E/DX2 analytically  !
 ! D34   D(1,10,12,24)         120.6987         calculate D2E/DX2 analytically  !
 ! D35   D(11,10,12,22)        179.9997         calculate D2E/DX2 analytically  !
 ! D36   D(11,10,12,23)         59.3021         calculate D2E/DX2 analytically  !
 ! D37   D(11,10,12,24)        -59.3003         calculate D2E/DX2 analytically  !
 --------------------------------------------------------------------------------
 Trust Radius=3.00D-01 FncErr=1.00D-07 GrdErr=1.00D-06 EigMax=2.50D+02 EigMin=1.00D-04
 Number of steps in this run=    108 maximum allowed number of steps=    144.
 GradGradGradGradGradGradGradGradGradGradGradGradGradGradGradGradGradGrad

                          Input orientation:                          
 ---------------------------------------------------------------------
 Center     Atomic      Atomic             Coordinates (Angstroms)
 Number     Number       Type             X           Y           Z
 ---------------------------------------------------------------------
      1          6           0        0.805100    0.125500    0.086700
      2          8           0        1.898990   -0.362920    0.377550
      3          7           0        0.199500    1.147000    0.792500
      4          7           0       -1.050300    1.087900    0.750800
      5          6           0       -1.655700    2.109300    1.456400
      6          8           0       -2.875820    2.247370    1.565660
      7          7           0       -0.777920    3.011670    2.062720
      8          6           0        0.669240    2.916040    1.959730
      9          6           0       -1.301380    4.115840    2.845020
     10          7           0        0.084650   -0.341880   -1.015010
     11          6           0       -1.193580    0.257340   -1.350800
     12          6           0        0.542970   -1.421300   -1.874390
     13          1           0        0.999170    2.066350    1.359500
     14          1           0        1.084720    2.816510    2.967230
     15          1           0        1.047930    3.835880    1.503820
     16          1           0       -2.393430    4.123910    2.877990
     17          1           0       -0.955930    5.055020    2.402570
     18          1           0       -0.919200    4.034820    3.867060
     19          1           0       -1.472820    1.059360   -0.663450
     20          1           0       -1.964530   -0.518320   -1.318030
     21          1           0       -1.134430    0.666730   -2.363630
     22          1           0        1.508460   -1.828920   -1.569780
     23          1           0        0.629640   -1.040390   -2.896610
     24          1           0       -0.199970   -2.224430   -1.851740
 ---------------------------------------------------------------------
                    Distance matrix (angstroms):
                    1          2          3          4          5
     1  C    0.000000
     2  O    1.232779   0.000000
     3  N    1.381437   2.310911   0.000000
     4  N    2.193115   3.307946   1.251891   0.000000
     5  C    3.444862   4.462243   2.192841   1.381173   0.000000
     6  O    4.498758   5.569922   3.356514   2.311037   1.232759
     7  N    3.839347   4.625311   2.458821   2.344401   1.397281
     8  C    3.363601   3.842806   2.170849   2.785754   2.511875
     9  C    5.288516   6.032418   3.908899   3.690152   2.465768
    10  N    1.396874   2.287246   2.344578   2.539777   3.891654
    11  C    2.465463   3.596652   2.706640   2.264306   3.394655
    12  C    2.511409   2.833759   3.718392   3.965629   5.328550
    13  H    2.329073   2.770425   1.343937   2.351214   2.656985
    14  H    3.951857   4.180700   2.881029   3.529726   3.208217
    15  H    3.979210   4.429753   2.907900   3.538503   3.208262
    16  H    5.831739   6.693931   4.464812   3.942879   2.573678
    17  H    5.724041   6.450221   4.381776   4.298289   3.172094
    18  H    5.705008   6.281639   4.363933   4.290991   3.171962
    19  H    2.573663   3.804690   2.219037   1.476293   2.372674
    20  H    3.171533   4.222076   3.451181   2.774134   3.833696
    21  H    3.171565   4.216146   3.459940   3.143905   4.116474
    22  H    2.656765   2.468555   4.018687   4.521082   5.888909
    23  H    3.207838   3.576358   4.310363   4.544823   5.838837
    24  H    3.207785   3.583376   4.303269   4.297418   5.643063
                    6          7          8          9         10
     6  O    0.000000
     7  N    2.287446   0.000000
     8  C    3.629030   1.453968   0.000000
     9  C    2.758043   1.450929   2.471154   0.000000
    10  N    4.704089   4.632790   4.450266   6.057407   0.000000
    11  C    3.910996   4.405817   4.636636   5.701276   1.451100
    12  C    6.081218   6.074274   5.790418   7.505623   1.453870
    13  H    3.884690   2.132181   1.091377   3.420484   3.503458
    14  H    4.239599   2.079821   1.094343   2.719681   5.180135
    15  H    4.233557   2.079764   1.094242   2.719642   4.972534
    16  H    2.340152   2.124056   3.417909   1.092577   6.421807
    17  H    3.502755   2.079054   2.722594   1.094147   6.472186
    18  H    3.509955   2.079048   2.722631   1.094162   6.633086
    19  H    2.889413   3.424384   3.862222   4.656267   2.124331
    20  H    4.098190   5.029746   5.429114   6.264678   2.078964
    21  H    4.579321   5.021794   5.196543   6.249341   2.078996
    22  H    6.757887   6.469459   5.972970   7.919964   2.132204
    23  H    6.558161   6.557085   6.264100   7.954990   2.079747
    24  H    6.231837   6.563061   6.458116   7.966912   2.079692
                   11         12         13         14         15
    11  C    0.000000
    12  C    2.471353   0.000000
    13  H    3.927645   4.778061   0.000000
    14  H    5.512294   6.457074   1.776191   0.000000
    15  H    5.096977   6.269388   1.776075   1.783827   0.000000
    16  H    5.854286   7.871271   4.248423   3.716825   3.716754
    17  H    6.096064   7.904544   3.720559   3.081237   2.511874
    18  H    6.447535   8.054281   3.720601   2.511905   3.081247
    19  H    1.092548   3.418108   3.349192   4.776026   4.331317
    20  H    1.094114   2.722584   4.757437   6.227557   5.999734
    21  H    1.094040   2.722663   4.513633   6.161514   5.455582
    22  H    3.420739   1.091381   4.900325   6.507229   6.461352
    23  H    2.719883   1.094321   5.282316   7.033306   6.581547
    24  H    2.719813   1.094299   5.491884   7.091120   7.038778
                   16         17         18         19         20
    16  H    0.000000
    17  H    1.777469   0.000000
    18  H    1.777512   1.785186   0.000000
    19  H    4.772922   5.062900   5.448429   0.000000
    20  H    6.272228   6.776596   6.979180   1.777450   0.000000
    21  H    6.404042   6.481174   7.086032   1.777436   1.785130
    22  H    8.393068   8.321143   8.356806   4.248720   3.720579
    23  H    8.315946   8.231000   8.596737   3.717027   3.081264
    24  H    8.214806   8.465283   8.508829   3.716915   2.511838
                   21         22         23         24
    21  H    0.000000
    22  H    3.720663   0.000000
    23  H    2.512025   1.776114   0.000000
    24  H    3.081242   1.776137   1.783804   0.000000
 Stoichiometry    C6H12N4O2
 Framework group  C1[X(C6H12N4O2)]
 Deg. of freedom    66
 Full point group                 C1      NOp   1
 Largest Abelian subgroup         C1      NOp   1
 Largest concise Abelian subgroup C1      NOp   1
                         Standard orientation:                         
 ---------------------------------------------------------------------
 Center     Atomic      Atomic             Coordinates (Angstroms)
 Number     Number       Type             X           Y           Z
 ---------------------------------------------------------------------
      1          6           0       -1.516744    0.808453   -0.167545
      2          8           0       -2.029375    1.883334   -0.486266
      3          7           0       -0.154708    0.593018   -0.084993
      4          7           0        0.163970   -0.588974   -0.346851
      5          6           0        1.525748   -0.804303   -0.264187
      6          8           0        2.071010   -1.886394   -0.491039
      7          7           0        2.280704    0.312292    0.104119
      8          6           0        1.699676    1.611601    0.401148
      9          6           0        3.724301    0.208235    0.206067
     10          7           0       -2.311549   -0.298136    0.140679
     11          6           0       -1.689409   -1.550038    0.529748
     12          6           0       -3.764637   -0.279828    0.096646
     13          1           0        0.612459    1.624566    0.306835
     14          1           0        2.120771    2.348145   -0.290060
     15          1           0        1.966306    1.886738    1.426123
     16          1           0        4.088779   -0.794208   -0.030552
     17          1           0        4.023524    0.459091    1.228170
     18          1           0        4.178074    0.920750   -0.489349
     19          1           0       -0.598607   -1.489242    0.540525
     20          1           0       -1.991388   -2.327343   -0.178555
     21          1           0       -2.036705   -1.818406    1.531889
     22          1           0       -4.170559    0.688178   -0.202192
     23          1           0       -4.146853   -0.528631    1.091405
     24          1           0       -4.101408   -1.037279   -0.617737
 ---------------------------------------------------------------------
 Rotational constants (GHZ):           1.9922333           0.5679386           0.4622829
 Standard basis: 6-31G(d) (6D, 7F)
 There are   204 symmetry adapted cartesian basis functions of A   symmetry.
 There are   204 symmetry adapted basis functions of A   symmetry.
   204 basis functions,   384 primitive gaussians,   204 cartesian basis functions
    46 alpha electrons       46 beta electrons
       nuclear repulsion energy       756.3348914961 Hartrees.
 NAtoms=   24 NActive=   24 NUniq=   24 SFac= 1.00D+00 NAtFMM=   60 NAOKFM=F Big=F
 Integral buffers will be    131072 words long.
 Raffenetti 2 integral format.
 Two-electron integral symmetry is turned on.
 One-electron integrals computed using PRISM.
 NBasis=   204 RedAO= T EigKep=  1.64D-03  NBF=   204
 NBsUse=   204 1.00D-06 EigRej= -1.00D+00 NBFU=   204
 ExpMin= 1.61D-01 ExpMax= 5.48D+03 ExpMxC= 8.25D+02 IAcc=3 IRadAn=         5 AccDes= 0.00D+00
 Harris functional with IExCor=  402 and IRadAn=       5 diagonalized for initial guess.
 HarFok:  IExCor=  402 AccDes= 0.00D+00 IRadAn=         5 IDoV= 1 UseB2=F ITyADJ=14
 ICtDFT=  3500011 ScaDFX=  1.000000  1.000000  1.000000  1.000000
 FoFCou: FMM=F IPFlag=           0 FMFlag=      100000 FMFlg1=           0
         NFxFlg=           0 DoJE=T BraDBF=F KetDBF=T FulRan=T
         wScrn=  0.000000 ICntrl=       500 IOpCl=  0 I1Cent=   200000004 NGrid=           0
         NMat0=    1 NMatS0=      1 NMatT0=    0 NMatD0=    1 NMtDS0=    0 NMtDT0=    0
 Petite list used in FoFCou.
 Keep R1 ints in memory in canonical form, NReq=222933844.
 Gradient too large for Newton-Raphson -- use scaled steepest descent instead.
     Minimum is close to point  2 DX=  1.64D-03 DF= -9.65D-06 DXR=  5.45D-03 DFR=  2.97D-05 which will be used.
 Gradient too large for Newton-Raphson -- use scaled steepest descent instead.
 Gradient too large for Newton-Raphson -- use scaled steepest descent instead.
     Accept linear search using points  1 and  2.
 Gradient too large for Newton-Raphson -- use scaled steepest descent instead.
     Accept linear search using points  2 and  3.
 Gradient too large for Newton-Raphson -- use scaled steepest descent instead.
     Minimum is close to point  2 DX=  2.25D-02 DF= -9.34D-07 DXR=  5.33D-02 DFR=  2.85D-03 which will be used.
 Gradient too large for Newton-Raphson -- use scaled steepest descent instead.
 Gradient too large for Newton-Raphson -- use scaled steepest descent instead.
     Accept linear search using points  1 and  2.
 LinEq1:  Iter=  0 NonCon=     1 RMS=2.10D-04 Max=1.73D-02 NDo=     1
 AX will form     1 AO Fock derivatives at one time.
 LinEq1:  Iter=  1 NonCon=     1 RMS=4.30D-05 Max=1.65D-03 NDo=     1
 LinEq1:  Iter=  2 NonCon=     1 RMS=5.92D-05 Max=2.20D-03 NDo=     1
 LinEq1:  Iter=  3 NonCon=     1 RMS=2.76D-05 Max=7.27D-04 NDo=     1
 LinEq1:  Iter=  4 NonCon=     1 RMS=1.64D-05 Max=5.26D-04 NDo=     1
 LinEq1:  Iter=  5 NonCon=     1 RMS=1.47D-05 Max=4.78D-04 NDo=     1
 LinEq1:  Iter=  6 NonCon=     1 RMS=7.59D-06 Max=1.88D-04 NDo=     1
 LinEq1:  Iter=  7 NonCon=     1 RMS=6.83D-06 Max=3.04D-04 NDo=     1
 LinEq1:  Iter=  8 NonCon=     1 RMS=4.24D-06 Max=1.48D-04 NDo=     1
 LinEq1:  Iter=  9 NonCon=     1 RMS=4.32D-06 Max=1.34D-04 NDo=     1
 LinEq1:  Iter= 10 NonCon=     1 RMS=2.32D-06 Max=4.25D-05 NDo=     1
 LinEq1:  Iter= 11 NonCon=     1 RMS=1.11D-06 Max=2.56D-05 NDo=     1
 LinEq1:  Iter= 12 NonCon=     1 RMS=6.07D-07 Max=1.96D-05 NDo=     1
 LinEq1:  Iter= 13 NonCon=     1 RMS=3.31D-07 Max=5.34D-06 NDo=     1
 LinEq1:  Iter= 14 NonCon=     1 RMS=1.82D-07 Max=4.72D-06 NDo=     1
 LinEq1:  Iter= 15 NonCon=     1 RMS=7.38D-08 Max=1.32D-06 NDo=     1
 LinEq1:  Iter= 16 NonCon=     1 RMS=2.36D-08 Max=4.76D-07 NDo=     1
 LinEq1:  Iter= 17 NonCon=     1 RMS=1.05D-08 Max=1.78D-07 NDo=     1
 LinEq1:  Iter= 18 NonCon=     0 RMS=3.87D-09 Max=9.54D-08 NDo=     1
 Linear equations converged to 1.206D-08 1.206D-07 after    18 iterations.
     Accept linear search using points  1 and  2.
     Minimum is close to point  2 DX= -1.48D-02 DF= -2.83D-08 DXR=  1.50D-02 DFR=  2.29D-04 which will be used.
 LinEq1:  Iter=  0 NonCon=     1 RMS=1.16D-05 Max=3.96D-04 NDo=     1
 LinEq1:  Iter=  1 NonCon=     1 RMS=9.67D-06 Max=5.38D-04 NDo=     1
 LinEq1:  Iter=  2 NonCon=     1 RMS=8.35D-06 Max=3.02D-04 NDo=     1
 LinEq1:  Iter=  3 NonCon=     1 RMS=7.16D-06 Max=2.80D-04 NDo=     1
 LinEq1:  Iter=  4 NonCon=     1 RMS=7.08D-06 Max=1.81D-04 NDo=     1
 LinEq1:  Iter=  5 NonCon=     1 RMS=4.69D-06 Max=1.35D-04 NDo=     1
 LinEq1:  Iter=  6 NonCon=     1 RMS=4.08D-06 Max=1.31D-04 NDo=     1
 LinEq1:  Iter=  7 NonCon=     1 RMS=1.88D-06 Max=5.64D-05 NDo=     1
 LinEq1:  Iter=  8 NonCon=     1 RMS=1.94D-06 Max=5.19D-05 NDo=     1
 LinEq1:  Iter=  9 NonCon=     1 RMS=9.20D-07 Max=2.46D-05 NDo=     1
 LinEq1:  Iter= 10 NonCon=     1 RMS=5.44D-07 Max=1.54D-05 NDo=     1
 LinEq1:  Iter= 11 NonCon=     1 RMS=2.15D-07 Max=4.95D-06 NDo=     1
 LinEq1:  Iter= 12 NonCon=     1 RMS=1.29D-07 Max=3.26D-06 NDo=     1
 LinEq1:  Iter= 13 NonCon=     1 RMS=6.28D-08 Max=8.38D-07 NDo=     1
 LinEq1:  Iter= 14 NonCon=     1 RMS=3.16D-08 Max=8.15D-07 NDo=     1
 LinEq1:  Iter= 15 NonCon=     1 RMS=1.23D-08 Max=2.98D-07 NDo=     1
 LinEq1:  Iter= 16 NonCon=     1 RMS=5.71D-09 Max=1.05D-07 NDo=     1
 LinEq1:  Iter= 17 NonCon=     0 RMS=1.75D-09 Max=4.73D-08 NDo=     1
 Linear equations converged to 6.885D-09 6.885D-08 after    17 iterations.
     Minimum is close to point  2 DX=  9.58D-04 DF= -3.41D-13 DXR=  9.57D-04 DFR=  1.21D-06 which will be used.
 SCF Done:  E(RB3LYP) =  -605.112904222     a.u. after   10 cycles
            Convg  =    0.2965D-06                    57 Fock formations.
              S**2 =  0.0000                  -V/T =  2.0075
 DoSCS=F DFT=T ScalE2(SS,OS)=  1.000000  1.000000
 Range of M.O.s used for correlation:     1   204
 NBasis=   204 NAE=    46 NBE=    46 NFC=     0 NFV=     0
 NROrb=    204 NOA=    46 NOB=    46 NVA=   158 NVB=   158

 **** Warning!!: The smallest alpha delta epsilon is  0.68103543D-01

 Symmetrizing basis deriv contribution to polar:
 IMax=3 JMax=2 DiffMx= 0.00D+00
 G2DrvN: will do    25 centers at a time, making    1 passes.
 Calling FoFCou, ICntrl=  3107 FMM=F I1Cent=   0 AccDes= 0.00D+00.
 End of G2Drv F.D. properties file   721 does not exist.
 End of G2Drv F.D. properties file   722 does not exist.
 End of G2Drv F.D. properties file   788 does not exist.
          IDoAtm=111111111111111111111111
          Differentiating once with respect to electric field.
                with respect to dipole field.
          Differentiating once with respect to nuclear coordinates.
 Keep R1 ints in memory in canonical form, NReq=222943279.
          There are    75 degrees of freedom in the 1st order CPHF.  IDoFFX=6 NUNeed=     3.
     72 vectors produced by pass  0 Test12= 9.69D-15 1.33D-09 XBig12= 1.85D+02 5.98D+00.
 AX will form    72 AO Fock derivatives at one time.
     72 vectors produced by pass  1 Test12= 9.69D-15 1.33D-09 XBig12= 6.49D+01 1.77D+00.
     72 vectors produced by pass  2 Test12= 9.69D-15 1.33D-09 XBig12= 6.42D-01 1.09D-01.
     72 vectors produced by pass  3 Test12= 9.69D-15 1.33D-09 XBig12= 2.78D-03 6.20D-03.
     72 vectors produced by pass  4 Test12= 9.69D-15 1.33D-09 XBig12= 4.05D-06 2.25D-04.
     50 vectors produced by pass  5 Test12= 9.69D-15 1.33D-09 XBig12= 3.15D-09 6.49D-06.
      8 vectors produced by pass  6 Test12= 9.69D-15 1.33D-09 XBig12= 2.37D-12 1.36D-07.
      3 vectors produced by pass  7 Test12= 9.69D-15 1.33D-09 XBig12= 1.60D-15 3.47D-09.
 InvSVY:  IOpt=1 It=  1 EMax= 1.42D-14
 Solved reduced A of dimension   421 with    75 vectors.
 Isotropic polarizability for W=    0.000000      108.89 Bohr**3.
 End of Minotr F.D. properties file   721 does not exist.
 End of Minotr F.D. properties file   722 does not exist.
 End of Minotr F.D. properties file   788 does not exist.

 **********************************************************************

            Population analysis using the SCF density.

 **********************************************************************

 Orbital symmetries:
       Occupied  (A) (A) (A) (A) (A) (A) (A) (A) (A) (A) (A) (A)
                 (A) (A) (A) (A) (A) (A) (A) (A) (A) (A) (A) (A)
                 (A) (A) (A) (A) (A) (A) (A) (A) (A) (A) (A) (A)
                 (A) (A) (A) (A) (A) (A) (A) (A) (A) (A)
       Virtual   (A) (A) (A) (A) (A) (A) (A) (A) (A) (A) (A) (A)
                 (A) (A) (A) (A) (A) (A) (A) (A) (A) (A) (A) (A)
                 (A) (A) (A) (A) (A) (A) (A) (A) (A) (A) (A) (A)
                 (A) (A) (A) (A) (A) (A) (A) (A) (A) (A) (A) (A)
                 (A) (A) (A) (A) (A) (A) (A) (A) (A) (A) (A) (A)
                 (A) (A) (A) (A) (A) (A) (A) (A) (A) (A) (A) (A)
                 (A) (A) (A) (A) (A) (A) (A) (A) (A) (A) (A) (A)
                 (A) (A) (A) (A) (A) (A) (A) (A) (A) (A) (A) (A)
                 (A) (A) (A) (A) (A) (A) (A) (A) (A) (A) (A) (A)
                 (A) (A) (A) (A) (A) (A) (A) (A) (A) (A) (A) (A)
                 (A) (A) (A) (A) (A) (A) (A) (A) (A) (A) (A) (A)
                 (A) (A) (A) (A) (A) (A) (A) (A) (A) (A) (A) (A)
                 (A) (A) (A) (A) (A) (A) (A) (A) (A) (A) (A) (A)
                 (A) (A)
 The electronic state is 1-A.
 Alpha  occ. eigenvalues --  -19.13163 -19.12684 -14.43398 -14.41164 -14.38251
 Alpha  occ. eigenvalues --  -14.37927 -10.32271 -10.32059 -10.23039 -10.22415
 Alpha  occ. eigenvalues --  -10.21870 -10.17683  -1.12743  -1.05236  -1.02758
 Alpha  occ. eigenvalues --   -0.94826  -0.93513  -0.83160  -0.74754  -0.72925
 Alpha  occ. eigenvalues --   -0.70401  -0.67416  -0.62150  -0.60426  -0.54822
 Alpha  occ. eigenvalues --   -0.51249  -0.50045  -0.48646  -0.47528  -0.47476
 Alpha  occ. eigenvalues --   -0.45277  -0.44255  -0.43704  -0.42421  -0.41761
 Alpha  occ. eigenvalues --   -0.40189  -0.39916  -0.39825  -0.39153  -0.35518
 Alpha  occ. eigenvalues --   -0.32674  -0.28542  -0.27905  -0.25023  -0.24547
 Alpha  occ. eigenvalues --   -0.20613
 Alpha virt. eigenvalues --   -0.13803   0.03156   0.05701   0.08645   0.09764
 Alpha virt. eigenvalues --    0.12673   0.13378   0.14340   0.14720   0.15123
 Alpha virt. eigenvalues --    0.15586   0.16167   0.16402   0.17082   0.18655
 Alpha virt. eigenvalues --    0.19296   0.20563   0.21967   0.23330   0.23675
 Alpha virt. eigenvalues --    0.29206   0.30217   0.34018   0.37157   0.40065
 Alpha virt. eigenvalues --    0.43681   0.45211   0.46790   0.48891   0.49405
 Alpha virt. eigenvalues --    0.50634   0.51588   0.54058   0.55499   0.57546
 Alpha virt. eigenvalues --    0.60244   0.61933   0.62982   0.64848   0.65710
 Alpha virt. eigenvalues --    0.66643   0.66724   0.68848   0.69759   0.72300
 Alpha virt. eigenvalues --    0.73391   0.77752   0.79507   0.79900   0.81344
 Alpha virt. eigenvalues --    0.83699   0.84319   0.84852   0.85627   0.87154
 Alpha virt. eigenvalues --    0.88070   0.89205   0.89279   0.89782   0.91836
 Alpha virt. eigenvalues --    0.92324   0.93772   0.95068   0.96371   0.96925
 Alpha virt. eigenvalues --    0.98515   1.00273   1.01708   1.04087   1.07142
 Alpha virt. eigenvalues --    1.10427   1.11899   1.13394   1.16134   1.18073
 Alpha virt. eigenvalues --    1.22918   1.23406   1.30247   1.34939   1.35751
 Alpha virt. eigenvalues --    1.37981   1.39019   1.42015   1.43478   1.45078
 Alpha virt. eigenvalues --    1.48371   1.49799   1.51905   1.55788   1.58017
 Alpha virt. eigenvalues --    1.61346   1.66447   1.69854   1.77067   1.77632
 Alpha virt. eigenvalues --    1.77896   1.81072   1.82803   1.83564   1.84830
 Alpha virt. eigenvalues --    1.87227   1.88538   1.91211   1.92308   1.93680
 Alpha virt. eigenvalues --    1.97083   1.97972   2.04529   2.04783   2.05443
 Alpha virt. eigenvalues --    2.06669   2.07063   2.07996   2.09462   2.12260
 Alpha virt. eigenvalues --    2.16115   2.18932   2.20131   2.20706   2.26572
 Alpha virt. eigenvalues --    2.29947   2.30981   2.34870   2.36321   2.37390
 Alpha virt. eigenvalues --    2.38140   2.38546   2.42063   2.45197   2.47891
 Alpha virt. eigenvalues --    2.54335   2.56761   2.60863   2.64096   2.64986
 Alpha virt. eigenvalues --    2.66426   2.71111   2.72987   2.80331   2.81268
 Alpha virt. eigenvalues --    2.93545   2.96851   3.08116   3.11575   3.20239
 Alpha virt. eigenvalues --    3.25599   3.82983   3.96184   3.97743   4.07731
 Alpha virt. eigenvalues --    4.11481   4.21059   4.26233   4.28507   4.38018
 Alpha virt. eigenvalues --    4.40615   4.52410   4.59671
          Condensed to atoms (all electrons):
               1          2          3          4          5          6
     1  C    4.238261   0.600154   0.192247  -0.035001   0.001636  -0.000138
     2  O    0.600154   8.068583  -0.079047   0.001081  -0.000172   0.000000
     3  N    0.192247  -0.079047   7.642922   0.127736  -0.048778   0.002816
     4  N   -0.035001   0.001081   0.127736   7.388045   0.177163  -0.071903
     5  C    0.001636  -0.000172  -0.048778   0.177163   4.282785   0.584412
     6  O   -0.000138   0.000000   0.002816  -0.071903   0.584412   8.075361
     7  N    0.001052   0.000021   0.000454  -0.113265   0.305941  -0.107449
     8  C    0.003594  -0.001419  -0.357218   0.020624  -0.017533   0.002866
     9  C   -0.000005  -0.000000  -0.002115   0.005480  -0.028137  -0.007474
    10  N    0.297909  -0.105138  -0.103633  -0.013737   0.001204   0.000015
    11  C   -0.030011   0.003028  -0.012839  -0.113884   0.001310  -0.000549
    12  C   -0.024032  -0.004126   0.004924  -0.000694   0.000011  -0.000000
    13  H    0.013546   0.011319  -0.112252   0.006062  -0.007580  -0.000074
    14  H   -0.000180  -0.000007   0.014330  -0.001300   0.000256  -0.000055
    15  H   -0.000027  -0.000003   0.012197  -0.001188   0.000801  -0.000021
    16  H    0.000001  -0.000000   0.000056   0.000519  -0.002309   0.016995
    17  H    0.000001   0.000000   0.000035  -0.000090   0.001312   0.000663
    18  H    0.000000  -0.000000   0.000146  -0.000195   0.000934   0.000527
    19  H   -0.009637  -0.000103  -0.011450  -0.056027   0.009760   0.004930
    20  H    0.000667  -0.000024   0.001480  -0.000020  -0.000512   0.000027
    21  H    0.000561  -0.000066  -0.000537   0.007297   0.000065   0.000002
    22  H   -0.000559   0.014285   0.000480   0.000002   0.000001  -0.000000
    23  H    0.001155   0.000304  -0.000183   0.000084   0.000002  -0.000000
    24  H    0.001166   0.000522  -0.000020  -0.000109  -0.000004   0.000000
               7          8          9         10         11         12
     1  C    0.001052   0.003594  -0.000005   0.297909  -0.030011  -0.024032
     2  O    0.000021  -0.001419  -0.000000  -0.105138   0.003028  -0.004126
     3  N    0.000454  -0.357218  -0.002115  -0.103633  -0.012839   0.004924
     4  N   -0.113265   0.020624   0.005480  -0.013737  -0.113884  -0.000694
     5  C    0.305941  -0.017533  -0.028137   0.001204   0.001310   0.000011
     6  O   -0.107449   0.002866  -0.007474   0.000015  -0.000549  -0.000000
     7  N    7.008399   0.278781   0.295530  -0.000011  -0.000271  -0.000000
     8  C    0.278781   5.405069  -0.057936  -0.000504  -0.000015   0.000023
     9  C    0.295530  -0.057936   4.985535   0.000000   0.000008   0.000000
    10  N   -0.000011  -0.000504   0.000000   7.012063   0.291074   0.291681
    11  C   -0.000271  -0.000015   0.000008   0.291074   5.099004  -0.051594
    12  C   -0.000000   0.000023   0.000000   0.291681  -0.051594   4.967371
    13  H   -0.020543   0.394999   0.003067   0.001473  -0.000757  -0.000000
    14  H   -0.054484   0.352095  -0.004672   0.000007  -0.000002  -0.000000
    15  H   -0.052037   0.348178  -0.003456  -0.000000   0.000014  -0.000000
    16  H   -0.028509   0.004416   0.368539  -0.000000   0.000000  -0.000000
    17  H   -0.045792  -0.001466   0.379367  -0.000000  -0.000000   0.000000
    18  H   -0.046214   0.001075   0.375360   0.000000  -0.000000  -0.000000
    19  H   -0.000567  -0.000666   0.000018  -0.023611   0.377558   0.003610
    20  H    0.000001   0.000003  -0.000000  -0.048348   0.380538  -0.000132
    21  H    0.000019  -0.000036  -0.000000  -0.053484   0.343696  -0.005090
    22  H   -0.000000   0.000001   0.000000  -0.028556   0.003923   0.373830
    23  H    0.000000  -0.000001  -0.000000  -0.046942  -0.000862   0.374628
    24  H   -0.000000   0.000000  -0.000000  -0.047674  -0.001983   0.381726
              13         14         15         16         17         18
     1  C    0.013546  -0.000180  -0.000027   0.000001   0.000001   0.000000
     2  O    0.011319  -0.000007  -0.000003  -0.000000   0.000000  -0.000000
     3  N   -0.112252   0.014330   0.012197   0.000056   0.000035   0.000146
     4  N    0.006062  -0.001300  -0.001188   0.000519  -0.000090  -0.000195
     5  C   -0.007580   0.000256   0.000801  -0.002309   0.001312   0.000934
     6  O   -0.000074  -0.000055  -0.000021   0.016995   0.000663   0.000527
     7  N   -0.020543  -0.054484  -0.052037  -0.028509  -0.045792  -0.046214
     8  C    0.394999   0.352095   0.348178   0.004416  -0.001466   0.001075
     9  C    0.003067  -0.004672  -0.003456   0.368539   0.379367   0.375360
    10  N    0.001473   0.000007  -0.000000  -0.000000  -0.000000   0.000000
    11  C   -0.000757  -0.000002   0.000014   0.000000  -0.000000  -0.000000
    12  C   -0.000000  -0.000000  -0.000000  -0.000000   0.000000  -0.000000
    13  H    0.417009  -0.020279  -0.016744  -0.000198   0.000051  -0.000015
    14  H   -0.020279   0.595703  -0.031754   0.000053  -0.001509   0.007346
    15  H   -0.016744  -0.031754   0.595599   0.000033   0.006246  -0.001315
    16  H   -0.000198   0.000053   0.000033   0.487962  -0.025566  -0.024459
    17  H    0.000051  -0.001509   0.006246  -0.025566   0.563020  -0.037693
    18  H   -0.000015   0.007346  -0.001315  -0.024459  -0.037693   0.562291
    19  H   -0.000769  -0.000009   0.000113   0.000001   0.000003  -0.000002
    20  H    0.000005   0.000000  -0.000000  -0.000000  -0.000000   0.000000
    21  H    0.000045   0.000000   0.000001   0.000000   0.000000   0.000000
    22  H   -0.000006  -0.000000  -0.000000   0.000000  -0.000000   0.000000
    23  H   -0.000001   0.000000   0.000000   0.000000   0.000000  -0.000000
    24  H   -0.000000   0.000000  -0.000000  -0.000000  -0.000000   0.000000
              19         20         21         22         23         24
     1  C   -0.009637   0.000667   0.000561  -0.000559   0.001155   0.001166
     2  O   -0.000103  -0.000024  -0.000066   0.014285   0.000304   0.000522
     3  N   -0.011450   0.001480  -0.000537   0.000480  -0.000183  -0.000020
     4  N   -0.056027  -0.000020   0.007297   0.000002   0.000084  -0.000109
     5  C    0.009760  -0.000512   0.000065   0.000001   0.000002  -0.000004
     6  O    0.004930   0.000027   0.000002  -0.000000  -0.000000   0.000000
     7  N   -0.000567   0.000001   0.000019  -0.000000   0.000000  -0.000000
     8  C   -0.000666   0.000003  -0.000036   0.000001  -0.000001   0.000000
     9  C    0.000018  -0.000000  -0.000000   0.000000  -0.000000  -0.000000
    10  N   -0.023611  -0.048348  -0.053484  -0.028556  -0.046942  -0.047674
    11  C    0.377558   0.380538   0.343696   0.003923  -0.000862  -0.001983
    12  C    0.003610  -0.000132  -0.005090   0.373830   0.374628   0.381726
    13  H   -0.000769   0.000005   0.000045  -0.000006  -0.000001  -0.000000
    14  H   -0.000009   0.000000   0.000000  -0.000000   0.000000   0.000000
    15  H    0.000113  -0.000000   0.000001  -0.000000   0.000000  -0.000000
    16  H    0.000001  -0.000000   0.000000   0.000000   0.000000  -0.000000
    17  H    0.000003  -0.000000   0.000000  -0.000000   0.000000  -0.000000
    18  H   -0.000002   0.000000   0.000000   0.000000  -0.000000   0.000000
    19  H    0.499688  -0.023265  -0.025496  -0.000178  -0.000018   0.000087
    20  H   -0.023265   0.552299  -0.041294  -0.000068  -0.001869   0.006625
    21  H   -0.025496  -0.041294   0.626162  -0.000057   0.008416  -0.001963
    22  H   -0.000178  -0.000068  -0.000057   0.479073  -0.024890  -0.025216
    23  H   -0.000018  -0.001869   0.008416  -0.024890   0.570652  -0.041009
    24  H    0.000087   0.006625  -0.001963  -0.025216  -0.041009   0.561660
 Mulliken charges:
               1
     1  C    0.747640
     2  O   -0.509190
     3  N   -0.271750
     4  N   -0.326681
     5  C    0.737432
     6  O   -0.500953
     7  N   -0.421057
     8  C   -0.374930
     9  C   -0.309108
    10  N   -0.423786
    11  C   -0.287385
    12  C   -0.312135
    13  H    0.331643
    14  H    0.144459
    15  H    0.143363
    16  H    0.202467
    17  H    0.161418
    18  H    0.162215
    19  H    0.256029
    20  H    0.173889
    21  H    0.141759
    22  H    0.207934
    23  H    0.160536
    24  H    0.166192
 Sum of Mulliken charges =  -0.00000
 Mulliken charges with hydrogens summed into heavy atoms:
               1
     1  C    0.747640
     2  O   -0.509190
     3  N   -0.271750
     4  N   -0.326681
     5  C    0.737432
     6  O   -0.500953
     7  N   -0.421057
     8  C    0.244535
     9  C    0.216992
    10  N   -0.423786
    11  C    0.284292
    12  C    0.222527
 APT charges:
               1
     1  C    1.008300
     2  O   -0.707398
     3  N   -0.238767
     4  N    0.124500
     5  C    0.831312
     6  O   -0.649928
     7  N   -0.533354
     8  C   -0.025407
     9  C    0.286609
    10  N   -0.688389
    11  C    0.270951
    12  C    0.372485
    13  H    0.235134
    14  H   -0.026989
    15  H   -0.069679
    16  H    0.045495
    17  H   -0.042648
    18  H   -0.031166
    19  H   -0.006008
    20  H   -0.055450
    21  H   -0.058643
    22  H    0.052549
    23  H   -0.042307
    24  H   -0.051204
 Sum of APT charges =  -0.00000
 APT charges with hydrogens summed into heavy atoms:
               1
     1  C    1.008300
     2  O   -0.707398
     3  N   -0.238767
     4  N    0.124500
     5  C    0.831312
     6  O   -0.649928
     7  N   -0.533354
     8  C    0.113059
     9  C    0.258290
    10  N   -0.688389
    11  C    0.150851
    12  C    0.331523
 Electronic spatial extent (au):  <R**2>=           2428.1020
 Charge=             -0.0000 electrons
 Dipole moment (field-independent basis, Debye):
    X=             -0.6839    Y=             -0.6462    Z=              1.9130  Tot=              2.1318
 Quadrupole moment (field-independent basis, Debye-Ang):
   XX=            -61.8198   YY=            -81.5937   ZZ=            -70.6829
   XY=             13.0324   XZ=             -0.1401   YZ=             -0.7195
 Traceless Quadrupole moment (field-independent basis, Debye-Ang):
   XX=              9.5457   YY=            -10.2283   ZZ=              0.6826
   XY=             13.0324   XZ=             -0.1401   YZ=             -0.7195
 Octapole moment (field-independent basis, Debye-Ang**2):
  XXX=             -9.4715  YYY=             -3.7494  ZZZ=             -2.1404  XYY=             -3.5772
  XXY=             -3.8729  XXZ=              5.9844  XZZ=              0.3228  YZZ=              0.1758
  YYZ=              6.0460  XYZ=             -7.1575
 Hexadecapole moment (field-independent basis, Debye-Ang**3):
 XXXX=          -2089.2373 YYYY=           -691.8739 ZZZZ=           -136.5695 XXXY=             28.0979
 XXXZ=              6.2264 YYYX=             33.9026 YYYZ=             -0.2992 ZZZX=              0.1454
 ZZZY=              0.1566 XXYY=           -541.9197 XXZZ=           -409.6908 YYZZ=           -131.8347
 XXYZ=             -0.5374 YYXZ=             -0.0302 ZZXY=             -0.8971
 N-N= 7.563348914961D+02 E-N=-2.923672294049D+03  KE= 6.005794621967D+02
  Exact polarizability: 147.262  11.744 113.165   1.578   0.169  66.231
 Approx polarizability: 178.140   7.918 215.929   2.341   1.506 101.601
 Calling FoFJK, ICntrl=    100127 FMM=F ISym2X=0 I1Cent= 0 IOpClX= 0 NMat=1 NMatS=1 NMatT=0.
 ***** Axes restored to original set *****
 -------------------------------------------------------------------
 Center     Atomic                   Forces (Hartrees/Bohr)
 Number     Number              X              Y              Z
 -------------------------------------------------------------------
      1        6           0.015181666   -0.069998348   -0.032444931
      2        8          -0.005143219    0.017334389    0.008456205
      3        7          -0.035707263   -0.096934552   -0.088577275
      4        7           0.008934090   -0.030024205    0.076533521
      5        6          -0.012277609    0.086241527    0.043315427
      6        8           0.007586913   -0.020043983   -0.013454422
      7        7          -0.013995813   -0.024374355   -0.018046005
      8        6           0.034539832    0.064268299    0.049538707
      9        6          -0.001045609   -0.000318398    0.003032824
     10        7          -0.001932475    0.025163861    0.025145108
     11        6          -0.001763835   -0.015342934   -0.055311909
     12        6           0.001971475    0.004633373   -0.001773753
     13        1           0.015475417    0.049565154    0.033620306
     14        1           0.001754959    0.008529923    0.006944747
     15        1           0.002368457    0.007295718    0.001958339
     16        1           0.002427650   -0.005197351   -0.003644312
     17        1           0.001235517    0.002501831    0.001547277
     18        1           0.001246627    0.002977904    0.002277747
     19        1          -0.009727263   -0.009341718   -0.033572401
     20        1          -0.006789825    0.004218998    0.003079003
     21        1          -0.002048112   -0.002751183   -0.008639132
     22        1          -0.001233666    0.005824641    0.005579330
     23        1          -0.000143831   -0.002415479   -0.003822926
     24        1          -0.000914086   -0.001813112   -0.001741476
 -------------------------------------------------------------------
 Cartesian Forces:  Max     0.096934552 RMS     0.029152279
 FormGI is forming the generalized inverse of G from B-inverse, IUseBI=4.

 GradGradGradGradGradGradGradGradGradGradGradGradGradGradGradGradGradGrad
 Berny optimization.
 Internal  Forces:  Max     0.455154274 RMS     0.094059131
 Search for a local minimum.
 Step number   1 out of a maximum of  108
 All quantities printed in internal units (Hartrees-Bohrs-Radians)
 Mixed Optimization -- RFO/linear search
 Second derivative matrix not updated -- analytic derivatives used.
 ITU=  0
     Eigenvalues ---   -0.74249  -0.18197  -0.14052  -0.09908  -0.05055
     Eigenvalues ---   -0.03113  -0.01836   0.00059   0.00135   0.01761
     Eigenvalues ---    0.03384   0.04402   0.04675   0.05146   0.06101
     Eigenvalues ---    0.06361   0.06394   0.06426   0.06441   0.06615
     Eigenvalues ---    0.07832   0.11187   0.12507   0.12924   0.13101
     Eigenvalues ---    0.14321   0.15133   0.15850   0.16222   0.17350
     Eigenvalues ---    0.17939   0.18082   0.18951   0.19078   0.19697
     Eigenvalues ---    0.20170   0.21801   0.21991   0.24285   0.27967
     Eigenvalues ---    0.29066   0.31333   0.31985   0.32539   0.33346
     Eigenvalues ---    0.33455   0.33588   0.33609   0.33761   0.33770
     Eigenvalues ---    0.34288   0.34840   0.35127   0.35199   0.36583
     Eigenvalues ---    0.37261   0.38263   0.39462   0.41701   0.43816
     Eigenvalues ---    0.45107   0.67613   0.78727   0.79343   2.20761
     Eigenvalues ---    5.90141
 RFO step:  Lambda=-7.63699480D-01 EMin=-7.42492935D-01
 Linear search not attempted -- first point.
 Maximum step size (   0.300) exceeded in Quadratic search.
    -- Step size scaled by   0.446
 Iteration  1 RMS(Cart)=  0.20723855 RMS(Int)=  0.01055296
 Iteration  2 RMS(Cart)=  0.04386836 RMS(Int)=  0.00048645
 Iteration  3 RMS(Cart)=  0.00088194 RMS(Int)=  0.00026640
 Iteration  4 RMS(Cart)=  0.00000036 RMS(Int)=  0.00026640
 Variable       Old X    -DE/DX   Delta X   Delta X   Delta X     New X
                                 (Linear)    (Quad)   (Total)
    R1        2.32961  -0.00944   0.00000  -0.00255  -0.00255   2.32707
    R2        2.61054   0.07596   0.00000   0.07665   0.07665   2.68719
    R3        2.63971   0.06495   0.00000  -0.02881  -0.02881   2.61090
    R4        2.36573  -0.06096   0.00000  -0.05812  -0.05812   2.30762
    R5        2.61004   0.16426   0.00000   0.04240   0.04240   2.65244
    R6        2.32958  -0.01095   0.00000  -0.00492  -0.00492   2.32466
    R7        2.64048   0.12913   0.00000   0.00471   0.00471   2.64519
    R8        2.74760   0.03884   0.00000   0.06843   0.06843   2.81604
    R9        2.74186   0.00031   0.00000  -0.00051  -0.00051   2.74134
   R10        2.06240  -0.05240   0.00000  -0.06009  -0.06009   2.00231
   R11        2.06801   0.00628   0.00000  -0.00066  -0.00066   2.06735
   R12        2.06782   0.00614   0.00000   0.00541   0.00541   2.07323
   R13        2.06467  -0.00257   0.00000  -0.00214  -0.00214   2.06253
   R14        2.06764   0.00191   0.00000   0.00280   0.00280   2.07044
   R15        2.06767   0.00234   0.00000  -0.00021  -0.00021   2.06746
   R16        2.74218   0.03017   0.00000   0.00849   0.00849   2.75067
   R17        2.74742  -0.00369   0.00000   0.00057   0.00057   2.74798
   R18        2.06462  -0.02549   0.00000  -0.03821  -0.03821   2.02640
   R19        2.06758   0.00189   0.00000   0.00340   0.00340   2.07097
   R20        2.06744   0.00686   0.00000  -0.00005  -0.00005   2.06739
   R21        2.06241  -0.00171   0.00000  -0.00061  -0.00061   2.06180
   R22        2.06797   0.00272   0.00000   0.00030   0.00030   2.06827
   R23        2.06793   0.00191   0.00000   0.00059   0.00059   2.06852
    A1        2.16690  -0.12084   0.00000  -0.10840  -0.10846   2.05843
    A2        2.10734  -0.08114   0.00000  -0.00781  -0.00788   2.09945
    A3        2.00895   0.20199   0.00000   0.11621   0.11614   2.12509
    A4        1.96679   0.12880   0.00000   0.07423   0.07423   2.04102
    A5        1.96672   0.38597   0.00000  -0.07144  -0.07144   1.89528
    A6        2.16752  -0.25415   0.00000  -0.04728  -0.04815   2.11937
    A7        2.00855   0.45515   0.00000   0.05458   0.05368   2.06223
    A8        2.10712  -0.20101   0.00000  -0.00729  -0.00822   2.09889
    A9        2.15562   0.35219   0.00000   0.09751   0.09749   2.25311
   A10        2.09299  -0.17791   0.00000  -0.03646  -0.03647   2.05652
   A11        2.03457  -0.17428   0.00000  -0.06106  -0.06107   1.97350
   A12        1.97257   0.05417   0.00000   0.07994   0.08002   2.05259
   A13        1.89510  -0.01219   0.00000  -0.01534  -0.01568   1.87943
   A14        1.89513  -0.01106   0.00000  -0.03961  -0.03988   1.85525
   A15        1.89732  -0.01223   0.00000  -0.03098  -0.03098   1.86634
   A16        1.89726  -0.01452   0.00000   0.00909   0.00924   1.90650
   A17        1.90566  -0.00553   0.00000  -0.00498  -0.00579   1.89987
   A18        1.96329  -0.01034   0.00000  -0.00417  -0.00417   1.95912
   A19        1.89789   0.00360   0.00000   0.00743   0.00743   1.90532
   A20        1.89786   0.00479   0.00000  -0.00055  -0.00055   1.89731
   A21        1.89804   0.00274   0.00000  -0.00054  -0.00054   1.89750
   A22        1.89809   0.00247   0.00000   0.00060   0.00060   1.89869
   A23        1.90816  -0.00323   0.00000  -0.00282  -0.00282   1.90534
   A24        2.09285   0.19750   0.00000   0.02590   0.02590   2.11875
   A25        2.15559  -0.10637   0.00000  -0.01508  -0.01508   2.14051
   A26        2.03475  -0.09113   0.00000  -0.01083  -0.01083   2.02393
   A27        1.96350   0.03579   0.00000  -0.01508  -0.01512   1.94838
   A28        1.89759   0.00403   0.00000  -0.00587  -0.00594   1.89165
   A29        1.89771  -0.00842   0.00000  -0.00482  -0.00483   1.89288
   A30        1.89809  -0.01417   0.00000   0.00379   0.00370   1.90179
   A31        1.89816  -0.01321   0.00000   0.02678   0.02680   1.92496
   A32        1.90828  -0.00476   0.00000  -0.00478  -0.00483   1.90344
   A33        1.97273  -0.01342   0.00000   0.00049   0.00049   1.97322
   A34        1.89514   0.00688   0.00000  -0.00253  -0.00253   1.89261
   A35        1.89509   0.00367   0.00000   0.00076   0.00076   1.89585
   A36        1.89722   0.00260   0.00000   0.00181   0.00181   1.89903
   A37        1.89728   0.00336   0.00000   0.00024   0.00024   1.89752
   A38        1.90558  -0.00297   0.00000  -0.00083  -0.00083   1.90476
    D1       -2.61084   0.05660   0.00000  -0.01735  -0.01780  -2.62864
    D2        0.53053   0.07745   0.00000  -0.03980  -0.03935   0.49118
    D3       -3.12824   0.03894   0.00000  -0.01708  -0.01731   3.13763
    D4        0.01337   0.02865   0.00000  -0.01469  -0.01491  -0.00154
    D5        0.01356   0.01887   0.00000   0.00455   0.00476   0.01832
    D6       -3.12801   0.00857   0.00000   0.00693   0.00716  -3.12085
    D7       -3.14151   0.00254   0.00000   0.08180   0.08180  -3.05971
    D8       -3.12977  -0.00708   0.00000   0.15749   0.15820  -2.97158
    D9        0.01171  -0.01298   0.00000   0.23769   0.23698   0.24869
   D10        0.01372   0.00117   0.00000  -0.02304  -0.02316  -0.00945
   D11       -3.12774   0.00231   0.00000  -0.03466  -0.03519   3.12026
   D12       -3.12799  -0.00452   0.00000   0.05413   0.05466  -3.07332
   D13        0.01374  -0.00338   0.00000   0.04252   0.04264   0.05638
   D14        0.00018   0.00005   0.00000  -0.00062  -0.00072  -0.00054
   D15       -2.10639  -0.01089   0.00000  -0.00229  -0.00209  -2.10848
   D16        2.10670   0.00889   0.00000   0.03479   0.03423   2.14093
   D17       -3.14154  -0.00105   0.00000   0.01063   0.01084  -3.13070
   D18        1.03507  -0.01200   0.00000   0.00896   0.00947   1.04454
   D19       -1.03503   0.00778   0.00000   0.04605   0.04579  -0.98923
   D20       -0.00021  -0.00059   0.00000   0.00581   0.00547   0.00526
   D21       -2.10366   0.00012   0.00000   0.00410   0.00376  -2.09990
   D22        2.10328  -0.00082   0.00000   0.00353   0.00319   2.10647
   D23        3.14151   0.00043   0.00000  -0.00503  -0.00469   3.13682
   D24        1.03806   0.00114   0.00000  -0.00674  -0.00640   1.03166
   D25       -1.03818   0.00020   0.00000  -0.00731  -0.00697  -1.04516
   D26       -0.00007   0.00410   0.00000  -0.01335  -0.01330  -0.01337
   D27       -2.10351  -0.00365   0.00000  -0.00450  -0.00451  -2.10802
   D28        2.10354   0.00460   0.00000   0.00739   0.00738   2.11092
   D29        3.14150   0.01370   0.00000  -0.01558  -0.01555   3.12595
   D30        1.03806   0.00595   0.00000  -0.00673  -0.00676   1.03130
   D31       -1.03807   0.01420   0.00000   0.00517   0.00513  -1.03294
   D32       -0.00002   0.00527   0.00000  -0.00130  -0.00129  -0.00131
   D33       -2.10659   0.00584   0.00000  -0.00215  -0.00213  -2.10872
   D34        2.10659   0.00343   0.00000  -0.00015  -0.00014   2.10645
   D35        3.14159  -0.00471   0.00000   0.00101   0.00100  -3.14060
   D36        1.03502  -0.00414   0.00000   0.00017   0.00015   1.03517
   D37       -1.03499  -0.00655   0.00000   0.00216   0.00214  -1.03284
         Item               Value     Threshold  Converged?
 Maximum Force            0.455154     0.000450     NO 
 RMS     Force            0.094059     0.000300     NO 
 Maximum Displacement     0.725545     0.001800     NO 
 RMS     Displacement     0.226477     0.001200     NO 
 Predicted change in Energy=-1.669707D-01
 GradGradGradGradGradGradGradGradGradGradGradGradGradGradGradGradGradGrad

                          Input orientation:                          
 ---------------------------------------------------------------------
 Center     Atomic      Atomic             Coordinates (Angstroms)
 Number     Number       Type             X           Y           Z
 ---------------------------------------------------------------------
      1          6           0        0.566668   -0.010651    0.144569
      2          8           0        1.613677   -0.513120    0.554104
      3          7           0       -0.070528    0.961801    0.963350
      4          7           0       -1.285497    1.048070    0.876258
      5          6           0       -1.715810    2.123030    1.669612
      6          8           0       -2.909476    2.315444    1.896381
      7          7           0       -0.755730    3.035137    2.123128
      8          6           0        0.716986    3.040156    1.895689
      9          6           0       -1.211784    4.158351    2.919877
     10          7           0        0.027926   -0.409967   -1.063408
     11          6           0       -1.210750    0.164262   -1.568076
     12          6           0        0.649874   -1.420670   -1.903806
     13          1           0        1.126433    2.255773    1.312764
     14          1           0        1.204487    2.997905    2.874148
     15          1           0        0.952332    4.002102    1.423557
     16          1           0       -2.292187    4.144034    3.074070
     17          1           0       -0.941151    5.091716    2.413921
     18          1           0       -0.716252    4.121359    3.894571
     19          1           0       -1.616452    0.888154   -0.888908
     20          1           0       -1.937513   -0.645003   -1.701972
     21          1           0       -1.007957    0.626515   -2.538678
     22          1           0        1.573234   -1.819114   -1.480660
     23          1           0        0.872450   -0.972426   -2.877163
     24          1           0       -0.057620   -2.244482   -2.041518
 ---------------------------------------------------------------------
                    Distance matrix (angstroms):
                    1          2          3          4          5
     1  C    0.000000
     2  O    1.231431   0.000000
     3  N    1.422000   2.275834   0.000000
     4  N    2.255388   3.308521   1.221137   0.000000
     5  C    3.476788   4.390800   2.134059   1.403609   0.000000
     6  O    4.534660   5.501036   3.280628   2.298738   1.230157
     7  N    3.865262   4.545993   2.472510   2.404947   1.399775
     8  C    3.520858   3.902522   2.410186   3.002929   2.609736
     9  C    5.314678   5.950021   3.917703   3.722319   2.441257
    10  N    1.381630   2.267508   2.449324   2.759213   4.114132
    11  C    2.474462   3.597205   2.888649   2.600284   3.817654
    12  C    2.488155   2.791754   3.796805   4.191550   5.560897
    13  H    2.610497   2.911999   1.796990   2.732488   2.867631
    14  H    4.112034   4.228160   3.069614   3.740780   3.277872
    15  H    4.229271   4.645488   3.240597   3.746161   3.272680
    16  H    5.832361   6.579900   4.417863   3.927950   2.527681
    17  H    5.784257   6.434303   4.462997   4.339822   3.157086
    18  H    5.725548   6.169739   4.357960   4.345038   3.153233
    19  H    2.577195   3.805205   2.413745   1.803029   2.842677
    20  H    3.175380   4.209302   3.629242   3.152601   4.367921
    21  H    3.175726   4.211536   3.640795   3.452032   4.522202
    22  H    2.631555   2.418165   4.050756   4.684885   6.023497
    23  H    3.185808   3.540335   4.402270   4.777793   6.078988
    24  H    3.187273   3.539506   4.394274   4.567493   5.966342
                    6          7          8          9         10
     6  O    0.000000
     7  N    2.282103   0.000000
     8  C    3.698166   1.490182   0.000000
     9  C    2.706660   1.450657   2.453461   0.000000
    10  N    4.981620   4.757821   4.597217   6.186515   0.000000
    11  C    4.417660   4.698292   4.897408   6.007868   1.455592
    12  C    6.408505   6.168154   5.860003   7.606521   1.454170
    13  H    4.078325   2.192404   1.059578   3.416120   3.736185
    14  H    4.283278   2.099492   1.093994   2.680875   5.338748
    15  H    4.240511   2.083722   1.097104   2.635675   5.148385
    16  H    2.260915   2.120058   3.415003   1.091445   6.575756
    17  H    3.442360   2.085297   2.688285   1.095630   6.580231
    18  H    3.473373   2.078328   2.686763   1.094051   6.757829
    19  H    3.386281   3.797727   4.222561   5.036346   2.102271
    20  H    4.759948   5.437962   5.793956   6.705250   2.079893
    21  H    5.112533   5.253333   5.335232   6.504708   2.079367
    22  H    6.970915   6.478820   5.978746   7.927871   2.132551
    23  H    6.920966   6.611689   6.237395   8.017143   2.078290
    24  H    6.665812   6.760621   6.635436   8.181919   2.080736
                   11         12         13         14         15
    11  C    0.000000
    12  C    2.467112   0.000000
    13  H    4.258648   4.908122   0.000000
    14  H    5.796228   6.531481   1.730541   0.000000
    15  H    5.325205   6.369402   1.758480   1.782192   0.000000
    16  H    6.209478   8.025017   4.284238   3.685147   3.642971
    17  H    6.341040   7.974039   3.678318   3.033086   2.398615
    18  H    6.763405   8.136434   3.679894   2.447988   2.984008
    19  H    1.072326   3.390710   3.773746   5.154544   4.652184
    20  H    1.095912   2.708683   5.185644   6.639564   6.302041
    21  H    1.094015   2.709692   4.695072   6.310077   5.562070
    22  H    3.419355   1.091057   4.960600   6.504152   6.535025
    23  H    2.710256   1.094479   5.295400   6.996524   6.576359
    24  H    2.712177   1.094613   5.736330   7.296527   7.214330
                   16         17         18         19         20
    16  H    0.000000
    17  H    1.777413   0.000000
    18  H    1.776881   1.784516   0.000000
    19  H    5.173255   5.388380   5.843427   0.000000
    20  H    6.772832   7.130446   7.451911   1.764859   0.000000
    21  H    6.747231   6.668637   7.327053   1.777769   1.783510
    22  H    8.440745   8.321626   8.332110   4.225348   3.708485
    23  H    8.462285   8.249760   8.621310   3.689112   3.063359
    24  H    8.483847   8.628520   8.728967   3.684002   2.491510
                   21         22         23         24
    21  H    0.000000
    22  H    3.709859   0.000000
    23  H    2.491408   1.777132   0.000000
    24  H    3.064789   1.776284   1.783664   0.000000
 Stoichiometry    C6H12N4O2
 Framework group  C1[X(C6H12N4O2)]
 Deg. of freedom    66
 Full point group                 C1      NOp   1
 Largest Abelian subgroup         C1      NOp   1
 Largest concise Abelian subgroup C1      NOp   1
                         Standard orientation:                         
 ---------------------------------------------------------------------
 Center     Atomic      Atomic             Coordinates (Angstroms)
 Number     Number       Type             X           Y           Z
 ---------------------------------------------------------------------
      1          6           0       -1.521259    0.680254   -0.290190
      2          8           0       -1.919971    1.761943   -0.723089
      3          7           0       -0.122295    0.426737   -0.316878
      4          7           0        0.226875   -0.738121   -0.428065
      5          6           0        1.625579   -0.797617   -0.327040
      6          8           0        2.243738   -1.830379   -0.581143
      7          7           0        2.300662    0.325502    0.165136
      8          6           0        1.746130    1.635642    0.608612
      9          6           0        3.743602    0.246626    0.292049
     10          7           0       -2.421345   -0.257010    0.179156
     11          6           0       -1.976990   -1.544941    0.691531
     12          6           0       -3.857301   -0.027927    0.191791
     13          1           0        0.696110    1.767494    0.555907
     14          1           0        2.196723    2.414820   -0.013216
     15          1           0        2.076231    1.774537    1.645617
     16          1           0        4.134735   -0.719517   -0.031731
     17          1           0        4.021760    0.405315    1.339833
     18          1           0        4.193354    1.032515   -0.321995
     19          1           0       -0.910891   -1.646053    0.635920
     20          1           0       -2.441494   -2.334917    0.090533
     21          1           0       -2.313568   -1.640062    1.728129
     22          1           0       -4.137494    0.949967   -0.202698
     23          1           0       -4.211304   -0.106430    1.224459
     24          1           0       -4.340144   -0.802160   -0.412861
 ---------------------------------------------------------------------
 Rotational constants (GHZ):           1.9547925           0.5281788           0.4470091
 Standard basis: 6-31G(d) (6D, 7F)
 There are   204 symmetry adapted cartesian basis functions of A   symmetry.
 There are   204 symmetry adapted basis functions of A   symmetry.
   204 basis functions,   384 primitive gaussians,   204 cartesian basis functions
    46 alpha electrons       46 beta electrons
       nuclear repulsion energy       742.9268321693 Hartrees.
 NAtoms=   24 NActive=   24 NUniq=   24 SFac= 1.00D+00 NAtFMM=   60 NAOKFM=F Big=F
 Integral buffers will be    131072 words long.
 Raffenetti 2 integral format.
 Two-electron integral symmetry is turned on.
 One-electron integrals computed using PRISM.
 NBasis=   204 RedAO= T EigKep=  1.87D-03  NBF=   204
 NBsUse=   204 1.00D-06 EigRej= -1.00D+00 NBFU=   204
 Initial guess from the checkpoint file:  "azadicarboxylate_6_conf81.chk"
 B after Tr=     0.000000   -0.000000   -0.000000
         Rot=    0.999873    0.012838    0.005931    0.007374 Ang=   1.83 deg.
 ExpMin= 1.61D-01 ExpMax= 5.48D+03 ExpMxC= 8.25D+02 IAcc=2 IRadAn=         4 AccDes= 0.00D+00
 Harris functional with IExCor=  402 and IRadAn=       4 diagonalized for initial guess.
 HarFok:  IExCor=  402 AccDes= 0.00D+00 IRadAn=         4 IDoV= 1 UseB2=F ITyADJ=14
 ICtDFT=  3500011 ScaDFX=  1.000000  1.000000  1.000000  1.000000
 FoFCou: FMM=F IPFlag=           0 FMFlag=      100000 FMFlg1=           0
         NFxFlg=           0 DoJE=T BraDBF=F KetDBF=T FulRan=T
         wScrn=  0.000000 ICntrl=       500 IOpCl=  0 I1Cent=   200000004 NGrid=           0
         NMat0=    1 NMatS0=      1 NMatT0=    0 NMatD0=    1 NMtDS0=    0 NMtDT0=    0
 Petite list used in FoFCou.
 Keep R1 ints in memory in canonical form, NReq=222933844.
 Gradient too large for Newton-Raphson -- use scaled steepest descent instead.
     Minimum is close to point  4 DX=  1.10D-01 DF= -5.36D-04 DXR=  8.39D-02 DFR=  7.11D-03 which will be used.
 Gradient too large for Newton-Raphson -- use scaled steepest descent instead.
 Gradient too large for Newton-Raphson -- use scaled steepest descent instead.
     Accept linear search using points  1 and  2.
 Gradient too large for Newton-Raphson -- use scaled steepest descent instead.
     Accept linear search using points  1 and  2.
 Gradient too large for Newton-Raphson -- use scaled steepest descent instead.
 Gradient too large for Newton-Raphson -- use scaled steepest descent instead.
     Accept linear search using points  1 and  2.
 Gradient too large for Newton-Raphson -- use scaled steepest descent instead.
     Accept linear search using points  2 and  3.
 Gradient too large for Newton-Raphson -- use scaled steepest descent instead.
     Accept linear search using points  1 and  2.
 Gradient too large for Newton-Raphson -- use scaled steepest descent instead.
     Minimum is close to point  3 DX=  7.48D-02 DF= -3.07D-06 DXR=  4.47D-02 DFR=  2.00D-03 which will be used.
 Gradient too large for Newton-Raphson -- use scaled steepest descent instead.
     Accept linear search using points  1 and  2.
 Gradient too large for Newton-Raphson -- use scaled steepest descent instead.
     Accept linear search using points  2 and  3.
     Minimum is close to point  3 DX= -1.25D-01 DF= -5.18D-06 DXR=  7.48D-02 DFR=  4.93D-03 which will be used.
 Gradient too large for Newton-Raphson -- use scaled steepest descent instead.
     Accept linear search using points  1 and  2.
 Gradient too large for Newton-Raphson -- use scaled steepest descent instead.
 Gradient too large for Newton-Raphson -- use scaled steepest descent instead.
     Minimum is close to point  3 DX= -3.13D-02 DF= -3.27D-06 DXR=  6.69D-02 DFR=  4.49D-03 which will be used.
 Gradient too large for Newton-Raphson -- use scaled steepest descent instead.
 Gradient too large for Newton-Raphson -- use scaled steepest descent instead.
     Accept linear search using points  1 and  2.
 Gradient too large for Newton-Raphson -- use scaled steepest descent instead.
 Gradient too large for Newton-Raphson -- use scaled steepest descent instead.
     Minimum is close to point  3 DX= -2.75D-02 DF= -1.43D-06 DXR=  5.83D-02 DFR=  3.41D-03 which will be used.
 Gradient too large for Newton-Raphson -- use scaled steepest descent instead.
 Gradient too large for Newton-Raphson -- use scaled steepest descent instead.
     Accept linear search using points  1 and  2.
 Gradient too large for Newton-Raphson -- use scaled steepest descent instead.
 Gradient too large for Newton-Raphson -- use scaled steepest descent instead.
     Minimum is close to point  3 DX= -3.17D-02 DF= -1.22D-06 DXR=  6.77D-02 DFR=  4.60D-03 which will be used.
 Gradient too large for Newton-Raphson -- use scaled steepest descent instead.
 Gradient too large for Newton-Raphson -- use scaled steepest descent instead.
     Accept linear search using points  1 and  2.
 Gradient too large for Newton-Raphson -- use scaled steepest descent instead.
 Gradient too large for Newton-Raphson -- use scaled steepest descent instead.
     Minimum is close to point  3 DX= -2.71D-02 DF= -5.37D-07 DXR=  5.73D-02 DFR=  3.30D-03 which will be used.
 Gradient too large for Newton-Raphson -- use scaled steepest descent instead.
 Gradient too large for Newton-Raphson -- use scaled steepest descent instead.
     Accept linear search using points  1 and  2.
 Gradient too large for Newton-Raphson -- use scaled steepest descent instead.
 Gradient too large for Newton-Raphson -- use scaled steepest descent instead.
     Minimum is close to point  3 DX= -3.17D-02 DF= -4.91D-07 DXR=  6.77D-02 DFR=  4.60D-03 which will be used.
 LinEq1:  Iter=  0 NonCon=     1 RMS=5.39D-04 Max=4.28D-02 NDo=     1
 AX will form     1 AO Fock derivatives at one time.
 LinEq1:  Iter=  1 NonCon=     1 RMS=8.51D-05 Max=3.25D-03 NDo=     1
 LinEq1:  Iter=  2 NonCon=     1 RMS=7.99D-05 Max=2.77D-03 NDo=     1
 LinEq1:  Iter=  3 NonCon=     1 RMS=4.19D-05 Max=1.15D-03 NDo=     1
 LinEq1:  Iter=  4 NonCon=     1 RMS=3.88D-05 Max=1.84D-03 NDo=     1
 LinEq1:  Iter=  5 NonCon=     1 RMS=2.51D-05 Max=5.16D-04 NDo=     1
 LinEq1:  Iter=  6 NonCon=     1 RMS=1.58D-05 Max=5.06D-04 NDo=     1
 LinEq1:  Iter=  7 NonCon=     1 RMS=1.36D-05 Max=3.81D-04 NDo=     1
 LinEq1:  Iter=  8 NonCon=     1 RMS=9.91D-06 Max=2.30D-04 NDo=     1
 LinEq1:  Iter=  9 NonCon=     1 RMS=6.83D-06 Max=1.65D-04 NDo=     1
 LinEq1:  Iter= 10 NonCon=     1 RMS=2.59D-06 Max=4.99D-05 NDo=     1
 LinEq1:  Iter= 11 NonCon=     1 RMS=1.18D-06 Max=2.72D-05 NDo=     1
 LinEq1:  Iter= 12 NonCon=     1 RMS=6.42D-07 Max=1.54D-05 NDo=     1
 LinEq1:  Iter= 13 NonCon=     1 RMS=3.63D-07 Max=7.53D-06 NDo=     1
 LinEq1:  Iter= 14 NonCon=     1 RMS=2.24D-07 Max=5.43D-06 NDo=     1
 LinEq1:  Iter= 15 NonCon=     1 RMS=9.21D-08 Max=1.47D-06 NDo=     1
 LinEq1:  Iter= 16 NonCon=     1 RMS=2.43D-08 Max=4.34D-07 NDo=     1
 LinEq1:  Iter= 17 NonCon=     1 RMS=1.11D-08 Max=1.65D-07 NDo=     1
 LinEq1:  Iter= 18 NonCon=     0 RMS=4.35D-09 Max=6.54D-08 NDo=     1
 Linear equations converged to 1.206D-08 1.206D-07 after    18 iterations.
     Accept linear search using points  1 and  2.
     Minimum is close to point  2 DX= -7.29D-03 DF= -4.38D-08 DXR=  7.35D-03 DFR=  5.42D-05 which will be used.
 LinEq1:  Iter=  0 NonCon=     1 RMS=8.81D-06 Max=4.19D-04 NDo=     1
 LinEq1:  Iter=  1 NonCon=     1 RMS=8.36D-06 Max=3.10D-04 NDo=     1
 LinEq1:  Iter=  2 NonCon=     1 RMS=6.74D-06 Max=2.61D-04 NDo=     1
 LinEq1:  Iter=  3 NonCon=     1 RMS=4.31D-06 Max=1.33D-04 NDo=     1
 LinEq1:  Iter=  4 NonCon=     1 RMS=3.54D-06 Max=9.28D-05 NDo=     1
 LinEq1:  Iter=  5 NonCon=     1 RMS=2.34D-06 Max=5.62D-05 NDo=     1
 LinEq1:  Iter=  6 NonCon=     1 RMS=1.60D-06 Max=4.59D-05 NDo=     1
 LinEq1:  Iter=  7 NonCon=     1 RMS=1.20D-06 Max=3.50D-05 NDo=     1
 LinEq1:  Iter=  8 NonCon=     1 RMS=9.98D-07 Max=2.90D-05 NDo=     1
 LinEq1:  Iter=  9 NonCon=     1 RMS=6.03D-07 Max=2.18D-05 NDo=     1
 LinEq1:  Iter= 10 NonCon=     1 RMS=2.99D-07 Max=7.21D-06 NDo=     1
 LinEq1:  Iter= 11 NonCon=     1 RMS=1.31D-07 Max=2.52D-06 NDo=     1
 LinEq1:  Iter= 12 NonCon=     1 RMS=7.86D-08 Max=1.30D-06 NDo=     1
 LinEq1:  Iter= 13 NonCon=     1 RMS=3.95D-08 Max=7.89D-07 NDo=     1
 LinEq1:  Iter= 14 NonCon=     1 RMS=1.78D-08 Max=2.78D-07 NDo=     1
 LinEq1:  Iter= 15 NonCon=     1 RMS=6.27D-09 Max=1.07D-07 NDo=     1
 LinEq1:  Iter= 16 NonCon=     0 RMS=3.04D-09 Max=4.56D-08 NDo=     1
 Linear equations converged to 7.746D-09 7.746D-08 after    16 iterations.
     Minimum is close to point  2 DX=  2.75D-04 DF=  0.00D+00 DXR=  2.75D-04 DFR=  0.00D+00 which will be used.
 SCF Done:  E(RB3LYP) =  -605.214343557     a.u. after   33 cycles
            Convg  =    0.1524D-06                   118 Fock formations.
              S**2 =  0.0000                  -V/T =  2.0084
 DoSCS=F DFT=T ScalE2(SS,OS)=  1.000000  1.000000
 Range of M.O.s used for correlation:     1   204
 NBasis=   204 NAE=    46 NBE=    46 NFC=     0 NFV=     0
 NROrb=    204 NOA=    46 NOB=    46 NVA=   158 NVB=   158
 Symmetrizing basis deriv contribution to polar:
 IMax=3 JMax=2 DiffMx= 0.00D+00
 G2DrvN: will do    25 centers at a time, making    1 passes.
 Calling FoFCou, ICntrl=  3107 FMM=F I1Cent=   0 AccDes= 0.00D+00.
 End of G2Drv F.D. properties file   721 does not exist.
 End of G2Drv F.D. properties file   722 does not exist.
 End of G2Drv F.D. properties file   788 does not exist.
          IDoAtm=111111111111111111111111
          Differentiating once with respect to electric field.
                with respect to dipole field.
          Differentiating once with respect to nuclear coordinates.
 Keep R1 ints in memory in canonical form, NReq=222943286.
          There are    75 degrees of freedom in the 1st order CPHF.  IDoFFX=6 NUNeed=     3.
     72 vectors produced by pass  0 Test12= 9.69D-15 1.33D-09 XBig12= 1.50D+02 5.29D+00.
 AX will form    72 AO Fock derivatives at one time.
     72 vectors produced by pass  1 Test12= 9.69D-15 1.33D-09 XBig12= 5.12D+01 1.49D+00.
     72 vectors produced by pass  2 Test12= 9.69D-15 1.33D-09 XBig12= 4.27D-01 1.19D-01.
     72 vectors produced by pass  3 Test12= 9.69D-15 1.33D-09 XBig12= 1.37D-03 5.31D-03.
     72 vectors produced by pass  4 Test12= 9.69D-15 1.33D-09 XBig12= 1.69D-06 1.36D-04.
     48 vectors produced by pass  5 Test12= 9.69D-15 1.33D-09 XBig12= 1.30D-09 4.86D-06.
      8 vectors produced by pass  6 Test12= 9.69D-15 1.33D-09 XBig12= 1.08D-12 1.60D-07.
      2 vectors produced by pass  7 Test12= 9.69D-15 1.33D-09 XBig12= 7.79D-16 3.62D-09.
 InvSVY:  IOpt=1 It=  1 EMax= 6.22D-15
 Solved reduced A of dimension   418 with    75 vectors.
 Isotropic polarizability for W=    0.000000      101.91 Bohr**3.
 End of Minotr F.D. properties file   721 does not exist.
 End of Minotr F.D. properties file   722 does not exist.
 End of Minotr F.D. properties file   788 does not exist.
 Calling FoFJK, ICntrl=    100127 FMM=F ISym2X=0 I1Cent= 0 IOpClX= 0 NMat=1 NMatS=1 NMatT=0.
 ***** Axes restored to original set *****
 -------------------------------------------------------------------
 Center     Atomic                   Forces (Hartrees/Bohr)
 Number     Number              X              Y              Z
 -------------------------------------------------------------------
      1        6           0.018828251   -0.052338764   -0.028840531
      2        8          -0.003883847    0.012932099    0.008703430
      3        7           0.026129459   -0.046304129   -0.012940257
      4        7          -0.027891239   -0.001797803    0.010680084
      5        6          -0.014089281    0.059858222    0.039008183
      6        8           0.005703068   -0.016025074   -0.008182093
[...]
    18  H   -0.000000  -0.000000   0.000000  -0.000000   0.000000   0.000000
    19  H    0.471950  -0.021872  -0.023944  -0.000194  -0.000061  -0.000014
    20  H   -0.021872   0.573601  -0.044226  -0.000000  -0.001773   0.006217
    21  H   -0.023944  -0.044226   0.576908  -0.000117   0.005882  -0.001590
    22  H   -0.000194  -0.000000  -0.000117   0.483896  -0.024601  -0.022221
    23  H   -0.000061  -0.001773   0.005882  -0.024601   0.565910  -0.042004
    24  H   -0.000014   0.006217  -0.001590  -0.022221  -0.042004   0.568097
 Mulliken charges:
               1
     1  C    0.704230
     2  O   -0.463691
     3  N   -0.277721
     4  N   -0.277723
     5  C    0.704234
     6  O   -0.463692
     7  N   -0.386810
     8  C   -0.322031
     9  C   -0.320153
    10  N   -0.386807
    11  C   -0.322032
    12  C   -0.320153
    13  H    0.219712
    14  H    0.160691
    15  H    0.158812
    16  H    0.203668
    17  H    0.160977
    18  H    0.162313
    19  H    0.219714
    20  H    0.158812
    21  H    0.160690
    22  H    0.203668
    23  H    0.162313
    24  H    0.160977
 Sum of Mulliken charges =   0.00000
 Mulliken charges with hydrogens summed into heavy atoms:
               1
     1  C    0.704230
     2  O   -0.463691
     3  N   -0.277721
     4  N   -0.277723
     5  C    0.704234
     6  O   -0.463692
     7  N   -0.386810
     8  C    0.217184
     9  C    0.206806
    10  N   -0.386807
    11  C    0.217184
    12  C    0.206806
 Electronic spatial extent (au):  <R**2>=           2861.8631
 Charge=              0.0000 electrons
 Dipole moment (field-independent basis, Debye):
    X=              0.0000    Y=             -0.0000    Z=              0.0002  Tot=              0.0002
 Quadrupole moment (field-independent basis, Debye-Ang):
   XX=            -46.6828   YY=            -77.3289   ZZ=            -70.9912
   XY=             10.5420   XZ=             -1.1219   YZ=              0.4906
 Traceless Quadrupole moment (field-independent basis, Debye-Ang):
   XX=             18.3182   YY=            -12.3280   ZZ=             -5.9902
   XY=             10.5420   XZ=             -1.1219   YZ=              0.4906
 Octapole moment (field-independent basis, Debye-Ang**2):
  XXX=              0.0004  YYY=             -0.0002  ZZZ=             -0.0002  XYY=              0.0004
  XXY=             -0.0003  XXZ=              0.0008  XZZ=              0.0000  YZZ=              0.0000
  YYZ=              0.0008  XYZ=             -0.0003
 Hexadecapole moment (field-independent basis, Debye-Ang**3):
 XXXX=          -2587.9969 YYYY=           -646.0270 ZZZZ=           -110.8790 XXXY=             -4.1795
 XXXZ=             -3.2775 YYYX=             33.1049 YYYZ=              2.8218 ZZZX=             -2.3655
 ZZZY=             -2.7726 XXYY=           -593.5644 XXZZ=           -502.7626 YYZZ=           -118.9324
 XXYZ=              5.7008 YYXZ=              0.6876 ZZXY=             -0.7754
 N-N= 7.215916894847D+02 E-N=-2.854457841620D+03  KE= 5.997740746386D+02
 Evaluate density.
 Using the total density.
 Monte-Carlo method of calculating molar volume:
 based on  0.001 e/bohr**3 density envelope.
 Number of points per bohr**3 =   20 CutOff= 1.00D-04
 Using the CI density.
 There are       391 points.  Will hold       391 in memory.
 LenV=   805183220 MDV=   805306368.
 Box volume = 7473.290 fraction occupied=0.217
 Integrated density= 3.8428188445956792D+01 error=-5.3571811554043208D+01
 Molar volume = 1624.628 bohr**3/mol (144.980 cm**3/mol)
 Recommended a0 for SCRF calculation =  4.75 angstrom (  8.97 bohr)
 ******************************Gaussian NBO Version 3.1******************************
             N A T U R A L   A T O M I C   O R B I T A L   A N D
          N A T U R A L   B O N D   O R B I T A L   A N A L Y S I S
 ******************************Gaussian NBO Version 3.1******************************
       /RESON  / : Allow strongly delocalized NBO set

 Analyzing the CI density

 Job title: Title Card Required                                             

 Storage needed:    126804 in NPA ( 805303248 available)


 NATURAL POPULATIONS:  Natural atomic orbital occupancies 
                                                          
   NAO  Atom  No  lang   Type(AO)    Occupancy
 --------------------------------------------
     1    C    1  S      Cor( 1S)     1.99935
     2    C    1  S      Val( 2S)     0.73540
     3    C    1  S      Ryd( 3S)     0.00442
     4    C    1  S      Ryd( 4S)     0.00038
     5    C    1  px     Val( 2p)     0.83532
     6    C    1  px     Ryd( 3p)     0.00861
     7    C    1  py     Val( 2p)     0.76703
     8    C    1  py     Ryd( 3p)     0.01945
     9    C    1  pz     Val( 2p)     0.82499
    10    C    1  pz     Ryd( 3p)     0.00357
    11    C    1  dxy    Ryd( 3d)     0.00349
    12    C    1  dxz    Ryd( 3d)     0.00167
    13    C    1  dyz    Ryd( 3d)     0.00259
    14    C    1  dx2y2  Ryd( 3d)     0.00180
    15    C    1  dz2    Ryd( 3d)     0.00041
 
    16    O    2  S      Cor( 1S)     1.99979
    17    O    2  S      Val( 2S)     1.70335
    18    O    2  S      Ryd( 3S)     0.00079
    19    O    2  S      Ryd( 4S)     0.00008
    20    O    2  px     Val( 2p)     1.73135
    21    O    2  px     Ryd( 3p)     0.00156
    22    O    2  py     Val( 2p)     1.57373
    23    O    2  py     Ryd( 3p)     0.00032
    24    O    2  pz     Val( 2p)     1.54198
    25    O    2  pz     Ryd( 3p)     0.00095
    26    O    2  dxy    Ryd( 3d)     0.00447
    27    O    2  dxz    Ryd( 3d)     0.00005
    28    O    2  dyz    Ryd( 3d)     0.00480
    29    O    2  dx2y2  Ryd( 3d)     0.00435
    30    O    2  dz2    Ryd( 3d)     0.00134
 
    31    N    3  S      Cor( 1S)     1.99941
    32    N    3  S      Val( 2S)     1.40064
    33    N    3  S      Ryd( 3S)     0.00616
    34    N    3  S      Ryd( 4S)     0.00004
    35    N    3  px     Val( 2p)     1.13241
    36    N    3  px     Ryd( 3p)     0.00393
    37    N    3  py     Val( 2p)     1.41814
    38    N    3  py     Ryd( 3p)     0.00422
    39    N    3  pz     Val( 2p)     1.26952
    40    N    3  pz     Ryd( 3p)     0.00447
    41    N    3  dxy    Ryd( 3d)     0.00118
    42    N    3  dxz    Ryd( 3d)     0.00137
    43    N    3  dyz    Ryd( 3d)     0.00189
    44    N    3  dx2y2  Ryd( 3d)     0.00076
    45    N    3  dz2    Ryd( 3d)     0.00229
 
    46    N    4  S      Cor( 1S)     1.99941
    47    N    4  S      Val( 2S)     1.40064
    48    N    4  S      Ryd( 3S)     0.00616
    49    N    4  S      Ryd( 4S)     0.00004
    50    N    4  px     Val( 2p)     1.13241
    51    N    4  px     Ryd( 3p)     0.00393
    52    N    4  py     Val( 2p)     1.41814
    53    N    4  py     Ryd( 3p)     0.00422
    54    N    4  pz     Val( 2p)     1.26952
    55    N    4  pz     Ryd( 3p)     0.00447
    56    N    4  dxy    Ryd( 3d)     0.00118
    57    N    4  dxz    Ryd( 3d)     0.00137
    58    N    4  dyz    Ryd( 3d)     0.00189
    59    N    4  dx2y2  Ryd( 3d)     0.00076
    60    N    4  dz2    Ryd( 3d)     0.00229
 
    61    C    5  S      Cor( 1S)     1.99935
    62    C    5  S      Val( 2S)     0.73540
    63    C    5  S      Ryd( 3S)     0.00442
    64    C    5  S      Ryd( 4S)     0.00038
    65    C    5  px     Val( 2p)     0.83532
    66    C    5  px     Ryd( 3p)     0.00861
    67    C    5  py     Val( 2p)     0.76704
    68    C    5  py     Ryd( 3p)     0.01945
    69    C    5  pz     Val( 2p)     0.82499
    70    C    5  pz     Ryd( 3p)     0.00357
    71    C    5  dxy    Ryd( 3d)     0.00349
    72    C    5  dxz    Ryd( 3d)     0.00167
    73    C    5  dyz    Ryd( 3d)     0.00259
    74    C    5  dx2y2  Ryd( 3d)     0.00180
    75    C    5  dz2    Ryd( 3d)     0.00041
 
    76    O    6  S      Cor( 1S)     1.99979
    77    O    6  S      Val( 2S)     1.70335
    78    O    6  S      Ryd( 3S)     0.00079
    79    O    6  S      Ryd( 4S)     0.00008
    80    O    6  px     Val( 2p)     1.73135
    81    O    6  px     Ryd( 3p)     0.00156
    82    O    6  py     Val( 2p)     1.57373
    83    O    6  py     Ryd( 3p)     0.00032
    84    O    6  pz     Val( 2p)     1.54199
    85    O    6  pz     Ryd( 3p)     0.00095
    86    O    6  dxy    Ryd( 3d)     0.00447
    87    O    6  dxz    Ryd( 3d)     0.00005
    88    O    6  dyz    Ryd( 3d)     0.00480
    89    O    6  dx2y2  Ryd( 3d)     0.00435
    90    O    6  dz2    Ryd( 3d)     0.00134
 
    91    N    7  S      Cor( 1S)     1.99930
    92    N    7  S      Val( 2S)     1.20777
    93    N    7  S      Ryd( 3S)     0.00116
    94    N    7  S      Ryd( 4S)     0.00005
    95    N    7  px     Val( 2p)     1.29405
    96    N    7  px     Ryd( 3p)     0.00119
    97    N    7  py     Val( 2p)     1.29363
    98    N    7  py     Ryd( 3p)     0.00128
    99    N    7  pz     Val( 2p)     1.65295
   100    N    7  pz     Ryd( 3p)     0.00407
   101    N    7  dxy    Ryd( 3d)     0.00080
   102    N    7  dxz    Ryd( 3d)     0.00061
   103    N    7  dyz    Ryd( 3d)     0.00050
   104    N    7  dx2y2  Ryd( 3d)     0.00059
   105    N    7  dz2    Ryd( 3d)     0.00050
 
   106    C    8  S      Cor( 1S)     1.99945
   107    C    8  S      Val( 2S)     1.08828
   108    C    8  S      Ryd( 3S)     0.00104
   109    C    8  S      Ryd( 4S)     0.00002
   110    C    8  px     Val( 2p)     1.27470
   111    C    8  px     Ryd( 3p)     0.00320
   112    C    8  py     Val( 2p)     0.85928
   113    C    8  py     Ryd( 3p)     0.00208
   114    C    8  pz     Val( 2p)     1.23895
   115    C    8  pz     Ryd( 3p)     0.00086
   116    C    8  dxy    Ryd( 3d)     0.00051
   117    C    8  dxz    Ryd( 3d)     0.00074
   118    C    8  dyz    Ryd( 3d)     0.00119
   119    C    8  dx2y2  Ryd( 3d)     0.00131
   120    C    8  dz2    Ryd( 3d)     0.00084
 
   121    C    9  S      Cor( 1S)     1.99947
   122    C    9  S      Val( 2S)     1.08839
   123    C    9  S      Ryd( 3S)     0.00094
   124    C    9  S      Ryd( 4S)     0.00002
   125    C    9  px     Val( 2p)     0.92325
   126    C    9  px     Ryd( 3p)     0.00214
   127    C    9  py     Val( 2p)     1.21891
   128    C    9  py     Ryd( 3p)     0.00310
   129    C    9  pz     Val( 2p)     1.22835
   130    C    9  pz     Ryd( 3p)     0.00113
   131    C    9  dxy    Ryd( 3d)     0.00072
   132    C    9  dxz    Ryd( 3d)     0.00142
   133    C    9  dyz    Ryd( 3d)     0.00045
   134    C    9  dx2y2  Ryd( 3d)     0.00114
   135    C    9  dz2    Ryd( 3d)     0.00090
 
   136    N   10  S      Cor( 1S)     1.99930
   137    N   10  S      Val( 2S)     1.20777
   138    N   10  S      Ryd( 3S)     0.00116
   139    N   10  S      Ryd( 4S)     0.00005
   140    N   10  px     Val( 2p)     1.29405
   141    N   10  px     Ryd( 3p)     0.00119
   142    N   10  py     Val( 2p)     1.29363
   143    N   10  py     Ryd( 3p)     0.00128
   144    N   10  pz     Val( 2p)     1.65295
   145    N   10  pz     Ryd( 3p)     0.00407
   146    N   10  dxy    Ryd( 3d)     0.00080
   147    N   10  dxz    Ryd( 3d)     0.00061
   148    N   10  dyz    Ryd( 3d)     0.00050
   149    N   10  dx2y2  Ryd( 3d)     0.00059
   150    N   10  dz2    Ryd( 3d)     0.00050
 
   151    C   11  S      Cor( 1S)     1.99945
   152    C   11  S      Val( 2S)     1.08828
   153    C   11  S      Ryd( 3S)     0.00104
   154    C   11  S      Ryd( 4S)     0.00002
   155    C   11  px     Val( 2p)     1.27470
   156    C   11  px     Ryd( 3p)     0.00320
   157    C   11  py     Val( 2p)     0.85928
   158    C   11  py     Ryd( 3p)     0.00208
   159    C   11  pz     Val( 2p)     1.23895
   160    C   11  pz     Ryd( 3p)     0.00086
   161    C   11  dxy    Ryd( 3d)     0.00051
   162    C   11  dxz    Ryd( 3d)     0.00074
   163    C   11  dyz    Ryd( 3d)     0.00119
   164    C   11  dx2y2  Ryd( 3d)     0.00131
   165    C   11  dz2    Ryd( 3d)     0.00084
 
   166    C   12  S      Cor( 1S)     1.99947
   167    C   12  S      Val( 2S)     1.08839
   168    C   12  S      Ryd( 3S)     0.00094
   169    C   12  S      Ryd( 4S)     0.00002
   170    C   12  px     Val( 2p)     0.92324
   171    C   12  px     Ryd( 3p)     0.00214
   172    C   12  py     Val( 2p)     1.21891
   173    C   12  py     Ryd( 3p)     0.00310
   174    C   12  pz     Val( 2p)     1.22835
   175    C   12  pz     Ryd( 3p)     0.00113
   176    C   12  dxy    Ryd( 3d)     0.00072
   177    C   12  dxz    Ryd( 3d)     0.00142
   178    C   12  dyz    Ryd( 3d)     0.00045
   179    C   12  dx2y2  Ryd( 3d)     0.00114
   180    C   12  dz2    Ryd( 3d)     0.00090
 
   181    H   13  S      Val( 1S)     0.73208
   182    H   13  S      Ryd( 2S)     0.00190
 
   183    H   14  S      Val( 1S)     0.77511
   184    H   14  S      Ryd( 2S)     0.00155
 
   185    H   15  S      Val( 1S)     0.77316
   186    H   15  S      Ryd( 2S)     0.00135
 
   187    H   16  S      Val( 1S)     0.73793
   188    H   16  S      Ryd( 2S)     0.00171
 
   189    H   17  S      Val( 1S)     0.77339
   190    H   17  S      Ryd( 2S)     0.00128
 
   191    H   18  S      Val( 1S)     0.77424
   192    H   18  S      Ryd( 2S)     0.00127
 
   193    H   19  S      Val( 1S)     0.73208
   194    H   19  S      Ryd( 2S)     0.00190
 
   195    H   20  S      Val( 1S)     0.77316
   196    H   20  S      Ryd( 2S)     0.00135
 
   197    H   21  S      Val( 1S)     0.77511
   198    H   21  S      Ryd( 2S)     0.00155
 
   199    H   22  S      Val( 1S)     0.73793
   200    H   22  S      Ryd( 2S)     0.00171
 
   201    H   23  S      Val( 1S)     0.77424
   202    H   23  S      Ryd( 2S)     0.00127
 
   203    H   24  S      Val( 1S)     0.77339
   204    H   24  S      Ryd( 2S)     0.00128


 Summary of Natural Population Analysis:                  
                                                          
                                       Natural Population 
                Natural  -----------------------------------------------
    Atom  No    Charge         Core      Valence    Rydberg      Total
 -----------------------------------------------------------------------
      C    1    0.79150      1.99935     3.16275    0.04640     5.20850
      O    2   -0.56890      1.99979     6.55041    0.01871     8.56890
      N    3   -0.24642      1.99941     5.22070    0.02631     7.24642
      N    4   -0.24642      1.99941     5.22070    0.02631     7.24642
      C    5    0.79150      1.99935     3.16275    0.04640     5.20850
      O    6   -0.56891      1.99979     6.55041    0.01871     8.56891
      N    7   -0.45844      1.99930     5.44839    0.01076     7.45844
      C    8   -0.47244      1.99945     4.46122    0.01177     6.47244
      C    9   -0.47032      1.99947     4.45889    0.01196     6.47032
      N   10   -0.45844      1.99930     5.44839    0.01076     7.45844
      C   11   -0.47244      1.99945     4.46122    0.01177     6.47244
      C   12   -0.47032      1.99947     4.45889    0.01196     6.47032
      H   13    0.26602      0.00000     0.73208    0.00190     0.73398
      H   14    0.22334      0.00000     0.77511    0.00155     0.77666
      H   15    0.22549      0.00000     0.77316    0.00135     0.77451
      H   16    0.26036      0.00000     0.73793    0.00171     0.73964
      H   17    0.22533      0.00000     0.77339    0.00128     0.77467
      H   18    0.22449      0.00000     0.77424    0.00127     0.77551
      H   19    0.26602      0.00000     0.73208    0.00190     0.73398
      H   20    0.22549      0.00000     0.77316    0.00135     0.77451
      H   21    0.22334      0.00000     0.77511    0.00155     0.77666
      H   22    0.26036      0.00000     0.73793    0.00171     0.73964
      H   23    0.22449      0.00000     0.77424    0.00127     0.77551
      H   24    0.22533      0.00000     0.77339    0.00128     0.77467
 =======================================================================
   * Total *   -0.00000     23.99350    67.73658    0.26992    92.00000

                                 Natural Population      
 --------------------------------------------------------
   Core                      23.99350 ( 99.9729% of  24)
   Valence                   67.73658 ( 99.6126% of  68)
   Natural Minimal Basis     91.73008 ( 99.7066% of  92)
   Natural Rydberg Basis      0.26992 (  0.2934% of  92)
 --------------------------------------------------------

    Atom  No          Natural Electron Configuration
 ----------------------------------------------------------------------------
      C    1      [core]2S( 0.74)2p( 2.43)3p( 0.03)3d( 0.01)
      O    2      [core]2S( 1.70)2p( 4.85)3d( 0.02)
      N    3      [core]2S( 1.40)2p( 3.82)3S( 0.01)3p( 0.01)3d( 0.01)
      N    4      [core]2S( 1.40)2p( 3.82)3S( 0.01)3p( 0.01)3d( 0.01)
      C    5      [core]2S( 0.74)2p( 2.43)3p( 0.03)3d( 0.01)
      O    6      [core]2S( 1.70)2p( 4.85)3d( 0.02)
      N    7      [core]2S( 1.21)2p( 4.24)3p( 0.01)
      C    8      [core]2S( 1.09)2p( 3.37)3p( 0.01)
      C    9      [core]2S( 1.09)2p( 3.37)3p( 0.01)
      N   10      [core]2S( 1.21)2p( 4.24)3p( 0.01)
      C   11      [core]2S( 1.09)2p( 3.37)3p( 0.01)
      C   12      [core]2S( 1.09)2p( 3.37)3p( 0.01)
      H   13            1S( 0.73)
      H   14            1S( 0.78)
      H   15            1S( 0.77)
      H   16            1S( 0.74)
      H   17            1S( 0.77)
      H   18            1S( 0.77)
      H   19            1S( 0.73)
      H   20            1S( 0.77)
      H   21            1S( 0.78)
      H   22            1S( 0.74)
      H   23            1S( 0.77)
      H   24            1S( 0.77)


 NBO analysis skipped by request.
 1\1\GINC-DELLA-R1C3N15\SP\RB3LYP TD-FC\6-31G(d)\C6H12N4O2\BJS4\22-Aug-
 2020\0\\# TD(NStates=10, Root=1) B3LYP/6-31G* scf=qc volume pop=NPA de
 nsity=current Geom=AllCheck Guess=Read\\Title Card Required\\0,1\C,0,-
 0.5744161874,0.2799223807,-0.906317091\O,0,-1.7267915411,0.2886804848,
 -1.3066326132\N,0,-0.0981918754,1.3818346833,-0.0691188397\N,0,-0.6038
 541567,1.3630653779,1.0667036018\C,0,-0.1276236763,2.4649797458,1.9038
 988052\O,0,1.0247721051,2.4562560997,2.3041564708\N,0,-1.1005198718,3.
 3464018996,2.2464461265\C,0,-2.4458180288,3.3223411221,1.6855715652\C,
 0,-0.7787595047,4.4370477187,3.1547686074\N,0,0.3984676624,-0.60153779
 56,-1.2487998987\C,0,1.7437383818,-0.577504746,-0.6878585623\C,0,0.076
 7210607,-1.6921845365,-2.1571258936\H,0,-2.5921322586,2.425512826,1.08
 34500203\H,0,-2.6163225888,4.2034006117,1.0529102288\H,0,-3.1858742183
 ,3.328295866,2.4951743909\H,0,0.2487465233,4.3141739313,3.4958809279\H
 ,0,-1.4573322116,4.4218596002,4.0167943556\H,0,-0.8813406032,5.4046468
 895,2.6469658287\H,0,1.890046252,0.3193274929,-0.0857405979\H,0,2.4838
 356159,-0.5834872886,-1.4974236751\H,0,1.9141886894,-1.4585607999,-0.0
 55177874\H,0,-0.9507667423,-1.5692882243,-2.49828529\H,0,0.1792550926,
 -2.6597809989,-1.6493085863\H,0,0.7553320819,-1.6770223404,-3.01912200
 73\\Version=ES64L-G16RevA.03\State=1-A\HF=-605.2793301\RMSD=3.750e-09\
 Dipole=-0.0000182,-0.0000452,0.0000735\Quadrupole=-4.8742714,6.5926398
 ,-1.7183685,-7.5667464,-8.0462398,7.0594232\PG=C01 [X(C6H12N4O2)]\\@


 TERENCE, THIS IS STUPID STUFF:
 YOU EAT YOUR VICTUALS FAST ENOUGH;
 THERE CAN'T BE MUCH AMISS, 'TIS CLEAR
 TO SEE THE RATE YOU DRINK YOUR BEER.
 BUT OH, GOOD LORD, THE VERSE YOU MAKE,
 IT GIVES A CHAP THE BELLY-ACHE.
 THE COW, THE OLD COW, SHE IS DEAD;
 IT SLEEPS WELL, THE HORNED HEAD:
 WE POOR LADS, 'TIS OUR TURN NOW
 TO HEAR SUCH TUNES AS KILLED THE COW.
 PRETTY FRIENDSHIP 'TIS TO RHYME
 YOUR FRIENDS TO DEATH BEFORE THEIR TIME.
 MOPING, MELANCHOLY MAD:
 COME PIPE A TUNE TO DANCE TO, LAD.

     -- A. E. HOUSMAN
 Job cpu time:       0 days  0 hours 16 minutes 40.3 seconds.
 Elapsed time:       0 days  0 hours  5 minutes 40.5 seconds.
 File lengths (MBytes):  RWF=    400 Int=      0 D2E=      0 Chk=     24 Scr=      1
 Normal termination of Gaussian 16 at Sat Aug 22 20:08:35 2020.
