 Entering Gaussian System, Link 0=g16
 Input=azadicarboxylate_1_conf4123.com
 Output=azadicarboxylate_1_conf4123.log
 Initial command:
 /opt/export//g16/l1.exe "/scratch/bjs4/job.69533/Gau-69535.inp" -scrdir="/scratch/bjs4/job.69533/"
 Entering Link 1 = /opt/export//g16/l1.exe PID=     69536.
  
 Copyright (c) 1988,1990,1992,1993,1995,1998,2003,2009,2016,
            Gaussian, Inc.  All Rights Reserved.
  
 This is part of the Gaussian(R) 16 program.  It is based on
 the Gaussian(R) 09 system (copyright 2009, Gaussian, Inc.),
 the Gaussian(R) 03 system (copyright 2003, Gaussian, Inc.),
 the Gaussian(R) 98 system (copyright 1998, Gaussian, Inc.),
 the Gaussian(R) 94 system (copyright 1995, Gaussian, Inc.),
 the Gaussian 92(TM) system (copyright 1992, Gaussian, Inc.),
 the Gaussian 90(TM) system (copyright 1990, Gaussian, Inc.),
 the Gaussian 88(TM) system (copyright 1988, Gaussian, Inc.),
 the Gaussian 86(TM) system (copyright 1986, Carnegie Mellon
 University), and the Gaussian 82(TM) system (copyright 1983,
 Carnegie Mellon University). Gaussian is a federally registered
 trademark of Gaussian, Inc.
  
 This software contains proprietary and confidential information,
 including trade secrets, belonging to Gaussian, Inc.
  
 This software is provided under written license and may be
 used, copied, transmitted, or stored only in accord with that
 written license.
  
 The following legend is applicable only to US Government
 contracts under FAR:
  
                    RESTRICTED RIGHTS LEGEND
  
 Use, reproduction and disclosure by the US Government is
 subject to restrictions as set forth in subparagraphs (a)
 and (c) of the Commercial Computer Software - Restricted
 Rights clause in FAR 52.227-19.
  
 Gaussian, Inc.
 340 Quinnipiac St., Bldg. 40, Wallingford CT 06492
  
  
 ---------------------------------------------------------------
 Warning -- This program may not be used in any manner that
 competes with the business of Gaussian, Inc. or will provide
 assistance to any competitor of Gaussian, Inc.  The licensee
 of this program is prohibited from giving any competitor of
 Gaussian, Inc. access to this program.  By using this program,
 the user acknowledges that Gaussian, Inc. is engaged in the
 business of creating and licensing software in the field of
 computational chemistry and represents and warrants to the
 licensee that it is not a competitor of Gaussian, Inc. and that
 it will not use this program in any manner prohibited above.
 ---------------------------------------------------------------
  

 Cite this work as:
 Gaussian 16, Revision A.03,
 M. J. Frisch, G. W. Trucks, H. B. Schlegel, G. E. Scuseria, 
 M. A. Robb, J. R. Cheeseman, G. Scalmani, V. Barone, 
 G. A. Petersson, H. Nakatsuji, X. Li, M. Caricato, A. V. Marenich, 
 J. Bloino, B. G. Janesko, R. Gomperts, B. Mennucci, H. P. Hratchian, 
 J. V. Ortiz, A. F. Izmaylov, J. L. Sonnenberg, D. Williams-Young, 
 F. Ding, F. Lipparini, F. Egidi, J. Goings, B. Peng, A. Petrone, 
 T. Henderson, D. Ranasinghe, V. G. Zakrzewski, J. Gao, N. Rega, 
 G. Zheng, W. Liang, M. Hada, M. Ehara, K. Toyota, R. Fukuda, 
 J. Hasegawa, M. Ishida, T. Nakajima, Y. Honda, O. Kitao, H. Nakai, 
 T. Vreven, K. Throssell, J. A. Montgomery, Jr., J. E. Peralta, 
 F. Ogliaro, M. J. Bearpark, J. J. Heyd, E. N. Brothers, K. N. Kudin, 
 V. N. Staroverov, T. A. Keith, R. Kobayashi, J. Normand, 
 K. Raghavachari, A. P. Rendell, J. C. Burant, S. S. Iyengar, 
 J. Tomasi, M. Cossi, J. M. Millam, M. Klene, C. Adamo, R. Cammi, 
 J. W. Ochterski, R. L. Martin, K. Morokuma, O. Farkas, 
 J. B. Foresman, and D. J. Fox, Gaussian, Inc., Wallingford CT, 2016.
 
 ******************************************
 Gaussian 16:  ES64L-G16RevA.03 25-Dec-2016
                22-Aug-2020 
 ******************************************
 %nprocshared=5
 Will use up to    5 processors via shared memory.
 %Mem=10GB
 %Chk=azadicarboxylate_1_conf41.chk
 ---------------------------------
 # opt=CalcAll B3LYP/6-31G* scf=qc
 ---------------------------------
 1/10=4,18=20,19=15,26=3,38=1/1,3;
 2/9=110,12=2,17=6,18=5,40=1/2;
 3/5=1,6=6,7=1,11=2,25=1,30=1,71=2,74=-5,140=1/1,2,3;
 4//1;
 5/5=2,8=3,38=5/8;
 8/6=4,10=90,11=11/1;
 11/6=1,8=1,9=11,15=111,16=1/1,2,10;
 10/6=1/2;
 6/7=2,8=2,9=2,10=2,18=1,28=1/1;
 7/10=1,25=1/1,2,3,16;
 1/10=4,18=20,19=15,26=3/3(3);
 2/9=110/2;
 7/8=1,9=1,25=1,44=-1/16;
 99//99;
 2/9=110/2;
 3/5=1,6=6,7=1,11=2,25=1,30=1,71=2,74=-5,140=1/1,2,3;
 4/5=5,16=3,69=1/1;
 5/5=2,8=3,38=5/8;
 8/6=4,10=90,11=11/1;
 11/6=1,8=1,9=11,15=111,16=1/1,2,10;
 10/6=1/2;
 7/10=1,25=1/1,2,3,16;
 1/10=4,18=20,19=15,26=3/3(-8);
 2/9=110/2;
 6/7=2,8=2,9=2,10=2,18=1,19=2,28=1/1;
 7/8=1,9=1,25=1,44=-1/16;
 99//99;
 -------------------
 Title Card Required
 -------------------
 Symbolic Z-matrix:
 Charge =  0 Multiplicity = 1
 C                     4.01803  -1.69278  -0.15589 
 C                     3.01481  -0.64606   0.34524 
 C                     2.6782    0.39667  -0.72843 
 C                     1.71379  -1.37961   0.71706 
 O1                    3.486    -0.01602   1.56793 
 C2                    4.6771    0.6551    1.5808 
 O3                    5.41138   0.77475   0.6065 
 N4                    4.9172    1.1559    2.8418 
 N5                    6.1448    1.2226    3.0972 
 C6                    6.3853    1.7078    4.365 
 O7                    7.34196   1.4194    5.07495 
 O8                    5.38738   2.56735   4.7276 
 C                     5.41271   3.20933   6.02904 
 C                     6.68192   4.05169   6.2134 
 C                     4.20441   4.16179   6.05547 
 C                     5.22725   2.18327   7.15475 
 H                     3.63185  -2.22972  -1.02874 
 H                     4.2369   -2.42359   0.63141 
 H                     4.97533  -1.24856  -0.44128 
 H                     2.24583  -0.07397  -1.61819 
 H                     3.55669   0.9606   -1.05232 
 H                     1.96129   1.13058  -0.3429 
 H                     1.28046  -1.89245  -0.14969 
 H                     0.96594  -0.68245   1.11188 
 H                     1.89112  -2.1241    1.50171 
 H                     6.7836    4.77976   5.40032 
 H                     7.59062   3.44485   6.20222 
 H                     6.66331   4.59618   7.16375 
 H                     4.26851   4.90411   5.25131 
 H                     4.13423   4.69588   7.01006 
 H                     3.2674    3.61426   5.89959 
 H                     6.0525    1.46847   7.20621 
 H                     4.31617   1.5958    6.99225 
 H                     5.15467   2.67213   8.13213 
 

 GradGradGradGradGradGradGradGradGradGradGradGradGradGradGradGradGradGrad
 Berny optimization.
 Initialization pass.
                           ----------------------------
                           !    Initial Parameters    !
                           ! (Angstroms and Degrees)  !
 --------------------------                            --------------------------
 ! Name  Definition              Value          Derivative Info.                !
 --------------------------------------------------------------------------------
 ! R1    R(1,2)                  1.534          calculate D2E/DX2 analytically  !
 ! R2    R(1,17)                 1.0951         calculate D2E/DX2 analytically  !
 ! R3    R(1,18)                 1.0963         calculate D2E/DX2 analytically  !
 ! R4    R(1,19)                 1.0933         calculate D2E/DX2 analytically  !
 ! R5    R(2,3)                  1.5341         calculate D2E/DX2 analytically  !
 ! R6    R(2,4)                  1.5392         calculate D2E/DX2 analytically  !
 ! R7    R(2,5)                  1.4539         calculate D2E/DX2 analytically  !
 ! R8    R(3,20)                 1.0955         calculate D2E/DX2 analytically  !
 ! R9    R(3,21)                 1.093          calculate D2E/DX2 analytically  !
 ! R10   R(3,22)                 1.096          calculate D2E/DX2 analytically  !
 ! R11   R(4,23)                 1.0964         calculate D2E/DX2 analytically  !
 ! R12   R(4,24)                 1.096          calculate D2E/DX2 analytically  !
 ! R13   R(4,25)                 1.0961         calculate D2E/DX2 analytically  !
 ! R14   R(5,6)                  1.3672         calculate D2E/DX2 analytically  !
 ! R15   R(6,7)                  1.2259         calculate D2E/DX2 analytically  !
 ! R16   R(6,8)                  1.3779         calculate D2E/DX2 analytically  !
 ! R17   R(8,9)                  1.2557         calculate D2E/DX2 analytically  !
 ! R18   R(9,10)                 1.3786         calculate D2E/DX2 analytically  !
 ! R19   R(10,11)                1.2257         calculate D2E/DX2 analytically  !
 ! R20   R(10,12)                1.3661         calculate D2E/DX2 analytically  !
 ! R21   R(12,13)                1.4514         calculate D2E/DX2 analytically  !
 ! R22   R(13,14)                1.5344         calculate D2E/DX2 analytically  !
 ! R23   R(13,15)                1.5388         calculate D2E/DX2 analytically  !
 ! R24   R(13,16)                1.5344         calculate D2E/DX2 analytically  !
 ! R25   R(14,26)                1.0961         calculate D2E/DX2 analytically  !
 ! R26   R(14,27)                1.0928         calculate D2E/DX2 analytically  !
 ! R27   R(14,28)                1.0954         calculate D2E/DX2 analytically  !
 ! R28   R(15,29)                1.0963         calculate D2E/DX2 analytically  !
 ! R29   R(15,30)                1.0961         calculate D2E/DX2 analytically  !
 ! R30   R(15,31)                1.0964         calculate D2E/DX2 analytically  !
 ! R31   R(16,32)                1.093          calculate D2E/DX2 analytically  !
 ! R32   R(16,33)                1.0962         calculate D2E/DX2 analytically  !
 ! R33   R(16,34)                1.0952         calculate D2E/DX2 analytically  !
 ! A1    A(2,1,17)             111.3649         calculate D2E/DX2 analytically  !
 ! A2    A(2,1,18)             110.5379         calculate D2E/DX2 analytically  !
 ! A3    A(2,1,19)             112.3758         calculate D2E/DX2 analytically  !
 ! A4    A(17,1,18)            108.4181         calculate D2E/DX2 analytically  !
 ! A5    A(17,1,19)            107.4541         calculate D2E/DX2 analytically  !
 ! A6    A(18,1,19)            106.4705         calculate D2E/DX2 analytically  !
 ! A7    A(1,2,3)              112.2507         calculate D2E/DX2 analytically  !
 ! A8    A(1,2,4)              107.8496         calculate D2E/DX2 analytically  !
 ! A9    A(1,2,5)              111.0056         calculate D2E/DX2 analytically  !
 ! A10   A(3,2,4)              107.9115         calculate D2E/DX2 analytically  !
 ! A11   A(3,2,5)              111.4159         calculate D2E/DX2 analytically  !
 ! A12   A(4,2,5)              106.0997         calculate D2E/DX2 analytically  !
 ! A13   A(2,3,20)             111.2864         calculate D2E/DX2 analytically  !
 ! A14   A(2,3,21)             112.4411         calculate D2E/DX2 analytically  !
 ! A15   A(2,3,22)             110.6398         calculate D2E/DX2 analytically  !
 ! A16   A(20,3,21)            107.3493         calculate D2E/DX2 analytically  !
 ! A17   A(20,3,22)            108.3737         calculate D2E/DX2 analytically  !
 ! A18   A(21,3,22)            106.528          calculate D2E/DX2 analytically  !
 ! A19   A(2,4,23)             111.4716         calculate D2E/DX2 analytically  !
 ! A20   A(2,4,24)             111.1397         calculate D2E/DX2 analytically  !
 ! A21   A(2,4,25)             111.0939         calculate D2E/DX2 analytically  !
 ! A22   A(23,4,24)            108.2186         calculate D2E/DX2 analytically  !
 ! A23   A(23,4,25)            108.1898         calculate D2E/DX2 analytically  !
 ! A24   A(24,4,25)            106.5331         calculate D2E/DX2 analytically  !
 ! A25   A(2,5,6)              120.1958         calculate D2E/DX2 analytically  !
 ! A26   A(5,6,7)              124.2122         calculate D2E/DX2 analytically  !
 ! A27   A(5,6,8)              109.8055         calculate D2E/DX2 analytically  !
 ! A28   A(7,6,8)              125.9808         calculate D2E/DX2 analytically  !
 ! A29   A(6,8,9)              112.0744         calculate D2E/DX2 analytically  !
 ! A30   A(8,9,10)             112.1045         calculate D2E/DX2 analytically  !
 ! A31   A(9,10,11)            125.8735         calculate D2E/DX2 analytically  !
 ! A32   A(9,10,12)            109.7618         calculate D2E/DX2 analytically  !
 ! A33   A(11,10,12)           124.3644         calculate D2E/DX2 analytically  !
 ! A34   A(10,12,13)           120.2369         calculate D2E/DX2 analytically  !
 ! A35   A(12,13,14)           111.4073         calculate D2E/DX2 analytically  !
 ! A36   A(12,13,15)           105.9906         calculate D2E/DX2 analytically  !
 ! A37   A(12,13,16)           111.0976         calculate D2E/DX2 analytically  !
 ! A38   A(14,13,15)           107.9175         calculate D2E/DX2 analytically  !
 ! A39   A(14,13,16)           112.2674         calculate D2E/DX2 analytically  !
 ! A40   A(15,13,16)           107.8421         calculate D2E/DX2 analytically  !
 ! A41   A(13,14,26)           110.6245         calculate D2E/DX2 analytically  !
 ! A42   A(13,14,27)           112.4419         calculate D2E/DX2 analytically  !
 ! A43   A(13,14,28)           111.2878         calculate D2E/DX2 analytically  !
 ! A44   A(26,14,27)           106.5069         calculate D2E/DX2 analytically  !
 ! A45   A(26,14,28)           108.3578         calculate D2E/DX2 analytically  !
 ! A46   A(27,14,28)           107.3994         calculate D2E/DX2 analytically  !
 ! A47   A(13,15,29)           111.1376         calculate D2E/DX2 analytically  !
 ! A48   A(13,15,30)           111.5207         calculate D2E/DX2 analytically  !
 ! A49   A(13,15,31)           111.0714         calculate D2E/DX2 analytically  !
 ! A50   A(29,15,30)           108.2185         calculate D2E/DX2 analytically  !
 ! A51   A(29,15,31)           106.4891         calculate D2E/DX2 analytically  !
 ! A52   A(30,15,31)           108.2063         calculate D2E/DX2 analytically  !
 ! A53   A(13,16,32)           112.371          calculate D2E/DX2 analytically  !
 ! A54   A(13,16,33)           110.492          calculate D2E/DX2 analytically  !
 ! A55   A(13,16,34)           111.3605         calculate D2E/DX2 analytically  !
 ! A56   A(32,16,33)           106.5014         calculate D2E/DX2 analytically  !
 ! A57   A(32,16,34)           107.4534         calculate D2E/DX2 analytically  !
 ! A58   A(33,16,34)           108.447          calculate D2E/DX2 analytically  !
 ! D1    D(17,1,2,3)           -59.3127         calculate D2E/DX2 analytically  !
 ! D2    D(17,1,2,4)            59.4276         calculate D2E/DX2 analytically  !
 ! D3    D(17,1,2,5)           175.2586         calculate D2E/DX2 analytically  !
 ! D4    D(18,1,2,3)          -179.8996         calculate D2E/DX2 analytically  !
 ! D5    D(18,1,2,4)           -61.1592         calculate D2E/DX2 analytically  !
 ! D6    D(18,1,2,5)            54.6718         calculate D2E/DX2 analytically  !
 ! D7    D(19,1,2,3)            61.3074         calculate D2E/DX2 analytically  !
 ! D8    D(19,1,2,4)          -179.9523         calculate D2E/DX2 analytically  !
 ! D9    D(19,1,2,5)           -64.1213         calculate D2E/DX2 analytically  !
 ! D10   D(1,2,3,20)            59.4905         calculate D2E/DX2 analytically  !
 ! D11   D(1,2,3,21)           -60.9845         calculate D2E/DX2 analytically  !
 ! D12   D(1,2,3,22)          -179.9622         calculate D2E/DX2 analytically  !
 ! D13   D(4,2,3,20)           -59.2133         calculate D2E/DX2 analytically  !
 ! D14   D(4,2,3,21)          -179.6883         calculate D2E/DX2 analytically  !
 ! D15   D(4,2,3,22)            61.3339         calculate D2E/DX2 analytically  !
 ! D16   D(5,2,3,20)          -175.3056         calculate D2E/DX2 analytically  !
 ! D17   D(5,2,3,21)            64.2194         calculate D2E/DX2 analytically  !
 ! D18   D(5,2,3,22)           -54.7583         calculate D2E/DX2 analytically  !
 ! D19   D(1,2,4,23)           -60.874          calculate D2E/DX2 analytically  !
 ! D20   D(1,2,4,24)           178.3096         calculate D2E/DX2 analytically  !
 ! D21   D(1,2,4,25)            59.8743         calculate D2E/DX2 analytically  !
 ! D22   D(3,2,4,23)            60.6027         calculate D2E/DX2 analytically  !
 ! D23   D(3,2,4,24)           -60.2137         calculate D2E/DX2 analytically  !
 ! D24   D(3,2,4,25)          -178.649          calculate D2E/DX2 analytically  !
 ! D25   D(5,2,4,23)          -179.8801         calculate D2E/DX2 analytically  !
 ! D26   D(5,2,4,24)            59.3036         calculate D2E/DX2 analytically  !
 ! D27   D(5,2,4,25)           -59.1318         calculate D2E/DX2 analytically  !
 ! D28   D(1,2,5,6)             59.294          calculate D2E/DX2 analytically  !
 ! D29   D(3,2,5,6)            -66.6008         calculate D2E/DX2 analytically  !
 ! D30   D(4,2,5,6)            176.2025         calculate D2E/DX2 analytically  !
 ! D31   D(2,5,6,7)              0.0002         calculate D2E/DX2 analytically  !
 ! D32   D(2,5,6,8)           -179.5803         calculate D2E/DX2 analytically  !
 ! D33   D(5,6,8,9)            149.647          calculate D2E/DX2 analytically  !
 ! D34   D(7,6,8,9)            -29.9243         calculate D2E/DX2 analytically  !
 ! D35   D(6,8,9,10)          -179.2377         calculate D2E/DX2 analytically  !
 ! D36   D(8,9,10,11)          149.647          calculate D2E/DX2 analytically  !
 ! D37   D(8,9,10,12)          -30.1468         calculate D2E/DX2 analytically  !
 ! D38   D(9,10,12,13)         179.7978         calculate D2E/DX2 analytically  !
 ! D39   D(11,10,12,13)          0.0003         calculate D2E/DX2 analytically  !
 ! D40   D(10,12,13,14)         59.2936         calculate D2E/DX2 analytically  !
 ! D41   D(10,12,13,15)        176.4288         calculate D2E/DX2 analytically  !
 ! D42   D(10,12,13,16)        -66.6869         calculate D2E/DX2 analytically  !
 ! D43   D(12,13,14,26)         55.12           calculate D2E/DX2 analytically  !
 ! D44   D(12,13,14,27)        -63.8212         calculate D2E/DX2 analytically  !
 ! D45   D(12,13,14,28)        175.6377         calculate D2E/DX2 analytically  !
 ! D46   D(15,13,14,26)        -60.8395         calculate D2E/DX2 analytically  !
 ! D47   D(15,13,14,27)       -179.7806         calculate D2E/DX2 analytically  !
 ! D48   D(15,13,14,28)         59.6783         calculate D2E/DX2 analytically  !
 ! D49   D(16,13,14,26)       -179.5478         calculate D2E/DX2 analytically  !
 ! D50   D(16,13,14,27)         61.5111         calculate D2E/DX2 analytically  !
 ! D51   D(16,13,14,28)        -59.0301         calculate D2E/DX2 analytically  !
 ! D52   D(12,13,15,29)        -59.3893         calculate D2E/DX2 analytically  !
 ! D53   D(12,13,15,30)        179.7623         calculate D2E/DX2 analytically  !
 ! D54   D(12,13,15,31)         58.9751         calculate D2E/DX2 analytically  !
 ! D55   D(14,13,15,29)         60.0628         calculate D2E/DX2 analytically  !
 ! D56   D(14,13,15,30)        -60.7856         calculate D2E/DX2 analytically  !
 ! D57   D(14,13,15,31)        178.4272         calculate D2E/DX2 analytically  !
 ! D58   D(16,13,15,29)       -178.4414         calculate D2E/DX2 analytically  !
 ! D59   D(16,13,15,30)         60.7102         calculate D2E/DX2 analytically  !
 ! D60   D(16,13,15,31)        -60.077          calculate D2E/DX2 analytically  !
 ! D61   D(12,13,16,32)         64.5402         calculate D2E/DX2 analytically  !
 ! D62   D(12,13,16,33)        -54.2577         calculate D2E/DX2 analytically  !
 ! D63   D(12,13,16,34)       -174.8471         calculate D2E/DX2 analytically  !
 ! D64   D(14,13,16,32)        -60.9614         calculate D2E/DX2 analytically  !
 ! D65   D(14,13,16,33)       -179.7593         calculate D2E/DX2 analytically  !
 ! D66   D(14,13,16,34)         59.6513         calculate D2E/DX2 analytically  !
 ! D67   D(15,13,16,32)       -179.7142         calculate D2E/DX2 analytically  !
 ! D68   D(15,13,16,33)         61.488          calculate D2E/DX2 analytically  !
 ! D69   D(15,13,16,34)        -59.1015         calculate D2E/DX2 analytically  !
 --------------------------------------------------------------------------------
 Trust Radius=3.00D-01 FncErr=1.00D-07 GrdErr=1.00D-06 EigMax=2.50D+02 EigMin=1.00D-04
 Number of steps in this run=    170 maximum allowed number of steps=    204.
 GradGradGradGradGradGradGradGradGradGradGradGradGradGradGradGradGradGrad

                          Input orientation:                          
 ---------------------------------------------------------------------
 Center     Atomic      Atomic             Coordinates (Angstroms)
 Number     Number       Type             X           Y           Z
 ---------------------------------------------------------------------
      1          6           0        4.018030   -1.692780   -0.155890
      2          6           0        3.014810   -0.646060    0.345240
      3          6           0        2.678200    0.396670   -0.728430
      4          6           0        1.713790   -1.379610    0.717060
      5          8           0        3.486000   -0.016020    1.567930
      6          6           0        4.677100    0.655100    1.580800
      7          8           0        5.411380    0.774750    0.606500
      8          7           0        4.917200    1.155900    2.841800
      9          7           0        6.144800    1.222600    3.097200
     10          6           0        6.385300    1.707800    4.365000
     11          8           0        7.341960    1.419400    5.074950
     12          8           0        5.387380    2.567350    4.727600
     13          6           0        5.412710    3.209330    6.029040
     14          6           0        6.681920    4.051690    6.213400
     15          6           0        4.204410    4.161790    6.055470
     16          6           0        5.227250    2.183270    7.154750
     17          1           0        3.631850   -2.229720   -1.028740
     18          1           0        4.236900   -2.423590    0.631410
     19          1           0        4.975330   -1.248560   -0.441280
     20          1           0        2.245830   -0.073970   -1.618190
     21          1           0        3.556690    0.960600   -1.052320
     22          1           0        1.961290    1.130580   -0.342900
     23          1           0        1.280460   -1.892450   -0.149690
     24          1           0        0.965940   -0.682450    1.111880
     25          1           0        1.891120   -2.124100    1.501710
     26          1           0        6.783600    4.779760    5.400320
     27          1           0        7.590620    3.444850    6.202220
     28          1           0        6.663310    4.596180    7.163750
     29          1           0        4.268510    4.904110    5.251310
     30          1           0        4.134230    4.695880    7.010060
     31          1           0        3.267400    3.614260    5.899590
     32          1           0        6.052500    1.468470    7.206210
     33          1           0        4.316170    1.595800    6.992250
     34          1           0        5.154670    2.672130    8.132130
 ---------------------------------------------------------------------
                    Distance matrix (angstroms):
                    1          2          3          4          5
     1  C    0.000000
     2  C    1.534016   0.000000
     3  C    2.547302   1.534066   0.000000
     4  C    2.483876   1.539155   2.484894   0.000000
     5  O    2.462953   1.453940   2.469033   2.392506   0.000000
     6  C    2.993828   2.445983   3.065115   3.696931   1.367219
     7  O    2.934513   2.798304   3.065168   4.280848   2.292761
     8  N    4.231977   3.619248   4.282066   4.604907   2.245991
     9  N    4.858517   4.567495   5.228281   5.663075   3.307879
    10  C    6.132402   5.749724   6.434647   6.683006   4.381906
    11  O    6.935118   6.735021   7.515042   7.648657   5.406297
    12  O    6.623617   5.929601   6.466821   6.719984   4.502506
    13  C    8.014311   7.274582   7.813578   7.934577   5.832375
    14  C    8.981264   8.363722   8.807835   9.186462   6.952738
    15  C    8.537665   7.558922   7.907385   8.087578   6.173186
    16  C    8.362502   7.698664   8.475501   8.153672   6.251511
    17  H    1.095129   2.185529   2.810260   2.729370   3.415324
    18  H    1.096279   2.176008   3.497510   2.731907   2.690226
    19  H    1.093253   2.196647   2.840078   3.463606   2.788222
    20  H    2.810616   2.184874   1.095499   2.727848   3.419465
    21  H    2.838459   2.197308   1.093008   3.464617   2.797230
    22  H    3.498073   2.177129   1.096001   2.736024   2.700130
    23  H    2.744849   2.192353   2.743845   1.096374   3.366840
    24  H    3.455902   2.187905   2.735521   1.095990   2.646283
    25  H    2.730828   2.187397   3.456487   1.096078   2.644244
    26  H    8.967364   8.318482   8.580639   9.250607   6.968564
    27  H    8.920998   8.483973   9.025363   9.375475   7.092402
    28  H   10.006281   9.342629   9.787926  10.087994   7.917126
    29  H    8.533435   7.513034   7.655285   8.159115   6.195748
    30  H    9.601006   8.614479   8.971480   9.075900   7.227654
    31  H    8.086839   7.004636   7.391258   7.362816   5.655970
    32  H    8.266383   7.795621   8.688680   8.309334   6.370309
    33  H    7.873979   7.134579   7.983092   7.416431   5.719300
    34  H    9.435871   8.730695   9.477349   9.123569   7.286929
                    6          7          8          9         10
     6  C    0.000000
     7  O    1.225864   0.000000
     8  N    1.377886   2.320788   0.000000
     9  N    2.185330   2.634779   1.255659   0.000000
    10  C    3.431894   3.993172   2.186332   1.378614   0.000000
    11  O    4.460349   4.910169   3.306940   2.320219   1.225725
    12  O    3.750140   4.494158   2.401979   2.245048   1.366071
    13  C    5.181897   5.943999   3.823690   3.616454   2.443267
    14  C    6.084169   6.617396   4.782000   4.242988   2.999731
    15  C    5.704646   6.528406   4.457703   4.599490   3.692700
    16  C    5.805763   6.700553   4.444452   4.269484   3.057754
    17  H    4.027956   3.855850   5.300531   5.937745   7.223433
    18  H    3.251684   3.407257   4.261617   4.797385   5.968559
    19  H    2.793147   2.319863   4.069818   4.471592   5.816219
    20  H    4.083645   3.961096   5.342313   6.254436   7.490559
    21  H    2.877841   2.495215   4.129564   4.897497   6.156842
    22  H    3.361893   3.595983   4.345154   5.417057   6.486090
    23  H    4.584950   4.974965   5.609575   6.626284   7.707374
    24  H    3.972611   4.705399   4.688775   5.864410   6.757629
    25  H    3.935974   4.647253   4.659549   5.642675   6.563501
    26  H    6.003240   6.395608   4.812674   4.285535   3.266109
    27  H    6.134234   6.571956   4.866096   4.082884   2.800985
    28  H    7.116634   7.692086   5.793417   5.309117   4.031505
    29  H    5.629714   6.319179   4.502845   4.659847   3.934812
    30  H    6.789659   7.616558   5.524391   5.605046   4.581733
    31  H    5.421792   6.377795   4.256225   4.674704   3.963692
    32  H    5.847951   6.666967   4.520474   4.117394   2.870629
    33  H    5.504451   6.530805   4.216750   4.319095   3.346085
    34  H    6.871420   7.765376   5.508442   5.332168   4.078683
                   11         12         13         14         15
    11  O    0.000000
    12  O    2.293213   0.000000
    13  C    2.799311   1.451388   0.000000
    14  C    2.942902   2.467124   1.534423   0.000000
    15  C    4.280928   2.388492   1.538788   2.484979   0.000000
    16  C    3.062852   2.462563   1.534411   2.548175   2.483779
    17  H    8.020974   7.696052   9.086638  10.060200   9.558517
    18  H    6.644924   6.558343   7.889659   8.891906   8.531630
    19  H    6.568694   6.438033   7.869506   8.676973   8.489639
    20  H    8.543935   7.557444   8.904455   9.901200   8.981245
    21  H    7.216800   6.272204   7.658150   8.491913   7.822265
    22  H    7.641212   6.285887   7.538907   8.590827   7.426908
    23  H    8.660658   7.781039   9.015562  10.246828   9.149170
    24  H    7.795982   6.571435   7.687534   9.006110   7.641559
    25  H    7.418631   6.681310   7.832228   9.126454   8.099411
    26  H    3.421937   2.701248   2.177356   1.096140   2.731909
    27  H    2.331312   2.792629   2.197442   1.092756   3.464384
    28  H    3.862070   3.417452   2.185159   1.095436   2.731880
    29  H    4.649774   2.643216   2.187770   2.734371   1.096276
    30  H    4.976897   3.363131   2.192428   2.745974   1.096093
    31  H    4.701008   2.638920   2.187026   3.456699   1.096392
    32  H    2.491462   2.791671   2.196737   2.838110   3.463179
    33  H    3.586441   2.687013   2.175696   3.497824   2.733926
    34  H    3.962312   3.414082   2.185899   2.813753   2.726646
                   16         17         18         19         20
    16  C    0.000000
    17  H    9.433414   0.000000
    18  H    8.047230   1.777574   0.000000
    19  H    8.339100   1.764291   1.754035   0.000000
    20  H    9.536691   2.629783   3.813892   3.196083   0.000000
    21  H    8.464141   3.191292   3.840622   2.695607   1.763207
    22  H    8.245569   3.814808   4.331259   3.841149   1.777152
    23  H    9.248972   2.532887   3.103670   3.761872   2.528893
    24  H    7.930157   3.752782   3.736522   4.336818   3.075979
    25  H    7.851118   3.073186   2.519881   3.748884   3.750017
    26  H    3.498858  10.019938   9.006466   8.586895   9.664861
    27  H    2.843311  10.007966   8.758993   8.544234  10.104835
    28  H    2.807932  11.086007   9.891213   9.738929  10.883331
    29  H    3.456188   9.525539   8.662544   8.411927   8.721384
    30  H    2.743873  10.622553   9.559528   9.569027  10.038138
    31  H    2.732064   9.071201   8.071511   8.171333   8.435856
    32  H    1.092989   9.346152   7.853186   8.186981   9.733442
    33  H    1.096172   8.912866   7.524763   7.986379   9.011888
    34  H    1.095228  10.500888   9.114245   9.429068  10.539030
                   21         22         23         24         25
    21  H    0.000000
    22  H    1.754272   0.000000
    23  H    3.759768   3.104766   0.000000
    24  H    3.754379   2.528672   1.776114   0.000000
    25  H    4.337346   3.741718   1.775863   1.756781   0.000000
    26  H    8.163057   8.340010  10.276456   9.059339   9.316588
    27  H    8.664435   8.937774  10.423610   9.318399   9.251611
    28  H    9.506437   9.511528  11.160815   9.846273   9.999733
    29  H    7.469519   7.131478   9.181093   7.697500   8.313075
    30  H    8.904372   8.455711  10.139631   8.587958   9.049066
    31  H    7.446788   6.844214   8.418169   6.832320   7.359638
    32  H    8.642356   8.593092   9.390283   8.224379   7.922434
    33  H    8.105270   7.717922   8.508274   7.140953   7.061484
    34  H    9.478238   9.186957  10.219268   8.836435   8.810054
                   26         27         28         29         30
    26  H    0.000000
    27  H    1.753941   0.000000
    28  H    1.777036   1.763520   0.000000
    29  H    2.522567   3.751011   3.080148   0.000000
    30  H    3.101203   3.763551   2.535706   1.776117   0.000000
    31  H    3.737823   4.337109   3.754261   1.756759   1.776074
    32  H    3.841925   2.698127   3.187077   4.336805   3.759576
    33  H    4.331288   3.842546   3.813235   3.738724   3.105465
    34  H    3.815534   3.202421   2.629776   3.750485   2.529012
                   31         32         33         34
    31  H    0.000000
    32  H    3.750794   0.000000
    33  H    2.523491   1.754091   0.000000
    34  H    3.071422   1.764150   1.777891   0.000000
 Stoichiometry    C10H18N2O4
 Framework group  C1[X(C10H18N2O4)]
 Deg. of freedom    96
 Full point group                 C1      NOp   1
 Largest Abelian subgroup         C1      NOp   1
 Largest concise Abelian subgroup C1      NOp   1
                         Standard orientation:                         
 ---------------------------------------------------------------------
 Center     Atomic      Atomic             Coordinates (Angstroms)
 Number     Number       Type             X           Y           Z
 ---------------------------------------------------------------------
      1          6           0       -4.296516   -0.889054    0.694920
      2          6           0       -3.731746    0.425432    0.141417
      3          6           0       -4.178530    0.687247   -1.302604
      4          6           0       -4.264299    1.573609    1.017246
      5          8           0       -2.283484    0.463078    0.264135
      6          6           0       -1.516813   -0.491975   -0.343631
      7          8           0       -1.967828   -1.415885   -1.011253
      8          7           0       -0.184546   -0.257699   -0.081432
      9          7           0        0.484701   -1.319768   -0.053168
     10          6           0        1.814689   -1.087601    0.225767
     11          8           0        2.570091   -1.854366    0.812147
     12          8           0        2.178246    0.141167   -0.247631
     13          6           0        3.537131    0.619582   -0.071346
     14          6           0        4.552600   -0.322369   -0.731652
     15          6           0        3.606942    1.974711   -0.797031
     16          6           0        3.848841    0.863552    1.411129
     17          1           0       -5.391573   -0.889433    0.682380
     18          1           0       -3.961888   -1.047143    1.726840
     19          1           0       -3.961740   -1.759070    0.123782
     20          1           0       -5.270148    0.740662   -1.377669
     21          1           0       -3.842223   -0.092097   -1.991216
     22          1           0       -3.760301    1.630820   -1.671348
     23          1           0       -5.359155    1.624485    0.990080
     24          1           0       -3.868029    2.540170    0.685697
     25          1           0       -3.953288    1.450464    2.061035
     26          1           0        4.309534   -0.471428   -1.790058
     27          1           0        4.561683   -1.313956   -0.272535
     28          1           0        5.569616    0.079057   -0.664440
     29          1           0        3.364766    1.866470   -1.860730
     30          1           0        4.603882    2.423084   -0.716455
     31          1           0        2.878787    2.681827   -0.382482
     32          1           0        3.823994   -0.057827    1.998553
     33          1           0        3.104655    1.535456    1.854217
     34          1           0        4.840346    1.309976    1.542080
 ---------------------------------------------------------------------
 Rotational constants (GHZ):           1.1830809           0.2080949           0.1967692
 Standard basis: 6-31G(d) (6D, 7F)
 There are   276 symmetry adapted cartesian basis functions of A   symmetry.
 There are   276 symmetry adapted basis functions of A   symmetry.
   276 basis functions,   520 primitive gaussians,   276 cartesian basis functions
    62 alpha electrons       62 beta electrons
       nuclear repulsion energy      1156.1392571988 Hartrees.
 NAtoms=   34 NActive=   34 NUniq=   34 SFac= 1.00D+00 NAtFMM=   60 NAOKFM=F Big=F
 Integral buffers will be    131072 words long.
 Raffenetti 2 integral format.
 Two-electron integral symmetry is turned on.
 One-electron integrals computed using PRISM.
 NBasis=   276 RedAO= T EigKep=  2.16D-03  NBF=   276
 NBsUse=   276 1.00D-06 EigRej= -1.00D+00 NBFU=   276
 ExpMin= 1.61D-01 ExpMax= 5.48D+03 ExpMxC= 8.25D+02 IAcc=3 IRadAn=         5 AccDes= 0.00D+00
 Harris functional with IExCor=  402 and IRadAn=       5 diagonalized for initial guess.
 HarFok:  IExCor=  402 AccDes= 0.00D+00 IRadAn=         5 IDoV= 1 UseB2=F ITyADJ=14
 ICtDFT=  3500011 ScaDFX=  1.000000  1.000000  1.000000  1.000000
 FoFCou: FMM=F IPFlag=           0 FMFlag=      100000 FMFlg1=           0
         NFxFlg=           0 DoJE=T BraDBF=F KetDBF=T FulRan=T
         wScrn=  0.000000 ICntrl=       500 IOpCl=  0 I1Cent=   200000004 NGrid=           0
         NMat0=    1 NMatS0=      1 NMatT0=    0 NMatD0=    1 NMtDS0=    0 NMtDT0=    0
 Petite list used in FoFCou.
 Gradient too large for Newton-Raphson -- use scaled steepest descent instead.
     Minimum is close to point  2 DX=  1.37D-02 DF= -9.31D-04 DXR=  4.37D-02 DFR=  1.92D-03 which will be used.
 Gradient too large for Newton-Raphson -- use scaled steepest descent instead.
 Gradient too large for Newton-Raphson -- use scaled steepest descent instead.
     Accept linear search using points  1 and  2.
 Gradient too large for Newton-Raphson -- use scaled steepest descent instead.
     Minimum is close to point  3 DX=  4.35D-02 DF= -1.46D-05 DXR=  5.15D-02 DFR=  2.67D-03 which will be used.
 Gradient too large for Newton-Raphson -- use scaled steepest descent instead.
     Accept linear search using points  1 and  2.
 Gradient too large for Newton-Raphson -- use scaled steepest descent instead.
     Accept linear search using points  1 and  2.
 LinEq1:  Iter=  0 NonCon=     1 RMS=7.87D-05 Max=3.17D-03 NDo=     1
 AX will form     1 AO Fock derivatives at one time.
 LinEq1:  Iter=  1 NonCon=     1 RMS=1.01D-04 Max=7.35D-03 NDo=     1
 LinEq1:  Iter=  2 NonCon=     1 RMS=4.28D-05 Max=1.30D-03 NDo=     1
 LinEq1:  Iter=  3 NonCon=     1 RMS=3.25D-05 Max=2.07D-03 NDo=     1
 LinEq1:  Iter=  4 NonCon=     1 RMS=2.93D-05 Max=1.52D-03 NDo=     1
 LinEq1:  Iter=  5 NonCon=     1 RMS=1.74D-05 Max=6.10D-04 NDo=     1
 LinEq1:  Iter=  6 NonCon=     1 RMS=1.18D-05 Max=3.71D-04 NDo=     1
 LinEq1:  Iter=  7 NonCon=     1 RMS=5.97D-06 Max=1.74D-04 NDo=     1
 LinEq1:  Iter=  8 NonCon=     1 RMS=5.13D-06 Max=2.26D-04 NDo=     1
 LinEq1:  Iter=  9 NonCon=     1 RMS=3.09D-06 Max=1.06D-04 NDo=     1
 LinEq1:  Iter= 10 NonCon=     1 RMS=1.46D-06 Max=4.20D-05 NDo=     1
 LinEq1:  Iter= 11 NonCon=     1 RMS=7.09D-07 Max=3.06D-05 NDo=     1
 LinEq1:  Iter= 12 NonCon=     1 RMS=3.73D-07 Max=7.81D-06 NDo=     1
 LinEq1:  Iter= 13 NonCon=     1 RMS=2.23D-07 Max=5.58D-06 NDo=     1
 LinEq1:  Iter= 14 NonCon=     1 RMS=5.48D-08 Max=1.43D-06 NDo=     1
 LinEq1:  Iter= 15 NonCon=     1 RMS=2.07D-08 Max=4.32D-07 NDo=     1
 LinEq1:  Iter= 16 NonCon=     1 RMS=9.83D-09 Max=2.25D-07 NDo=     1
 LinEq1:  Iter= 17 NonCon=     0 RMS=3.54D-09 Max=1.23D-07 NDo=     1
 Linear equations converged to 1.629D-08 1.629D-07 after    17 iterations.
     Accept linear search using points  1 and  2.
     Minimum is close to point  2 DX= -9.97D-04 DF= -4.42D-11 DXR=  9.98D-04 DFR=  9.98D-07 which will be used.
 LinEq1:  Iter=  0 NonCon=     1 RMS=2.04D-07 Max=1.16D-05 NDo=     1
 LinEq1:  Iter=  1 NonCon=     1 RMS=1.65D-07 Max=7.94D-06 NDo=     1
 LinEq1:  Iter=  2 NonCon=     1 RMS=9.06D-08 Max=3.60D-06 NDo=     1
 LinEq1:  Iter=  3 NonCon=     1 RMS=5.92D-08 Max=3.06D-06 NDo=     1
 LinEq1:  Iter=  4 NonCon=     1 RMS=5.00D-08 Max=1.75D-06 NDo=     1
 LinEq1:  Iter=  5 NonCon=     1 RMS=3.67D-08 Max=1.23D-06 NDo=     1
 LinEq1:  Iter=  6 NonCon=     1 RMS=2.77D-08 Max=7.26D-07 NDo=     1
 LinEq1:  Iter=  7 NonCon=     1 RMS=1.84D-08 Max=6.47D-07 NDo=     1
 LinEq1:  Iter=  8 NonCon=     1 RMS=1.07D-08 Max=5.16D-07 NDo=     1
 LinEq1:  Iter=  9 NonCon=     1 RMS=1.00D-08 Max=5.04D-07 NDo=     1
 LinEq1:  Iter= 10 NonCon=     1 RMS=7.04D-09 Max=3.40D-07 NDo=     1
 LinEq1:  Iter= 11 NonCon=     1 RMS=3.68D-09 Max=1.98D-07 NDo=     1
 LinEq1:  Iter= 12 NonCon=     1 RMS=1.37D-09 Max=4.16D-08 NDo=     1
 LinEq1:  Iter= 13 NonCon=     1 RMS=1.02D-09 Max=2.40D-08 NDo=     1
 LinEq1:  Iter= 14 NonCon=     1 RMS=3.47D-10 Max=8.55D-09 NDo=     1
 LinEq1:  Iter= 15 NonCon=     1 RMS=1.19D-10 Max=2.75D-09 NDo=     1
 LinEq1:  Iter= 16 NonCon=     0 RMS=5.21D-11 Max=8.13D-10 NDo=     1
 Linear equations converged to 1.597D-10 1.597D-09 after    16 iterations.
 SCF Done:  E(RB3LYP) =  -802.256770506     a.u. after    9 cycles
            Convg  =    0.3513D-09                    50 Fock formations.
              S**2 =  0.0000                  -V/T =  2.0092
 DoSCS=F DFT=T ScalE2(SS,OS)=  1.000000  1.000000
 Range of M.O.s used for correlation:     1   276
 NBasis=   276 NAE=    62 NBE=    62 NFC=     0 NFV=     0
 NROrb=    276 NOA=    62 NOB=    62 NVA=   214 NVB=   214
 Symmetrizing basis deriv contribution to polar:
 IMax=3 JMax=2 DiffMx= 0.00D+00
 G2DrvN: will do    35 centers at a time, making    1 passes.
 Calling FoFCou, ICntrl=  3107 FMM=F I1Cent=   0 AccDes= 0.00D+00.
 End of G2Drv F.D. properties file   721 does not exist.
 End of G2Drv F.D. properties file   722 does not exist.
 End of G2Drv F.D. properties file   788 does not exist.
          IDoAtm=1111111111111111111111111111111111
          Differentiating once with respect to electric field.
                with respect to dipole field.
          Differentiating once with respect to nuclear coordinates.
 Keep R1 ints in memory in canonical form, NReq=741275395.
          There are   105 degrees of freedom in the 1st order CPHF.  IDoFFX=6 NUNeed=     3.
    102 vectors produced by pass  0 Test12= 1.33D-14 1.00D-09 XBig12= 1.31D+02 4.77D+00.
 AX will form   102 AO Fock derivatives at one time.
    102 vectors produced by pass  1 Test12= 1.33D-14 1.00D-09 XBig12= 4.55D+01 1.25D+00.
    102 vectors produced by pass  2 Test12= 1.33D-14 1.00D-09 XBig12= 7.66D-01 1.46D-01.
    102 vectors produced by pass  3 Test12= 1.33D-14 1.00D-09 XBig12= 4.26D-03 7.78D-03.
    102 vectors produced by pass  4 Test12= 1.33D-14 1.00D-09 XBig12= 7.90D-06 2.31D-04.
     59 vectors produced by pass  5 Test12= 1.33D-14 1.00D-09 XBig12= 7.17D-09 7.59D-06.
     12 vectors produced by pass  6 Test12= 1.33D-14 1.00D-09 XBig12= 6.02D-12 2.90D-07.
      3 vectors produced by pass  7 Test12= 1.33D-14 1.00D-09 XBig12= 4.91D-15 8.03D-09.
 InvSVY:  IOpt=1 It=  1 EMax= 7.11D-15
 Solved reduced A of dimension   584 with   105 vectors.
 Isotropic polarizability for W=    0.000000      137.02 Bohr**3.
 End of Minotr F.D. properties file   721 does not exist.
 End of Minotr F.D. properties file   722 does not exist.
 End of Minotr F.D. properties file   788 does not exist.

 **********************************************************************

            Population analysis using the SCF density.

 **********************************************************************

 Orbital symmetries:
       Occupied  (A) (A) (A) (A) (A) (A) (A) (A) (A) (A) (A) (A)
                 (A) (A) (A) (A) (A) (A) (A) (A) (A) (A) (A) (A)
                 (A) (A) (A) (A) (A) (A) (A) (A) (A) (A) (A) (A)
                 (A) (A) (A) (A) (A) (A) (A) (A) (A) (A) (A) (A)
                 (A) (A) (A) (A) (A) (A) (A) (A) (A) (A) (A) (A)
                 (A) (A)
       Virtual   (A) (A) (A) (A) (A) (A) (A) (A) (A) (A) (A) (A)
                 (A) (A) (A) (A) (A) (A) (A) (A) (A) (A) (A) (A)
                 (A) (A) (A) (A) (A) (A) (A) (A) (A) (A) (A) (A)
                 (A) (A) (A) (A) (A) (A) (A) (A) (A) (A) (A) (A)
                 (A) (A) (A) (A) (A) (A) (A) (A) (A) (A) (A) (A)
                 (A) (A) (A) (A) (A) (A) (A) (A) (A) (A) (A) (A)
                 (A) (A) (A) (A) (A) (A) (A) (A) (A) (A) (A) (A)
                 (A) (A) (A) (A) (A) (A) (A) (A) (A) (A) (A) (A)
                 (A) (A) (A) (A) (A) (A) (A) (A) (A) (A) (A) (A)
                 (A) (A) (A) (A) (A) (A) (A) (A) (A) (A) (A) (A)
                 (A) (A) (A) (A) (A) (A) (A) (A) (A) (A) (A) (A)
                 (A) (A) (A) (A) (A) (A) (A) (A) (A) (A) (A) (A)
                 (A) (A) (A) (A) (A) (A) (A) (A) (A) (A) (A) (A)
                 (A) (A) (A) (A) (A) (A) (A) (A) (A) (A) (A) (A)
                 (A) (A) (A) (A) (A) (A) (A) (A) (A) (A) (A) (A)
                 (A) (A) (A) (A) (A) (A) (A) (A) (A) (A) (A) (A)
                 (A) (A) (A) (A) (A) (A) (A) (A) (A) (A) (A) (A)
                 (A) (A) (A) (A) (A) (A) (A) (A) (A) (A)
 The electronic state is 1-A.
 Alpha  occ. eigenvalues --  -19.20650 -19.19917 -19.16299 -19.15656 -14.42930
 Alpha  occ. eigenvalues --  -14.42846 -10.35568 -10.35442 -10.26816 -10.26393
 Alpha  occ. eigenvalues --  -10.18630 -10.18322 -10.18266 -10.17993 -10.17937
 Alpha  occ. eigenvalues --  -10.17811  -1.13963  -1.11428  -1.06213  -1.03057
 Alpha  occ. eigenvalues --   -1.02403  -0.84851  -0.81469  -0.79199  -0.69941
 Alpha  occ. eigenvalues --   -0.69718  -0.69688  -0.69441  -0.66825  -0.62216
 Alpha  occ. eigenvalues --   -0.57851  -0.52007  -0.51873  -0.50730  -0.50355
 Alpha  occ. eigenvalues --   -0.48028  -0.47829  -0.46621  -0.45529  -0.45274
 Alpha  occ. eigenvalues --   -0.44979  -0.43280  -0.42177  -0.41774  -0.40926
 Alpha  occ. eigenvalues --   -0.40023  -0.39731  -0.38902  -0.37626  -0.37025
 Alpha  occ. eigenvalues --   -0.36818  -0.36688  -0.36385  -0.35658  -0.34978
 Alpha  occ. eigenvalues --   -0.34081  -0.33998  -0.30968  -0.30698  -0.30244
 Alpha  occ. eigenvalues --   -0.29175  -0.26277
 Alpha virt. eigenvalues --   -0.13681   0.01359   0.03958   0.08020   0.08226
 Alpha virt. eigenvalues --    0.09892   0.10197   0.14244   0.14479   0.14713
 Alpha virt. eigenvalues --    0.14936   0.15707   0.15864   0.16405   0.16541
 Alpha virt. eigenvalues --    0.17776   0.18373   0.18863   0.18959   0.19083
 Alpha virt. eigenvalues --    0.19323   0.20219   0.20458   0.21966   0.22188
 Alpha virt. eigenvalues --    0.22255   0.22419   0.24648   0.24710   0.24992
 Alpha virt. eigenvalues --    0.25163   0.29049   0.32349   0.34843   0.40526
 Alpha virt. eigenvalues --    0.43780   0.48275   0.48467   0.48798   0.49251
 Alpha virt. eigenvalues --    0.50181   0.50971   0.51168   0.52832   0.55183
 Alpha virt. eigenvalues --    0.55325   0.55889   0.57482   0.58504   0.59260
 Alpha virt. eigenvalues --    0.59740   0.60208   0.61252   0.62694   0.64977
 Alpha virt. eigenvalues --    0.65556   0.68929   0.69302   0.70402   0.70678
 Alpha virt. eigenvalues --    0.70816   0.70846   0.71571   0.72359   0.74878
 Alpha virt. eigenvalues --    0.75789   0.79000   0.80155   0.81266   0.82906
 Alpha virt. eigenvalues --    0.84242   0.85184   0.85542   0.86175   0.86708
 Alpha virt. eigenvalues --    0.88345   0.88797   0.89191   0.89397   0.89861
 Alpha virt. eigenvalues --    0.90053   0.91896   0.92037   0.92486   0.92728
 Alpha virt. eigenvalues --    0.93234   0.93785   0.95447   0.95954   0.97012
 Alpha virt. eigenvalues --    0.97342   0.98271   0.98690   1.01276   1.01566
 Alpha virt. eigenvalues --    1.06748   1.07748   1.10128   1.11226   1.12832
 Alpha virt. eigenvalues --    1.13483   1.15164   1.18305   1.21393   1.22924
 Alpha virt. eigenvalues --    1.26992   1.32108   1.32735   1.34060   1.37989
 Alpha virt. eigenvalues --    1.39439   1.40253   1.41650   1.43333   1.45088
 Alpha virt. eigenvalues --    1.47499   1.48140   1.50300   1.51120   1.52389
 Alpha virt. eigenvalues --    1.56502   1.58352   1.64093   1.66458   1.70267
 Alpha virt. eigenvalues --    1.71741   1.71984   1.72140   1.74032   1.76088
 Alpha virt. eigenvalues --    1.77106   1.77575   1.79560   1.80099   1.81827
 Alpha virt. eigenvalues --    1.82168   1.83979   1.84219   1.85188   1.85374
 Alpha virt. eigenvalues --    1.86693   1.87981   1.89926   1.90963   1.93683
 Alpha virt. eigenvalues --    1.95916   1.96871   1.98496   2.02907   2.05932
 Alpha virt. eigenvalues --    2.08138   2.08921   2.09493   2.09665   2.13340
 Alpha virt. eigenvalues --    2.14490   2.16208   2.16702   2.17609   2.19069
 Alpha virt. eigenvalues --    2.20940   2.22804   2.23138   2.24634   2.24976
 Alpha virt. eigenvalues --    2.26210   2.26414   2.26666   2.26856   2.31521
 Alpha virt. eigenvalues --    2.32279   2.33221   2.37206   2.43905   2.45939
 Alpha virt. eigenvalues --    2.49854   2.51655   2.53885   2.56237   2.57315
 Alpha virt. eigenvalues --    2.61413   2.62885   2.65991   2.69993   2.71324
 Alpha virt. eigenvalues --    2.71526   2.75113   2.75919   2.77631   2.78629
 Alpha virt. eigenvalues --    2.85890   2.87841   2.93882   2.96023   3.08929
 Alpha virt. eigenvalues --    3.10916   3.20460   3.24588   3.78048   3.89704
 Alpha virt. eigenvalues --    4.04955   4.08937   4.17558   4.19821   4.24634
 Alpha virt. eigenvalues --    4.28207   4.29323   4.30032   4.30233   4.30353
 Alpha virt. eigenvalues --    4.37501   4.42683   4.66728   4.67468
          Condensed to atoms (all electrons):
               1          2          3          4          5          6
     1  C    5.202365   0.378844  -0.063915  -0.073103  -0.041566  -0.005303
     2  C    0.378844   4.582576   0.379895   0.404041   0.174852  -0.014459
     3  C   -0.063915   0.379895   5.190327  -0.072554  -0.041086  -0.005061
     4  C   -0.073103   0.404041  -0.072554   5.153590  -0.044616   0.003330
     5  O   -0.041566   0.174852  -0.041086  -0.044616   8.302222   0.296360
     6  C   -0.005303  -0.014459  -0.005061   0.003330   0.296360   4.239231
     7  O   -0.009210   0.002285  -0.005906   0.000192  -0.074558   0.509327
     8  N   -0.000558   0.003870  -0.000437  -0.000177  -0.088157   0.245888
     9  N    0.000038  -0.000089   0.000004   0.000001   0.001697  -0.051720
    10  C    0.000000   0.000002  -0.000000  -0.000000  -0.000188   0.004368
    11  O   -0.000000  -0.000000   0.000000   0.000000   0.000000  -0.000158
    12  O   -0.000000  -0.000000   0.000000   0.000000  -0.000000   0.000233
    13  C    0.000000  -0.000000  -0.000000  -0.000000   0.000000  -0.000002
    14  C    0.000000   0.000000   0.000000   0.000000  -0.000000   0.000002
    15  C   -0.000000   0.000000   0.000000  -0.000000  -0.000000  -0.000001
    16  C   -0.000000  -0.000000   0.000000   0.000000  -0.000000  -0.000002
    17  H    0.361362  -0.024563  -0.002277  -0.002907   0.002622   0.000298
    18  H    0.362077  -0.028029   0.005552  -0.006514  -0.000104   0.000603
    19  H    0.366680  -0.024209  -0.004941   0.005075  -0.002935   0.000993
    20  H   -0.002107  -0.023979   0.362411  -0.002984   0.002641   0.000220
    21  H   -0.005203  -0.024168   0.366490   0.005155  -0.003180   0.002050
    22  H    0.005524  -0.027856   0.362297  -0.006367   0.000143   0.000444
    23  H   -0.002058  -0.026566  -0.002007   0.365888   0.002856  -0.000039
    24  H    0.006022  -0.025437  -0.005807   0.362202   0.000442  -0.000003
    25  H   -0.005898  -0.025304   0.005971   0.362694   0.000364  -0.000021
    26  H   -0.000000  -0.000000   0.000000  -0.000000  -0.000000  -0.000000
    27  H   -0.000000   0.000000  -0.000000  -0.000000  -0.000000   0.000000
    28  H    0.000000   0.000000  -0.000000  -0.000000  -0.000000  -0.000000
    29  H   -0.000000  -0.000000   0.000000  -0.000000  -0.000000  -0.000001
    30  H    0.000000   0.000000  -0.000000  -0.000000   0.000000   0.000000
    31  H   -0.000000   0.000000   0.000000   0.000000  -0.000000   0.000002
    32  H   -0.000000   0.000000  -0.000000  -0.000000  -0.000000  -0.000000
    33  H    0.000000   0.000000   0.000000   0.000000   0.000000   0.000002
    34  H    0.000000   0.000000   0.000000   0.000000   0.000000   0.000000
               7          8          9         10         11         12
     1  C   -0.009210  -0.000558   0.000038   0.000000  -0.000000  -0.000000
     2  C    0.002285   0.003870  -0.000089   0.000002  -0.000000  -0.000000
     3  C   -0.005906  -0.000437   0.000004  -0.000000   0.000000   0.000000
     4  C    0.000192  -0.000177   0.000001  -0.000000   0.000000   0.000000
     5  O   -0.074558  -0.088157   0.001697  -0.000188   0.000000  -0.000000
     6  C    0.509327   0.245888  -0.051720   0.004368  -0.000158   0.000233
     7  O    8.068908  -0.076066   0.000991   0.000509   0.000000  -0.000007
     8  N   -0.076066   6.964396   0.218591  -0.054137   0.000406  -0.006890
     9  N    0.000991   0.218591   6.956349   0.245302  -0.059194  -0.102706
    10  C    0.000509  -0.054137   0.245302   4.225454   0.524754   0.281970
    11  O    0.000000   0.000406  -0.059194   0.524754   8.052860  -0.076743
    12  O   -0.000007  -0.006890  -0.102706   0.281970  -0.076743   8.325466
    13  C    0.000000   0.000201   0.004516  -0.011432   0.002265   0.176297
    14  C    0.000000   0.000046  -0.000575  -0.005677  -0.009023  -0.040031
    15  C    0.000000  -0.000005  -0.000229   0.003295   0.000176  -0.045317
    16  C   -0.000000  -0.000070  -0.000387  -0.005130  -0.005759  -0.042422
    17  H    0.000257   0.000006  -0.000000   0.000000   0.000000  -0.000000
    18  H   -0.000009   0.000002  -0.000010  -0.000000   0.000000   0.000000
    19  H    0.011271   0.000125  -0.000008  -0.000000   0.000000   0.000000
    20  H    0.000148   0.000005  -0.000000   0.000000  -0.000000   0.000000
    21  H    0.009202   0.000072  -0.000002  -0.000000  -0.000000   0.000000
    22  H    0.000071  -0.000011   0.000001  -0.000000  -0.000000   0.000000
    23  H    0.000009   0.000002  -0.000000   0.000000  -0.000000   0.000000
    24  H    0.000004   0.000003   0.000000   0.000000  -0.000000   0.000000
    25  H    0.000002   0.000002  -0.000000  -0.000000   0.000000   0.000000
    26  H    0.000000  -0.000012  -0.000011   0.000633   0.000049  -0.000127
    27  H   -0.000000  -0.000009   0.000089   0.000930   0.010737  -0.002937
    28  H    0.000000  -0.000000   0.000007   0.000298   0.000255   0.002588
    29  H    0.000000  -0.000003  -0.000004   0.000012   0.000002   0.000370
    30  H   -0.000000  -0.000001   0.000003  -0.000033   0.000009   0.002909
    31  H   -0.000000   0.000065  -0.000010  -0.000092   0.000002   0.000294
    32  H    0.000000  -0.000017   0.000044   0.001862   0.008853  -0.003234
    33  H   -0.000000   0.000038  -0.000027   0.000356   0.000019   0.000212
    34  H   -0.000000  -0.000000   0.000005   0.000224   0.000136   0.002697
              13         14         15         16         17         18
     1  C    0.000000   0.000000  -0.000000  -0.000000   0.361362   0.362077
     2  C   -0.000000   0.000000   0.000000  -0.000000  -0.024563  -0.028029
     3  C   -0.000000   0.000000   0.000000   0.000000  -0.002277   0.005552
     4  C   -0.000000   0.000000  -0.000000   0.000000  -0.002907  -0.006514
     5  O    0.000000  -0.000000  -0.000000  -0.000000   0.002622  -0.000104
     6  C   -0.000002   0.000002  -0.000001  -0.000002   0.000298   0.000603
     7  O    0.000000   0.000000   0.000000  -0.000000   0.000257  -0.000009
     8  N    0.000201   0.000046  -0.000005  -0.000070   0.000006   0.000002
     9  N    0.004516  -0.000575  -0.000229  -0.000387  -0.000000  -0.000010
    10  C   -0.011432  -0.005677   0.003295  -0.005130   0.000000  -0.000000
    11  O    0.002265  -0.009023   0.000176  -0.005759   0.000000   0.000000
    12  O    0.176297  -0.040031  -0.045317  -0.042422  -0.000000   0.000000
    13  C    4.576019   0.377864   0.402340   0.379916   0.000000  -0.000000
    14  C    0.377864   5.204647  -0.073329  -0.064421  -0.000000   0.000000
    15  C    0.402340  -0.073329   5.157392  -0.072717  -0.000000  -0.000000
    16  C    0.379916  -0.064421  -0.072717   5.192076  -0.000000   0.000000
    17  H    0.000000  -0.000000  -0.000000  -0.000000   0.565690  -0.026661
    18  H   -0.000000   0.000000  -0.000000   0.000000  -0.026661   0.568322
    19  H   -0.000000   0.000000  -0.000000   0.000000  -0.025551  -0.029460
    20  H   -0.000000   0.000000   0.000000   0.000000   0.001514  -0.000032
    21  H   -0.000000   0.000000   0.000000   0.000000   0.000180  -0.000017
    22  H   -0.000000   0.000000   0.000000   0.000000  -0.000031  -0.000186
    23  H    0.000000   0.000000   0.000000   0.000000   0.001847   0.000178
    24  H   -0.000000   0.000000   0.000000   0.000000  -0.000003  -0.000041
    25  H    0.000000  -0.000000  -0.000000  -0.000000   0.000083   0.004487
    26  H   -0.027837   0.361976  -0.006594   0.005577  -0.000000   0.000000
    27  H   -0.024240   0.366665   0.005112  -0.004863  -0.000000  -0.000000
    28  H   -0.024166   0.360745  -0.002962  -0.002178  -0.000000  -0.000000
    29  H   -0.025394  -0.005948   0.362497   0.006012  -0.000000  -0.000000
    30  H   -0.026380  -0.001974   0.364498  -0.002006   0.000000   0.000000
    31  H   -0.025171   0.005985   0.362906  -0.005890   0.000000   0.000000
    32  H   -0.024198  -0.005356   0.005283   0.366534   0.000000  -0.000000
    33  H   -0.027573   0.005535  -0.006388   0.362879   0.000000   0.000000
    34  H   -0.023928  -0.002015  -0.002945   0.362254   0.000000   0.000000
              19         20         21         22         23         24
     1  C    0.366680  -0.002107  -0.005203   0.005524  -0.002058   0.006022
     2  C   -0.024209  -0.023979  -0.024168  -0.027856  -0.026566  -0.025437
     3  C   -0.004941   0.362411   0.366490   0.362297  -0.002007  -0.005807
     4  C    0.005075  -0.002984   0.005155  -0.006367   0.365888   0.362202
     5  O   -0.002935   0.002641  -0.003180   0.000143   0.002856   0.000442
     6  C    0.000993   0.000220   0.002050   0.000444  -0.000039  -0.000003
     7  O    0.011271   0.000148   0.009202   0.000071   0.000009   0.000004
     8  N    0.000125   0.000005   0.000072  -0.000011   0.000002   0.000003
     9  N   -0.000008  -0.000000  -0.000002   0.000001  -0.000000   0.000000
    10  C   -0.000000   0.000000  -0.000000  -0.000000   0.000000   0.000000
    11  O    0.000000  -0.000000  -0.000000  -0.000000  -0.000000  -0.000000
    12  O    0.000000   0.000000   0.000000   0.000000   0.000000   0.000000
    13  C   -0.000000  -0.000000  -0.000000  -0.000000   0.000000  -0.000000
    14  C    0.000000   0.000000   0.000000   0.000000   0.000000   0.000000
    15  C   -0.000000   0.000000   0.000000   0.000000   0.000000   0.000000
    16  C    0.000000   0.000000   0.000000   0.000000   0.000000   0.000000
    17  H   -0.025551   0.001514   0.000180  -0.000031   0.001847  -0.000003
    18  H   -0.029460  -0.000032  -0.000017  -0.000186   0.000178  -0.000041
    19  H    0.509772   0.000193   0.002392  -0.000029   0.000007  -0.000180
    20  H    0.000193   0.562062  -0.026318  -0.026724   0.001771   0.000109
    21  H    0.002392  -0.026318   0.521835  -0.029923   0.000015  -0.000063
    22  H   -0.000029  -0.026724  -0.029923   0.566449   0.000157   0.004418
    23  H    0.000007   0.001771   0.000015   0.000157   0.559566  -0.027211
    24  H   -0.000180   0.000109  -0.000063   0.004418  -0.027211   0.560029
    25  H   -0.000058  -0.000005  -0.000181  -0.000046  -0.027070  -0.029675
    26  H   -0.000000   0.000000   0.000000   0.000000   0.000000   0.000000
    27  H    0.000000   0.000000   0.000000   0.000000   0.000000   0.000000
    28  H   -0.000000   0.000000  -0.000000  -0.000000   0.000000   0.000000
    29  H   -0.000000   0.000000  -0.000000   0.000000   0.000000   0.000000
    30  H    0.000000  -0.000000  -0.000000   0.000000   0.000000  -0.000000
    31  H   -0.000000  -0.000000   0.000000  -0.000000  -0.000000  -0.000000
    32  H    0.000000   0.000000  -0.000000  -0.000000   0.000000  -0.000000
    33  H    0.000000  -0.000000   0.000000  -0.000000   0.000000  -0.000000
    34  H    0.000000  -0.000000  -0.000000  -0.000000   0.000000  -0.000000
              25         26         27         28         29         30
     1  C   -0.005898  -0.000000  -0.000000   0.000000  -0.000000   0.000000
     2  C   -0.025304  -0.000000   0.000000   0.000000  -0.000000   0.000000
     3  C    0.005971   0.000000  -0.000000  -0.000000   0.000000  -0.000000
     4  C    0.362694  -0.000000  -0.000000  -0.000000  -0.000000  -0.000000
     5  O    0.000364  -0.000000  -0.000000  -0.000000  -0.000000   0.000000
     6  C   -0.000021  -0.000000   0.000000  -0.000000  -0.000001   0.000000
     7  O    0.000002   0.000000  -0.000000   0.000000   0.000000  -0.000000
     8  N    0.000002  -0.000012  -0.000009  -0.000000  -0.000003  -0.000001
     9  N   -0.000000  -0.000011   0.000089   0.000007  -0.000004   0.000003
    10  C   -0.000000   0.000633   0.000930   0.000298   0.000012  -0.000033
    11  O    0.000000   0.000049   0.010737   0.000255   0.000002   0.000009
    12  O    0.000000  -0.000127  -0.002937   0.002588   0.000370   0.002909
    13  C    0.000000  -0.027837  -0.024240  -0.024166  -0.025394  -0.026380
    14  C   -0.000000   0.361976   0.366665   0.360745  -0.005948  -0.001974
    15  C   -0.000000  -0.006594   0.005112  -0.002962   0.362497   0.364498
    16  C   -0.000000   0.005577  -0.004863  -0.002178   0.006012  -0.002006
    17  H    0.000083  -0.000000  -0.000000  -0.000000  -0.000000   0.000000
    18  H    0.004487   0.000000  -0.000000  -0.000000  -0.000000   0.000000
    19  H   -0.000058  -0.000000   0.000000  -0.000000  -0.000000   0.000000
    20  H   -0.000005   0.000000   0.000000   0.000000   0.000000  -0.000000
    21  H   -0.000181   0.000000   0.000000  -0.000000  -0.000000  -0.000000
    22  H   -0.000046   0.000000   0.000000  -0.000000   0.000000   0.000000
    23  H   -0.027070   0.000000   0.000000   0.000000   0.000000   0.000000
    24  H   -0.029675   0.000000   0.000000   0.000000   0.000000  -0.000000
    25  H    0.559538  -0.000000  -0.000000  -0.000000  -0.000000  -0.000000
    26  H   -0.000000   0.569163  -0.029768  -0.026754   0.004503   0.000179
    27  H   -0.000000  -0.029768   0.514454  -0.025847  -0.000057   0.000007
    28  H   -0.000000  -0.026754  -0.025847   0.566632   0.000094   0.001871
    29  H   -0.000000   0.004503  -0.000057   0.000094   0.561900  -0.027350
    30  H   -0.000000   0.000179   0.000007   0.001871  -0.027350   0.563450
    31  H    0.000000  -0.000040  -0.000181  -0.000009  -0.029651  -0.027423
    32  H    0.000000  -0.000021   0.002381   0.000195  -0.000183   0.000004
    33  H    0.000000  -0.000186  -0.000034  -0.000031  -0.000045   0.000158
    34  H    0.000000  -0.000039   0.000180   0.001517  -0.000009   0.001767
              31         32         33         34
     1  C   -0.000000  -0.000000   0.000000   0.000000
     2  C    0.000000   0.000000   0.000000   0.000000
     3  C    0.000000  -0.000000   0.000000   0.000000
     4  C    0.000000  -0.000000   0.000000   0.000000
     5  O   -0.000000  -0.000000   0.000000   0.000000
     6  C    0.000002  -0.000000   0.000002   0.000000
     7  O   -0.000000   0.000000  -0.000000  -0.000000
     8  N    0.000065  -0.000017   0.000038  -0.000000
     9  N   -0.000010   0.000044  -0.000027   0.000005
    10  C   -0.000092   0.001862   0.000356   0.000224
    11  O    0.000002   0.008853   0.000019   0.000136
    12  O    0.000294  -0.003234   0.000212   0.002697
    13  C   -0.025171  -0.024198  -0.027573  -0.023928
    14  C    0.005985  -0.005356   0.005535  -0.002015
    15  C    0.362906   0.005283  -0.006388  -0.002945
    16  C   -0.005890   0.366534   0.362879   0.362254
    17  H    0.000000   0.000000   0.000000   0.000000
    18  H    0.000000  -0.000000   0.000000   0.000000
    19  H   -0.000000   0.000000   0.000000   0.000000
    20  H   -0.000000   0.000000  -0.000000  -0.000000
    21  H    0.000000  -0.000000   0.000000  -0.000000
    22  H   -0.000000  -0.000000  -0.000000  -0.000000
    23  H   -0.000000   0.000000   0.000000   0.000000
    24  H   -0.000000  -0.000000  -0.000000  -0.000000
    25  H    0.000000   0.000000   0.000000   0.000000
    26  H   -0.000040  -0.000021  -0.000186  -0.000039
    27  H   -0.000181   0.002381  -0.000034   0.000180
    28  H   -0.000009   0.000195  -0.000031   0.001517
    29  H   -0.029651  -0.000183  -0.000045  -0.000009
    30  H   -0.027423   0.000004   0.000158   0.001767
    31  H    0.558292  -0.000061   0.004402   0.000120
    32  H   -0.000061   0.526289  -0.030191  -0.026646
    33  H    0.004402  -0.030191   0.564625  -0.026666
    34  H    0.000120  -0.026646  -0.026666   0.563987
 Mulliken charges:
               1
     1  C   -0.473992
     2  C    0.318295
     3  C   -0.468956
     4  C   -0.452946
     5  O   -0.487807
     6  C    0.773418
     7  O   -0.437421
     8  N   -0.207167
     9  N   -0.212664
    10  C    0.786721
    11  O   -0.449648
    12  O   -0.472623
    13  C    0.320903
    14  C   -0.475118
    15  C   -0.453011
    16  C   -0.469403
    17  H    0.148133
    18  H    0.149843
    19  H    0.190864
    20  H    0.151075
    21  H    0.181666
    22  H    0.151670
    23  H    0.152654
    24  H    0.155191
    25  H    0.155117
    26  H    0.149310
    27  H    0.187383
    28  H    0.147745
    29  H    0.153256
    30  H    0.150311
    31  H    0.156461
    32  H    0.178465
    33  H    0.152915
    34  H    0.149360
 Sum of Mulliken charges =   0.00000
 Mulliken charges with hydrogens summed into heavy atoms:
               1
     1  C    0.014848
     2  C    0.318295
     3  C    0.015455
     4  C    0.010015
     5  O   -0.487807
     6  C    0.773418
     7  O   -0.437421
     8  N   -0.207167
     9  N   -0.212664
    10  C    0.786721
    11  O   -0.449648
    12  O   -0.472623
    13  C    0.320903
    14  C    0.009321
    15  C    0.007017
    16  C    0.011337
 APT charges:
               1
     1  C   -0.052277
     2  C    0.684422
     3  C   -0.051163
     4  C    0.018534
     5  O   -0.970514
     6  C    1.276882
     7  O   -0.665823
     8  N   -0.220448
     9  N   -0.227970
    10  C    1.230720
    11  O   -0.650270
    12  O   -0.916880
    13  C    0.650939
    14  C   -0.048437
    15  C    0.014144
    16  C   -0.046332
    17  H   -0.006398
    18  H   -0.015014
    19  H    0.037175
    20  H   -0.005529
    21  H    0.026054
    22  H   -0.013831
    23  H   -0.008421
    24  H   -0.012953
    25  H   -0.012413
    26  H   -0.015974
    27  H    0.039151
    28  H   -0.008281
    29  H   -0.014551
    30  H   -0.008481
    31  H   -0.011313
    32  H    0.021648
    33  H   -0.012181
    34  H   -0.004218
 Sum of APT charges =   0.00000
 APT charges with hydrogens summed into heavy atoms:
               1
     1  C   -0.036515
     2  C    0.684422
     3  C   -0.044469
     4  C   -0.015252
     5  O   -0.970514
     6  C    1.276882
     7  O   -0.665823
     8  N   -0.220448
     9  N   -0.227970
    10  C    1.230720
    11  O   -0.650270
    12  O   -0.916880
    13  C    0.650939
    14  C   -0.033541
    15  C   -0.020200
    16  C   -0.041082
 Electronic spatial extent (au):  <R**2>=           5779.2482
 Charge=              0.0000 electrons
 Dipole moment (field-independent basis, Debye):
    X=             -0.6769    Y=              3.1953    Z=              0.1597  Tot=              3.2701
 Quadrupole moment (field-independent basis, Debye-Ang):
   XX=            -76.6566   YY=           -102.4883   ZZ=            -95.2844
   XY=              2.5152   XZ=             -4.0899   YZ=             -0.4681
 Traceless Quadrupole moment (field-independent basis, Debye-Ang):
   XX=             14.8199   YY=            -11.0118   ZZ=             -3.8080
   XY=              2.5152   XZ=             -4.0899   YZ=             -0.4681
 Octapole moment (field-independent basis, Debye-Ang**2):
  XXX=            -20.6718  YYY=              9.3762  ZZZ=             -0.1905  XYY=             -2.5746
  XXY=             29.7261  XXZ=             -1.9066  XZZ=              0.9867  YZZ=              0.0945
  YYZ=             -1.2905  XYZ=             11.3867
 Hexadecapole moment (field-independent basis, Debye-Ang**3):
 XXXX=          -5789.5418 YYYY=           -868.9863 ZZZZ=           -501.0057 XXXY=             35.3860
 XXXZ=            -10.9126 YYYX=              5.9814 YYYZ=              4.0997 ZZZX=              4.1933
 ZZZY=             -1.4788 XXYY=          -1207.2122 XXZZ=          -1141.5154 YYZZ=           -231.8857
 XXYZ=              9.3346 YYXZ=            -15.6169 ZZXY=             -4.8992
 N-N= 1.156139257199D+03 E-N=-4.182728028957D+03  KE= 7.949644359158D+02
  Exact polarizability: 181.991  -7.029 121.807   3.235  -0.435 107.257
 Approx polarizability: 217.611 -19.013 193.522  13.280  -0.347 158.284
 Calling FoFJK, ICntrl=    100127 FMM=F ISym2X=0 I1Cent= 0 IOpClX= 0 NMat=1 NMatS=1 NMatT=0.
 ***** Axes restored to original set *****
 -------------------------------------------------------------------
 Center     Atomic                   Forces (Hartrees/Bohr)
 Number     Number              X              Y              Z
 -------------------------------------------------------------------
      1        6           0.012424925    0.000015244    0.000916610
      2        6          -0.009353773   -0.015083189   -0.020563889
      3        6           0.005946015    0.011682495    0.000187992
      4        6          -0.001199253    0.003104704    0.013653070
      5        8           0.013860429    0.016603719    0.014267899
      6        6          -0.007254831   -0.034671626   -0.075672986
      7        8          -0.012000446    0.006981398    0.020505292
      8        7           0.005989636    0.007323678    0.035844330
      9        7          -0.001917522   -0.022524851   -0.036822102
     10        6          -0.002391340    0.034471087    0.072710953
     11        8          -0.015806938   -0.004538137   -0.029893418
     12        8           0.012157425   -0.003041488   -0.001005046
     13        6          -0.001762836    0.014750369    0.022415046
     14        6           0.010759250   -0.001869477   -0.004468080
     15        6          -0.005923645   -0.001881213   -0.012224527
     16        6           0.003440413   -0.011807673   -0.001870305
     17        1          -0.003211167    0.000884401    0.001578782
     18        1          -0.002914890   -0.000936264    0.000162285
     19        1          -0.002310884    0.001630711   -0.000966957
     20        1          -0.000523132   -0.002410978    0.002693619
     21        1           0.002115508   -0.002316284    0.000594061
     22        1          -0.002094610   -0.001987683    0.000641481
     23        1           0.003434116    0.002201177   -0.000067950
     24        1           0.000093625    0.001190377   -0.001426714
     25        1           0.001382001   -0.000739377   -0.000996470
     26        1          -0.002629214    0.001355022    0.000501080
     27        1          -0.001744242   -0.001519718    0.001557354
     28        1          -0.003505264   -0.000371806   -0.000658889
     29        1           0.001813634    0.000404891    0.000606339
     30        1           0.002769847   -0.002430393   -0.000721655
     31        1           0.000607318   -0.001151777    0.001316180
     32        1           0.002237304    0.001864201   -0.000833305
     33        1          -0.001687249    0.002410605    0.000122439
     34        1          -0.000800210    0.002407852   -0.002082519
 -------------------------------------------------------------------
 Cartesian Forces:  Max     0.075672986 RMS     0.014667873
 FormGI is forming the generalized inverse of G from B-inverse, IUseBI=4.

 GradGradGradGradGradGradGradGradGradGradGradGradGradGradGradGradGradGrad
 Berny optimization.
 Internal  Forces:  Max     0.051611068 RMS     0.008270785
 Search for a local minimum.
 Step number   1 out of a maximum of  170
 All quantities printed in internal units (Hartrees-Bohrs-Radians)
 Mixed Optimization -- RFO/linear search
 Second derivative matrix not updated -- analytic derivatives used.
 ITU=  0
     Eigenvalues ---   -0.00566  -0.00189   0.00152   0.00156   0.00279
     Eigenvalues ---    0.00281   0.00327   0.00330   0.00790   0.00833
     Eigenvalues ---    0.02565   0.02644   0.04553   0.04556   0.04600
     Eigenvalues ---    0.04606   0.04657   0.04684   0.04716   0.04719
     Eigenvalues ---    0.04739   0.04743   0.04882   0.04888   0.04896
     Eigenvalues ---    0.04909   0.05767   0.05783   0.06783   0.06902
     Eigenvalues ---    0.07288   0.10108   0.11344   0.11367   0.11854
     Eigenvalues ---    0.12205   0.12222   0.12238   0.12239   0.12788
     Eigenvalues ---    0.12800   0.13991   0.14011   0.14352   0.14380
     Eigenvalues ---    0.14875   0.14877   0.15208   0.15294   0.15416
     Eigenvalues ---    0.15431   0.17884   0.17897   0.19777   0.19796
     Eigenvalues ---    0.20336   0.21395   0.23153   0.24135   0.26403
     Eigenvalues ---    0.26900   0.26961   0.27867   0.27907   0.28825
     Eigenvalues ---    0.29442   0.30335   0.31453   0.32146   0.33651
     Eigenvalues ---    0.33681   0.33832   0.33835   0.33851   0.33868
     Eigenvalues ---    0.33918   0.33920   0.34215   0.34235   0.34275
     Eigenvalues ---    0.34283   0.34556   0.34590   0.34893   0.35028
     Eigenvalues ---    0.35146   0.35154   0.35257   0.35700   0.49115
     Eigenvalues ---    0.53246   0.54369   0.63215   0.78580   0.79103
     Eigenvalues ---    0.81507
 RFO step:  Lambda=-3.23817669D-02 EMin=-5.66498628D-03
 Linear search not attempted -- first point.
 Maximum step size (   0.300) exceeded in Quadratic search.
    -- Step size scaled by   0.975
 Iteration  1 RMS(Cart)=  0.24825466 RMS(Int)=  0.04996123
 Iteration  2 RMS(Cart)=  0.21033293 RMS(Int)=  0.02622161
 Iteration  3 RMS(Cart)=  0.16560656 RMS(Int)=  0.00558777
 Iteration  4 RMS(Cart)=  0.02357009 RMS(Int)=  0.00057611
 Iteration  5 RMS(Cart)=  0.00022887 RMS(Int)=  0.00057028
 Iteration  6 RMS(Cart)=  0.00000005 RMS(Int)=  0.00057028
 Variable       Old X    -DE/DX   Delta X   Delta X   Delta X     New X
                                 (Linear)    (Quad)   (Total)
    R1        2.89887   0.00097   0.00000  -0.00281  -0.00281   2.89606
    R2        2.06949  -0.00056   0.00000  -0.00081  -0.00081   2.06868
    R3        2.07167   0.00016   0.00000  -0.00097  -0.00097   2.07070
    R4        2.06595  -0.00111   0.00000  -0.00265  -0.00265   2.06330
    R5        2.89897  -0.00070   0.00000  -0.00365  -0.00365   2.89531
    R6        2.90858  -0.00318   0.00000  -0.01476  -0.01476   2.89382
    R7        2.74755   0.00299   0.00000   0.03242   0.03242   2.77997
    R8        2.07019  -0.00095   0.00000  -0.00135  -0.00135   2.06885
    R9        2.06549   0.00033   0.00000  -0.00106  -0.00106   2.06442
   R10        2.07114   0.00026   0.00000  -0.00070  -0.00070   2.07044
   R11        2.07185  -0.00233   0.00000  -0.00397  -0.00397   2.06787
   R12        2.07112   0.00018   0.00000  -0.00157  -0.00157   2.06955
   R13        2.07129   0.00001   0.00000  -0.00173  -0.00173   2.06956
   R14        2.58367  -0.02227   0.00000  -0.07131  -0.07131   2.51236
   R15        2.31655  -0.02280   0.00000  -0.03624  -0.03624   2.28031
   R16        2.60383   0.04603   0.00000   0.11808   0.11808   2.72190
   R17        2.37285  -0.00218   0.00000  -0.01658  -0.01658   2.35627
   R18        2.60520   0.05161   0.00000   0.09941   0.09941   2.70461
   R19        2.31628  -0.02858   0.00000  -0.03844  -0.03844   2.27785
   R20        2.58150  -0.01134   0.00000  -0.06001  -0.06001   2.52149
   R21        2.74273   0.00430   0.00000   0.03809   0.03809   2.78082
   R22        2.89964   0.00069   0.00000  -0.00334  -0.00334   2.89630
   R23        2.90789  -0.00274   0.00000  -0.01403  -0.01403   2.89385
   R24        2.89962  -0.00038   0.00000  -0.00524  -0.00524   2.89438
   R25        2.07141   0.00028   0.00000  -0.00073  -0.00073   2.07067
   R26        2.06501  -0.00062   0.00000  -0.00202  -0.00202   2.06299
   R27        2.07007  -0.00070   0.00000  -0.00132  -0.00132   2.06875
   R28        2.07166  -0.00006   0.00000  -0.00197  -0.00197   2.06969
   R29        2.07132  -0.00199   0.00000  -0.00331  -0.00331   2.06800
   R30        2.07188  -0.00013   0.00000  -0.00220  -0.00220   2.06968
   R31        2.06545   0.00043   0.00000  -0.00068  -0.00068   2.06477
   R32        2.07147   0.00009   0.00000  -0.00139  -0.00139   2.07008
   R33        2.06968  -0.00073   0.00000  -0.00090  -0.00090   2.06878
    A1        1.94368  -0.00451   0.00000  -0.02954  -0.02979   1.91390
    A2        1.92925  -0.00080   0.00000  -0.00055  -0.00064   1.92861
    A3        1.96133  -0.00118   0.00000  -0.01227  -0.01239   1.94894
    A4        1.89225   0.00125   0.00000   0.00024   0.00003   1.89228
    A5        1.87543   0.00278   0.00000   0.01802   0.01777   1.89320
    A6        1.85826   0.00296   0.00000   0.02730   0.02733   1.88559
    A7        1.95914  -0.00269   0.00000  -0.00435  -0.00572   1.95342
    A8        1.88233   0.00245   0.00000   0.03503   0.03457   1.91690
    A9        1.93741   0.00305   0.00000  -0.00213  -0.00185   1.93556
   A10        1.88341   0.00517   0.00000   0.03804   0.03746   1.92087
   A11        1.94457  -0.00137   0.00000  -0.02143  -0.02105   1.92352
   A12        1.85179  -0.00661   0.00000  -0.04393  -0.04348   1.80831
   A13        1.94231  -0.00430   0.00000  -0.02676  -0.02700   1.91531
   A14        1.96247  -0.00235   0.00000  -0.01700  -0.01713   1.94534
   A15        1.93103  -0.00067   0.00000  -0.00111  -0.00117   1.92986
   A16        1.87360   0.00319   0.00000   0.01840   0.01811   1.89170
   A17        1.89148   0.00143   0.00000   0.00187   0.00170   1.89318
   A18        1.85926   0.00324   0.00000   0.02787   0.02792   1.88719
   A19        1.94555  -0.00480   0.00000  -0.02330  -0.02345   1.92210
   A20        1.93975  -0.00031   0.00000  -0.00429  -0.00436   1.93540
   A21        1.93895  -0.00032   0.00000  -0.00457  -0.00463   1.93432
   A22        1.88877   0.00198   0.00000   0.00715   0.00702   1.89579
   A23        1.88827   0.00199   0.00000   0.00692   0.00678   1.89505
   A24        1.85935   0.00187   0.00000   0.02058   0.02059   1.87995
   A25        2.09781   0.00642   0.00000   0.01307   0.01307   2.11088
   A26        2.16791   0.01718   0.00000   0.07770   0.07688   2.24479
   A27        1.91647  -0.01760   0.00000  -0.04208  -0.04283   1.87364
   A28        2.19878   0.00048   0.00000  -0.03514  -0.03583   2.16295
   A29        1.95607   0.00258   0.00000  -0.00726  -0.00726   1.94881
   A30        1.95659   0.02380   0.00000  -0.01638  -0.01638   1.94021
   A31        2.19691  -0.03407   0.00000  -0.06456  -0.06572   2.13119
   A32        1.91570   0.02501   0.00000  -0.02375  -0.02504   1.89067
   A33        2.17057   0.00909   0.00000   0.08862   0.08715   2.25771
   A34        2.09853   0.00795   0.00000   0.01399   0.01399   2.11251
   A35        1.94442   0.00227   0.00000  -0.00765  -0.00741   1.93701
   A36        1.84989  -0.00619   0.00000  -0.04164  -0.04114   1.80875
   A37        1.93902  -0.00069   0.00000  -0.01989  -0.01953   1.91949
   A38        1.88351   0.00252   0.00000   0.03505   0.03451   1.91802
   A39        1.95943  -0.00265   0.00000  -0.00389  -0.00537   1.95407
   A40        1.88220   0.00476   0.00000   0.03958   0.03903   1.92123
   A41        1.93076  -0.00097   0.00000  -0.00093  -0.00101   1.92975
   A42        1.96248  -0.00116   0.00000  -0.01367  -0.01379   1.94869
   A43        1.94234  -0.00433   0.00000  -0.02964  -0.02989   1.91245
   A44        1.85890   0.00294   0.00000   0.02730   0.02734   1.88624
   A45        1.89120   0.00132   0.00000   0.00138   0.00117   1.89237
   A46        1.87447   0.00269   0.00000   0.01884   0.01856   1.89304
   A47        1.93972  -0.00049   0.00000  -0.00462  -0.00469   1.93502
   A48        1.94640  -0.00451   0.00000  -0.02431  -0.02447   1.92193
   A49        1.93856  -0.00042   0.00000  -0.00416  -0.00423   1.93433
   A50        1.88877   0.00191   0.00000   0.00658   0.00642   1.89518
   A51        1.85859   0.00195   0.00000   0.02190   0.02192   1.88050
   A52        1.88856   0.00196   0.00000   0.00723   0.00709   1.89565
   A53        1.96124  -0.00201   0.00000  -0.01756  -0.01770   1.94355
   A54        1.92845  -0.00067   0.00000  -0.00065  -0.00069   1.92775
   A55        1.94361  -0.00397   0.00000  -0.02592  -0.02615   1.91745
   A56        1.85880   0.00310   0.00000   0.02749   0.02755   1.88635
[...]
     9    C    1  pz     Val( 2p)     1.10085
    10    C    1  pz     Ryd( 3p)     0.00168
    11    C    1  dxy    Ryd( 3d)     0.00042
    12    C    1  dxz    Ryd( 3d)     0.00035
    13    C    1  dyz    Ryd( 3d)     0.00072
    14    C    1  dx2y2  Ryd( 3d)     0.00098
    15    C    1  dz2    Ryd( 3d)     0.00081
 
    16    C    2  S      Cor( 1S)     1.99900
    17    C    2  S      Val( 2S)     0.91216
    18    C    2  S      Ryd( 3S)     0.00081
    19    C    2  S      Ryd( 4S)     0.00004
    20    C    2  px     Val( 2p)     0.67497
    21    C    2  px     Ryd( 3p)     0.00339
    22    C    2  py     Val( 2p)     1.06156
    23    C    2  py     Ryd( 3p)     0.00554
    24    C    2  pz     Val( 2p)     1.05387
    25    C    2  pz     Ryd( 3p)     0.00290
    26    C    2  dxy    Ryd( 3d)     0.00096
    27    C    2  dxz    Ryd( 3d)     0.00110
    28    C    2  dyz    Ryd( 3d)     0.00090
    29    C    2  dx2y2  Ryd( 3d)     0.00185
    30    C    2  dz2    Ryd( 3d)     0.00122
 
    31    C    3  S      Cor( 1S)     1.99932
    32    C    3  S      Val( 2S)     1.09990
    33    C    3  S      Ryd( 3S)     0.00051
    34    C    3  S      Ryd( 4S)     0.00002
    35    C    3  px     Val( 2p)     1.22300
    36    C    3  px     Ryd( 3p)     0.00130
    37    C    3  py     Val( 2p)     1.20876
    38    C    3  py     Ryd( 3p)     0.00230
    39    C    3  pz     Val( 2p)     1.16412
    40    C    3  pz     Ryd( 3p)     0.00183
    41    C    3  dxy    Ryd( 3d)     0.00036
    42    C    3  dxz    Ryd( 3d)     0.00027
    43    C    3  dyz    Ryd( 3d)     0.00061
    44    C    3  dx2y2  Ryd( 3d)     0.00103
    45    C    3  dz2    Ryd( 3d)     0.00101
 
    46    C    4  S      Cor( 1S)     1.99932
    47    C    4  S      Val( 2S)     1.09915
    48    C    4  S      Ryd( 3S)     0.00060
    49    C    4  S      Ryd( 4S)     0.00002
    50    C    4  px     Val( 2p)     1.22534
    51    C    4  px     Ryd( 3p)     0.00215
    52    C    4  py     Val( 2p)     1.09607
    53    C    4  py     Ryd( 3p)     0.00168
    54    C    4  pz     Val( 2p)     1.25672
    55    C    4  pz     Ryd( 3p)     0.00252
    56    C    4  dxy    Ryd( 3d)     0.00035
    57    C    4  dxz    Ryd( 3d)     0.00034
    58    C    4  dyz    Ryd( 3d)     0.00085
    59    C    4  dx2y2  Ryd( 3d)     0.00091
    60    C    4  dz2    Ryd( 3d)     0.00083
 
    61    O    5  S      Cor( 1S)     1.99970
    62    O    5  S      Val( 2S)     1.61380
    63    O    5  S      Ryd( 3S)     0.00231
    64    O    5  S      Ryd( 4S)     0.00015
    65    O    5  px     Val( 2p)     1.44324
    66    O    5  px     Ryd( 3p)     0.00127
    67    O    5  py     Val( 2p)     1.70068
    68    O    5  py     Ryd( 3p)     0.00185
    69    O    5  pz     Val( 2p)     1.77040
    70    O    5  pz     Ryd( 3p)     0.00196
    71    O    5  dxy    Ryd( 3d)     0.00143
    72    O    5  dxz    Ryd( 3d)     0.00033
    73    O    5  dyz    Ryd( 3d)     0.00180
    74    O    5  dx2y2  Ryd( 3d)     0.00128
    75    O    5  dz2    Ryd( 3d)     0.00076
 
    76    C    6  S      Cor( 1S)     1.99951
    77    C    6  S      Val( 2S)     0.72883
    78    C    6  S      Ryd( 3S)     0.00405
    79    C    6  S      Ryd( 4S)     0.00044
    80    C    6  px     Val( 2p)     0.79344
    81    C    6  px     Ryd( 3p)     0.00647
    82    C    6  py     Val( 2p)     0.71463
    83    C    6  py     Ryd( 3p)     0.02397
    84    C    6  pz     Val( 2p)     0.78776
    85    C    6  pz     Ryd( 3p)     0.00463
    86    C    6  dxy    Ryd( 3d)     0.00411
    87    C    6  dxz    Ryd( 3d)     0.00172
    88    C    6  dyz    Ryd( 3d)     0.00284
    89    C    6  dx2y2  Ryd( 3d)     0.00301
    90    C    6  dz2    Ryd( 3d)     0.00066
 
    91    O    7  S      Cor( 1S)     1.99977
    92    O    7  S      Val( 2S)     1.70730
    93    O    7  S      Ryd( 3S)     0.00082
    94    O    7  S      Ryd( 4S)     0.00013
    95    O    7  px     Val( 2p)     1.75605
    96    O    7  px     Ryd( 3p)     0.00140
    97    O    7  py     Val( 2p)     1.59435
    98    O    7  py     Ryd( 3p)     0.00042
    99    O    7  pz     Val( 2p)     1.47658
   100    O    7  pz     Ryd( 3p)     0.00071
   101    O    7  dxy    Ryd( 3d)     0.00496
   102    O    7  dxz    Ryd( 3d)     0.00034
   103    O    7  dyz    Ryd( 3d)     0.00501
   104    O    7  dx2y2  Ryd( 3d)     0.00486
   105    O    7  dz2    Ryd( 3d)     0.00168
 
   106    N    8  S      Cor( 1S)     1.99939
   107    N    8  S      Val( 2S)     1.39540
   108    N    8  S      Ryd( 3S)     0.00610
   109    N    8  S      Ryd( 4S)     0.00003
   110    N    8  px     Val( 2p)     1.15640
   111    N    8  px     Ryd( 3p)     0.00384
   112    N    8  py     Val( 2p)     1.37624
   113    N    8  py     Ryd( 3p)     0.00457
   114    N    8  pz     Val( 2p)     1.26762
   115    N    8  pz     Ryd( 3p)     0.00430
   116    N    8  dxy    Ryd( 3d)     0.00090
   117    N    8  dxz    Ryd( 3d)     0.00158
   118    N    8  dyz    Ryd( 3d)     0.00179
   119    N    8  dx2y2  Ryd( 3d)     0.00110
   120    N    8  dz2    Ryd( 3d)     0.00226
 
   121    N    9  S      Cor( 1S)     1.99939
   122    N    9  S      Val( 2S)     1.39540
   123    N    9  S      Ryd( 3S)     0.00610
   124    N    9  S      Ryd( 4S)     0.00003
   125    N    9  px     Val( 2p)     1.15640
   126    N    9  px     Ryd( 3p)     0.00384
   127    N    9  py     Val( 2p)     1.37624
   128    N    9  py     Ryd( 3p)     0.00457
   129    N    9  pz     Val( 2p)     1.26762
   130    N    9  pz     Ryd( 3p)     0.00430
   131    N    9  dxy    Ryd( 3d)     0.00090
   132    N    9  dxz    Ryd( 3d)     0.00158
   133    N    9  dyz    Ryd( 3d)     0.00179
   134    N    9  dx2y2  Ryd( 3d)     0.00110
   135    N    9  dz2    Ryd( 3d)     0.00226
 
   136    C   10  S      Cor( 1S)     1.99951
   137    C   10  S      Val( 2S)     0.72883
   138    C   10  S      Ryd( 3S)     0.00405
   139    C   10  S      Ryd( 4S)     0.00044
   140    C   10  px     Val( 2p)     0.79344
   141    C   10  px     Ryd( 3p)     0.00647
   142    C   10  py     Val( 2p)     0.71463
   143    C   10  py     Ryd( 3p)     0.02397
   144    C   10  pz     Val( 2p)     0.78776
   145    C   10  pz     Ryd( 3p)     0.00463
   146    C   10  dxy    Ryd( 3d)     0.00411
   147    C   10  dxz    Ryd( 3d)     0.00172
   148    C   10  dyz    Ryd( 3d)     0.00284
   149    C   10  dx2y2  Ryd( 3d)     0.00301
   150    C   10  dz2    Ryd( 3d)     0.00066
 
   151    O   11  S      Cor( 1S)     1.99977
   152    O   11  S      Val( 2S)     1.70730
   153    O   11  S      Ryd( 3S)     0.00082
   154    O   11  S      Ryd( 4S)     0.00013
   155    O   11  px     Val( 2p)     1.75605
   156    O   11  px     Ryd( 3p)     0.00140
   157    O   11  py     Val( 2p)     1.59435
   158    O   11  py     Ryd( 3p)     0.00042
   159    O   11  pz     Val( 2p)     1.47658
   160    O   11  pz     Ryd( 3p)     0.00071
   161    O   11  dxy    Ryd( 3d)     0.00496
   162    O   11  dxz    Ryd( 3d)     0.00034
   163    O   11  dyz    Ryd( 3d)     0.00501
   164    O   11  dx2y2  Ryd( 3d)     0.00486
   165    O   11  dz2    Ryd( 3d)     0.00168
 
   166    O   12  S      Cor( 1S)     1.99970
   167    O   12  S      Val( 2S)     1.61380
   168    O   12  S      Ryd( 3S)     0.00231
   169    O   12  S      Ryd( 4S)     0.00015
   170    O   12  px     Val( 2p)     1.44324
   171    O   12  px     Ryd( 3p)     0.00127
   172    O   12  py     Val( 2p)     1.70068
   173    O   12  py     Ryd( 3p)     0.00185
   174    O   12  pz     Val( 2p)     1.77040
   175    O   12  pz     Ryd( 3p)     0.00196
   176    O   12  dxy    Ryd( 3d)     0.00143
   177    O   12  dxz    Ryd( 3d)     0.00033
   178    O   12  dyz    Ryd( 3d)     0.00180
   179    O   12  dx2y2  Ryd( 3d)     0.00128
   180    O   12  dz2    Ryd( 3d)     0.00076
 
   181    C   13  S      Cor( 1S)     1.99900
   182    C   13  S      Val( 2S)     0.91216
   183    C   13  S      Ryd( 3S)     0.00081
   184    C   13  S      Ryd( 4S)     0.00004
   185    C   13  px     Val( 2p)     0.67497
   186    C   13  px     Ryd( 3p)     0.00339
   187    C   13  py     Val( 2p)     1.06156
   188    C   13  py     Ryd( 3p)     0.00554
   189    C   13  pz     Val( 2p)     1.05387
   190    C   13  pz     Ryd( 3p)     0.00290
   191    C   13  dxy    Ryd( 3d)     0.00096
   192    C   13  dxz    Ryd( 3d)     0.00110
   193    C   13  dyz    Ryd( 3d)     0.00090
   194    C   13  dx2y2  Ryd( 3d)     0.00185
   195    C   13  dz2    Ryd( 3d)     0.00122
 
   196    C   14  S      Cor( 1S)     1.99932
   197    C   14  S      Val( 2S)     1.09990
   198    C   14  S      Ryd( 3S)     0.00051
   199    C   14  S      Ryd( 4S)     0.00002
   200    C   14  px     Val( 2p)     1.22299
   201    C   14  px     Ryd( 3p)     0.00130
   202    C   14  py     Val( 2p)     1.20877
   203    C   14  py     Ryd( 3p)     0.00230
   204    C   14  pz     Val( 2p)     1.16412
   205    C   14  pz     Ryd( 3p)     0.00183
   206    C   14  dxy    Ryd( 3d)     0.00036
   207    C   14  dxz    Ryd( 3d)     0.00027
   208    C   14  dyz    Ryd( 3d)     0.00061
   209    C   14  dx2y2  Ryd( 3d)     0.00103
   210    C   14  dz2    Ryd( 3d)     0.00101
 
   211    C   15  S      Cor( 1S)     1.99932
   212    C   15  S      Val( 2S)     1.09915
   213    C   15  S      Ryd( 3S)     0.00060
   214    C   15  S      Ryd( 4S)     0.00002
   215    C   15  px     Val( 2p)     1.22534
   216    C   15  px     Ryd( 3p)     0.00215
   217    C   15  py     Val( 2p)     1.09607
   218    C   15  py     Ryd( 3p)     0.00168
   219    C   15  pz     Val( 2p)     1.25672
   220    C   15  pz     Ryd( 3p)     0.00252
   221    C   15  dxy    Ryd( 3d)     0.00035
   222    C   15  dxz    Ryd( 3d)     0.00034
   223    C   15  dyz    Ryd( 3d)     0.00085
   224    C   15  dx2y2  Ryd( 3d)     0.00091
   225    C   15  dz2    Ryd( 3d)     0.00083
 
   226    C   16  S      Cor( 1S)     1.99932
   227    C   16  S      Val( 2S)     1.09990
   228    C   16  S      Ryd( 3S)     0.00050
   229    C   16  S      Ryd( 4S)     0.00002
   230    C   16  px     Val( 2p)     1.24238
   231    C   16  px     Ryd( 3p)     0.00113
   232    C   16  py     Val( 2p)     1.25182
   233    C   16  py     Ryd( 3p)     0.00249
   234    C   16  pz     Val( 2p)     1.10085
   235    C   16  pz     Ryd( 3p)     0.00168
   236    C   16  dxy    Ryd( 3d)     0.00042
   237    C   16  dxz    Ryd( 3d)     0.00035
   238    C   16  dyz    Ryd( 3d)     0.00072
   239    C   16  dx2y2  Ryd( 3d)     0.00098
   240    C   16  dz2    Ryd( 3d)     0.00081
 
   241    H   17  S      Val( 1S)     0.75946
   242    H   17  S      Ryd( 2S)     0.00077
 
   243    H   18  S      Val( 1S)     0.75724
   244    H   18  S      Ryd( 2S)     0.00112
 
   245    H   19  S      Val( 1S)     0.74130
   246    H   19  S      Ryd( 2S)     0.00125
 
   247    H   20  S      Val( 1S)     0.75771
   248    H   20  S      Ryd( 2S)     0.00074
 
   249    H   21  S      Val( 1S)     0.74141
   250    H   21  S      Ryd( 2S)     0.00138
 
   251    H   22  S      Val( 1S)     0.75805
   252    H   22  S      Ryd( 2S)     0.00112
 
   253    H   23  S      Val( 1S)     0.76041
   254    H   23  S      Ryd( 2S)     0.00068
 
   255    H   24  S      Val( 1S)     0.75432
   256    H   24  S      Ryd( 2S)     0.00105
 
   257    H   25  S      Val( 1S)     0.75319
   258    H   25  S      Ryd( 2S)     0.00104
 
   259    H   26  S      Val( 1S)     0.75805
   260    H   26  S      Ryd( 2S)     0.00112
 
   261    H   27  S      Val( 1S)     0.74141
   262    H   27  S      Ryd( 2S)     0.00138
 
   263    H   28  S      Val( 1S)     0.75771
   264    H   28  S      Ryd( 2S)     0.00074
 
   265    H   29  S      Val( 1S)     0.75432
   266    H   29  S      Ryd( 2S)     0.00105
 
   267    H   30  S      Val( 1S)     0.76041
   268    H   30  S      Ryd( 2S)     0.00068
 
   269    H   31  S      Val( 1S)     0.75319
   270    H   31  S      Ryd( 2S)     0.00104
 
   271    H   32  S      Val( 1S)     0.74130
   272    H   32  S      Ryd( 2S)     0.00125
 
   273    H   33  S      Val( 1S)     0.75724
   274    H   33  S      Ryd( 2S)     0.00112
 
   275    H   34  S      Val( 1S)     0.75946
   276    H   34  S      Ryd( 2S)     0.00077

 WARNING:  1 low occupancy (<1.9990e) core orbital  found on  C    2
           1 low occupancy (<1.9990e) core orbital  found on  C   13


 Summary of Natural Population Analysis:                  
                                                          
                                       Natural Population 
                Natural  -----------------------------------------------
    Atom  No    Charge         Core      Valence    Rydberg      Total
 -----------------------------------------------------------------------
      C    1   -0.70336      1.99932     4.69495    0.00909     6.70336
      C    2    0.27974      1.99900     3.70255    0.01871     5.72026
      C    3   -0.70432      1.99932     4.69578    0.00922     6.70432
      C    4   -0.68686      1.99932     4.67729    0.01025     6.68686
      O    5   -0.54098      1.99970     6.52813    0.01315     8.54098
      C    6    0.92394      1.99951     3.02466    0.05189     5.07606
      O    7   -0.55437      1.99977     6.53428    0.02032     8.55437
      N    8   -0.22153      1.99939     5.19566    0.02648     7.22153
      N    9   -0.22153      1.99939     5.19566    0.02648     7.22153
      C   10    0.92394      1.99951     3.02466    0.05189     5.07606
      O   11   -0.55437      1.99977     6.53429    0.02032     8.55437
      O   12   -0.54098      1.99970     6.52813    0.01315     8.54098
      C   13    0.27974      1.99900     3.70255    0.01871     5.72026
      C   14   -0.70432      1.99932     4.69578    0.00922     6.70432
      C   15   -0.68686      1.99932     4.67729    0.01025     6.68686
      C   16   -0.70336      1.99932     4.69495    0.00909     6.70336
      H   17    0.23977      0.00000     0.75946    0.00077     0.76023
      H   18    0.24163      0.00000     0.75724    0.00112     0.75837
      H   19    0.25745      0.00000     0.74130    0.00125     0.74255
      H   20    0.24155      0.00000     0.75771    0.00074     0.75845
      H   21    0.25721      0.00000     0.74141    0.00138     0.74279
      H   22    0.24083      0.00000     0.75805    0.00112     0.75917
      H   23    0.23891      0.00000     0.76041    0.00068     0.76109
      H   24    0.24463      0.00000     0.75432    0.00105     0.75537
      H   25    0.24576      0.00000     0.75319    0.00104     0.75424
      H   26    0.24083      0.00000     0.75805    0.00112     0.75917
      H   27    0.25721      0.00000     0.74141    0.00138     0.74279
      H   28    0.24155      0.00000     0.75771    0.00074     0.75845
      H   29    0.24463      0.00000     0.75432    0.00105     0.75537
      H   30    0.23891      0.00000     0.76041    0.00068     0.76109
      H   31    0.24576      0.00000     0.75319    0.00104     0.75424
      H   32    0.25745      0.00000     0.74130    0.00125     0.74255
      H   33    0.24163      0.00000     0.75724    0.00112     0.75837
      H   34    0.23977      0.00000     0.75946    0.00077     0.76023
 =======================================================================
   * Total *    0.00000     31.99063    91.67281    0.33656   124.00000

                                 Natural Population      
 --------------------------------------------------------
   Core                      31.99063 ( 99.9707% of  32)
   Valence                   91.67281 ( 99.6444% of  92)
   Natural Minimal Basis    123.66344 ( 99.7286% of 124)
   Natural Rydberg Basis      0.33656 (  0.2714% of 124)
 --------------------------------------------------------

    Atom  No          Natural Electron Configuration
 ----------------------------------------------------------------------------
      C    1      [core]2S( 1.10)2p( 3.60)3p( 0.01)
      C    2      [core]2S( 0.91)2p( 2.79)3p( 0.01)3d( 0.01)
      C    3      [core]2S( 1.10)2p( 3.60)3p( 0.01)
      C    4      [core]2S( 1.10)2p( 3.58)3p( 0.01)
      O    5      [core]2S( 1.61)2p( 4.91)3p( 0.01)3d( 0.01)
      C    6      [core]2S( 0.73)2p( 2.30)3p( 0.04)3d( 0.01)
      O    7      [core]2S( 1.71)2p( 4.83)3d( 0.02)
      N    8      [core]2S( 1.40)2p( 3.80)3S( 0.01)3p( 0.01)3d( 0.01)
      N    9      [core]2S( 1.40)2p( 3.80)3S( 0.01)3p( 0.01)3d( 0.01)
      C   10      [core]2S( 0.73)2p( 2.30)3p( 0.04)3d( 0.01)
      O   11      [core]2S( 1.71)2p( 4.83)3d( 0.02)
      O   12      [core]2S( 1.61)2p( 4.91)3p( 0.01)3d( 0.01)
      C   13      [core]2S( 0.91)2p( 2.79)3p( 0.01)3d( 0.01)
      C   14      [core]2S( 1.10)2p( 3.60)3p( 0.01)
      C   15      [core]2S( 1.10)2p( 3.58)3p( 0.01)
      C   16      [core]2S( 1.10)2p( 3.60)3p( 0.01)
      H   17            1S( 0.76)
      H   18            1S( 0.76)
      H   19            1S( 0.74)
      H   20            1S( 0.76)
      H   21            1S( 0.74)
      H   22            1S( 0.76)
      H   23            1S( 0.76)
      H   24            1S( 0.75)
      H   25            1S( 0.75)
      H   26            1S( 0.76)
      H   27            1S( 0.74)
      H   28            1S( 0.76)
      H   29            1S( 0.75)
      H   30            1S( 0.76)
      H   31            1S( 0.75)
      H   32            1S( 0.74)
      H   33            1S( 0.76)
      H   34            1S( 0.76)


 NBO analysis skipped by request.
 1\1\GINC-DELLA-R2C1N6\SP\RB3LYP TD-FC\6-31G(d)\C10H18N2O4\BJS4\22-Aug-
 2020\0\\# TD(NStates=10, Root=1) B3LYP/6-31G* scf=qc volume pop=NPA de
 nsity=current Geom=AllCheck Guess=Read\\Title Card Required\\0,1\C,0,4
 .2728375149,-0.6698320778,-0.8482156522\C,0,3.1422629597,-0.9370623026
 ,0.1479702854\C,0,1.7893017031,-0.4133195504,-0.3389822232\C,0,3.06491
 7859,-2.4188274619,0.5154899662\O,0,3.4776079826,-0.3037247105,1.45348
 84201\C,0,3.6257977502,1.0086649014,1.5651119551\O,0,3.5357870111,1.87
 26486994,0.726888244\N,0,3.8196254006,1.3620429212,2.9616051217\N,0,4.
 9850557571,1.1649483526,3.3538039168\C,0,5.1788828745,1.5183264687,4.7
 502981117\O,0,5.2689309679,0.6543395884,5.5885146537\O,0,5.3270248876,
 2.8307207973,4.8619306893\C,0,5.6623551734,3.4640608741,6.1674515247\C
 ,0,7.0153390408,2.9403644836,6.6543911158\C,0,5.739643059,4.9458316808
 ,5.7999425716\C,0,4.5317970931,3.1967810426,7.1636428059\H,0,4.0860377
 569,-1.2344740802,-1.76838067\H,0,5.2317666803,-0.9996753762,-0.434893
 4283\H,0,4.3403462466,0.390659073,-1.097679134\H,0,1.491932685,-0.9621
 679729,-1.2393422979\H,0,1.8369622128,0.6501901186,-0.5801334565\H,0,1
 .0200879262,-0.5714403408,0.4244420346\H,0,2.8236477433,-3.010332266,-
 0.3738319911\H,0,2.2898444045,-2.5915967067,1.2686725252\H,0,4.0210601
 161,-2.7683351925,0.9171329738\H,0,7.7845417916,3.0985191302,5.8909627
 686\H,0,6.9677194739,1.8768513194,6.8955350355\H,0,7.3126939005,3.4892
 174147,7.5547531167\H,0,6.5147052543,5.1186352793,5.0467563157\H,0,5.9
 808970242,5.5373386857,6.6892674535\H,0,4.7834852767,5.2953070248,5.39
 83083513\H,0,4.4643291148,2.1362853509,7.4130980177\H,0,3.5728530486,3
 .5265924798,6.7503296797\H,0,4.718582309,3.7614223519,8.0838111986\\Ve
 rsion=ES64L-G16RevA.03\State=1-A\HF=-802.2811441\RMSD=6.516e-10\Dipole
 =-0.0000399,0.0000044,-0.0000036\Quadrupole=-2.73684,-0.4879165,3.2247
 564,5.237451,4.0192897,14.5911166\PG=C01 [X(C10H18N2O4)]\\@


 FLOATING POINT NUMBERS ARE LIKE SANDPILES:
 EVERY TIME THAT YOU MOVE ONE, YOU LOSE A LITTLE SAND 
 AND YOU PICK UP A LITTLE DIRT.
 Job cpu time:       0 days  0 hours 35 minutes 36.8 seconds.
 Elapsed time:       0 days  0 hours  7 minutes 15.4 seconds.
 File lengths (MBytes):  RWF=    679 Int=      0 D2E=      0 Chk=    268 Scr=      1
 Normal termination of Gaussian 16 at Sat Aug 22 14:08:37 2020.
