 Entering Gaussian System, Link 0=g16
 Input=azadicarboxylate_4_conf18123.com
 Output=azadicarboxylate_4_conf18123.log
 Initial command:
 /opt/export//g16/l1.exe "/scratch/bjs4/job.175779/Gau-175781.inp" -scrdir="/scratch/bjs4/job.175779/"
 Entering Link 1 = /opt/export//g16/l1.exe PID=    175782.
  
 Copyright (c) 1988,1990,1992,1993,1995,1998,2003,2009,2016,
            Gaussian, Inc.  All Rights Reserved.
  
 This is part of the Gaussian(R) 16 program.  It is based on
 the Gaussian(R) 09 system (copyright 2009, Gaussian, Inc.),
 the Gaussian(R) 03 system (copyright 2003, Gaussian, Inc.),
 the Gaussian(R) 98 system (copyright 1998, Gaussian, Inc.),
 the Gaussian(R) 94 system (copyright 1995, Gaussian, Inc.),
 the Gaussian 92(TM) system (copyright 1992, Gaussian, Inc.),
 the Gaussian 90(TM) system (copyright 1990, Gaussian, Inc.),
 the Gaussian 88(TM) system (copyright 1988, Gaussian, Inc.),
 the Gaussian 86(TM) system (copyright 1986, Carnegie Mellon
 University), and the Gaussian 82(TM) system (copyright 1983,
 Carnegie Mellon University). Gaussian is a federally registered
 trademark of Gaussian, Inc.
  
 This software contains proprietary and confidential information,
 including trade secrets, belonging to Gaussian, Inc.
  
 This software is provided under written license and may be
 used, copied, transmitted, or stored only in accord with that
 written license.
  
 The following legend is applicable only to US Government
 contracts under FAR:
  
                    RESTRICTED RIGHTS LEGEND
  
 Use, reproduction and disclosure by the US Government is
 subject to restrictions as set forth in subparagraphs (a)
 and (c) of the Commercial Computer Software - Restricted
 Rights clause in FAR 52.227-19.
  
 Gaussian, Inc.
 340 Quinnipiac St., Bldg. 40, Wallingford CT 06492
  
  
 ---------------------------------------------------------------
 Warning -- This program may not be used in any manner that
 competes with the business of Gaussian, Inc. or will provide
 assistance to any competitor of Gaussian, Inc.  The licensee
 of this program is prohibited from giving any competitor of
 Gaussian, Inc. access to this program.  By using this program,
 the user acknowledges that Gaussian, Inc. is engaged in the
 business of creating and licensing software in the field of
 computational chemistry and represents and warrants to the
 licensee that it is not a competitor of Gaussian, Inc. and that
 it will not use this program in any manner prohibited above.
 ---------------------------------------------------------------
  

 Cite this work as:
 Gaussian 16, Revision A.03,
 M. J. Frisch, G. W. Trucks, H. B. Schlegel, G. E. Scuseria, 
 M. A. Robb, J. R. Cheeseman, G. Scalmani, V. Barone, 
 G. A. Petersson, H. Nakatsuji, X. Li, M. Caricato, A. V. Marenich, 
 J. Bloino, B. G. Janesko, R. Gomperts, B. Mennucci, H. P. Hratchian, 
 J. V. Ortiz, A. F. Izmaylov, J. L. Sonnenberg, D. Williams-Young, 
 F. Ding, F. Lipparini, F. Egidi, J. Goings, B. Peng, A. Petrone, 
 T. Henderson, D. Ranasinghe, V. G. Zakrzewski, J. Gao, N. Rega, 
 G. Zheng, W. Liang, M. Hada, M. Ehara, K. Toyota, R. Fukuda, 
 J. Hasegawa, M. Ishida, T. Nakajima, Y. Honda, O. Kitao, H. Nakai, 
 T. Vreven, K. Throssell, J. A. Montgomery, Jr., J. E. Peralta, 
 F. Ogliaro, M. J. Bearpark, J. J. Heyd, E. N. Brothers, K. N. Kudin, 
 V. N. Staroverov, T. A. Keith, R. Kobayashi, J. Normand, 
 K. Raghavachari, A. P. Rendell, J. C. Burant, S. S. Iyengar, 
 J. Tomasi, M. Cossi, J. M. Millam, M. Klene, C. Adamo, R. Cammi, 
 J. W. Ochterski, R. L. Martin, K. Morokuma, O. Farkas, 
 J. B. Foresman, and D. J. Fox, Gaussian, Inc., Wallingford CT, 2016.
 
 ******************************************
 Gaussian 16:  ES64L-G16RevA.03 25-Dec-2016
                22-Aug-2020 
 ******************************************
 %nprocshared=5
 Will use up to    5 processors via shared memory.
 %Mem=10GB
 %Chk=azadicarboxylate_4_conf181.chk
 ---------------------------------
 # opt=CalcAll B3LYP/6-31G* scf=qc
 ---------------------------------
 1/10=4,18=20,19=15,26=3,38=1/1,3;
 2/9=110,12=2,17=6,18=5,40=1/2;
 3/5=1,6=6,7=1,11=2,25=1,30=1,71=2,74=-5,140=1/1,2,3;
 4//1;
 5/5=2,8=3,38=5/8;
 8/6=4,10=90,11=11/1;
 11/6=1,8=1,9=11,15=111,16=1/1,2,10;
 10/6=1/2;
 6/7=2,8=2,9=2,10=2,18=1,28=1/1;
 7/10=1,25=1/1,2,3,16;
 1/10=4,18=20,19=15,26=3/3(3);
 2/9=110/2;
 7/8=1,9=1,25=1,44=-1/16;
 99//99;
 2/9=110/2;
 3/5=1,6=6,7=1,11=2,25=1,30=1,71=2,74=-5,140=1/1,2,3;
 4/5=5,16=3,69=1/1;
 5/5=2,8=3,38=5/8;
 8/6=4,10=90,11=11/1;
 11/6=1,8=1,9=11,15=111,16=1/1,2,10;
 10/6=1/2;
 7/10=1,25=1/1,2,3,16;
 1/10=4,18=20,19=15,26=3/3(-8);
 2/9=110/2;
 6/7=2,8=2,9=2,10=2,18=1,19=2,28=1/1;
 7/8=1,9=1,25=1,44=-1/16;
 99//99;
 -------------------
 Title Card Required
 -------------------
 Symbolic Z-matrix:
 Charge =  0 Multiplicity = 1
 C                    -2.0555   -0.12273  -1.27884 
 C                    -3.05782   0.02842  -0.15765 
 O1                   -3.64991   1.33488  -0.1805 
 C2                   -5.0001    1.3961   -0.3376 
 O3                   -5.72516   0.41476  -0.45845 
 N4                   -5.3965    2.7153   -0.3106 
 N5                   -6.637     2.8452   -0.4364 
 C6                   -7.0368    4.1615   -0.3722 
 O7                   -8.11045   4.58306   0.0457 
 O8                   -6.05026   4.95121  -0.87767 
 C                    -6.30427   6.36224  -0.91414 
 C                    -6.06226   6.98499   0.44181 
 C                    -5.6459    6.21757   1.53958 
 C                    -5.41707   6.8162    2.78052 
 C                    -5.58356   8.19071   2.93496 
 C                    -5.96715   8.96989   1.84617 
 C                    -6.19976   8.37219   0.6058 
 C                    -1.33903   0.97596  -1.77636 
 C                    -0.40895   0.81192  -2.80548 
 C                    -0.17022  -0.45357  -3.33692 
 C                    -0.85198  -1.55813  -2.83196 
 C                    -1.78465  -1.39529  -1.80543 
 H                    -2.53189  -0.07875   0.79753 
 H                    -3.80367  -0.77228  -0.21216 
 H                    -7.31664   6.59881  -1.25859 
 H                    -5.60322   6.8048   -1.6312 
 H                    -5.50169   5.14363   1.43832 
 H                    -5.10901   6.20826   3.62737 
 H                    -5.41083   8.65469   3.9028 
 H                    -6.08722   10.04404   1.96282 
 H                    -6.49476   8.99984  -0.233 
 H                    -1.50441   1.97145  -1.36954 
 H                     0.12906   1.67353  -3.19259 
 H                     0.54936  -0.57903  -4.14178 
 H                    -0.65892  -2.54759  -3.23863 
 H                    -2.30319  -2.272    -1.42261 
 

 GradGradGradGradGradGradGradGradGradGradGradGradGradGradGradGradGradGrad
 Berny optimization.
 Initialization pass.
                           ----------------------------
                           !    Initial Parameters    !
                           ! (Angstroms and Degrees)  !
 --------------------------                            --------------------------
 ! Name  Definition              Value          Derivative Info.                !
 --------------------------------------------------------------------------------
 ! R1    R(1,2)                  1.5115         calculate D2E/DX2 analytically  !
 ! R2    R(1,18)                 1.4028         calculate D2E/DX2 analytically  !
 ! R3    R(1,22)                 1.4036         calculate D2E/DX2 analytically  !
 ! R4    R(2,3)                  1.4345         calculate D2E/DX2 analytically  !
 ! R5    R(2,23)                 1.0957         calculate D2E/DX2 analytically  !
 ! R6    R(2,24)                 1.0956         calculate D2E/DX2 analytically  !
 ! R7    R(3,4)                  1.3607         calculate D2E/DX2 analytically  !
 ! R8    R(4,5)                  1.2261         calculate D2E/DX2 analytically  !
 ! R9    R(4,6)                  1.3777         calculate D2E/DX2 analytically  !
 ! R10   R(6,7)                  1.2536         calculate D2E/DX2 analytically  !
 ! R11   R(7,8)                  1.3772         calculate D2E/DX2 analytically  !
 ! R12   R(8,9)                  1.2268         calculate D2E/DX2 analytically  !
 ! R13   R(8,10)                 1.361          calculate D2E/DX2 analytically  !
 ! R14   R(10,11)                1.4342         calculate D2E/DX2 analytically  !
 ! R15   R(11,12)                1.5116         calculate D2E/DX2 analytically  !
 ! R16   R(11,25)                1.0952         calculate D2E/DX2 analytically  !
 ! R17   R(11,26)                1.0961         calculate D2E/DX2 analytically  !
 ! R18   R(12,13)                1.4026         calculate D2E/DX2 analytically  !
 ! R19   R(12,17)                1.4036         calculate D2E/DX2 analytically  !
 ! R20   R(13,14)                1.3967         calculate D2E/DX2 analytically  !
 ! R21   R(13,27)                1.0883         calculate D2E/DX2 analytically  !
 ! R22   R(14,15)                1.3931         calculate D2E/DX2 analytically  !
 ! R23   R(14,28)                1.087          calculate D2E/DX2 analytically  !
 ! R24   R(15,16)                1.3927         calculate D2E/DX2 analytically  !
 ! R25   R(15,29)                1.0871         calculate D2E/DX2 analytically  !
 ! R26   R(16,17)                1.3964         calculate D2E/DX2 analytically  !
 ! R27   R(16,30)                1.0871         calculate D2E/DX2 analytically  !
 ! R28   R(17,31)                1.0884         calculate D2E/DX2 analytically  !
 ! R29   R(18,19)                1.3968         calculate D2E/DX2 analytically  !
 ! R30   R(18,32)                1.0881         calculate D2E/DX2 analytically  !
 ! R31   R(19,20)                1.3932         calculate D2E/DX2 analytically  !
 ! R32   R(19,33)                1.0871         calculate D2E/DX2 analytically  !
 ! R33   R(20,21)                1.3928         calculate D2E/DX2 analytically  !
 ! R34   R(20,34)                1.0869         calculate D2E/DX2 analytically  !
 ! R35   R(21,22)                1.3965         calculate D2E/DX2 analytically  !
 ! R36   R(21,35)                1.0871         calculate D2E/DX2 analytically  !
 ! R37   R(22,36)                1.0881         calculate D2E/DX2 analytically  !
 ! A1    A(2,1,18)             121.5631         calculate D2E/DX2 analytically  !
 ! A2    A(2,1,22)             119.7971         calculate D2E/DX2 analytically  !
 ! A3    A(18,1,22)            118.5851         calculate D2E/DX2 analytically  !
 ! A4    A(1,2,3)              110.6684         calculate D2E/DX2 analytically  !
 ! A5    A(1,2,23)             108.5772         calculate D2E/DX2 analytically  !
 ! A6    A(1,2,24)             109.9651         calculate D2E/DX2 analytically  !
 ! A7    A(3,2,23)             107.5228         calculate D2E/DX2 analytically  !
 ! A8    A(3,2,24)             112.5693         calculate D2E/DX2 analytically  !
 ! A9    A(23,2,24)            107.3773         calculate D2E/DX2 analytically  !
 ! A10   A(2,3,4)              116.8958         calculate D2E/DX2 analytically  !
 ! A11   A(3,4,5)              124.2054         calculate D2E/DX2 analytically  !
 ! A12   A(3,4,6)              109.0455         calculate D2E/DX2 analytically  !
 ! A13   A(5,4,6)              126.7378         calculate D2E/DX2 analytically  !
 ! A14   A(4,6,7)              112.4552         calculate D2E/DX2 analytically  !
 ! A15   A(6,7,8)              112.4347         calculate D2E/DX2 analytically  !
 ! A16   A(7,8,9)              126.7534         calculate D2E/DX2 analytically  !
 ! A17   A(7,8,10)             109.0772         calculate D2E/DX2 analytically  !
 ! A18   A(9,8,10)             124.1583         calculate D2E/DX2 analytically  !
 ! A19   A(8,10,11)            116.8676         calculate D2E/DX2 analytically  !
 ! A20   A(10,11,12)           110.7421         calculate D2E/DX2 analytically  !
 ! A21   A(10,11,25)           112.5959         calculate D2E/DX2 analytically  !
 ! A22   A(10,11,26)           107.4931         calculate D2E/DX2 analytically  !
 ! A23   A(12,11,25)           109.9449         calculate D2E/DX2 analytically  !
 ! A24   A(12,11,26)           108.5467         calculate D2E/DX2 analytically  !
 ! A25   A(25,11,26)           107.3517         calculate D2E/DX2 analytically  !
 ! A26   A(11,12,13)           121.6125         calculate D2E/DX2 analytically  !
 ! A27   A(11,12,17)           119.7541         calculate D2E/DX2 analytically  !
 ! A28   A(13,12,17)           118.5789         calculate D2E/DX2 analytically  !
 ! A29   A(12,13,14)           120.6315         calculate D2E/DX2 analytically  !
 ! A30   A(12,13,27)           120.4257         calculate D2E/DX2 analytically  !
 ! A31   A(14,13,27)           118.9418         calculate D2E/DX2 analytically  !
 ! A32   A(13,14,15)           120.1192         calculate D2E/DX2 analytically  !
 ! A33   A(13,14,28)           119.9279         calculate D2E/DX2 analytically  !
 ! A34   A(15,14,28)           119.9529         calculate D2E/DX2 analytically  !
 ! A35   A(14,15,16)           119.8827         calculate D2E/DX2 analytically  !
 ! A36   A(14,15,29)           120.0526         calculate D2E/DX2 analytically  !
 ! A37   A(16,15,29)           120.0643         calculate D2E/DX2 analytically  !
 ! A38   A(15,16,17)           120.055          calculate D2E/DX2 analytically  !
 ! A39   A(15,16,30)           119.955          calculate D2E/DX2 analytically  !
 ! A40   A(17,16,30)           119.9898         calculate D2E/DX2 analytically  !
 ! A41   A(12,17,16)           120.6968         calculate D2E/DX2 analytically  !
 ! A42   A(12,17,31)           120.4279         calculate D2E/DX2 analytically  !
 ! A43   A(16,17,31)           118.8747         calculate D2E/DX2 analytically  !
 ! A44   A(1,18,19)            120.6235         calculate D2E/DX2 analytically  !
 ! A45   A(1,18,32)            120.4196         calculate D2E/DX2 analytically  !
 ! A46   A(19,18,32)           118.9559         calculate D2E/DX2 analytically  !
 ! A47   A(18,19,20)           120.1213         calculate D2E/DX2 analytically  !
 ! A48   A(18,19,33)           119.9234         calculate D2E/DX2 analytically  !
 ! A49   A(20,19,33)           119.9553         calculate D2E/DX2 analytically  !
 ! A50   A(19,20,21)           119.8813         calculate D2E/DX2 analytically  !
 ! A51   A(19,20,34)           120.0517         calculate D2E/DX2 analytically  !
 ! A52   A(21,20,34)           120.0666         calculate D2E/DX2 analytically  !
 ! A53   A(20,21,22)           120.0631         calculate D2E/DX2 analytically  !
 ! A54   A(20,21,35)           119.9534         calculate D2E/DX2 analytically  !
 ! A55   A(22,21,35)           119.9835         calculate D2E/DX2 analytically  !
 ! A56   A(1,22,21)            120.6895         calculate D2E/DX2 analytically  !
 ! A57   A(1,22,36)            120.4331         calculate D2E/DX2 analytically  !
 ! A58   A(21,22,36)           118.8767         calculate D2E/DX2 analytically  !
 ! D1    D(18,1,2,3)            29.6464         calculate D2E/DX2 analytically  !
 ! D2    D(18,1,2,23)          -88.1462         calculate D2E/DX2 analytically  !
 ! D3    D(18,1,2,24)          154.6392         calculate D2E/DX2 analytically  !
 ! D4    D(22,1,2,3)          -153.0816         calculate D2E/DX2 analytically  !
 ! D5    D(22,1,2,23)           89.1257         calculate D2E/DX2 analytically  !
 ! D6    D(22,1,2,24)          -28.0888         calculate D2E/DX2 analytically  !
 ! D7    D(2,1,18,19)          179.4494         calculate D2E/DX2 analytically  !
 ! D8    D(2,1,18,32)           -0.9244         calculate D2E/DX2 analytically  !
 ! D9    D(22,1,18,19)           2.1454         calculate D2E/DX2 analytically  !
 ! D10   D(22,1,18,32)        -178.2284         calculate D2E/DX2 analytically  !
 ! D11   D(2,1,22,21)         -179.3352         calculate D2E/DX2 analytically  !
 ! D12   D(2,1,22,36)            0.9769         calculate D2E/DX2 analytically  !
 ! D13   D(18,1,22,21)          -1.9822         calculate D2E/DX2 analytically  !
 ! D14   D(18,1,22,36)         178.3298         calculate D2E/DX2 analytically  !
 ! D15   D(1,2,3,4)            120.0            calculate D2E/DX2 analytically  !
 ! D16   D(23,2,3,4)          -121.5641         calculate D2E/DX2 analytically  !
 ! D17   D(24,2,3,4)            -3.5038         calculate D2E/DX2 analytically  !
 ! D18   D(2,3,4,5)              0.0004         calculate D2E/DX2 analytically  !
 ! D19   D(2,3,4,6)            178.8514         calculate D2E/DX2 analytically  !
 ! D20   D(3,4,6,7)           -179.294          calculate D2E/DX2 analytically  !
 ! D21   D(5,4,6,7)             -0.4797         calculate D2E/DX2 analytically  !
 ! D22   D(4,6,7,8)            178.3141         calculate D2E/DX2 analytically  !
 ! D23   D(6,7,8,9)           -149.6469         calculate D2E/DX2 analytically  !
 ! D24   D(6,7,8,10)            31.5271         calculate D2E/DX2 analytically  !
 ! D25   D(7,8,10,11)          178.8629         calculate D2E/DX2 analytically  !
 ! D26   D(9,8,10,11)           -0.0004         calculate D2E/DX2 analytically  !
 ! D27   D(8,10,11,12)          80.4707         calculate D2E/DX2 analytically  !
 ! D28   D(8,10,11,25)         -43.0815         calculate D2E/DX2 analytically  !
 ! D29   D(8,10,11,26)        -161.1068         calculate D2E/DX2 analytically  !
 ! D30   D(10,11,12,13)          0.0001         calculate D2E/DX2 analytically  !
 ! D31   D(10,11,12,17)        177.2762         calculate D2E/DX2 analytically  !
 ! D32   D(25,11,12,13)        125.0648         calculate D2E/DX2 analytically  !
 ! D33   D(25,11,12,17)        -57.6591         calculate D2E/DX2 analytically  !
 ! D34   D(26,11,12,13)       -117.7806         calculate D2E/DX2 analytically  !
 ! D35   D(26,11,12,17)         59.4955         calculate D2E/DX2 analytically  !
 ! D36   D(11,12,13,14)        179.439          calculate D2E/DX2 analytically  !
 ! D37   D(11,12,13,27)         -0.9225         calculate D2E/DX2 analytically  !
 ! D38   D(17,12,13,14)          2.1319         calculate D2E/DX2 analytically  !
 ! D39   D(17,12,13,27)       -178.2296         calculate D2E/DX2 analytically  !
 ! D40   D(11,12,17,16)       -179.3183         calculate D2E/DX2 analytically  !
 ! D41   D(11,12,17,31)          0.9747         calculate D2E/DX2 analytically  !
 ! D42   D(13,12,17,16)         -1.9599         calculate D2E/DX2 analytically  !
 ! D43   D(13,12,17,31)        178.3332         calculate D2E/DX2 analytically  !
 ! D44   D(12,13,14,15)         -0.8835         calculate D2E/DX2 analytically  !
 ! D45   D(12,13,14,28)        179.0848         calculate D2E/DX2 analytically  !
 ! D46   D(27,13,14,15)        179.4727         calculate D2E/DX2 analytically  !
 ! D47   D(27,13,14,28)         -0.559          calculate D2E/DX2 analytically  !
 ! D48   D(13,14,15,16)         -0.5827         calculate D2E/DX2 analytically  !
 ! D49   D(13,14,15,29)        179.6395         calculate D2E/DX2 analytically  !
 ! D50   D(28,14,15,16)        179.449          calculate D2E/DX2 analytically  !
 ! D51   D(28,14,15,29)         -0.3288         calculate D2E/DX2 analytically  !
 ! D52   D(14,15,16,17)          0.7548         calculate D2E/DX2 analytically  !
 ! D53   D(14,15,16,30)       -179.355          calculate D2E/DX2 analytically  !
 ! D54   D(29,15,16,17)       -179.4675         calculate D2E/DX2 analytically  !
 ! D55   D(29,15,16,30)          0.4227         calculate D2E/DX2 analytically  !
 ! D56   D(15,16,17,12)          0.5359         calculate D2E/DX2 analytically  !
 ! D57   D(15,16,17,31)       -179.7526         calculate D2E/DX2 analytically  !
 ! D58   D(30,16,17,12)       -179.3543         calculate D2E/DX2 analytically  !
 ! D59   D(30,16,17,31)          0.3572         calculate D2E/DX2 analytically  !
 ! D60   D(1,18,19,20)          -0.8852         calculate D2E/DX2 analytically  !
 ! D61   D(1,18,19,33)         179.0823         calculate D2E/DX2 analytically  !
 ! D62   D(32,18,19,20)        179.4831         calculate D2E/DX2 analytically  !
 ! D63   D(32,18,19,33)         -0.5493         calculate D2E/DX2 analytically  !
 ! D64   D(18,19,20,21)         -0.5838         calculate D2E/DX2 analytically  !
 ! D65   D(18,19,20,34)        179.6306         calculate D2E/DX2 analytically  !
 ! D66   D(33,19,20,21)        179.4487         calculate D2E/DX2 analytically  !
 ! D67   D(33,19,20,34)         -0.337          calculate D2E/DX2 analytically  !
 ! D68   D(19,20,21,22)          0.7471         calculate D2E/DX2 analytically  !
 ! D69   D(19,20,21,35)       -179.3556         calculate D2E/DX2 analytically  !
 ! D70   D(34,20,21,22)       -179.4673         calculate D2E/DX2 analytically  !
 ! D71   D(34,20,21,35)          0.43           calculate D2E/DX2 analytically  !
 ! D72   D(20,21,22,1)           0.5556         calculate D2E/DX2 analytically  !
 ! D73   D(20,21,22,36)       -179.7517         calculate D2E/DX2 analytically  !
 ! D74   D(35,21,22,1)        -179.3417         calculate D2E/DX2 analytically  !
 ! D75   D(35,21,22,36)          0.3511         calculate D2E/DX2 analytically  !
 --------------------------------------------------------------------------------
 Trust Radius=3.00D-01 FncErr=1.00D-07 GrdErr=1.00D-06 EigMax=2.50D+02 EigMin=1.00D-04
 Number of steps in this run=    180 maximum allowed number of steps=    216.
 GradGradGradGradGradGradGradGradGradGradGradGradGradGradGradGradGradGrad

                          Input orientation:                          
 ---------------------------------------------------------------------
 Center     Atomic      Atomic             Coordinates (Angstroms)
 Number     Number       Type             X           Y           Z
 ---------------------------------------------------------------------
      1          6           0       -2.055500   -0.122730   -1.278840
      2          6           0       -3.057820    0.028420   -0.157650
      3          8           0       -3.649910    1.334880   -0.180500
      4          6           0       -5.000100    1.396100   -0.337600
      5          8           0       -5.725160    0.414760   -0.458450
      6          7           0       -5.396500    2.715300   -0.310600
      7          7           0       -6.637000    2.845200   -0.436400
      8          6           0       -7.036800    4.161500   -0.372200
      9          8           0       -8.110450    4.583060    0.045700
     10          8           0       -6.050260    4.951210   -0.877670
     11          6           0       -6.304270    6.362240   -0.914140
     12          6           0       -6.062260    6.984990    0.441810
     13          6           0       -5.645900    6.217570    1.539580
     14          6           0       -5.417070    6.816200    2.780520
     15          6           0       -5.583560    8.190710    2.934960
     16          6           0       -5.967150    8.969890    1.846170
     17          6           0       -6.199760    8.372190    0.605800
     18          6           0       -1.339030    0.975960   -1.776360
     19          6           0       -0.408950    0.811920   -2.805480
     20          6           0       -0.170220   -0.453570   -3.336920
     21          6           0       -0.851980   -1.558130   -2.831960
     22          6           0       -1.784650   -1.395290   -1.805430
     23          1           0       -2.531890   -0.078750    0.797530
     24          1           0       -3.803670   -0.772280   -0.212160
     25          1           0       -7.316640    6.598810   -1.258590
     26          1           0       -5.603220    6.804800   -1.631200
     27          1           0       -5.501690    5.143630    1.438320
     28          1           0       -5.109010    6.208260    3.627370
     29          1           0       -5.410830    8.654690    3.902800
     30          1           0       -6.087220   10.044040    1.962820
     31          1           0       -6.494760    8.999840   -0.233000
     32          1           0       -1.504410    1.971450   -1.369540
     33          1           0        0.129060    1.673530   -3.192590
     34          1           0        0.549360   -0.579030   -4.141780
     35          1           0       -0.658920   -2.547590   -3.238630
     36          1           0       -2.303190   -2.272000   -1.422610
 ---------------------------------------------------------------------
                    Distance matrix (angstroms):
                    1          2          3          4          5
     1  C    0.000000
     2  C    1.511476   0.000000
     3  O    2.423452   1.434549   0.000000
     4  C    3.444335   2.382306   1.360677   0.000000
     5  O    3.798465   2.711907   2.287037   1.226110   0.000000
     6  N    4.489341   3.565409   2.230036   1.377734   2.328596
     7  N    5.523446   4.563166   3.356972   2.188400   2.595954
     8  C    6.632494   5.741138   4.415603   3.434644   3.970630
     9  O    7.782113   6.805525   5.522523   4.469666   4.828923
    10  O    6.470233   5.805772   4.396086   3.746107   4.567364
    11  C    7.761436   7.157443   5.732208   5.166798   5.992958
    12  C    8.338732   7.601308   6.174985   5.742069   6.640183
    13  C    7.812418   6.919850   5.548271   5.214157   6.137671
    14  C    8.713628   7.763560   6.475752   6.266899   7.180827
    15  C    9.965772   9.086615   7.774799   7.564179   8.485321
    16  C   10.379905   9.614020   8.232276   7.941431   8.863413
    17  C    9.637968   8.948360   7.526203   7.141080   8.042299
    18  C    1.402845   2.544070   2.831212   3.956006   4.614105
    19  C    2.432145   3.826407   4.203312   5.245032   5.824807
    20  C    2.810592   4.321841   5.026906   5.978707   6.316403
    21  C    2.433314   3.812454   4.819560   5.670644   5.768338
    22  C    1.403590   2.522517   3.684212   4.503943   4.540733
    23  H    2.130773   1.095654   2.050576   3.091240   3.466700
    24  H    2.148446   1.095620   2.113000   2.479728   2.271970
    25  H    8.535754   7.906936   6.505086   5.769122   6.435488
    26  H    7.791094   7.387133   5.986650   5.593853   6.497909
    27  H    6.855197   5.889397   4.533899   4.177256   5.099989
    28  H    8.571829   7.531546   6.354422   6.236163   7.116053
    29  H   10.730831   9.820206   8.564683   8.416461   9.328223
    30  H   11.407293  10.676437   9.294287   9.014468   9.935626
    31  H   10.199122   9.607529   8.176034   7.749956   8.622454
    32  H    2.167375   2.767151   2.534208   3.689956   4.590000
    33  H    3.414863   4.698239   4.844377   5.876752   6.582698
    34  H    3.897426   5.408700   6.081830   7.012092   7.343306
    35  H    3.416308   4.677925   5.776829   6.543280   6.493975
    36  H    2.168267   2.731579   4.045501   4.680334   4.456250
                    6          7          8          9         10
     6  N    0.000000
     7  N    1.253611   0.000000
     8  C    2.187664   1.377174   0.000000
     9  O    3.313759   2.328869   1.226816   0.000000
    10  O    2.397554   2.230305   1.361030   2.287472   0.000000
    11  C    3.806373   3.564900   2.381923   2.710915   1.434175
    12  C    4.386298   4.270766   3.095874   3.181392   2.424342
    13  C    3.968786   4.032326   3.133198   3.313202   2.758672
    14  C    5.135448   5.254107   4.428386   4.440771   4.154693
    15  C    6.367791   6.407049   5.411446   5.267650   5.024770
    16  C    6.640572   6.570438   5.402400   5.203816   4.855512
    17  C    5.786659   5.641363   4.403071   4.280415   3.731774
    18  C    4.651539   5.775642   6.677119   7.885633   6.229442
    19  C    5.892617   6.966733   7.814661   9.036804   7.257724
    20  C    6.820143   7.817554   8.788536   9.992848   8.356700
    21  C    6.728456   7.654703   8.775909   9.933807   8.556452
    22  C    5.672471   6.587966   7.779277   8.898488   7.702872
    23  H    4.152187   5.188834   6.296205   7.308765   6.362839
    24  H    3.835363   4.600457   5.900926   6.877101   6.184530
    25  H    4.434780   3.902242   2.608539   2.528746   2.112677
    26  H    4.302410   4.263177   3.259949   3.746241   2.050231
    27  H    2.994424   3.175891   2.568876   3.009860   2.387837
    28  H    5.271720   5.491735   4.888984   4.947553   4.770903
    29  H    7.282122   7.354069   6.411565   6.224415   6.080915
    30  H    7.704282   7.608010   6.399867   6.131159   5.831524
    31  H    6.380254   6.159643   4.870597   4.711271   4.123662
    32  H    4.101589   5.289392   6.033104   7.243147   5.457624
    33  H    6.318462   7.399254   8.092845   9.318874   7.367906
    34  H    7.802807   8.780601   9.707326  10.916706   9.208309
    35  H    7.662639   8.524794   9.690493  10.823968   9.532716
    36  H    5.973131   6.777924   8.056075   9.103409   8.155505
                   11         12         13         14         15
    11  C    0.000000
    12  C    1.511617   0.000000
    13  C    2.544626   1.402636   0.000000
    14  C    3.826711   2.431938   1.396658   0.000000
    15  C    4.321839   2.810465   2.417489   1.393143   0.000000
    16  C    3.812191   2.433331   2.787914   2.411219   1.392741
    17  C    2.522110   1.403611   2.412694   2.786237   2.416117
    18  C    7.376249   7.958494   7.551097   8.456002   9.605477
    19  C    8.314927   8.978396   8.690584   9.609164  10.685307
    20  C    9.484287  10.214064   9.912993  10.853666  11.973483
    21  C    9.804987  10.528508  10.126872  11.066589  12.275386
    22  C    9.022230   9.673527   9.168096  10.082360  11.348763
    23  H    7.658134   7.904839   7.063380   7.732842   9.070020
    24  H    7.592572   8.105809   7.437769   8.315300   9.664759
    25  H    1.095219   2.148014   3.281230   4.468784   4.808698
    26  H    1.096132   2.130858   3.224982   4.415660   4.771892
    27  H    2.768251   2.167459   1.088300   2.146195   3.395781
    28  H    4.698688   3.414643   2.155738   1.087036   2.152844
    29  H    5.408925   3.897526   3.402884   2.153972   1.087119
    30  H    4.677570   3.416414   3.875018   3.396570   2.152571
    31  H    2.730782   2.168420   3.406410   3.874403   3.394252
    32  H    6.521126   7.013599   6.606395   7.483549   8.593450
    33  H    8.280282   8.930449   8.740246   9.637669  10.613884
    34  H   10.274781  11.042519  10.809851  11.756103  12.829704
    35  H   10.800847  11.559057  11.159269  12.105814  13.329530
    36  H    9.529810  10.163589   9.592762  10.486083  11.799048
                   16         17         18         19         20
    16  C    0.000000
    17  C    1.396378   0.000000
    18  C    9.921952   9.165457   0.000000
    19  C   10.912557  10.115730   1.396798   0.000000
    20  C   12.217627  11.392736   2.417648   1.393157   0.000000
    21  C   12.605121  11.791022   2.788032   2.411247   1.392779
    22  C   11.758590  10.986851   2.412934   2.786472   2.416337
    23  H    9.735427   9.214576   3.026588   4.275728   4.776155
    24  H   10.189565   9.488500   3.402575   4.556218   4.802880
    25  H    4.133120   2.805040   8.222916   9.143147  10.253138
    26  H    4.112440   2.795843   7.223556   8.017106   9.225557
    27  H    3.875985   3.406463   6.710542   7.918936   9.086041
    28  H    3.396421   3.873269   8.413680   9.622505  10.829264
    29  H    2.153734   3.401827  10.382452  11.468603  12.760797
    30  H    1.087116   2.156212  10.897562  11.841093  13.164268
    31  H    2.145278   1.088373   9.661582  10.521253  11.789872
    32  H    8.901404   8.180327   1.088050   2.146268   3.395787
    33  H   10.760564   9.967636   2.155829   1.087051   2.152894
    34  H   13.019306  12.174337   3.402826   2.153787   1.086892
    35  H   13.663266  12.834413   3.875073   3.396529   2.152535
    36  H   12.267421  11.515055   3.406463   3.874408   3.394235
                   21         22         23         24         25
    21  C    0.000000
    22  C    1.396479   0.000000
    23  H    4.264254   3.011154   0.000000
    24  H    4.024101   2.646336   1.765753   0.000000
    25  H   10.526300   9.736919   8.468251   8.232189   0.000000
    26  H    9.693023   9.047282   7.919284   7.916072   1.765525
    27  H    9.206991   8.191201   6.041819   6.372233   3.561589
    28  H   10.961846   9.918702   7.360437   8.073032   5.375757
    29  H   13.055336  12.113429   9.705873  10.410746   5.873559
    30  H   13.601765  12.789452  10.792087  11.266673   4.874276
    31  H   12.250155  11.520260   9.959273  10.135913   2.737201
    32  H    3.875858   3.406387   3.155191   3.762204   7.430127
    33  H    3.396486   3.873520   5.106094   5.507387   9.134396
    34  H    2.153606   3.401825   5.843044   5.867549  11.032141
    35  H    1.087053   2.156183   5.088593   4.711762  11.484878
    36  H    2.145201   1.088143   3.129165   2.442497  10.190822
                   26         27         28         29         30
    26  H    0.000000
    27  H    3.491668   0.000000
    28  H    5.315323   2.465679   0.000000
    29  H    5.838173   4.290625   2.480318   0.000000
    30  H    4.862501   4.963060   4.294279   2.480185   0.000000
    31  H    2.751001   4.318548   4.961419   4.289391   2.465374
    32  H    6.342711   5.824522   7.477487   9.366076   9.862732
    33  H    7.850281   8.074173   9.721780  11.391731  11.631244
    34  H    9.933690  10.025047  11.766229  13.619865  13.934129
    35  H   10.700333  10.221602  11.983746  14.109279  14.665288
    36  H    9.660332   8.567782  10.261079  12.546313  13.321594
                   31         32         33         34         35
    31  H    0.000000
    32  H    8.694457   0.000000
    33  H   10.310625   2.465865   0.000000
    34  H   12.516107   4.290482   2.480250   0.000000
    35  H   13.282845   4.962869   4.294285   2.480091   0.000000
    36  H   12.084652   4.318302   4.961439   4.289181   2.465259
                   36
    36  H    0.000000
 Stoichiometry    C16H14N2O4
 Framework group  C1[X(C16H14N2O4)]
 Deg. of freedom   102
 Full point group                 C1      NOp   1
 Largest Abelian subgroup         C1      NOp   1
 Largest concise Abelian subgroup C1      NOp   1
                         Standard orientation:                         
 ---------------------------------------------------------------------
 Center     Atomic      Atomic             Coordinates (Angstroms)
 Number     Number       Type             X           Y           Z
 ---------------------------------------------------------------------
      1          6           0       -4.254778   -0.300218    0.537369
      2          6           0       -3.263982    0.481248    1.369351
      3          8           0       -1.931163    0.302676    0.869714
      4          6           0       -1.272148    1.420684    0.460813
      5          8           0       -1.745581    2.551183    0.495124
      6          7           0       -0.008360    1.068920    0.039798
      7          7           0        0.662546    2.057689   -0.339361
      8          6           0        1.938193    1.710544   -0.725136
      9          8           0        2.944591    2.407564   -0.645120
     10          8           0        1.918480    0.453935   -1.247580
     11          6           0        3.164815   -0.067564   -1.728773
     12          6           0        4.002879   -0.592052   -0.585293
     13          6           0        3.551297   -0.539663    0.741627
     14          6           0        4.337737   -1.040935    1.781286
     15          6           0        5.576024   -1.616893    1.506029
     16          6           0        6.023995   -1.703315    0.190134
     17          6           0        5.240350   -1.199304   -0.849935
     18          6           0       -3.890956   -1.488142   -0.114124
     19          6           0       -4.825666   -2.200788   -0.868777
     20          6           0       -6.138690   -1.745476   -0.966470
     21          6           0       -6.521761   -0.584027   -0.300041
     22          6           0       -5.587617    0.131439    0.452047
     23          1           0       -3.286743    0.094224    2.394119
     24          1           0       -3.559715    1.535377    1.411040
     25          1           0        3.735879    0.669777   -2.302984
     26          1           0        2.935030   -0.900464   -2.403297
     27          1           0        2.583390   -0.101588    0.977516
     28          1           0        3.983017   -0.980997    2.807068
     29          1           0        6.189869   -2.001435    2.316676
     30          1           0        6.985402   -2.161992   -0.026968
     31          1           0        5.607209   -1.280636   -1.871382
     32          1           0       -2.872857   -1.865479   -0.043809
     33          1           0       -4.527614   -3.112025   -1.381117
     34          1           0       -6.863597   -2.297640   -1.558889
     35          1           0       -7.548550   -0.233437   -0.366935
     36          1           0       -5.908803    1.033952    0.968152
 ---------------------------------------------------------------------
 Rotational constants (GHZ):           0.5773857           0.1015530           0.0951806
 Standard basis: 6-31G(d) (6D, 7F)
 There are   358 symmetry adapted cartesian basis functions of A   symmetry.
 There are   358 symmetry adapted basis functions of A   symmetry.
   358 basis functions,   672 primitive gaussians,   358 cartesian basis functions
    78 alpha electrons       78 beta electrons
       nuclear repulsion energy      1603.5434520426 Hartrees.
 NAtoms=   36 NActive=   36 NUniq=   36 SFac= 1.00D+00 NAtFMM=   60 NAOKFM=F Big=F
 Integral buffers will be    131072 words long.
 Raffenetti 2 integral format.
 Two-electron integral symmetry is turned on.
 One-electron integrals computed using PRISM.
 NBasis=   358 RedAO= T EigKep=  4.64D-04  NBF=   358
 NBsUse=   358 1.00D-06 EigRej= -1.00D+00 NBFU=   358
 ExpMin= 1.61D-01 ExpMax= 5.48D+03 ExpMxC= 8.25D+02 IAcc=3 IRadAn=         5 AccDes= 0.00D+00
 Harris functional with IExCor=  402 and IRadAn=       5 diagonalized for initial guess.
 HarFok:  IExCor=  402 AccDes= 0.00D+00 IRadAn=         5 IDoV= 1 UseB2=F ITyADJ=14
 ICtDFT=  3500011 ScaDFX=  1.000000  1.000000  1.000000  1.000000
 FoFCou: FMM=F IPFlag=           0 FMFlag=      100000 FMFlg1=           0
         NFxFlg=           0 DoJE=T BraDBF=F KetDBF=T FulRan=T
         wScrn=  0.000000 ICntrl=       500 IOpCl=  0 I1Cent=   200000004 NGrid=           0
         NMat0=    1 NMatS0=      1 NMatT0=    0 NMatD0=    1 NMtDS0=    0 NMtDT0=    0
 Petite list used in FoFCou.
 Gradient too large for Newton-Raphson -- use scaled steepest descent instead.
     Minimum is close to point  2 DX=  2.37D-02 DF= -2.29D-03 DXR=  7.33D-02 DFR=  5.40D-03 which will be used.
 Gradient too large for Newton-Raphson -- use scaled steepest descent instead.
     Accept linear search using points  2 and  3.
 Gradient too large for Newton-Raphson -- use scaled steepest descent instead.
 Gradient too large for Newton-Raphson -- use scaled steepest descent instead.
     Accept linear search using points  1 and  2.
 Gradient too large for Newton-Raphson -- use scaled steepest descent instead.
     Accept linear search using points  2 and  3.
 Gradient too large for Newton-Raphson -- use scaled steepest descent instead.
     Accept linear search using points  1 and  2.
 Gradient too large for Newton-Raphson -- use scaled steepest descent instead.
     Minimum is close to point  2 DX=  6.00D-02 DF= -4.37D-07 DXR=  7.90D-02 DFR=  6.28D-03 which will be used.
 LinEq1:  Iter=  0 NonCon=     1 RMS=4.74D-05 Max=2.98D-03 NDo=     1
 AX will form     1 AO Fock derivatives at one time.
 LinEq1:  Iter=  1 NonCon=     1 RMS=5.73D-05 Max=3.26D-03 NDo=     1
 LinEq1:  Iter=  2 NonCon=     1 RMS=1.22D-05 Max=6.98D-04 NDo=     1
 LinEq1:  Iter=  3 NonCon=     1 RMS=1.21D-05 Max=9.26D-04 NDo=     1
 LinEq1:  Iter=  4 NonCon=     1 RMS=5.77D-06 Max=3.59D-04 NDo=     1
 LinEq1:  Iter=  5 NonCon=     1 RMS=5.07D-06 Max=2.46D-04 NDo=     1
 LinEq1:  Iter=  6 NonCon=     1 RMS=4.23D-06 Max=2.30D-04 NDo=     1
 LinEq1:  Iter=  7 NonCon=     1 RMS=2.56D-06 Max=1.06D-04 NDo=     1
 LinEq1:  Iter=  8 NonCon=     1 RMS=2.00D-06 Max=7.50D-05 NDo=     1
 LinEq1:  Iter=  9 NonCon=     1 RMS=9.99D-07 Max=3.85D-05 NDo=     1
 LinEq1:  Iter= 10 NonCon=     1 RMS=4.87D-07 Max=1.57D-05 NDo=     1
 LinEq1:  Iter= 11 NonCon=     1 RMS=3.46D-07 Max=1.31D-05 NDo=     1
 LinEq1:  Iter= 12 NonCon=     1 RMS=1.61D-07 Max=6.11D-06 NDo=     1
 LinEq1:  Iter= 13 NonCon=     1 RMS=1.06D-07 Max=3.69D-06 NDo=     1
 LinEq1:  Iter= 14 NonCon=     1 RMS=4.87D-08 Max=1.60D-06 NDo=     1
 LinEq1:  Iter= 15 NonCon=     1 RMS=3.70D-08 Max=1.50D-06 NDo=     1
 LinEq1:  Iter= 16 NonCon=     1 RMS=1.39D-08 Max=4.94D-07 NDo=     1
 LinEq1:  Iter= 17 NonCon=     1 RMS=7.67D-09 Max=2.67D-07 NDo=     1
 LinEq1:  Iter= 18 NonCon=     0 RMS=3.78D-09 Max=1.34D-07 NDo=     1
 Linear equations converged to 2.090D-08 2.090D-07 after    18 iterations.
     Minimum is close to point  2 DX=  9.12D-04 DF= -1.64D-11 DXR=  9.11D-04 DFR=  8.27D-07 which will be used.
 LinEq1:  Iter=  0 NonCon=     1 RMS=1.05D-07 Max=5.93D-06 NDo=     1
 LinEq1:  Iter=  1 NonCon=     1 RMS=8.42D-08 Max=3.36D-06 NDo=     1
 LinEq1:  Iter=  2 NonCon=     1 RMS=7.78D-08 Max=3.96D-06 NDo=     1
 LinEq1:  Iter=  3 NonCon=     1 RMS=3.99D-08 Max=2.29D-06 NDo=     1
 LinEq1:  Iter=  4 NonCon=     1 RMS=3.73D-08 Max=2.37D-06 NDo=     1
 LinEq1:  Iter=  5 NonCon=     1 RMS=2.85D-08 Max=1.47D-06 NDo=     1
 LinEq1:  Iter=  6 NonCon=     1 RMS=2.22D-08 Max=1.14D-06 NDo=     1
 LinEq1:  Iter=  7 NonCon=     1 RMS=1.51D-08 Max=6.61D-07 NDo=     1
 LinEq1:  Iter=  8 NonCon=     1 RMS=1.17D-08 Max=6.15D-07 NDo=     1
 LinEq1:  Iter=  9 NonCon=     1 RMS=8.35D-09 Max=4.53D-07 NDo=     1
 LinEq1:  Iter= 10 NonCon=     1 RMS=5.33D-09 Max=2.56D-07 NDo=     1
 LinEq1:  Iter= 11 NonCon=     1 RMS=3.63D-09 Max=1.58D-07 NDo=     1
 LinEq1:  Iter= 12 NonCon=     1 RMS=2.39D-09 Max=1.02D-07 NDo=     1
 LinEq1:  Iter= 13 NonCon=     1 RMS=1.08D-09 Max=3.35D-08 NDo=     1
 LinEq1:  Iter= 14 NonCon=     1 RMS=6.46D-10 Max=2.16D-08 NDo=     1
 LinEq1:  Iter= 15 NonCon=     1 RMS=2.91D-10 Max=9.37D-09 NDo=     1
 LinEq1:  Iter= 16 NonCon=     1 RMS=2.15D-10 Max=8.62D-09 NDo=     1
 LinEq1:  Iter= 17 NonCon=     1 RMS=1.08D-10 Max=2.87D-09 NDo=     1
 LinEq1:  Iter= 18 NonCon=     1 RMS=5.73D-11 Max=2.12D-09 NDo=     1
 LinEq1:  Iter= 19 NonCon=     1 RMS=3.59D-11 Max=1.83D-09 NDo=     1
 LinEq1:  Iter= 20 NonCon=     0 RMS=1.38D-11 Max=9.03D-10 NDo=     1
 Linear equations converged to 9.106D-11 9.106D-10 after    20 iterations.
 Restarting incremental Fock formation.
 SCF Done:  E(RB3LYP) =  -1028.45570328     a.u. after   10 cycles
            Convg  =    0.3493D-09                    59 Fock formations.
              S**2 =  0.0000                  -V/T =  2.0092
 DoSCS=F DFT=T ScalE2(SS,OS)=  1.000000  1.000000
 Range of M.O.s used for correlation:     1   358
 NBasis=   358 NAE=    78 NBE=    78 NFC=     0 NFV=     0
 NROrb=    358 NOA=    78 NOB=    78 NVA=   280 NVB=   280

 **** Warning!!: The smallest alpha delta epsilon is  0.98873288D-01

 Symmetrizing basis deriv contribution to polar:
 IMax=3 JMax=2 DiffMx= 0.00D+00
 G2DrvN: will do    37 centers at a time, making    1 passes.
 Calling FoFCou, ICntrl=  3107 FMM=F I1Cent=   0 AccDes= 0.00D+00.
 End of G2Drv F.D. properties file   721 does not exist.
 End of G2Drv F.D. properties file   722 does not exist.
 End of G2Drv F.D. properties file   788 does not exist.
          IDoAtm=111111111111111111111111111111111111
          Differentiating once with respect to electric field.
                with respect to dipole field.
          Differentiating once with respect to nuclear coordinates.
 CalDSu exits because no D1Ps are significant.
          There are   111 degrees of freedom in the 1st order CPHF.  IDoFFX=6 NUNeed=     3.
    108 vectors produced by pass  0 Test12= 2.18D-14 1.00D-09 XBig12= 2.53D+02 6.07D+00.
 AX will form   108 AO Fock derivatives at one time.
    108 vectors produced by pass  1 Test12= 2.18D-14 1.00D-09 XBig12= 7.91D+01 2.10D+00.
    108 vectors produced by pass  2 Test12= 2.18D-14 1.00D-09 XBig12= 9.96D-01 1.33D-01.
    108 vectors produced by pass  3 Test12= 2.18D-14 1.00D-09 XBig12= 6.81D-03 1.03D-02.
    108 vectors produced by pass  4 Test12= 2.18D-14 1.00D-09 XBig12= 1.37D-05 4.65D-04.
     94 vectors produced by pass  5 Test12= 2.18D-14 1.00D-09 XBig12= 1.42D-08 1.06D-05.
     22 vectors produced by pass  6 Test12= 2.18D-14 1.00D-09 XBig12= 1.27D-11 4.76D-07.
      3 vectors produced by pass  7 Test12= 2.18D-14 1.00D-09 XBig12= 1.14D-14 1.14D-08.
 InvSVY:  IOpt=1 It=  1 EMax= 7.11D-15
 Solved reduced A of dimension   659 with   111 vectors.
 Isotropic polarizability for W=    0.000000      187.40 Bohr**3.
 End of Minotr F.D. properties file   721 does not exist.
 End of Minotr F.D. properties file   722 does not exist.
 End of Minotr F.D. properties file   788 does not exist.

 **********************************************************************

            Population analysis using the SCF density.

 **********************************************************************

 Orbital symmetries:
       Occupied  (A) (A) (A) (A) (A) (A) (A) (A) (A) (A) (A) (A)
                 (A) (A) (A) (A) (A) (A) (A) (A) (A) (A) (A) (A)
                 (A) (A) (A) (A) (A) (A) (A) (A) (A) (A) (A) (A)
                 (A) (A) (A) (A) (A) (A) (A) (A) (A) (A) (A) (A)
                 (A) (A) (A) (A) (A) (A) (A) (A) (A) (A) (A) (A)
                 (A) (A) (A) (A) (A) (A) (A) (A) (A) (A) (A) (A)
                 (A) (A) (A) (A) (A) (A)
       Virtual   (A) (A) (A) (A) (A) (A) (A) (A) (A) (A) (A) (A)
                 (A) (A) (A) (A) (A) (A) (A) (A) (A) (A) (A) (A)
                 (A) (A) (A) (A) (A) (A) (A) (A) (A) (A) (A) (A)
                 (A) (A) (A) (A) (A) (A) (A) (A) (A) (A) (A) (A)
                 (A) (A) (A) (A) (A) (A) (A) (A) (A) (A) (A) (A)
                 (A) (A) (A) (A) (A) (A) (A) (A) (A) (A) (A) (A)
                 (A) (A) (A) (A) (A) (A) (A) (A) (A) (A) (A) (A)
                 (A) (A) (A) (A) (A) (A) (A) (A) (A) (A) (A) (A)
                 (A) (A) (A) (A) (A) (A) (A) (A) (A) (A) (A) (A)
                 (A) (A) (A) (A) (A) (A) (A) (A) (A) (A) (A) (A)
                 (A) (A) (A) (A) (A) (A) (A) (A) (A) (A) (A) (A)
                 (A) (A) (A) (A) (A) (A) (A) (A) (A) (A) (A) (A)
                 (A) (A) (A) (A) (A) (A) (A) (A) (A) (A) (A) (A)
                 (A) (A) (A) (A) (A) (A) (A) (A) (A) (A) (A) (A)
                 (A) (A) (A) (A) (A) (A) (A) (A) (A) (A) (A) (A)
                 (A) (A) (A) (A) (A) (A) (A) (A) (A) (A) (A) (A)
                 (A) (A) (A) (A) (A) (A) (A) (A) (A) (A) (A) (A)
                 (A) (A) (A) (A) (A) (A) (A) (A) (A) (A) (A) (A)
                 (A) (A) (A) (A) (A) (A) (A) (A) (A) (A) (A) (A)
                 (A) (A) (A) (A) (A) (A) (A) (A) (A) (A) (A) (A)
                 (A) (A) (A) (A) (A) (A) (A) (A) (A) (A) (A) (A)
                 (A) (A) (A) (A) (A) (A) (A) (A) (A) (A) (A) (A)
                 (A) (A) (A) (A) (A) (A) (A) (A) (A) (A) (A) (A)
                 (A) (A) (A) (A)
 The electronic state is 1-A.
 Alpha  occ. eigenvalues --  -19.22139 -19.21270 -19.16893 -19.16301 -14.43531
 Alpha  occ. eigenvalues --  -14.43233 -10.36066 -10.36028 -10.26093 -10.26059
 Alpha  occ. eigenvalues --  -10.20850 -10.20511 -10.19867 -10.19648 -10.19586
 Alpha  occ. eigenvalues --  -10.19529 -10.19463 -10.19441 -10.19295 -10.19192
 Alpha  occ. eigenvalues --  -10.19137 -10.18970  -1.15001  -1.12768  -1.07300
 Alpha  occ. eigenvalues --   -1.03756  -1.03086  -0.86461  -0.85901  -0.84358
 Alpha  occ. eigenvalues --   -0.78618  -0.77285  -0.74993  -0.74611  -0.71867
 Alpha  occ. eigenvalues --   -0.69933  -0.64035  -0.61375  -0.60940  -0.60198
 Alpha  occ. eigenvalues --   -0.58876  -0.56342  -0.55743  -0.53011  -0.52617
 Alpha  occ. eigenvalues --   -0.51327  -0.50970  -0.48910  -0.48697  -0.47028
 Alpha  occ. eigenvalues --   -0.46697  -0.45887  -0.45613  -0.45103  -0.44445
 Alpha  occ. eigenvalues --   -0.43568  -0.43233  -0.42446  -0.42118  -0.41355
 Alpha  occ. eigenvalues --   -0.38685  -0.38226  -0.37891  -0.36177  -0.35748
 Alpha  occ. eigenvalues --   -0.35498  -0.35282  -0.34652  -0.34524  -0.32154
 Alpha  occ. eigenvalues --   -0.31757  -0.31269  -0.30775  -0.27167  -0.25571
 Alpha  occ. eigenvalues --   -0.25164  -0.25150  -0.24521
 Alpha virt. eigenvalues --   -0.14634  -0.01034  -0.00727  -0.00626  -0.00068
 Alpha virt. eigenvalues --    0.00915   0.04573   0.08966   0.09315   0.10754
 Alpha virt. eigenvalues --    0.11202   0.11715   0.11838   0.12790   0.13070
 Alpha virt. eigenvalues --    0.14305   0.14583   0.15423   0.15555   0.17479
 Alpha virt. eigenvalues --    0.18139   0.18701   0.18881   0.19545   0.20173
 Alpha virt. eigenvalues --    0.21765   0.23120   0.23664   0.24400   0.27006
 Alpha virt. eigenvalues --    0.29298   0.30164   0.30235   0.30285   0.31065
 Alpha virt. eigenvalues --    0.32566   0.32992   0.33453   0.34212   0.35230
 Alpha virt. eigenvalues --    0.38745   0.42834   0.46259   0.46672   0.46864
 Alpha virt. eigenvalues --    0.48518   0.50011   0.51337   0.52342   0.52759
 Alpha virt. eigenvalues --    0.53279   0.53928   0.54319   0.55003   0.55338
 Alpha virt. eigenvalues --    0.56295   0.56600   0.57334   0.57632   0.58378
 Alpha virt. eigenvalues --    0.59044   0.59185   0.59478   0.59752   0.60672
 Alpha virt. eigenvalues --    0.60906   0.60966   0.61409   0.61688   0.62289
 Alpha virt. eigenvalues --    0.62658   0.62947   0.63799   0.63876   0.64581
 Alpha virt. eigenvalues --    0.66761   0.67077   0.67753   0.68636   0.69133
 Alpha virt. eigenvalues --    0.70561   0.71732   0.72129   0.74175   0.75081
 Alpha virt. eigenvalues --    0.76278   0.76390   0.78589   0.80161   0.81493
 Alpha virt. eigenvalues --    0.81571   0.82914   0.83115   0.83370   0.84004
 Alpha virt. eigenvalues --    0.84430   0.84725   0.84875   0.85899   0.86569
 Alpha virt. eigenvalues --    0.87154   0.89752   0.90297   0.91472   0.91883
 Alpha virt. eigenvalues --    0.92142   0.93185   0.94087   0.94474   0.96343
 Alpha virt. eigenvalues --    0.97081   0.98204   0.99273   1.00938   1.04272
 Alpha virt. eigenvalues --    1.05495   1.05880   1.06576   1.08399   1.09370
 Alpha virt. eigenvalues --    1.09974   1.11467   1.11850   1.12471   1.13592
 Alpha virt. eigenvalues --    1.15641   1.15909   1.16541   1.17333   1.19005
 Alpha virt. eigenvalues --    1.19595   1.21308   1.23381   1.25828   1.26192
 Alpha virt. eigenvalues --    1.28284   1.29921   1.33216   1.37915   1.39298
 Alpha virt. eigenvalues --    1.40143   1.40825   1.42000   1.42709   1.43284
 Alpha virt. eigenvalues --    1.45108   1.46160   1.46645   1.47648   1.48123
 Alpha virt. eigenvalues --    1.48508   1.48875   1.49160   1.50709   1.50756
 Alpha virt. eigenvalues --    1.51192   1.53857   1.56595   1.59071   1.64094
 Alpha virt. eigenvalues --    1.64754   1.67113   1.68053   1.71086   1.71580
 Alpha virt. eigenvalues --    1.75692   1.76345   1.76997   1.78399   1.79139
 Alpha virt. eigenvalues --    1.79487   1.80139   1.81393   1.82259   1.82863
 Alpha virt. eigenvalues --    1.84185   1.85726   1.87902   1.88389   1.90331
 Alpha virt. eigenvalues --    1.90668   1.90708   1.91426   1.92020   1.96242
 Alpha virt. eigenvalues --    1.96670   1.97863   1.99304   2.00242   2.01910
 Alpha virt. eigenvalues --    2.03516   2.04078   2.04454   2.04945   2.05823
 Alpha virt. eigenvalues --    2.07076   2.08777   2.10280   2.12969   2.13995
 Alpha virt. eigenvalues --    2.14119   2.14497   2.15755   2.15887   2.16514
 Alpha virt. eigenvalues --    2.21445   2.22085   2.23419   2.24229   2.27263
 Alpha virt. eigenvalues --    2.28016   2.30123   2.30359   2.30755   2.31764
 Alpha virt. eigenvalues --    2.35032   2.35431   2.38536   2.38873   2.40684
 Alpha virt. eigenvalues --    2.42877   2.43955   2.46582   2.56704   2.57183
 Alpha virt. eigenvalues --    2.57675   2.57921   2.58004   2.60293   2.63985
 Alpha virt. eigenvalues --    2.64753   2.65054   2.65377   2.68819   2.69782
 Alpha virt. eigenvalues --    2.70854   2.71648   2.72295   2.73527   2.74139
 Alpha virt. eigenvalues --    2.75183   2.76578   2.79491   2.81195   2.82106
 Alpha virt. eigenvalues --    2.84865   2.86868   2.87555   2.92020   2.95277
 Alpha virt. eigenvalues --    3.04268   3.06541   3.08938   3.09288   3.20149
 Alpha virt. eigenvalues --    3.25290   3.40134   3.40555   3.79778   3.93943
 Alpha virt. eigenvalues --    4.00331   4.04793   4.08084   4.08953   4.10879
 Alpha virt. eigenvalues --    4.11394   4.11463   4.13370   4.20932   4.22995
 Alpha virt. eigenvalues --    4.27536   4.31820   4.32544   4.33201   4.35170
 Alpha virt. eigenvalues --    4.40738   4.43215   4.48681   4.68806   4.70045
          Condensed to atoms (all electrons):
               1          2          3          4          5          6
     1  C    4.720775   0.345430  -0.036309  -0.000061   0.000131  -0.000213
     2  C    0.345430   5.043882   0.189683  -0.020240  -0.011059   0.003715
     3  O   -0.036309   0.189683   8.213293   0.294465  -0.075384  -0.087612
     4  C   -0.000061  -0.020240   0.294465   4.236722   0.537700   0.240785
     5  O    0.000131  -0.011059  -0.075384   0.537700   8.031025  -0.080517
     6  N   -0.000213   0.003715  -0.087612   0.240785  -0.080517   6.984407
     7  N    0.000003  -0.000103   0.002862  -0.053460  -0.000321   0.219126
     8  C   -0.000000   0.000000  -0.000122   0.005406   0.000609  -0.059249
     9  O    0.000000  -0.000000   0.000000  -0.000131   0.000002   0.000725
    10  O   -0.000000   0.000000   0.000001  -0.000173  -0.000009  -0.007954
    11  C    0.000000  -0.000000  -0.000000   0.000018   0.000000   0.000337
    12  C   -0.000000  -0.000000   0.000000  -0.000003  -0.000000  -0.000125
    13  C    0.000000  -0.000000   0.000000  -0.000003  -0.000000  -0.001997
    14  C   -0.000000   0.000000   0.000000   0.000000   0.000000   0.000022
    15  C   -0.000000  -0.000000  -0.000000  -0.000000   0.000000   0.000000
    16  C    0.000000  -0.000000  -0.000000  -0.000000  -0.000000  -0.000000
    17  C    0.000000   0.000000   0.000000   0.000000   0.000000   0.000002
    18  C    0.539698  -0.064510  -0.000919   0.000621   0.000092  -0.000096
    19  C   -0.020919   0.005621   0.000180  -0.000002   0.000001  -0.000000
    20  C   -0.035204   0.000398   0.000000  -0.000001  -0.000000   0.000000
    21  C   -0.018156   0.005887  -0.000065  -0.000004  -0.000000  -0.000000
    22  C    0.533091  -0.055342   0.001666  -0.000031  -0.000114  -0.000003
    23  H   -0.035805   0.361425  -0.035329   0.002763   0.000541  -0.000160
    24  H   -0.033005   0.346886  -0.025485  -0.008529   0.023442   0.000649
    25  H   -0.000000   0.000000  -0.000000   0.000003  -0.000000  -0.000040
    26  H   -0.000000   0.000000   0.000000  -0.000000   0.000000   0.000042
    27  H   -0.000000   0.000000  -0.000007  -0.000013   0.000003   0.007712
    28  H    0.000000   0.000000   0.000000  -0.000000  -0.000000  -0.000003
    29  H   -0.000000   0.000000  -0.000000   0.000000   0.000000   0.000000
    30  H    0.000000   0.000000  -0.000000   0.000000   0.000000  -0.000000
    31  H   -0.000000   0.000000   0.000000   0.000000   0.000000   0.000000
    32  H   -0.042796  -0.011777   0.008390   0.000247   0.000012   0.000072
    33  H    0.003689  -0.000183   0.000001   0.000000  -0.000000  -0.000000
    34  H    0.000738   0.000009   0.000000  -0.000000   0.000000   0.000000
    35  H    0.003698  -0.000165   0.000000   0.000000   0.000000   0.000000
    36  H   -0.048843  -0.008374   0.000054  -0.000015  -0.000023  -0.000000
               7          8          9         10         11         12
     1  C    0.000003  -0.000000   0.000000  -0.000000   0.000000  -0.000000
     2  C   -0.000103   0.000000  -0.000000   0.000000  -0.000000  -0.000000
     3  O    0.002862  -0.000122   0.000000   0.000001  -0.000000   0.000000
     4  C   -0.053460   0.005406  -0.000131  -0.000173   0.000018  -0.000003
     5  O   -0.000321   0.000609   0.000002  -0.000009   0.000000  -0.000000
     6  N    0.219126  -0.059249   0.000725  -0.007954   0.000337  -0.000125
     7  N    6.947532   0.240716  -0.061622  -0.101450   0.004924  -0.000213
     8  C    0.240716   4.263187   0.542589   0.255830  -0.018409  -0.002494
     9  O   -0.061622   0.542589   8.024025  -0.081005   0.002956  -0.001266
    10  O   -0.101450   0.255830  -0.081005   8.253884   0.202458  -0.035373
    11  C    0.004924  -0.018409   0.002956   0.202458   4.999441   0.329265
    12  C   -0.000213  -0.002494  -0.001266  -0.035373   0.329265   4.745649
    13  C   -0.000360   0.004332   0.000450  -0.002622  -0.061218   0.559473
    14  C   -0.000015  -0.000316  -0.000133   0.000659   0.006485  -0.019924
    15  C   -0.000000  -0.000005   0.000003  -0.000013   0.000398  -0.036440
    16  C    0.000000  -0.000014   0.000006  -0.000059   0.005045  -0.013866
    17  C   -0.000005   0.000126  -0.000389   0.002158  -0.060909   0.520105
    18  C    0.000001  -0.000000  -0.000000   0.000000  -0.000000  -0.000000
    19  C    0.000000  -0.000000   0.000000   0.000000  -0.000000   0.000000
    20  C    0.000000   0.000000   0.000000   0.000000  -0.000000   0.000000
    21  C    0.000000  -0.000000   0.000000  -0.000000   0.000000   0.000000
    22  C    0.000000   0.000000  -0.000000  -0.000000   0.000000  -0.000000
    23  H    0.000005  -0.000000  -0.000000   0.000000  -0.000000  -0.000000
    24  H    0.000010  -0.000000  -0.000000   0.000000  -0.000000   0.000000
    25  H    0.000185  -0.007070   0.012005  -0.026941   0.352891  -0.039310
    26  H   -0.000119   0.004275   0.000308  -0.028939   0.368059  -0.039154
    27  H   -0.001917   0.000713  -0.002079   0.005386  -0.013998  -0.044157
    28  H    0.000000   0.000010  -0.000002   0.000006  -0.000195   0.003853
    29  H    0.000000  -0.000000   0.000000   0.000000   0.000011   0.000829
    30  H    0.000000   0.000000   0.000000   0.000000  -0.000156   0.003633
    31  H   -0.000000   0.000000  -0.000007   0.000052  -0.007399  -0.055066
    32  H    0.000001  -0.000000  -0.000000  -0.000000  -0.000000  -0.000000
    33  H   -0.000000   0.000000  -0.000000  -0.000000   0.000000  -0.000000
    34  H    0.000000  -0.000000   0.000000   0.000000  -0.000000  -0.000000
    35  H   -0.000000   0.000000  -0.000000   0.000000   0.000000  -0.000000
    36  H    0.000000   0.000000   0.000000  -0.000000   0.000000  -0.000000
              13         14         15         16         17         18
     1  C    0.000000  -0.000000  -0.000000   0.000000   0.000000   0.539698
     2  C   -0.000000   0.000000  -0.000000  -0.000000   0.000000  -0.064510
     3  O    0.000000   0.000000  -0.000000  -0.000000   0.000000  -0.000919
     4  C   -0.000003   0.000000  -0.000000  -0.000000   0.000000   0.000621
     5  O   -0.000000   0.000000   0.000000  -0.000000   0.000000   0.000092
     6  N   -0.001997   0.000022   0.000000  -0.000000   0.000002  -0.000096
     7  N   -0.000360  -0.000015  -0.000000   0.000000  -0.000005   0.000001
     8  C    0.004332  -0.000316  -0.000005  -0.000014   0.000126  -0.000000
     9  O    0.000450  -0.000133   0.000003   0.000006  -0.000389  -0.000000
    10  O   -0.002622   0.000659  -0.000013  -0.000059   0.002158   0.000000
    11  C   -0.061218   0.006485   0.000398   0.005045  -0.060909  -0.000000
    12  C    0.559473  -0.019924  -0.036440  -0.013866   0.520105  -0.000000
    13  C    4.931915   0.520287  -0.033889  -0.044835  -0.031719   0.000000
    14  C    0.520287   4.870001   0.550925  -0.027037  -0.045673  -0.000000
    15  C   -0.033889   0.550925   4.847190   0.552461  -0.036546  -0.000000
    16  C   -0.044835  -0.027037   0.552461   4.846801   0.532101   0.000000
    17  C   -0.031719  -0.045673  -0.036546   0.532101   4.969566  -0.000000
    18  C    0.000000  -0.000000  -0.000000   0.000000  -0.000000   4.955222
    19  C    0.000000   0.000000  -0.000000  -0.000000   0.000000   0.525094
    20  C   -0.000000   0.000000   0.000000  -0.000000   0.000000  -0.034709
    21  C   -0.000000  -0.000000  -0.000000   0.000000   0.000000  -0.045408
    22  C   -0.000000   0.000000   0.000000  -0.000000  -0.000000  -0.035641
    23  H   -0.000000   0.000000   0.000000   0.000000  -0.000000  -0.004170
    24  H    0.000000  -0.000000  -0.000000   0.000000   0.000000   0.005139
    25  H    0.002405  -0.000021   0.000009  -0.000098  -0.002195   0.000000
    26  H   -0.000170  -0.000107   0.000027  -0.000143  -0.001374  -0.000000
    27  H    0.348531  -0.042650   0.004808   0.000371   0.005889  -0.000000
    28  H   -0.039879   0.357594  -0.043156   0.004508   0.000973   0.000000
    29  H    0.004734  -0.043072   0.358442  -0.043208   0.004799   0.000000
    30  H    0.000785   0.004697  -0.042685   0.357952  -0.040510  -0.000000
    31  H    0.005351   0.000471   0.004940  -0.042740   0.359780  -0.000000
    32  H   -0.000000   0.000000   0.000000  -0.000000   0.000000   0.358960
    33  H   -0.000000  -0.000000   0.000000   0.000000  -0.000000  -0.040160
    34  H    0.000000  -0.000000   0.000000   0.000000   0.000000   0.004719
    35  H   -0.000000   0.000000   0.000000   0.000000   0.000000   0.000772
    36  H   -0.000000   0.000000   0.000000  -0.000000  -0.000000   0.005794
              19         20         21         22         23         24
     1  C   -0.020919  -0.035204  -0.018156   0.533091  -0.035805  -0.033005
     2  C    0.005621   0.000398   0.005887  -0.055342   0.361425   0.346886
     3  O    0.000180   0.000000  -0.000065   0.001666  -0.035329  -0.025485
     4  C   -0.000002  -0.000001  -0.000004  -0.000031   0.002763  -0.008529
     5  O    0.000001  -0.000000  -0.000000  -0.000114   0.000541   0.023442
     6  N   -0.000000   0.000000  -0.000000  -0.000003  -0.000160   0.000649
     7  N    0.000000   0.000000   0.000000   0.000000   0.000005   0.000010
     8  C   -0.000000   0.000000  -0.000000   0.000000  -0.000000  -0.000000
     9  O    0.000000   0.000000   0.000000  -0.000000  -0.000000  -0.000000
    10  O    0.000000   0.000000  -0.000000  -0.000000   0.000000   0.000000
    11  C   -0.000000  -0.000000   0.000000   0.000000  -0.000000  -0.000000
    12  C    0.000000   0.000000   0.000000  -0.000000  -0.000000   0.000000
    13  C    0.000000  -0.000000  -0.000000  -0.000000  -0.000000   0.000000
    14  C    0.000000   0.000000  -0.000000   0.000000   0.000000  -0.000000
    15  C   -0.000000   0.000000  -0.000000   0.000000   0.000000  -0.000000
    16  C   -0.000000  -0.000000   0.000000  -0.000000   0.000000   0.000000
    17  C    0.000000   0.000000   0.000000  -0.000000  -0.000000   0.000000
    18  C    0.525094  -0.034709  -0.045408  -0.035641  -0.004170   0.005139
    19  C    4.863792   0.549920  -0.027151  -0.045516  -0.000106  -0.000076
    20  C    0.549920   4.846065   0.553384  -0.036407   0.000038   0.000006
    21  C   -0.027151   0.553384   4.853673   0.527654  -0.000300   0.000038
    22  C   -0.045516  -0.036407   0.527654   4.964031   0.000277  -0.003485
    23  H   -0.000106   0.000038  -0.000300   0.000277   0.566662  -0.035495
    24  H   -0.000076   0.000006   0.000038  -0.003485  -0.035495   0.527239
    25  H    0.000000   0.000000  -0.000000  -0.000000  -0.000000   0.000000
    26  H   -0.000000   0.000000  -0.000000   0.000000   0.000000  -0.000000
    27  H   -0.000000   0.000000  -0.000000   0.000000   0.000000  -0.000000
    28  H    0.000000   0.000000   0.000000  -0.000000  -0.000000   0.000000
    29  H    0.000000   0.000000   0.000000   0.000000   0.000000  -0.000000
    30  H    0.000000   0.000000   0.000000   0.000000  -0.000000   0.000000
    31  H    0.000000   0.000000   0.000000  -0.000000  -0.000000  -0.000000
    32  H   -0.043585   0.004687   0.000383   0.005652   0.000638   0.000217
    33  H    0.358467  -0.042921   0.004572   0.000901   0.000002   0.000002
    34  H   -0.043198   0.358929  -0.043021   0.004862  -0.000000  -0.000000
    35  H    0.004649  -0.042617   0.358111  -0.039744   0.000004  -0.000005
    36  H    0.000403   0.004856  -0.043226   0.356854   0.000550   0.005358
              25         26         27         28         29         30
     1  C   -0.000000  -0.000000  -0.000000   0.000000  -0.000000   0.000000
     2  C    0.000000   0.000000   0.000000   0.000000   0.000000   0.000000
     3  O   -0.000000   0.000000  -0.000007   0.000000  -0.000000  -0.000000
     4  C    0.000003  -0.000000  -0.000013  -0.000000   0.000000   0.000000
     5  O   -0.000000   0.000000   0.000003  -0.000000   0.000000   0.000000
     6  N   -0.000040   0.000042   0.007712  -0.000003   0.000000  -0.000000
     7  N    0.000185  -0.000119  -0.001917   0.000000   0.000000   0.000000
     8  C   -0.007070   0.004275   0.000713   0.000010  -0.000000   0.000000
     9  O    0.012005   0.000308  -0.002079  -0.000002   0.000000   0.000000
    10  O   -0.026941  -0.028939   0.005386   0.000006   0.000000   0.000000
    11  C    0.352891   0.368059  -0.013998  -0.000195   0.000011  -0.000156
    12  C   -0.039310  -0.039154  -0.044157   0.003853   0.000829   0.003633
    13  C    0.002405  -0.000170   0.348531  -0.039879   0.004734   0.000785
    14  C   -0.000021  -0.000107  -0.042650   0.357594  -0.043072   0.004697
    15  C    0.000009   0.000027   0.004808  -0.043156   0.358442  -0.042685
    16  C   -0.000098  -0.000143   0.000371   0.004508  -0.043208   0.357952
    17  C   -0.002195  -0.001374   0.005889   0.000973   0.004799  -0.040510
    18  C    0.000000  -0.000000  -0.000000   0.000000   0.000000  -0.000000
    19  C    0.000000  -0.000000  -0.000000   0.000000   0.000000   0.000000
    20  C    0.000000   0.000000   0.000000   0.000000   0.000000   0.000000
    21  C   -0.000000  -0.000000  -0.000000   0.000000   0.000000   0.000000
    22  C   -0.000000   0.000000   0.000000  -0.000000   0.000000   0.000000
    23  H   -0.000000   0.000000   0.000000  -0.000000   0.000000  -0.000000
    24  H    0.000000  -0.000000  -0.000000   0.000000  -0.000000   0.000000
    25  H    0.560069  -0.038704   0.000245   0.000003  -0.000000   0.000002
    26  H   -0.038704   0.555143   0.000154   0.000003  -0.000000   0.000001
    27  H    0.000245   0.000154   0.596604  -0.005396  -0.000182   0.000016
    28  H    0.000003   0.000003  -0.005396   0.594538  -0.005677  -0.000190
    29  H   -0.000000  -0.000000  -0.000182  -0.005677   0.599155  -0.005631
    30  H    0.000002   0.000001   0.000016  -0.000190  -0.005631   0.595620
    31  H    0.002277   0.002019  -0.000155   0.000018  -0.000191  -0.005726
    32  H   -0.000000   0.000000   0.000000  -0.000000  -0.000000  -0.000000
    33  H   -0.000000  -0.000000  -0.000000  -0.000000   0.000000  -0.000000
    34  H    0.000000  -0.000000  -0.000000   0.000000   0.000000   0.000000
    35  H    0.000000   0.000000   0.000000  -0.000000   0.000000   0.000000
    36  H   -0.000000   0.000000   0.000000  -0.000000  -0.000000   0.000000
              31         32         33         34         35         36
     1  C   -0.000000  -0.042796   0.003689   0.000738   0.003698  -0.048843
     2  C    0.000000  -0.011777  -0.000183   0.000009  -0.000165  -0.008374
     3  O    0.000000   0.008390   0.000001   0.000000   0.000000   0.000054
     4  C    0.000000   0.000247   0.000000  -0.000000   0.000000  -0.000015
     5  O    0.000000   0.000012  -0.000000   0.000000   0.000000  -0.000023
     6  N    0.000000   0.000072  -0.000000   0.000000   0.000000  -0.000000
     7  N   -0.000000   0.000001  -0.000000   0.000000  -0.000000   0.000000
     8  C    0.000000  -0.000000   0.000000  -0.000000   0.000000   0.000000
     9  O   -0.000007  -0.000000  -0.000000   0.000000  -0.000000   0.000000
    10  O    0.000052  -0.000000  -0.000000   0.000000   0.000000  -0.000000
    11  C   -0.007399  -0.000000   0.000000  -0.000000   0.000000   0.000000
    12  C   -0.055066  -0.000000  -0.000000  -0.000000  -0.000000  -0.000000
    13  C    0.005351  -0.000000  -0.000000   0.000000  -0.000000  -0.000000
    14  C    0.000471   0.000000  -0.000000  -0.000000   0.000000   0.000000
    15  C    0.004940   0.000000   0.000000   0.000000   0.000000   0.000000
    16  C   -0.042740  -0.000000   0.000000   0.000000   0.000000  -0.000000
    17  C    0.359780   0.000000  -0.000000   0.000000   0.000000  -0.000000
    18  C   -0.000000   0.358960  -0.040160   0.004719   0.000772   0.005794
    19  C    0.000000  -0.043585   0.358467  -0.043198   0.004649   0.000403
    20  C    0.000000   0.004687  -0.042921   0.358929  -0.042617   0.004856
    21  C    0.000000   0.000383   0.004572  -0.043021   0.358111  -0.043226
    22  C   -0.000000   0.005652   0.000901   0.004862  -0.039744   0.356854
    23  H   -0.000000   0.000638   0.000002  -0.000000   0.000004   0.000550
    24  H   -0.000000   0.000217   0.000002  -0.000000  -0.000005   0.005358
    25  H    0.002277  -0.000000  -0.000000   0.000000   0.000000  -0.000000
    26  H    0.002019   0.000000  -0.000000  -0.000000   0.000000   0.000000
    27  H   -0.000155   0.000000  -0.000000  -0.000000   0.000000   0.000000
    28  H    0.000018  -0.000000  -0.000000   0.000000  -0.000000  -0.000000
    29  H   -0.000191  -0.000000   0.000000   0.000000   0.000000  -0.000000
    30  H   -0.005726  -0.000000  -0.000000   0.000000   0.000000   0.000000
    31  H    0.613266   0.000000  -0.000000  -0.000000   0.000000  -0.000000
    32  H    0.000000   0.577488  -0.005258  -0.000176   0.000016  -0.000151
    33  H   -0.000000  -0.005258   0.592180  -0.005631  -0.000189   0.000017
    34  H   -0.000000  -0.000176  -0.005631   0.596289  -0.005647  -0.000186
    35  H    0.000000   0.000016  -0.000189  -0.005647   0.592100  -0.005619
    36  H   -0.000000  -0.000151   0.000017  -0.000186  -0.005619   0.602729
 Mulliken charges:
               1
     1  C    0.124059
     2  C   -0.131183
     3  O   -0.449364
     4  C    0.763937
     5  O   -0.426132
     6  N   -0.219623
     7  N   -0.195781
     8  C    0.769886
     9  O   -0.436436
    10  O   -0.435897
    11  C   -0.110005
    12  C    0.124587
    13  C   -0.161574
    14  C   -0.132192
    15  C   -0.126468
    16  C   -0.127245
    17  C   -0.176180
    18  C   -0.170502
    19  C   -0.127572
    20  C   -0.126424
    21  C   -0.126370
    22  C   -0.178706
    23  H    0.178460
    24  H    0.197092
    25  H    0.184285
    26  H    0.178679
    27  H    0.140121
    28  H    0.132992
    29  H    0.129992
    30  H    0.132192
    31  H    0.123110
    32  H    0.146982
    33  H    0.134510
    34  H    0.132314
    35  H    0.134636
    36  H    0.129821
 Sum of Mulliken charges =   0.00000
 Mulliken charges with hydrogens summed into heavy atoms:
               1
     1  C    0.124059
     2  C    0.244369
     3  O   -0.449364
     4  C    0.763937
     5  O   -0.426132
     6  N   -0.219623
     7  N   -0.195781
     8  C    0.769886
     9  O   -0.436436
    10  O   -0.435897
    11  C    0.252959
    12  C    0.124587
    13  C   -0.021453
    14  C    0.000800
    15  C    0.003524
    16  C    0.004946
    17  C   -0.053070
    18  C   -0.023520
    19  C    0.006939
    20  C    0.005889
    21  C    0.008266
    22  C   -0.048885
 APT charges:
               1
     1  C    0.025303
     2  C    0.574572
     3  O   -0.930492
     4  C    1.305887
     5  O   -0.676700
     6  N   -0.202447
     7  N   -0.201746
     8  C    1.177576
     9  O   -0.613744
    10  O   -0.817865
    11  C    0.552767
    12  C    0.008910
    13  C   -0.053969
    14  C    0.015689
    15  C   -0.035357
    16  C   -0.006034
    17  C   -0.033652
    18  C   -0.059835
    19  C    0.001723
    20  C   -0.024795
    21  C   -0.005512
    22  C   -0.054391
    23  H   -0.072775
    24  H    0.019795
    25  H   -0.036162
    26  H   -0.045234
    27  H    0.029187
    28  H    0.015281
    29  H    0.011758
    30  H    0.010172
    31  H    0.014889
    32  H    0.045299
    33  H    0.014020
    34  H    0.013285
    35  H    0.012105
    36  H    0.022490
 Sum of APT charges =   0.00000
 APT charges with hydrogens summed into heavy atoms:
               1
     1  C    0.025303
     2  C    0.521592
     3  O   -0.930492
     4  C    1.305887
     5  O   -0.676700
     6  N   -0.202447
     7  N   -0.201746
     8  C    1.177576
     9  O   -0.613744
    10  O   -0.817865
    11  C    0.471371
    12  C    0.008910
    13  C   -0.024782
    14  C    0.030970
    15  C   -0.023598
    16  C    0.004138
    17  C   -0.018762
    18  C   -0.014536
    19  C    0.015743
    20  C   -0.011510
    21  C    0.006593
    22  C   -0.031901
 Electronic spatial extent (au):  <R**2>=          10994.1076
 Charge=              0.0000 electrons
 Dipole moment (field-independent basis, Debye):
    X=             -1.1736    Y=             -3.5375    Z=             -0.1852  Tot=              3.7317
 Quadrupole moment (field-independent basis, Debye-Ang):
   XX=           -105.6820   YY=           -136.3105   ZZ=           -113.5497
   XY=             -7.1982   XZ=             -4.3620   YZ=              3.3872
 Traceless Quadrupole moment (field-independent basis, Debye-Ang):
   XX=             12.8320   YY=            -17.7964   ZZ=              4.9644
   XY=             -7.1982   XZ=             -4.3620   YZ=              3.3872
 Octapole moment (field-independent basis, Debye-Ang**2):
  XXX=            -51.7592  YYY=            -20.2354  ZZZ=              1.1921  XYY=            -14.7567
  XXY=            -46.5831  XXZ=            -17.4217  XZZ=             26.3066  YZZ=              6.0751
  YYZ=             -9.0252  XYZ=            -18.3339
 Hexadecapole moment (field-independent basis, Debye-Ang**3):
 XXXX=         -11352.6754 YYYY=          -1731.3185 ZZZZ=           -791.3675 XXXY=           -332.6913
 XXXZ=             22.3916 YYYX=             41.1556 YYYZ=             24.3269 ZZZX=            -58.0186
 ZZZY=             -7.8056 XXYY=          -2367.3891 XXZZ=          -2089.0237 YYZZ=           -385.6840
 XXYZ=             95.5189 YYXZ=             41.5014 ZZXY=            -20.6542
 N-N= 1.603543452043D+03 E-N=-5.602385292884D+03  KE= 1.019050750856D+03
  Exact polarizability: 256.264 -14.621 153.676  -0.517  14.572 152.262
 Approx polarizability: 347.336 -23.161 260.890  -3.070  27.066 251.787
 Calling FoFJK, ICntrl=    100127 FMM=F ISym2X=0 I1Cent= 0 IOpClX= 0 NMat=1 NMatS=1 NMatT=0.
 ***** Axes restored to original set *****
 -------------------------------------------------------------------
 Center     Atomic                   Forces (Hartrees/Bohr)
 Number     Number              X              Y              Z
 -------------------------------------------------------------------
      1        6           0.004744423    0.000289466   -0.005481412
      2        6           0.009833346   -0.012123844   -0.002577828
      3        8          -0.017698448    0.007322301    0.001869315
      4        6           0.007755934   -0.080908715   -0.004217464
      5        8           0.013899743    0.021128574    0.002207779
      6        7          -0.009881980    0.041145075    0.008603237
      7        7           0.002691071   -0.043415212    0.001641573
      8        6          -0.016256104    0.072075171    0.001177234
      9        8           0.024781977   -0.024636321   -0.010125133
     10        8          -0.012167451    0.007047319   -0.010556325
     11        6           0.001467448    0.008491128    0.007678503
     12        6           0.004858051    0.003719487    0.008973262
     13        6          -0.001365627   -0.000170115    0.000472174
     14        6          -0.000430986    0.000404124   -0.001558356
     15        6           0.001144758    0.000353246    0.004055540
     16        6          -0.000781812   -0.000220865   -0.003112081
     17        6          -0.001053604   -0.000767937    0.001177757
     18        6           0.000228496    0.001906778   -0.000497393
     19        6          -0.001405634    0.000131352    0.001721381
     20        6           0.002474120   -0.000136803   -0.002606708
     21        6          -0.000423113   -0.000786707    0.002218024
     22        6          -0.001088821    0.001015337   -0.000852137
     23        1          -0.002723192    0.005016314    0.003361897
     24        1          -0.002963914    0.006957437    0.000128214
     25        1          -0.001855028   -0.006841730   -0.000151139
     26        1           0.000843639   -0.007944431   -0.002168651
     27        1           0.000722985    0.003490174   -0.000304735
     28        1          -0.000010236   -0.000347849   -0.000651880
     29        1           0.000135159    0.000032304   -0.000214687
     30        1          -0.000123256   -0.000236552   -0.000737323
     31        1          -0.000598775   -0.001167615   -0.000958053
     32        1          -0.002067034   -0.002053741    0.000053214
     33        1          -0.000360806    0.000132130    0.000612936
     34        1          -0.000000499   -0.000097807    0.000001548
     35        1          -0.000622500    0.000013923    0.000497008
     36        1          -0.001702330    0.001184602    0.000320709
 -------------------------------------------------------------------
 Cartesian Forces:  Max     0.080908715 RMS     0.013389842
 FormGI is forming the generalized inverse of G from B-inverse, IUseBI=4.

 GradGradGradGradGradGradGradGradGradGradGradGradGradGradGradGradGradGrad
 Berny optimization.
 Internal  Forces:  Max     0.051172405 RMS     0.008258354
 Search for a local minimum.
 Step number   1 out of a maximum of  180
 All quantities printed in internal units (Hartrees-Bohrs-Radians)
 Mixed Optimization -- RFO/linear search
 Second derivative matrix not updated -- analytic derivatives used.
 ITU=  0
     Eigenvalues ---   -0.00938  -0.00567  -0.00188  -0.00134  -0.00000
     Eigenvalues ---    0.01281   0.01596   0.01600   0.01708   0.01725
     Eigenvalues ---    0.01748   0.01752   0.01797   0.02089   0.02125
     Eigenvalues ---    0.02319   0.02357   0.02427   0.02478   0.02637
     Eigenvalues ---    0.02667   0.02672   0.02762   0.02763   0.02849
     Eigenvalues ---    0.02858   0.06074   0.06246   0.07000   0.07205
     Eigenvalues ---    0.07349   0.09953   0.10347   0.10575   0.11126
     Eigenvalues ---    0.11128   0.11648   0.11667   0.11768   0.12075
     Eigenvalues ---    0.12100   0.12547   0.12548   0.13005   0.13027
     Eigenvalues ---    0.13979   0.14169   0.18397   0.18763   0.19126
     Eigenvalues ---    0.19211   0.19440   0.19465   0.19560   0.20096
     Eigenvalues ---    0.20702   0.23014   0.23120   0.23434   0.24422
     Eigenvalues ---    0.26987   0.27768   0.29086   0.29178   0.29389
     Eigenvalues ---    0.30678   0.31547   0.32655   0.33065   0.33361
     Eigenvalues ---    0.33527   0.34389   0.34934   0.35455   0.35569
     Eigenvalues ---    0.35775   0.35861   0.35925   0.35949   0.36040
     Eigenvalues ---    0.36060   0.36143   0.36184   0.37071   0.39270
     Eigenvalues ---    0.41591   0.41675   0.42117   0.43357   0.46765
     Eigenvalues ---    0.47328   0.47371   0.47417   0.48515   0.50676
     Eigenvalues ---    0.51352   0.51402   0.52025   0.63698   0.78644
     Eigenvalues ---    0.79419   0.82074
 RFO step:  Lambda=-2.94904469D-02 EMin=-9.37635886D-03
 Linear search not attempted -- first point.
 Iteration  1 RMS(Cart)=  0.28380859 RMS(Int)=  0.04563104
 Iteration  2 RMS(Cart)=  0.29679908 RMS(Int)=  0.02337184
 Iteration  3 RMS(Cart)=  0.17744215 RMS(Int)=  0.00586772
 Iteration  4 RMS(Cart)=  0.01509360 RMS(Int)=  0.00043263
[...]
    97    N    7  py     Val( 2p)     1.24028
    98    N    7  py     Ryd( 3p)     0.00434
    99    N    7  pz     Val( 2p)     1.40763
   100    N    7  pz     Ryd( 3p)     0.00449
   101    N    7  dxy    Ryd( 3d)     0.00157
   102    N    7  dxz    Ryd( 3d)     0.00090
   103    N    7  dyz    Ryd( 3d)     0.00218
   104    N    7  dx2y2  Ryd( 3d)     0.00212
   105    N    7  dz2    Ryd( 3d)     0.00093
 
   106    C    8  S      Cor( 1S)     1.99950
   107    C    8  S      Val( 2S)     0.73042
   108    C    8  S      Ryd( 3S)     0.00399
   109    C    8  S      Ryd( 4S)     0.00046
   110    C    8  px     Val( 2p)     0.79635
   111    C    8  px     Ryd( 3p)     0.00614
   112    C    8  py     Val( 2p)     0.78940
   113    C    8  py     Ryd( 3p)     0.00400
   114    C    8  pz     Val( 2p)     0.71538
   115    C    8  pz     Ryd( 3p)     0.02339
   116    C    8  dxy    Ryd( 3d)     0.00148
   117    C    8  dxz    Ryd( 3d)     0.00404
   118    C    8  dyz    Ryd( 3d)     0.00302
   119    C    8  dx2y2  Ryd( 3d)     0.00121
   120    C    8  dz2    Ryd( 3d)     0.00258
 
   121    O    9  S      Cor( 1S)     1.99977
   122    O    9  S      Val( 2S)     1.70706
   123    O    9  S      Ryd( 3S)     0.00088
   124    O    9  S      Ryd( 4S)     0.00013
   125    O    9  px     Val( 2p)     1.74701
   126    O    9  px     Ryd( 3p)     0.00137
   127    O    9  py     Val( 2p)     1.48239
   128    O    9  py     Ryd( 3p)     0.00077
   129    O    9  pz     Val( 2p)     1.60232
   130    O    9  pz     Ryd( 3p)     0.00050
   131    O    9  dxy    Ryd( 3d)     0.00049
   132    O    9  dxz    Ryd( 3d)     0.00513
   133    O    9  dyz    Ryd( 3d)     0.00487
   134    O    9  dx2y2  Ryd( 3d)     0.00038
   135    O    9  dz2    Ryd( 3d)     0.00614
 
   136    O   10  S      Cor( 1S)     1.99973
   137    O   10  S      Val( 2S)     1.62920
   138    O   10  S      Ryd( 3S)     0.00200
   139    O   10  S      Ryd( 4S)     0.00010
   140    O   10  px     Val( 2p)     1.42897
   141    O   10  px     Ryd( 3p)     0.00097
   142    O   10  py     Val( 2p)     1.76535
   143    O   10  py     Ryd( 3p)     0.00181
   144    O   10  pz     Val( 2p)     1.68746
   145    O   10  pz     Ryd( 3p)     0.00150
   146    O   10  dxy    Ryd( 3d)     0.00029
   147    O   10  dxz    Ryd( 3d)     0.00154
   148    O   10  dyz    Ryd( 3d)     0.00200
   149    O   10  dx2y2  Ryd( 3d)     0.00059
   150    O   10  dz2    Ryd( 3d)     0.00147
 
   151    C   11  S      Cor( 1S)     1.99912
   152    C   11  S      Val( 2S)     1.03265
   153    C   11  S      Ryd( 3S)     0.00119
   154    C   11  S      Ryd( 4S)     0.00005
   155    C   11  px     Val( 2p)     0.71422
   156    C   11  px     Ryd( 3p)     0.00285
   157    C   11  py     Val( 2p)     1.10632
   158    C   11  py     Ryd( 3p)     0.00136
   159    C   11  pz     Val( 2p)     1.25200
   160    C   11  pz     Ryd( 3p)     0.00758
   161    C   11  dxy    Ryd( 3d)     0.00127
   162    C   11  dxz    Ryd( 3d)     0.00110
   163    C   11  dyz    Ryd( 3d)     0.00098
   164    C   11  dx2y2  Ryd( 3d)     0.00170
   165    C   11  dz2    Ryd( 3d)     0.00106
 
   166    C   12  S      Cor( 1S)     1.99901
   167    C   12  S      Val( 2S)     0.88903
   168    C   12  S      Ryd( 3S)     0.00070
   169    C   12  S      Ryd( 4S)     0.00006
   170    C   12  px     Val( 2p)     1.03088
   171    C   12  px     Ryd( 3p)     0.00191
   172    C   12  py     Val( 2p)     1.06138
   173    C   12  py     Ryd( 3p)     0.00460
   174    C   12  pz     Val( 2p)     1.09647
   175    C   12  pz     Ryd( 3p)     0.00443
   176    C   12  dxy    Ryd( 3d)     0.00036
   177    C   12  dxz    Ryd( 3d)     0.00057
   178    C   12  dyz    Ryd( 3d)     0.00075
   179    C   12  dx2y2  Ryd( 3d)     0.00053
   180    C   12  dz2    Ryd( 3d)     0.00060
 
   181    C   13  S      Cor( 1S)     1.99903
   182    C   13  S      Val( 2S)     0.95420
   183    C   13  S      Ryd( 3S)     0.00062
   184    C   13  S      Ryd( 4S)     0.00005
   185    C   13  px     Val( 2p)     0.99057
   186    C   13  px     Ryd( 3p)     0.00080
   187    C   13  py     Val( 2p)     1.08082
   188    C   13  py     Ryd( 3p)     0.00393
   189    C   13  pz     Val( 2p)     1.17394
   190    C   13  pz     Ryd( 3p)     0.00500
   191    C   13  dxy    Ryd( 3d)     0.00048
   192    C   13  dxz    Ryd( 3d)     0.00035
   193    C   13  dyz    Ryd( 3d)     0.00076
   194    C   13  dx2y2  Ryd( 3d)     0.00043
   195    C   13  dz2    Ryd( 3d)     0.00076
 
   196    C   14  S      Cor( 1S)     1.99910
   197    C   14  S      Val( 2S)     0.96157
   198    C   14  S      Ryd( 3S)     0.00058
   199    C   14  S      Ryd( 4S)     0.00003
   200    C   14  px     Val( 2p)     1.00606
   201    C   14  px     Ryd( 3p)     0.00089
   202    C   14  py     Val( 2p)     1.10175
   203    C   14  py     Ryd( 3p)     0.00452
   204    C   14  pz     Val( 2p)     1.14827
   205    C   14  pz     Ryd( 3p)     0.00505
   206    C   14  dxy    Ryd( 3d)     0.00045
   207    C   14  dxz    Ryd( 3d)     0.00044
   208    C   14  dyz    Ryd( 3d)     0.00082
   209    C   14  dx2y2  Ryd( 3d)     0.00043
   210    C   14  dz2    Ryd( 3d)     0.00062
 
   211    C   15  S      Cor( 1S)     1.99910
   212    C   15  S      Val( 2S)     0.96502
   213    C   15  S      Ryd( 3S)     0.00053
   214    C   15  S      Ryd( 4S)     0.00003
   215    C   15  px     Val( 2p)     0.99730
   216    C   15  px     Ryd( 3p)     0.00090
   217    C   15  py     Val( 2p)     1.18275
   218    C   15  py     Ryd( 3p)     0.00486
   219    C   15  pz     Val( 2p)     1.06517
   220    C   15  pz     Ryd( 3p)     0.00436
   221    C   15  dxy    Ryd( 3d)     0.00041
   222    C   15  dxz    Ryd( 3d)     0.00052
   223    C   15  dyz    Ryd( 3d)     0.00063
   224    C   15  dx2y2  Ryd( 3d)     0.00061
   225    C   15  dz2    Ryd( 3d)     0.00062
 
   226    C   16  S      Cor( 1S)     1.99910
   227    C   16  S      Val( 2S)     0.96236
   228    C   16  S      Ryd( 3S)     0.00058
   229    C   16  S      Ryd( 4S)     0.00003
   230    C   16  px     Val( 2p)     0.99778
   231    C   16  px     Ryd( 3p)     0.00084
   232    C   16  py     Val( 2p)     1.07643
   233    C   16  py     Ryd( 3p)     0.00440
   234    C   16  pz     Val( 2p)     1.17961
   235    C   16  pz     Ryd( 3p)     0.00522
   236    C   16  dxy    Ryd( 3d)     0.00046
   237    C   16  dxz    Ryd( 3d)     0.00037
   238    C   16  dyz    Ryd( 3d)     0.00073
   239    C   16  dx2y2  Ryd( 3d)     0.00043
   240    C   16  dz2    Ryd( 3d)     0.00078
 
   241    C   17  S      Cor( 1S)     1.99903
   242    C   17  S      Val( 2S)     0.95732
   243    C   17  S      Ryd( 3S)     0.00062
   244    C   17  S      Ryd( 4S)     0.00004
   245    C   17  px     Val( 2p)     0.98582
   246    C   17  px     Ryd( 3p)     0.00092
   247    C   17  py     Val( 2p)     1.10916
   248    C   17  py     Ryd( 3p)     0.00424
   249    C   17  pz     Val( 2p)     1.14701
   250    C   17  pz     Ryd( 3p)     0.00474
   251    C   17  dxy    Ryd( 3d)     0.00047
   252    C   17  dxz    Ryd( 3d)     0.00044
   253    C   17  dyz    Ryd( 3d)     0.00084
   254    C   17  dx2y2  Ryd( 3d)     0.00044
   255    C   17  dz2    Ryd( 3d)     0.00061
 
   256    C   18  S      Cor( 1S)     1.99903
   257    C   18  S      Val( 2S)     0.95446
   258    C   18  S      Ryd( 3S)     0.00062
   259    C   18  S      Ryd( 4S)     0.00005
   260    C   18  px     Val( 2p)     1.00294
   261    C   18  px     Ryd( 3p)     0.00132
   262    C   18  py     Val( 2p)     1.07498
   263    C   18  py     Ryd( 3p)     0.00351
   264    C   18  pz     Val( 2p)     1.16644
   265    C   18  pz     Ryd( 3p)     0.00491
   266    C   18  dxy    Ryd( 3d)     0.00043
   267    C   18  dxz    Ryd( 3d)     0.00041
   268    C   18  dyz    Ryd( 3d)     0.00075
   269    C   18  dx2y2  Ryd( 3d)     0.00048
   270    C   18  dz2    Ryd( 3d)     0.00071
 
   271    C   19  S      Cor( 1S)     1.99910
   272    C   19  S      Val( 2S)     0.96186
   273    C   19  S      Ryd( 3S)     0.00058
   274    C   19  S      Ryd( 4S)     0.00003
   275    C   19  px     Val( 2p)     1.02254
   276    C   19  px     Ryd( 3p)     0.00147
   277    C   19  py     Val( 2p)     1.07676
   278    C   19  py     Ryd( 3p)     0.00391
   279    C   19  pz     Val( 2p)     1.15619
   280    C   19  pz     Ryd( 3p)     0.00508
   281    C   19  dxy    Ryd( 3d)     0.00045
   282    C   19  dxz    Ryd( 3d)     0.00051
   283    C   19  dyz    Ryd( 3d)     0.00072
   284    C   19  dx2y2  Ryd( 3d)     0.00043
   285    C   19  dz2    Ryd( 3d)     0.00065
 
   286    C   20  S      Cor( 1S)     1.99910
   287    C   20  S      Val( 2S)     0.96535
   288    C   20  S      Ryd( 3S)     0.00053
   289    C   20  S      Ryd( 4S)     0.00003
   290    C   20  px     Val( 2p)     1.02534
   291    C   20  px     Ryd( 3p)     0.00152
   292    C   20  py     Val( 2p)     1.15514
   293    C   20  py     Ryd( 3p)     0.00426
   294    C   20  pz     Val( 2p)     1.06292
   295    C   20  pz     Ryd( 3p)     0.00433
   296    C   20  dxy    Ryd( 3d)     0.00056
   297    C   20  dxz    Ryd( 3d)     0.00054
   298    C   20  dyz    Ryd( 3d)     0.00060
   299    C   20  dx2y2  Ryd( 3d)     0.00046
   300    C   20  dz2    Ryd( 3d)     0.00063
 
   301    C   21  S      Cor( 1S)     1.99910
   302    C   21  S      Val( 2S)     0.96251
   303    C   21  S      Ryd( 3S)     0.00058
   304    C   21  S      Ryd( 4S)     0.00003
   305    C   21  px     Val( 2p)     1.00897
   306    C   21  px     Ryd( 3p)     0.00139
   307    C   21  py     Val( 2p)     1.07203
   308    C   21  py     Ryd( 3p)     0.00391
   309    C   21  pz     Val( 2p)     1.17277
   310    C   21  pz     Ryd( 3p)     0.00518
   311    C   21  dxy    Ryd( 3d)     0.00042
   312    C   21  dxz    Ryd( 3d)     0.00042
   313    C   21  dyz    Ryd( 3d)     0.00072
   314    C   21  dx2y2  Ryd( 3d)     0.00046
   315    C   21  dz2    Ryd( 3d)     0.00074
 
   316    C   22  S      Cor( 1S)     1.99903
   317    C   22  S      Val( 2S)     0.95753
   318    C   22  S      Ryd( 3S)     0.00062
   319    C   22  S      Ryd( 4S)     0.00004
   320    C   22  px     Val( 2p)     1.00668
   321    C   22  px     Ryd( 3p)     0.00154
   322    C   22  py     Val( 2p)     1.07911
   323    C   22  py     Ryd( 3p)     0.00359
   324    C   22  pz     Val( 2p)     1.15563
   325    C   22  pz     Ryd( 3p)     0.00480
   326    C   22  dxy    Ryd( 3d)     0.00046
   327    C   22  dxz    Ryd( 3d)     0.00051
   328    C   22  dyz    Ryd( 3d)     0.00074
   329    C   22  dx2y2  Ryd( 3d)     0.00044
   330    C   22  dz2    Ryd( 3d)     0.00064
 
   331    H   23  S      Val( 1S)     0.75701
   332    H   23  S      Ryd( 2S)     0.00119
 
   333    H   24  S      Val( 1S)     0.75508
   334    H   24  S      Ryd( 2S)     0.00215
 
   335    H   25  S      Val( 1S)     0.75581
   336    H   25  S      Ryd( 2S)     0.00222
 
   337    H   26  S      Val( 1S)     0.75750
   338    H   26  S      Ryd( 2S)     0.00114
 
   339    H   27  S      Val( 1S)     0.76197
   340    H   27  S      Ryd( 2S)     0.00106
 
   341    H   28  S      Val( 1S)     0.75979
   342    H   28  S      Ryd( 2S)     0.00085
 
   343    H   29  S      Val( 1S)     0.76070
   344    H   29  S      Ryd( 2S)     0.00082
 
   345    H   30  S      Val( 1S)     0.75898
   346    H   30  S      Ryd( 2S)     0.00084
 
   347    H   31  S      Val( 1S)     0.74690
   348    H   31  S      Ryd( 2S)     0.00135
 
   349    H   32  S      Val( 1S)     0.76124
   350    H   32  S      Ryd( 2S)     0.00106
 
   351    H   33  S      Val( 1S)     0.75922
   352    H   33  S      Ryd( 2S)     0.00084
 
   353    H   34  S      Val( 1S)     0.76011
   354    H   34  S      Ryd( 2S)     0.00082
 
   355    H   35  S      Val( 1S)     0.75837
   356    H   35  S      Ryd( 2S)     0.00083
 
   357    H   36  S      Val( 1S)     0.74713
   358    H   36  S      Ryd( 2S)     0.00141


 Summary of Natural Population Analysis:                  
                                                          
                                       Natural Population 
                Natural  -----------------------------------------------
    Atom  No    Charge         Core      Valence    Rydberg      Total
 -----------------------------------------------------------------------
      C    1   -0.09157      1.99901     4.07803    0.01454     6.09157
      C    2   -0.12515      1.99912     4.10703    0.01900     6.12515
      O    3   -0.52048      1.99973     6.50840    0.01235     8.52048
      C    4    0.92284      1.99950     3.02710    0.05055     5.07716
      O    5   -0.55197      1.99977     6.53156    0.02064     8.55197
      N    6   -0.21244      1.99938     5.18688    0.02618     7.21244
      N    7   -0.21743      1.99938     5.19163    0.02641     7.21743
      C    8    0.91862      1.99950     3.03156    0.05032     5.08138
      O    9   -0.55922      1.99977     6.53878    0.02066     8.55922
      O   10   -0.52298      1.99973     6.51098    0.01228     8.52298
      C   11   -0.12342      1.99912     4.10518    0.01912     6.12342
      C   12   -0.09127      1.99901     4.07776    0.01450     6.09127
      C   13   -0.21173      1.99903     4.19953    0.01317     6.21173
      C   14   -0.23057      1.99910     4.21764    0.01383     6.23057
      C   15   -0.22282      1.99910     4.21025    0.01347     6.22282
      C   16   -0.22911      1.99910     4.21618    0.01383     6.22911
      C   17   -0.21170      1.99903     4.19931    0.01335     6.21170
      C   18   -0.21102      1.99903     4.19881    0.01318     6.21102
      C   19   -0.23028      1.99910     4.21734    0.01384     6.23028
      C   20   -0.22132      1.99910     4.20875    0.01347     6.22132
      C   21   -0.22924      1.99910     4.21628    0.01386     6.22924
      C   22   -0.21137      1.99903     4.19895    0.01339     6.21137
      H   23    0.24180      0.00000     0.75701    0.00119     0.75820
      H   24    0.24277      0.00000     0.75508    0.00215     0.75723
      H   25    0.24198      0.00000     0.75581    0.00222     0.75802
      H   26    0.24135      0.00000     0.75750    0.00114     0.75865
      H   27    0.23698      0.00000     0.76197    0.00106     0.76302
      H   28    0.23936      0.00000     0.75979    0.00085     0.76064
      H   29    0.23847      0.00000     0.76070    0.00082     0.76153
      H   30    0.24019      0.00000     0.75898    0.00084     0.75981
      H   31    0.25175      0.00000     0.74690    0.00135     0.74825
      H   32    0.23770      0.00000     0.76124    0.00106     0.76230
      H   33    0.23994      0.00000     0.75922    0.00084     0.76006
      H   34    0.23907      0.00000     0.76011    0.00082     0.76093
      H   35    0.24080      0.00000     0.75837    0.00083     0.75920
      H   36    0.25146      0.00000     0.74713    0.00141     0.74854
 =======================================================================
   * Total *   -0.00000     43.98374   111.57773    0.43853   156.00000

                                 Natural Population      
 --------------------------------------------------------
   Core                      43.98374 ( 99.9630% of  44)
   Valence                  111.57773 ( 99.6230% of 112)
   Natural Minimal Basis    155.56147 ( 99.7189% of 156)
   Natural Rydberg Basis      0.43853 (  0.2811% of 156)
 --------------------------------------------------------

    Atom  No          Natural Electron Configuration
 ----------------------------------------------------------------------------
      C    1      [core]2S( 0.89)2p( 3.19)3p( 0.01)
      C    2      [core]2S( 1.03)2p( 3.07)3p( 0.01)3d( 0.01)
      O    3      [core]2S( 1.63)2p( 4.88)3d( 0.01)
      C    4      [core]2S( 0.73)2p( 2.30)3p( 0.03)3d( 0.01)
      O    5      [core]2S( 1.71)2p( 4.82)3d( 0.02)
      N    6      [core]2S( 1.39)2p( 3.80)3S( 0.01)3p( 0.01)3d( 0.01)
      N    7      [core]2S( 1.39)2p( 3.80)3S( 0.01)3p( 0.01)3d( 0.01)
      C    8      [core]2S( 0.73)2p( 2.30)3p( 0.03)3d( 0.01)
      O    9      [core]2S( 1.71)2p( 4.83)3d( 0.02)
      O   10      [core]2S( 1.63)2p( 4.88)3d( 0.01)
      C   11      [core]2S( 1.03)2p( 3.07)3p( 0.01)3d( 0.01)
      C   12      [core]2S( 0.89)2p( 3.19)3p( 0.01)
      C   13      [core]2S( 0.95)2p( 3.25)3p( 0.01)
      C   14      [core]2S( 0.96)2p( 3.26)3p( 0.01)
      C   15      [core]2S( 0.97)2p( 3.25)3p( 0.01)
      C   16      [core]2S( 0.96)2p( 3.25)3p( 0.01)
      C   17      [core]2S( 0.96)2p( 3.24)3p( 0.01)
      C   18      [core]2S( 0.95)2p( 3.24)3p( 0.01)
      C   19      [core]2S( 0.96)2p( 3.26)3p( 0.01)
      C   20      [core]2S( 0.97)2p( 3.24)3p( 0.01)
      C   21      [core]2S( 0.96)2p( 3.25)3p( 0.01)
      C   22      [core]2S( 0.96)2p( 3.24)3p( 0.01)
      H   23            1S( 0.76)
      H   24            1S( 0.76)
      H   25            1S( 0.76)
      H   26            1S( 0.76)
      H   27            1S( 0.76)
      H   28            1S( 0.76)
      H   29            1S( 0.76)
      H   30            1S( 0.76)
      H   31            1S( 0.75)
      H   32            1S( 0.76)
      H   33            1S( 0.76)
      H   34            1S( 0.76)
      H   35            1S( 0.76)
      H   36            1S( 0.75)


 NBO analysis skipped by request.
 1\1\GINC-DELLA-R2C1N9\SP\RB3LYP TD-FC\6-31G(d)\C16H14N2O4\BJS4\22-Aug-
 2020\0\\# TD(NStates=10, Root=1) B3LYP/6-31G* scf=qc volume pop=NPA de
 nsity=current Geom=AllCheck Guess=Read\\Title Card Required\\0,1\C,0,-
 2.3705001707,-0.5375561617,-1.0389514498\C,0,-3.8622764478,-0.64755801
 72,-0.8715811088\O,0,-4.4460957558,0.6068863597,-0.379910469\C,0,-4.83
 05981042,1.4818716446,-1.3040661615\O,0,-4.7819191898,1.3762850628,-2.
 504703667\N,0,-5.247645016,2.7182644404,-0.6749627163\N,0,-6.421088120
 4,2.6809135337,-0.2598023733\C,0,-6.8387787788,3.9197426047,0.36617548
 33\O,0,-7.0359864601,3.9754762138,1.5551079478\O,0,-7.0589991091,4.855
 7349772,-0.5522661945\C,0,-7.6093610031,6.1267707727,-0.0664231771\C,0
 ,-6.5220383689,7.1040107115,0.2919514855\C,0,-5.9977792521,7.96213304,
 -0.6828485907\C,0,-4.9848186285,8.8650040128,-0.360947352\C,0,-4.48697
 49368,8.9178808671,0.9425304508\C,0,-5.003971097,8.0655623093,1.920463
 8864\C,0,-6.0165240229,7.1621834693,1.5977754636\C,0,-1.5184647743,-0.
 8136298287,0.0379449448\C,0,-0.1357181199,-0.7042123088,-0.1065708701\
 C,0,0.4082600605,-0.3173135238,-1.3330923995\C,0,-0.4339667624,-0.0399
 163685,-2.4118314096\C,0,-1.8169775007,-0.1489832804,-2.2665876469\H,0
 ,-4.1292341538,-1.3676632658,-0.0965665698\H,0,-4.3606244701,-0.908554
 3414,-1.8065377455\H,0,-8.2582142451,5.908796297,0.7839282423\H,0,-8.2
 065933556,6.480389942,-0.9084335001\H,0,-6.3860488172,7.9219534061,-1.
 6980337718\H,0,-4.5867371978,9.5273391584,-1.1248328568\H,0,-3.6994350
 255,9.6226553177,1.1957459368\H,0,-4.6194121271,8.1047167497,2.9359866
 87\H,0,-6.4132543276,6.4901500426,2.3531022216\H,0,-1.9417212284,-1.11
 65844845,0.9929814995\H,0,0.5158758117,-0.9232069968,0.7349577008\H,0,
 1.4857036998,-0.2343020758,-1.4482399206\H,0,-0.0139785276,0.260364437
 3,-3.367934934\H,0,-2.4754344769,0.0761752831,-3.1004470657\\Version=E
 S64L-G16RevA.03\State=1-A\HF=-1028.4826391\RMSD=2.193e-09\Dipole=0.701
 7915,0.1950426,-0.0010716\Quadrupole=0.8067447,8.9146542,-9.7213989,-6
 .5422053,1.711203,-1.1088813\PG=C01 [X(C16H14N2O4)]\\@


 EXPERIENCE IS A WONDERFUL THING.  IT ENABLES
 YOU TO RECOGNIZE A MISTAKE WHEN YOU MAKE IT AGAIN.
           - BACK OF A SUGAR PACKET
 Job cpu time:       0 days  0 hours 44 minutes 50.4 seconds.
 Elapsed time:       0 days  0 hours  8 minutes 59.7 seconds.
 File lengths (MBytes):  RWF=   1047 Int=      0 D2E=      0 Chk=    268 Scr=      1
 Normal termination of Gaussian 16 at Sat Aug 22 16:46:43 2020.
