 Entering Gaussian System, Link 0=g16
 Input=azadicarboxylate_3_conf10123.com
 Output=azadicarboxylate_3_conf10123.log
 Initial command:
 /opt/export//g16/l1.exe "/scratch/bjs4/job.174660/Gau-174662.inp" -scrdir="/scratch/bjs4/job.174660/"
 Entering Link 1 = /opt/export//g16/l1.exe PID=    174663.
  
 Copyright (c) 1988,1990,1992,1993,1995,1998,2003,2009,2016,
            Gaussian, Inc.  All Rights Reserved.
  
 This is part of the Gaussian(R) 16 program.  It is based on
 the Gaussian(R) 09 system (copyright 2009, Gaussian, Inc.),
 the Gaussian(R) 03 system (copyright 2003, Gaussian, Inc.),
 the Gaussian(R) 98 system (copyright 1998, Gaussian, Inc.),
 the Gaussian(R) 94 system (copyright 1995, Gaussian, Inc.),
 the Gaussian 92(TM) system (copyright 1992, Gaussian, Inc.),
 the Gaussian 90(TM) system (copyright 1990, Gaussian, Inc.),
 the Gaussian 88(TM) system (copyright 1988, Gaussian, Inc.),
 the Gaussian 86(TM) system (copyright 1986, Carnegie Mellon
 University), and the Gaussian 82(TM) system (copyright 1983,
 Carnegie Mellon University). Gaussian is a federally registered
 trademark of Gaussian, Inc.
  
 This software contains proprietary and confidential information,
 including trade secrets, belonging to Gaussian, Inc.
  
 This software is provided under written license and may be
 used, copied, transmitted, or stored only in accord with that
 written license.
  
 The following legend is applicable only to US Government
 contracts under FAR:
  
                    RESTRICTED RIGHTS LEGEND
  
 Use, reproduction and disclosure by the US Government is
 subject to restrictions as set forth in subparagraphs (a)
 and (c) of the Commercial Computer Software - Restricted
 Rights clause in FAR 52.227-19.
  
 Gaussian, Inc.
 340 Quinnipiac St., Bldg. 40, Wallingford CT 06492
  
  
 ---------------------------------------------------------------
 Warning -- This program may not be used in any manner that
 competes with the business of Gaussian, Inc. or will provide
 assistance to any competitor of Gaussian, Inc.  The licensee
 of this program is prohibited from giving any competitor of
 Gaussian, Inc. access to this program.  By using this program,
 the user acknowledges that Gaussian, Inc. is engaged in the
 business of creating and licensing software in the field of
 computational chemistry and represents and warrants to the
 licensee that it is not a competitor of Gaussian, Inc. and that
 it will not use this program in any manner prohibited above.
 ---------------------------------------------------------------
  

 Cite this work as:
 Gaussian 16, Revision A.03,
 M. J. Frisch, G. W. Trucks, H. B. Schlegel, G. E. Scuseria, 
 M. A. Robb, J. R. Cheeseman, G. Scalmani, V. Barone, 
 G. A. Petersson, H. Nakatsuji, X. Li, M. Caricato, A. V. Marenich, 
 J. Bloino, B. G. Janesko, R. Gomperts, B. Mennucci, H. P. Hratchian, 
 J. V. Ortiz, A. F. Izmaylov, J. L. Sonnenberg, D. Williams-Young, 
 F. Ding, F. Lipparini, F. Egidi, J. Goings, B. Peng, A. Petrone, 
 T. Henderson, D. Ranasinghe, V. G. Zakrzewski, J. Gao, N. Rega, 
 G. Zheng, W. Liang, M. Hada, M. Ehara, K. Toyota, R. Fukuda, 
 J. Hasegawa, M. Ishida, T. Nakajima, Y. Honda, O. Kitao, H. Nakai, 
 T. Vreven, K. Throssell, J. A. Montgomery, Jr., J. E. Peralta, 
 F. Ogliaro, M. J. Bearpark, J. J. Heyd, E. N. Brothers, K. N. Kudin, 
 V. N. Staroverov, T. A. Keith, R. Kobayashi, J. Normand, 
 K. Raghavachari, A. P. Rendell, J. C. Burant, S. S. Iyengar, 
 J. Tomasi, M. Cossi, J. M. Millam, M. Klene, C. Adamo, R. Cammi, 
 J. W. Ochterski, R. L. Martin, K. Morokuma, O. Farkas, 
 J. B. Foresman, and D. J. Fox, Gaussian, Inc., Wallingford CT, 2016.
 
 ******************************************
 Gaussian 16:  ES64L-G16RevA.03 25-Dec-2016
                22-Aug-2020 
 ******************************************
 %nprocshared=5
 Will use up to    5 processors via shared memory.
 %Mem=10GB
 %Chk=azadicarboxylate_3_conf101.chk
 ---------------------------------
 # opt=CalcAll B3LYP/6-31G* scf=qc
 ---------------------------------
 1/10=4,18=20,19=15,26=3,38=1/1,3;
 2/9=110,12=2,17=6,18=5,40=1/2;
 3/5=1,6=6,7=1,11=2,25=1,30=1,71=2,74=-5,140=1/1,2,3;
 4//1;
 5/5=2,8=3,38=5/8;
 8/6=4,10=90,11=11/1;
 11/6=1,8=1,9=11,15=111,16=1/1,2,10;
 10/6=1/2;
 6/7=2,8=2,9=2,10=2,18=1,28=1/1;
 7/10=1,25=1/1,2,3,16;
 1/10=4,18=20,19=15,26=3/3(3);
 2/9=110/2;
 7/8=1,9=1,25=1,44=-1/16;
 99//99;
 2/9=110/2;
 3/5=1,6=6,7=1,11=2,25=1,30=1,71=2,74=-5,140=1/1,2,3;
 4/5=5,16=3,69=1/1;
 5/5=2,8=3,38=5/8;
 8/6=4,10=90,11=11/1;
 11/6=1,8=1,9=11,15=111,16=1/1,2,10;
 10/6=1/2;
 7/10=1,25=1/1,2,3,16;
 1/10=4,18=20,19=15,26=3/3(-8);
 2/9=110/2;
 6/7=2,8=2,9=2,10=2,18=1,19=2,28=1/1;
 7/8=1,9=1,25=1,44=-1/16;
 99//99;
 -------------------
 Title Card Required
 -------------------
 Symbolic Z-matrix:
 Charge =  0 Multiplicity = 1
 C                    -4.34375  -1.00602   1.17637 
 C                    -3.33858  -0.06653   0.54697 
 O1                   -3.88531   1.2542    0.43219 
 C2                   -5.0041    1.3932   -0.331 
 O3                   -5.55839   0.46837  -0.91564 
 N4                   -5.404     2.7122   -0.3088 
 N5                   -6.6449    2.8402   -0.4308 
 C6                   -7.0458    4.1568   -0.3655 
 O7                   -6.49846   5.05974   0.25758 
 O8                   -8.18479   4.31423  -1.09426 
 C                    -8.76148   5.62718  -1.11936 
 C                    -8.82417   6.15307  -2.53634 
 C                    -9.83185   7.04028  -2.9457 
 C                    -9.87273   7.51439  -4.25991 
 C                    -8.89536   7.11986  -5.16981 
 C                    -7.86716   6.26928  -4.77212 
 C                    -7.82864   5.79245  -3.45873 
 Cl                   -8.95883   7.68458  -6.79366 
 C                    -4.36795  -2.37335   0.86008 
 C                    -5.30455  -3.22501   1.45298 
 C                    -6.21196  -2.71944   2.38049 
 C                    -6.17918  -1.37294   2.73348 
 C                    -5.24478  -0.521     2.13808 
 Cl                   -7.38004  -3.76259   3.09283 
 H                    -3.11536  -0.42169  -0.46542 
 H                    -2.40202  -0.08667   1.11522 
 H                    -8.22141   6.33602  -0.48248 
 H                    -9.78248   5.5474   -0.73001 
 H                    -10.60016   7.36311  -2.24536 
 H                    -10.66994   8.18675  -4.56564 
 H                    -7.09661   5.97041  -5.47792 
 H                    -7.01715   5.1293   -3.1642 
 H                    -3.66194  -2.78565   0.14141 
 H                    -5.32174  -4.27803   1.18421 
 H                    -6.8786   -0.97932   3.46647 
 H                    -5.23193   0.52846   2.42681 
 

 GradGradGradGradGradGradGradGradGradGradGradGradGradGradGradGradGradGrad
 Berny optimization.
 Initialization pass.
                           ----------------------------
                           !    Initial Parameters    !
                           ! (Angstroms and Degrees)  !
 --------------------------                            --------------------------
 ! Name  Definition              Value          Derivative Info.                !
 --------------------------------------------------------------------------------
 ! R1    R(1,2)                  1.513          calculate D2E/DX2 analytically  !
 ! R2    R(1,19)                 1.4036         calculate D2E/DX2 analytically  !
 ! R3    R(1,23)                 1.4043         calculate D2E/DX2 analytically  !
 ! R4    R(2,3)                  1.434          calculate D2E/DX2 analytically  !
 ! R5    R(2,25)                 1.0959         calculate D2E/DX2 analytically  !
 ! R6    R(2,26)                 1.0957         calculate D2E/DX2 analytically  !
 ! R7    R(3,4)                  1.3614         calculate D2E/DX2 analytically  !
 ! R8    R(4,5)                  1.2265         calculate D2E/DX2 analytically  !
 ! R9    R(4,6)                  1.3785         calculate D2E/DX2 analytically  !
 ! R10   R(6,7)                  1.2534         calculate D2E/DX2 analytically  !
 ! R11   R(7,8)                  1.3778         calculate D2E/DX2 analytically  !
 ! R12   R(8,9)                  1.226          calculate D2E/DX2 analytically  !
 ! R13   R(8,10)                 1.3613         calculate D2E/DX2 analytically  !
 ! R14   R(10,11)                1.4342         calculate D2E/DX2 analytically  !
 ! R15   R(11,12)                1.5127         calculate D2E/DX2 analytically  !
 ! R16   R(11,27)                1.0953         calculate D2E/DX2 analytically  !
 ! R17   R(11,28)                1.0956         calculate D2E/DX2 analytically  !
 ! R18   R(12,13)                1.4036         calculate D2E/DX2 analytically  !
 ! R19   R(12,17)                1.4043         calculate D2E/DX2 analytically  !
 ! R20   R(13,14)                1.3977         calculate D2E/DX2 analytically  !
 ! R21   R(13,29)                1.0886         calculate D2E/DX2 analytically  !
 ! R22   R(14,15)                1.3924         calculate D2E/DX2 analytically  !
 ! R23   R(14,30)                1.0868         calculate D2E/DX2 analytically  !
 ! R24   R(15,16)                1.3924         calculate D2E/DX2 analytically  !
 ! R25   R(15,18)                1.7204         calculate D2E/DX2 analytically  !
 ! R26   R(16,17)                1.3978         calculate D2E/DX2 analytically  !
 ! R27   R(16,31)                1.0868         calculate D2E/DX2 analytically  !
 ! R28   R(17,32)                1.0886         calculate D2E/DX2 analytically  !
 ! R29   R(19,20)                1.3979         calculate D2E/DX2 analytically  !
 ! R30   R(19,33)                1.0885         calculate D2E/DX2 analytically  !
 ! R31   R(20,21)                1.3926         calculate D2E/DX2 analytically  !
 ! R32   R(20,34)                1.0869         calculate D2E/DX2 analytically  !
 ! R33   R(21,22)                1.3924         calculate D2E/DX2 analytically  !
 ! R34   R(21,24)                1.7205         calculate D2E/DX2 analytically  !
 ! R35   R(22,23)                1.3976         calculate D2E/DX2 analytically  !
 ! R36   R(22,35)                1.0869         calculate D2E/DX2 analytically  !
 ! R37   R(23,36)                1.0885         calculate D2E/DX2 analytically  !
 ! A1    A(2,1,19)             121.5067         calculate D2E/DX2 analytically  !
 ! A2    A(2,1,23)             119.7819         calculate D2E/DX2 analytically  !
 ! A3    A(19,1,23)            118.6665         calculate D2E/DX2 analytically  !
 ! A4    A(1,2,3)              110.6034         calculate D2E/DX2 analytically  !
 ! A5    A(1,2,25)             108.5658         calculate D2E/DX2 analytically  !
 ! A6    A(1,2,26)             109.921          calculate D2E/DX2 analytically  !
 ! A7    A(3,2,25)             107.5901         calculate D2E/DX2 analytically  !
 ! A8    A(3,2,26)             112.6027         calculate D2E/DX2 analytically  !
 ! A9    A(25,2,26)            107.4013         calculate D2E/DX2 analytically  !
 ! A10   A(2,3,4)              116.8857         calculate D2E/DX2 analytically  !
 ! A11   A(3,4,5)              124.1668         calculate D2E/DX2 analytically  !
 ! A12   A(3,4,6)              109.091          calculate D2E/DX2 analytically  !
 ! A13   A(5,4,6)              126.7318         calculate D2E/DX2 analytically  !
 ! A14   A(4,6,7)              112.5413         calculate D2E/DX2 analytically  !
 ! A15   A(6,7,8)              112.397          calculate D2E/DX2 analytically  !
 ! A16   A(7,8,9)              126.7227         calculate D2E/DX2 analytically  !
 ! A17   A(7,8,10)             109.1826         calculate D2E/DX2 analytically  !
 ! A18   A(9,8,10)             124.0851         calculate D2E/DX2 analytically  !
 ! A19   A(8,10,11)            116.85           calculate D2E/DX2 analytically  !
 ! A20   A(10,11,12)           110.567          calculate D2E/DX2 analytically  !
 ! A21   A(10,11,27)           112.581          calculate D2E/DX2 analytically  !
 ! A22   A(10,11,28)           107.5671         calculate D2E/DX2 analytically  !
 ! A23   A(12,11,27)           109.8834         calculate D2E/DX2 analytically  !
 ! A24   A(12,11,28)           108.637          calculate D2E/DX2 analytically  !
 ! A25   A(27,11,28)           107.4562         calculate D2E/DX2 analytically  !
 ! A26   A(11,12,13)           121.5124         calculate D2E/DX2 analytically  !
 ! A27   A(11,12,17)           119.7769         calculate D2E/DX2 analytically  !
 ! A28   A(13,12,17)           118.6667         calculate D2E/DX2 analytically  !
 ! A29   A(12,13,14)           120.6391         calculate D2E/DX2 analytically  !
 ! A30   A(12,13,29)           120.4325         calculate D2E/DX2 analytically  !
 ! A31   A(14,13,29)           118.9261         calculate D2E/DX2 analytically  !
 ! A32   A(13,14,15)           119.8538         calculate D2E/DX2 analytically  !
 ! A33   A(13,14,30)           119.7241         calculate D2E/DX2 analytically  !
 ! A34   A(15,14,30)           120.4219         calculate D2E/DX2 analytically  !
 ! A35   A(14,15,16)           120.3157         calculate D2E/DX2 analytically  !
 ! A36   A(14,15,18)           119.8604         calculate D2E/DX2 analytically  !
 ! A37   A(16,15,18)           119.8239         calculate D2E/DX2 analytically  !
 ! A38   A(15,16,17)           119.808          calculate D2E/DX2 analytically  !
 ! A39   A(15,16,31)           120.4            calculate D2E/DX2 analytically  !
 ! A40   A(17,16,31)           119.7914         calculate D2E/DX2 analytically  !
 ! A41   A(12,17,16)           120.667          calculate D2E/DX2 analytically  !
 ! A42   A(12,17,32)           120.4775         calculate D2E/DX2 analytically  !
 ! A43   A(16,17,32)           118.8537         calculate D2E/DX2 analytically  !
 ! A44   A(1,19,20)            120.6283         calculate D2E/DX2 analytically  !
 ! A45   A(1,19,33)            120.4343         calculate D2E/DX2 analytically  !
 ! A46   A(20,19,33)           118.9352         calculate D2E/DX2 analytically  !
 ! A47   A(19,20,21)           119.8607         calculate D2E/DX2 analytically  !
 ! A48   A(19,20,34)           119.7335         calculate D2E/DX2 analytically  !
 ! A49   A(21,20,34)           120.4055         calculate D2E/DX2 analytically  !
 ! A50   A(20,21,22)           120.3043         calculate D2E/DX2 analytically  !
 ! A51   A(20,21,24)           119.8704         calculate D2E/DX2 analytically  !
 ! A52   A(22,21,24)           119.8252         calculate D2E/DX2 analytically  !
 ! A53   A(21,22,23)           119.8155         calculate D2E/DX2 analytically  !
 ! A54   A(21,22,35)           120.3992         calculate D2E/DX2 analytically  !
 ! A55   A(23,22,35)           119.7849         calculate D2E/DX2 analytically  !
 ! A56   A(1,23,22)            120.6758         calculate D2E/DX2 analytically  !
 ! A57   A(1,23,36)            120.4689         calculate D2E/DX2 analytically  !
 ! A58   A(22,23,36)           118.8536         calculate D2E/DX2 analytically  !
 ! D1    D(19,1,2,3)           149.6474         calculate D2E/DX2 analytically  !
 ! D2    D(19,1,2,25)           31.8175         calculate D2E/DX2 analytically  !
 ! D3    D(19,1,2,26)          -85.3944         calculate D2E/DX2 analytically  !
 ! D4    D(23,1,2,3)           -32.8239         calculate D2E/DX2 analytically  !
 ! D5    D(23,1,2,25)         -150.6538         calculate D2E/DX2 analytically  !
 ! D6    D(23,1,2,26)           92.1343         calculate D2E/DX2 analytically  !
 ! D7    D(2,1,19,20)          179.9792         calculate D2E/DX2 analytically  !
 ! D8    D(2,1,19,33)           -0.5616         calculate D2E/DX2 analytically  !
 ! D9    D(23,1,19,20)           2.4237         calculate D2E/DX2 analytically  !
 ! D10   D(23,1,19,33)        -178.1171         calculate D2E/DX2 analytically  !
 ! D11   D(2,1,23,22)         -179.8654         calculate D2E/DX2 analytically  !
 ! D12   D(2,1,23,36)            0.6169         calculate D2E/DX2 analytically  !
 ! D13   D(19,1,23,22)          -2.2667         calculate D2E/DX2 analytically  !
 ! D14   D(19,1,23,36)         178.2156         calculate D2E/DX2 analytically  !
 ! D15   D(1,2,3,4)            -60.7061         calculate D2E/DX2 analytically  !
 ! D16   D(25,2,3,4)            57.7196         calculate D2E/DX2 analytically  !
 ! D17   D(26,2,3,4)           175.8719         calculate D2E/DX2 analytically  !
 ! D18   D(2,3,4,5)             -0.0795         calculate D2E/DX2 analytically  !
 ! D19   D(2,3,4,6)            178.8168         calculate D2E/DX2 analytically  !
 ! D20   D(3,4,6,7)           -149.647          calculate D2E/DX2 analytically  !
 ! D21   D(5,4,6,7)             29.2135         calculate D2E/DX2 analytically  !
 ! D22   D(4,6,7,8)            178.0638         calculate D2E/DX2 analytically  !
 ! D23   D(6,7,8,9)            -29.6471         calculate D2E/DX2 analytically  !
 ! D24   D(6,7,8,10)           151.4486         calculate D2E/DX2 analytically  !
 ! D25   D(7,8,10,11)          178.9395         calculate D2E/DX2 analytically  !
 ! D26   D(9,8,10,11)            0.0            calculate D2E/DX2 analytically  !
 ! D27   D(8,10,11,12)         120.0001         calculate D2E/DX2 analytically  !
 ! D28   D(8,10,11,27)          -3.3301         calculate D2E/DX2 analytically  !
 ! D29   D(8,10,11,28)        -121.5225         calculate D2E/DX2 analytically  !
 ! D30   D(10,11,12,13)        149.6479         calculate D2E/DX2 analytically  !
 ! D31   D(10,11,12,17)        -32.7956         calculate D2E/DX2 analytically  !
 ! D32   D(27,11,12,13)        -85.474          calculate D2E/DX2 analytically  !
 ! D33   D(27,11,12,17)         92.0825         calculate D2E/DX2 analytically  !
 ! D34   D(28,11,12,13)         31.8241         calculate D2E/DX2 analytically  !
 ! D35   D(28,11,12,17)       -150.6194         calculate D2E/DX2 analytically  !
 ! D36   D(11,12,13,14)       -179.9701         calculate D2E/DX2 analytically  !
 ! D37   D(11,12,13,29)         -0.5273         calculate D2E/DX2 analytically  !
 ! D38   D(17,12,13,14)          2.4471         calculate D2E/DX2 analytically  !
 ! D39   D(17,12,13,29)       -178.1102         calculate D2E/DX2 analytically  !
 ! D40   D(11,12,17,16)       -179.8986         calculate D2E/DX2 analytically  !
 ! D41   D(11,12,17,32)          0.5955         calculate D2E/DX2 analytically  !
 ! D42   D(13,12,17,16)         -2.2727         calculate D2E/DX2 analytically  !
 ! D43   D(13,12,17,32)        178.2214         calculate D2E/DX2 analytically  !
 ! D44   D(12,13,14,15)         -0.9086         calculate D2E/DX2 analytically  !
 ! D45   D(12,13,14,30)        178.8985         calculate D2E/DX2 analytically  !
 ! D46   D(29,13,14,15)        179.6404         calculate D2E/DX2 analytically  !
 ! D47   D(29,13,14,30)         -0.5525         calculate D2E/DX2 analytically  !
 ! D48   D(13,14,15,16)         -0.8574         calculate D2E/DX2 analytically  !
 ! D49   D(13,14,15,18)        179.0856         calculate D2E/DX2 analytically  !
 ! D50   D(30,14,15,16)        179.3369         calculate D2E/DX2 analytically  !
 ! D51   D(30,14,15,18)         -0.7201         calculate D2E/DX2 analytically  !
 ! D52   D(14,15,16,17)          1.0305         calculate D2E/DX2 analytically  !
 ! D53   D(14,15,16,31)       -179.2316         calculate D2E/DX2 analytically  !
 ! D54   D(18,15,16,17)       -178.9126         calculate D2E/DX2 analytically  !
 ! D55   D(18,15,16,31)          0.8254         calculate D2E/DX2 analytically  !
 ! D56   D(15,16,17,12)          0.5588         calculate D2E/DX2 analytically  !
 ! D57   D(15,16,17,32)       -179.9274         calculate D2E/DX2 analytically  !
 ! D58   D(31,16,17,12)       -179.1807         calculate D2E/DX2 analytically  !
 ! D59   D(31,16,17,32)          0.3331         calculate D2E/DX2 analytically  !
 ! D60   D(1,19,20,21)          -0.8883         calculate D2E/DX2 analytically  !
 ! D61   D(1,19,20,34)         178.9151         calculate D2E/DX2 analytically  !
 ! D62   D(33,19,20,21)        179.6446         calculate D2E/DX2 analytically  !
 ! D63   D(33,19,20,34)         -0.5521         calculate D2E/DX2 analytically  !
 ! D64   D(19,20,21,22)         -0.8574         calculate D2E/DX2 analytically  !
 ! D65   D(19,20,21,24)        179.0889         calculate D2E/DX2 analytically  !
 ! D66   D(34,20,21,22)        179.3406         calculate D2E/DX2 analytically  !
 ! D67   D(34,20,21,24)         -0.7131         calculate D2E/DX2 analytically  !
 ! D68   D(20,21,22,23)          1.0138         calculate D2E/DX2 analytically  !
 ! D69   D(20,21,22,35)       -179.233          calculate D2E/DX2 analytically  !
 ! D70   D(24,21,22,23)       -178.9325         calculate D2E/DX2 analytically  !
 ! D71   D(24,21,22,35)          0.8207         calculate D2E/DX2 analytically  !
 ! D72   D(21,22,23,1)           0.5723         calculate D2E/DX2 analytically  !
 ! D73   D(21,22,23,36)       -179.9023         calculate D2E/DX2 analytically  !
 ! D74   D(35,22,23,1)        -179.1824         calculate D2E/DX2 analytically  !
 ! D75   D(35,22,23,36)          0.343          calculate D2E/DX2 analytically  !
 --------------------------------------------------------------------------------
 Trust Radius=3.00D-01 FncErr=1.00D-07 GrdErr=1.00D-06 EigMax=2.50D+02 EigMin=1.00D-04
 Number of steps in this run=    180 maximum allowed number of steps=    216.
 GradGradGradGradGradGradGradGradGradGradGradGradGradGradGradGradGradGrad

                          Input orientation:                          
 ---------------------------------------------------------------------
 Center     Atomic      Atomic             Coordinates (Angstroms)
 Number     Number       Type             X           Y           Z
 ---------------------------------------------------------------------
      1          6           0       -4.343750   -1.006020    1.176370
      2          6           0       -3.338580   -0.066530    0.546970
      3          8           0       -3.885310    1.254200    0.432190
      4          6           0       -5.004100    1.393200   -0.331000
      5          8           0       -5.558390    0.468370   -0.915640
      6          7           0       -5.404000    2.712200   -0.308800
      7          7           0       -6.644900    2.840200   -0.430800
      8          6           0       -7.045800    4.156800   -0.365500
      9          8           0       -6.498460    5.059740    0.257580
     10          8           0       -8.184790    4.314230   -1.094260
     11          6           0       -8.761480    5.627180   -1.119360
     12          6           0       -8.824170    6.153070   -2.536340
     13          6           0       -9.831850    7.040280   -2.945700
     14          6           0       -9.872730    7.514390   -4.259910
     15          6           0       -8.895360    7.119860   -5.169810
     16          6           0       -7.867160    6.269280   -4.772120
     17          6           0       -7.828640    5.792450   -3.458730
     18         17           0       -8.958830    7.684580   -6.793660
     19          6           0       -4.367950   -2.373350    0.860080
     20          6           0       -5.304550   -3.225010    1.452980
     21          6           0       -6.211960   -2.719440    2.380490
     22          6           0       -6.179180   -1.372940    2.733480
     23          6           0       -5.244780   -0.521000    2.138080
     24         17           0       -7.380040   -3.762590    3.092830
     25          1           0       -3.115360   -0.421690   -0.465420
     26          1           0       -2.402020   -0.086670    1.115220
     27          1           0       -8.221410    6.336020   -0.482480
     28          1           0       -9.782480    5.547400   -0.730010
     29          1           0      -10.600160    7.363110   -2.245360
     30          1           0      -10.669940    8.186750   -4.565640
     31          1           0       -7.096610    5.970410   -5.477920
     32          1           0       -7.017150    5.129300   -3.164200
     33          1           0       -3.661940   -2.785650    0.141410
     34          1           0       -5.321740   -4.278030    1.184210
     35          1           0       -6.878600   -0.979320    3.466470
     36          1           0       -5.231930    0.528460    2.426810
 ---------------------------------------------------------------------
                    Distance matrix (angstroms):
                    1          2          3          4          5
     1  C    0.000000
     2  C    1.512995   0.000000
     3  O    2.423338   1.434021   0.000000
     4  C    2.909378   2.382352   1.361422   0.000000
     5  O    2.832963   2.711624   2.287656   1.226520   0.000000
     6  N    4.141862   3.566461   2.231871   1.378468   2.329563
     7  N    4.761480   4.509641   3.297800   2.189976   2.653517
     8  C    6.027698   5.693206   4.364641   3.436163   4.014917
     9  O    6.502338   6.028867   4.619651   4.002881   4.831237
    10  O    6.943660   6.735759   5.493575   4.385404   4.660528
    11  C    8.293736   8.037589   6.731069   5.715418   6.075739
    12  C    9.225560   8.847707   7.563295   6.489439   6.753355
    13  C   10.576088  10.240510   8.958248   7.876125   8.097753
    14  C   11.520423  11.102773   9.851649   8.752649   8.913140
    15  C   11.270363  10.733293   9.533571   8.446930   8.571794
    16  C   10.036381   9.430973   8.251727   7.190050   7.338489
    17  C    8.935760   8.398447   7.161342   6.092136   6.321959
    18  Cl  12.662814  12.064484  10.922605   9.848214   9.908976
    19  C    1.403644   2.545400   3.684447   4.001282   3.556080
    20  C    2.433838   3.829084   4.808282   4.959911   4.394980
    21  C    2.806407   4.319264   4.999899   5.071973   4.631820
    22  C    2.434754   3.815304   4.178473   4.292247   4.134233
    23  C    1.404274   2.524237   2.812393   3.133440   3.225277
    24  Cl   4.526649   6.039508   6.667858   6.629470   6.106330
    25  H    2.132102   1.095856   2.051130   2.622829   2.638807
    26  H    2.149246   1.095654   2.112963   3.324513   3.794092
    27  H    8.467206   8.117539   6.742646   5.899619   6.458221
    28  H    8.727049   8.641223   7.386399   6.344250   6.608626
    29  H   10.995146  10.757658   9.464527   8.403600   8.644365
    30  H   12.549836  12.165700  10.911909   9.807458   9.951072
    31  H   10.026385   9.320232   8.214894   7.198627   7.311153
    32  H    7.976827   7.368942   6.144822   5.102728   5.376641
    33  H    2.168661   2.768150   4.056456   4.414448   3.911844
    34  H    3.415051   4.698482   5.764931   5.878742   5.195545
    35  H    3.416246   4.678505   4.811990   4.854213   4.800172
    36  H    2.169584   2.733603   2.513681   2.899172   3.358893
                    6          7          8          9         10
     6  N    0.000000
     7  N    1.253436   0.000000
     8  C    2.187599   1.377832   0.000000
     9  O    2.651334   2.328448   1.226014   0.000000
    10  O    3.303973   2.232533   1.361313   2.286256   0.000000
    11  C    4.519600   3.566691   2.381991   2.709098   1.434238
    12  C    5.338453   4.489724   3.443870   3.796088   2.422753
    13  C    6.729887   5.841408   4.768015   5.029417   3.684018
    14  C    7.657796   6.850476   5.867825   6.149693   4.807443
    15  C    7.432798   6.770397   5.939865   6.280588   4.998658
    16  C    6.216205   5.665648   4.955351   5.351094   4.177291
    17  C    5.028805   4.391512   3.585563   4.014624   2.811173
    18  Cl   8.911498   8.325159   7.578005   7.916009   6.666450
    19  C    5.320009   5.833693   7.163504   7.755830   7.944271
    20  C    6.193886   6.490912   7.799355   8.455264   8.463117
    21  C    6.114556   6.245029   7.451069   8.068734   8.089404
    22  C    5.152159   5.289623   6.397869   6.900101   7.142686
    23  C    4.057851   4.456136   5.602981   6.021018   6.516988
    24  Cl   7.576195   7.520188   8.648035   9.308562   9.133147
    25  H    3.883770   4.806119   6.034974   6.481834   6.965881
    26  H    4.344352   5.381336   6.462528   6.633393   7.595403
    27  H    4.593477   3.835207   2.478859   2.268289   2.112641
    28  H    5.233246   4.154861   3.091287   3.463803   2.050853
    29  H    7.237493   6.276418   5.142740   5.328618   4.056441
    30  H    8.707555   7.866603   6.856826   7.102316   5.763928
    31  H    6.340399   5.956146   5.424813   5.838070   4.810774
    32  H    4.074056   3.584693   2.962988   3.461568   2.512444
    33  H    5.784792   6.393408   7.739837   8.343230   8.508311
    34  H    7.148368   7.418100   8.747591   9.457128   9.338919
    35  H    5.482192   5.461874   6.410279   6.849214   7.108309
    36  H    3.504553   3.937837   4.924629   5.180942   5.953937
                   11         12         13         14         15
    11  C    0.000000
    12  C    1.512720   0.000000
    13  C    2.545204   1.403615   0.000000
    14  C    3.828772   2.433796   1.397712   0.000000
    15  C    4.318815   2.806228   2.414542   1.392417   0.000000
    16  C    3.815070   2.434766   2.791103   2.415568   1.392422
    17  C    2.523917   1.404254   2.415187   2.790210   2.414064
    18  Cl   6.039000   4.526415   3.998010   2.698901   1.720414
    19  C    9.339688  10.202617  11.530594  12.421123  12.123450
    20  C    9.845231  10.781966  12.050768  12.993848  12.797328
    21  C    9.402929  10.474745  11.692905  12.736853  12.689346
    22  C    8.397281   9.560743  10.787834  11.896825  11.915002
    23  C    7.796038   8.899744  10.200931  11.265864  11.185470
    24  Cl  10.383578  11.493188  12.616545  13.691113  13.747550
    25  H    8.300309   8.950234  10.341374  11.092410  10.602578
    26  H    8.836524   9.670174  11.067378  11.936484  11.558509
    27  H    1.095329   2.148286   3.026046   4.287702   4.799966
    28  H    1.095627   2.132609   2.672155   4.041954   4.792853
    29  H    2.768045   2.168642   1.088575   2.147196   3.393806
    30  H    4.697921   3.414788   2.154297   1.086776   2.156945
    31  H    4.678316   3.416244   3.877924   3.402097   2.156773
    32  H    2.733485   2.169708   3.409123   3.878604   3.393004
    33  H    9.918193  10.663943  12.006121  12.807668  12.398261
    34  H   10.735522  11.615393  12.864734  13.762671  13.529827
    35  H    8.259595   9.523128  10.684175  11.866123  12.010386
    36  H    7.143528   8.317048   9.613892  10.726251  10.704014
                   16         17         18         19         20
    16  C    0.000000
    17  C    1.397800   0.000000
    18  Cl   2.698415   3.997405   0.000000
    19  C   10.893172   9.864522  13.446854   0.000000
    20  C   11.638745  10.574049  14.155564   1.397882   0.000000
    21  C   11.605887  10.448082  14.140508   2.414912   1.392576
    22  C   10.843746   9.612856  13.436202   2.791237   2.415537
    23  C   10.036715   8.823846  12.684703   2.415226   2.790090
    24  Cl  12.756690  11.594092  15.207661   3.998481   2.699215
    25  H    9.268028   8.354068  11.828118   2.671125   4.041214
    26  H   10.243370   9.215925  12.881555   3.026365   4.288116
    27  H    4.304760   3.050869   6.495644   9.617939  10.181718
    28  H    4.530807   3.365034   6.481804   9.725420  10.088235
    29  H    3.879468   3.408895   4.846064  11.970082  12.402802
    30  H    3.402191   3.876971   2.853795  13.441325  13.972812
    31  H    1.086841   2.155149   2.852615  10.827472  11.653523
    32  H    2.146504   1.088592   4.844849   8.916437   9.697724
    33  H   11.127372  10.193439  13.630039   1.088544   2.147422
    34  H   12.377511  11.369081  14.831685   2.154665   1.086915
    35  H   11.017886   9.732309  13.588995   3.878138   3.402190
    36  H    9.577371   8.312164  12.252220   3.409048   3.878422
                   21         22         23         24         25
    21  C    0.000000
    22  C    1.392386   0.000000
    23  C    2.413988   1.397643   0.000000
    24  Cl   1.720465   2.698448   3.997348   0.000000
    25  H    4.792472   4.530434   3.364893   6.481532   0.000000
    26  H    4.800836   4.305833   3.052240   6.496462   1.766215
    27  H    9.707515   8.598905   7.921262  10.745821   8.469869
    28  H    9.527039   8.536430   8.101984  10.347064   8.952683
    29  H   11.929485  10.984192  10.490654  12.753299  10.945023
    30  H   13.677254  12.838682  12.255494  14.569225  12.165062
    31  H   11.749498  11.054119  10.176990  12.971869   9.046240
    32  H    9.643373   8.818387   7.948670  10.878778   7.302114
    33  H    3.394181   3.879571   3.408917   4.846603   2.501060
    34  H    2.157030   3.402204   3.876992   2.853963   4.739277
    35  H    2.156798   1.086922   2.155005   2.852655   5.471077
    36  H    3.392854   2.146311   1.088529   4.844695   3.707782
                   26         27         28         29         30
    26  H    0.000000
    27  H    8.812996   0.000000
    28  H    9.466721   1.766390   0.000000
    29  H   11.575933   3.133865   2.502337   0.000000
    30  H   13.003082   5.108101   4.739811   2.463118   0.000000
    31  H   10.109248   5.133543   5.471333   4.966278   4.302686
    32  H    8.174301   3.177741   3.707713   4.321127   4.965371
    33  H    3.133719  10.216793  10.375939  12.523294  13.844203
    34  H    5.108525  11.128522  10.959084  13.234040  14.732100
    35  H    5.134683   8.420899   8.284989  10.773632  12.763459
    36  H    3.179158   7.150434   7.474141   9.867092  11.709642
                   31         32         33         34         35
    31  H    0.000000
    32  H    2.463144   0.000000
    33  H   10.956387   9.210371   0.000000
    34  H   12.351707  10.501473   2.463649   0.000000
    35  H   11.329095   9.016663   4.966463   4.302791   0.000000
    36  H    9.776329   7.457488   4.321024   4.965326   2.462888
                   36
    36  H    0.000000
 Stoichiometry    C16H12Cl2N2O4
 Framework group  C1[X(C16H12Cl2N2O4)]
 Deg. of freedom   102
 Full point group                 C1      NOp   1
 Largest Abelian subgroup         C1      NOp   1
 Largest concise Abelian subgroup C1      NOp   1
                         Standard orientation:                         
 ---------------------------------------------------------------------
 Center     Atomic      Atomic             Coordinates (Angstroms)
 Number     Number       Type             X           Y           Z
 ---------------------------------------------------------------------
      1          6           0       -4.574643   -1.319598    0.063944
      2          6           0       -3.770598   -2.537556    0.462994
      3          8           0       -2.520441   -2.147657    1.047377
      4          6           0       -1.674049   -1.423708    0.264441
      5          8           0       -1.917268   -1.094368   -0.891730
      6          7           0       -0.542540   -1.115315    0.988841
      7          7           0       -0.027352   -0.028551    0.635818
      8          6           0        1.078578    0.297687    1.390078
      9          8           0        1.285227   -0.009148    2.558948
     10          8           0        1.925885    1.052683    0.638261
     11          6           0        3.128438    1.505492    1.275340
     12          6           0        4.345844    0.983612    0.544665
     13          6           0        5.549678    1.704808    0.516439
     14          6           0        6.663288    1.205609   -0.164935
     15          6           0        6.587447   -0.027430   -0.807343
     16          6           0        5.413025   -0.773929   -0.759275
     17          6           0        4.298402   -0.272740   -0.080843
     18         17           0        7.950555   -0.631244   -1.665929
     19          6           0       -5.461684   -1.350225   -1.023454
     20          6           0       -6.195886   -0.214066   -1.375826
     21          6           0       -6.062537    0.955795   -0.632245
     22          6           0       -5.214614    0.993915    0.471526
     23          6           0       -4.478186   -0.141211    0.821629
     24         17           0       -6.948257    2.361213   -1.079796
     25          1           0       -3.547626   -3.119192   -0.438606
     26          1           0       -4.364548   -3.176080    1.126296
     27          1           0        3.177578    1.220719    2.331860
     28          1           0        3.135022    2.600134    1.229347
     29          1           0        5.627534    2.667624    1.018355
     30          1           0        7.582482    1.784761   -0.192299
     31          1           0        5.356326   -1.742167   -1.249708
     32          1           0        3.388651   -0.869862   -0.052035
     33          1           0       -5.581913   -2.258298   -1.611567
     34          1           0       -6.865413   -0.248803   -2.231343
     35          1           0       -5.118811    1.902474    1.060374
     36          1           0       -3.821336   -0.094519    1.688383
 ---------------------------------------------------------------------
 Rotational constants (GHZ):           0.4610770           0.0530435           0.0518573
 Standard basis: 6-31G(d) (6D, 7F)
 There are   392 symmetry adapted cartesian basis functions of A   symmetry.
 There are   392 symmetry adapted basis functions of A   symmetry.
   392 basis functions,   768 primitive gaussians,   392 cartesian basis functions
    94 alpha electrons       94 beta electrons
       nuclear repulsion energy      2035.0105203314 Hartrees.
 NAtoms=   36 NActive=   36 NUniq=   36 SFac= 1.00D+00 NAtFMM=   60 NAOKFM=F Big=F
 Integral buffers will be    131072 words long.
 Raffenetti 2 integral format.
 Two-electron integral symmetry is turned on.
 One-electron integrals computed using PRISM.
 NBasis=   392 RedAO= T EigKep=  4.55D-04  NBF=   392
 NBsUse=   392 1.00D-06 EigRej= -1.00D+00 NBFU=   392
 ExpMin= 1.43D-01 ExpMax= 2.52D+04 ExpMxC= 3.78D+03 IAcc=3 IRadAn=         5 AccDes= 0.00D+00
 Harris functional with IExCor=  402 and IRadAn=       5 diagonalized for initial guess.
 HarFok:  IExCor=  402 AccDes= 0.00D+00 IRadAn=         5 IDoV= 1 UseB2=F ITyADJ=14
 ICtDFT=  3500011 ScaDFX=  1.000000  1.000000  1.000000  1.000000
 FoFCou: FMM=F IPFlag=           0 FMFlag=      100000 FMFlg1=           0
         NFxFlg=           0 DoJE=T BraDBF=F KetDBF=T FulRan=T
         wScrn=  0.000000 ICntrl=       500 IOpCl=  0 I1Cent=   200000004 NGrid=           0
         NMat0=    1 NMatS0=      1 NMatT0=    0 NMatD0=    1 NMtDS0=    0 NMtDT0=    0
 Petite list used in FoFCou.
 Gradient too large for Newton-Raphson -- use scaled steepest descent instead.
 Gradient too large for Newton-Raphson -- use scaled steepest descent instead.
     Accept linear search using points  2 and  3.
 Gradient too large for Newton-Raphson -- use scaled steepest descent instead.
 Gradient too large for Newton-Raphson -- use scaled steepest descent instead.
     Minimum is close to point  2 DX=  2.21D-02 DF= -7.40D-06 DXR=  5.23D-02 DFR=  2.74D-03 which will be used.
 Gradient too large for Newton-Raphson -- use scaled steepest descent instead.
 Gradient too large for Newton-Raphson -- use scaled steepest descent instead.
     Accept linear search using points  1 and  2.
 Gradient too large for Newton-Raphson -- use scaled steepest descent instead.
     Minimum is close to point  3 DX=  9.54D-02 DF= -1.12D-06 DXR=  8.71D-02 DFR=  7.65D-03 which will be used.
 LinEq1:  Iter=  0 NonCon=     1 RMS=1.95D-05 Max=1.07D-03 NDo=     1
 AX will form     1 AO Fock derivatives at one time.
 LinEq1:  Iter=  1 NonCon=     1 RMS=2.02D-05 Max=1.06D-03 NDo=     1
 LinEq1:  Iter=  2 NonCon=     1 RMS=5.82D-06 Max=6.24D-04 NDo=     1
 LinEq1:  Iter=  3 NonCon=     1 RMS=3.18D-06 Max=1.82D-04 NDo=     1
 LinEq1:  Iter=  4 NonCon=     1 RMS=2.49D-06 Max=1.59D-04 NDo=     1
 LinEq1:  Iter=  5 NonCon=     1 RMS=1.78D-06 Max=1.01D-04 NDo=     1
 LinEq1:  Iter=  6 NonCon=     1 RMS=1.03D-06 Max=3.13D-05 NDo=     1
 LinEq1:  Iter=  7 NonCon=     1 RMS=6.84D-07 Max=2.86D-05 NDo=     1
 LinEq1:  Iter=  8 NonCon=     1 RMS=5.39D-07 Max=2.60D-05 NDo=     1
 LinEq1:  Iter=  9 NonCon=     1 RMS=3.86D-07 Max=1.67D-05 NDo=     1
 LinEq1:  Iter= 10 NonCon=     1 RMS=2.98D-07 Max=1.17D-05 NDo=     1
 LinEq1:  Iter= 11 NonCon=     1 RMS=2.31D-07 Max=1.64D-05 NDo=     1
 LinEq1:  Iter= 12 NonCon=     1 RMS=1.70D-07 Max=8.89D-06 NDo=     1
 LinEq1:  Iter= 13 NonCon=     1 RMS=8.30D-08 Max=3.83D-06 NDo=     1
 LinEq1:  Iter= 14 NonCon=     1 RMS=4.84D-08 Max=2.03D-06 NDo=     1
 LinEq1:  Iter= 15 NonCon=     1 RMS=2.53D-08 Max=9.65D-07 NDo=     1
 LinEq1:  Iter= 16 NonCon=     1 RMS=2.00D-08 Max=8.50D-07 NDo=     1
 LinEq1:  Iter= 17 NonCon=     1 RMS=8.20D-09 Max=2.29D-07 NDo=     1
 LinEq1:  Iter= 18 NonCon=     0 RMS=3.77D-09 Max=1.23D-07 NDo=     1
 Linear equations converged to 2.185D-08 2.185D-07 after    18 iterations.
 Restarting incremental Fock formation.
     Minimum is close to point  2 DX=  4.15D-04 DF= -1.36D-12 DXR=  4.15D-04 DFR=  2.06D-07 which will be used.
 LinEq1:  Iter=  0 NonCon=     1 RMS=2.17D-08 Max=1.40D-06 NDo=     1
 LinEq1:  Iter=  1 NonCon=     1 RMS=2.21D-08 Max=1.67D-06 NDo=     1
 LinEq1:  Iter=  2 NonCon=     1 RMS=1.66D-08 Max=9.64D-07 NDo=     1
 LinEq1:  Iter=  3 NonCon=     1 RMS=8.07D-09 Max=5.62D-07 NDo=     1
 LinEq1:  Iter=  4 NonCon=     1 RMS=6.30D-09 Max=5.42D-07 NDo=     1
 LinEq1:  Iter=  5 NonCon=     1 RMS=4.33D-09 Max=2.59D-07 NDo=     1
 LinEq1:  Iter=  6 NonCon=     1 RMS=3.50D-09 Max=1.76D-07 NDo=     1
 LinEq1:  Iter=  7 NonCon=     1 RMS=2.70D-09 Max=1.32D-07 NDo=     1
 LinEq1:  Iter=  8 NonCon=     1 RMS=2.21D-09 Max=1.04D-07 NDo=     1
 LinEq1:  Iter=  9 NonCon=     1 RMS=1.50D-09 Max=8.10D-08 NDo=     1
 LinEq1:  Iter= 10 NonCon=     1 RMS=9.00D-10 Max=5.08D-08 NDo=     1
 LinEq1:  Iter= 11 NonCon=     1 RMS=6.94D-10 Max=2.66D-08 NDo=     1
 LinEq1:  Iter= 12 NonCon=     1 RMS=4.58D-10 Max=2.49D-08 NDo=     1
 LinEq1:  Iter= 13 NonCon=     1 RMS=2.66D-10 Max=1.23D-08 NDo=     1
 LinEq1:  Iter= 14 NonCon=     1 RMS=1.01D-10 Max=3.85D-09 NDo=     1
 LinEq1:  Iter= 15 NonCon=     1 RMS=5.32D-11 Max=2.45D-09 NDo=     1
 LinEq1:  Iter= 16 NonCon=     1 RMS=3.18D-11 Max=1.42D-09 NDo=     1
 LinEq1:  Iter= 17 NonCon=     1 RMS=2.24D-11 Max=1.15D-09 NDo=     1
 LinEq1:  Iter= 18 NonCon=     1 RMS=1.16D-11 Max=4.67D-10 NDo=     1
 LinEq1:  Iter= 19 NonCon=     0 RMS=5.47D-12 Max=1.51D-10 NDo=     1
 Linear equations converged to 2.634D-11 2.634D-10 after    19 iterations.
 SCF Done:  E(RB3LYP) =  -1947.64657707     a.u. after   10 cycles
            Convg  =    0.1769D-09                    60 Fock formations.
              S**2 =  0.0000                  -V/T =  2.0063
 DoSCS=F DFT=T ScalE2(SS,OS)=  1.000000  1.000000
 Range of M.O.s used for correlation:     1   392
 NBasis=   392 NAE=    94 NBE=    94 NFC=     0 NFV=     0
 NROrb=    392 NOA=    94 NOB=    94 NVA=   298 NVB=   298

 **** Warning!!: The smallest alpha delta epsilon is  0.96775522D-01

 Symmetrizing basis deriv contribution to polar:
 IMax=3 JMax=2 DiffMx= 0.00D+00
 G2DrvN: will do    37 centers at a time, making    1 passes.
 Calling FoFCou, ICntrl=  3107 FMM=F I1Cent=   0 AccDes= 0.00D+00.
 End of G2Drv F.D. properties file   721 does not exist.
 End of G2Drv F.D. properties file   722 does not exist.
 End of G2Drv F.D. properties file   788 does not exist.
          IDoAtm=111111111111111111111111111111111111
          Differentiating once with respect to electric field.
                with respect to dipole field.
          Differentiating once with respect to nuclear coordinates.
 CalDSu exits because no D1Ps are significant.
          There are   111 degrees of freedom in the 1st order CPHF.  IDoFFX=6 NUNeed=     3.
    108 vectors produced by pass  0 Test12= 2.80D-14 1.00D-09 XBig12= 2.48D+02 6.61D+00.
 AX will form   108 AO Fock derivatives at one time.
    108 vectors produced by pass  1 Test12= 2.80D-14 1.00D-09 XBig12= 5.34D+01 1.76D+00.
    108 vectors produced by pass  2 Test12= 2.80D-14 1.00D-09 XBig12= 1.12D+00 2.20D-01.
    108 vectors produced by pass  3 Test12= 2.80D-14 1.00D-09 XBig12= 1.23D-02 1.12D-02.
    108 vectors produced by pass  4 Test12= 2.80D-14 1.00D-09 XBig12= 2.91D-05 4.37D-04.
    103 vectors produced by pass  5 Test12= 2.80D-14 1.00D-09 XBig12= 3.69D-08 1.79D-05.
     32 vectors produced by pass  6 Test12= 2.80D-14 1.00D-09 XBig12= 3.85D-11 4.15D-07.
      3 vectors produced by pass  7 Test12= 2.80D-14 1.00D-09 XBig12= 3.37D-14 1.33D-08.
 InvSVY:  IOpt=1 It=  1 EMax= 1.95D-14
 Solved reduced A of dimension   678 with   111 vectors.
 Isotropic polarizability for W=    0.000000      213.58 Bohr**3.
 End of Minotr F.D. properties file   721 does not exist.
 End of Minotr F.D. properties file   722 does not exist.
 End of Minotr F.D. properties file   788 does not exist.

 **********************************************************************

            Population analysis using the SCF density.

 **********************************************************************

 Orbital symmetries:
       Occupied  (A) (A) (A) (A) (A) (A) (A) (A) (A) (A) (A) (A)
                 (A) (A) (A) (A) (A) (A) (A) (A) (A) (A) (A) (A)
                 (A) (A) (A) (A) (A) (A) (A) (A) (A) (A) (A) (A)
                 (A) (A) (A) (A) (A) (A) (A) (A) (A) (A) (A) (A)
                 (A) (A) (A) (A) (A) (A) (A) (A) (A) (A) (A) (A)
                 (A) (A) (A) (A) (A) (A) (A) (A) (A) (A) (A) (A)
                 (A) (A) (A) (A) (A) (A) (A) (A) (A) (A) (A) (A)
                 (A) (A) (A) (A) (A) (A) (A) (A) (A) (A)
       Virtual   (A) (A) (A) (A) (A) (A) (A) (A) (A) (A) (A) (A)
                 (A) (A) (A) (A) (A) (A) (A) (A) (A) (A) (A) (A)
                 (A) (A) (A) (A) (A) (A) (A) (A) (A) (A) (A) (A)
                 (A) (A) (A) (A) (A) (A) (A) (A) (A) (A) (A) (A)
                 (A) (A) (A) (A) (A) (A) (A) (A) (A) (A) (A) (A)
                 (A) (A) (A) (A) (A) (A) (A) (A) (A) (A) (A) (A)
                 (A) (A) (A) (A) (A) (A) (A) (A) (A) (A) (A) (A)
                 (A) (A) (A) (A) (A) (A) (A) (A) (A) (A) (A) (A)
                 (A) (A) (A) (A) (A) (A) (A) (A) (A) (A) (A) (A)
                 (A) (A) (A) (A) (A) (A) (A) (A) (A) (A) (A) (A)
                 (A) (A) (A) (A) (A) (A) (A) (A) (A) (A) (A) (A)
                 (A) (A) (A) (A) (A) (A) (A) (A) (A) (A) (A) (A)
                 (A) (A) (A) (A) (A) (A) (A) (A) (A) (A) (A) (A)
                 (A) (A) (A) (A) (A) (A) (A) (A) (A) (A) (A) (A)
                 (A) (A) (A) (A) (A) (A) (A) (A) (A) (A) (A) (A)
                 (A) (A) (A) (A) (A) (A) (A) (A) (A) (A) (A) (A)
                 (A) (A) (A) (A) (A) (A) (A) (A) (A) (A) (A) (A)
                 (A) (A) (A) (A) (A) (A) (A) (A) (A) (A) (A) (A)
                 (A) (A) (A) (A) (A) (A) (A) (A) (A) (A) (A) (A)
                 (A) (A) (A) (A) (A) (A) (A) (A) (A) (A) (A) (A)
                 (A) (A) (A) (A) (A) (A) (A) (A) (A) (A) (A) (A)
                 (A) (A) (A) (A) (A) (A) (A) (A) (A) (A) (A) (A)
                 (A) (A) (A) (A) (A) (A) (A) (A) (A) (A) (A) (A)
                 (A) (A) (A) (A) (A) (A) (A) (A) (A) (A) (A) (A)
                 (A) (A) (A) (A) (A) (A) (A) (A) (A) (A)
 The electronic state is 1-A.
 Alpha  occ. eigenvalues -- -101.55335-101.55148 -19.22497 -19.22492 -19.16920
 Alpha  occ. eigenvalues --  -19.16890 -14.44151 -14.44100 -10.36616 -10.36533
 Alpha  occ. eigenvalues --  -10.27308 -10.26670 -10.25640 -10.25416 -10.21806
 Alpha  occ. eigenvalues --  -10.21633 -10.21230 -10.21097 -10.20981 -10.20940
 Alpha  occ. eigenvalues --  -10.20897 -10.20860 -10.20813 -10.20694  -9.47028
 Alpha  occ. eigenvalues --   -9.46842  -7.23415  -7.23228  -7.22454  -7.22417
 Alpha  occ. eigenvalues --   -7.22268  -7.22231  -1.15281  -1.13373  -1.08381
 Alpha  occ. eigenvalues --   -1.04269  -1.03214  -0.90187  -0.89977  -0.86187
 Alpha  occ. eigenvalues --   -0.85128  -0.84120  -0.78527  -0.76802  -0.76469
 Alpha  occ. eigenvalues --   -0.76268  -0.72087  -0.69732  -0.64569  -0.63128
 Alpha  occ. eigenvalues --   -0.62682  -0.60609  -0.59340  -0.57507  -0.55456
 Alpha  occ. eigenvalues --   -0.53625  -0.52915  -0.51881  -0.50558  -0.50063
 Alpha  occ. eigenvalues --   -0.49685  -0.48712  -0.47854  -0.47615  -0.46942
 Alpha  occ. eigenvalues --   -0.46512  -0.45520  -0.44917  -0.44422  -0.43791
 Alpha  occ. eigenvalues --   -0.43643  -0.42659  -0.40494  -0.40029  -0.39920
 Alpha  occ. eigenvalues --   -0.39004  -0.38418  -0.37364  -0.37009  -0.36675
 Alpha  occ. eigenvalues --   -0.36223  -0.33788  -0.33637  -0.32797  -0.32610
 Alpha  occ. eigenvalues --   -0.32259  -0.31672  -0.31493  -0.30271  -0.27754
 Alpha  occ. eigenvalues --   -0.26846  -0.26617  -0.24641  -0.24358
 Alpha virt. eigenvalues --   -0.14680  -0.02152  -0.02006  -0.01969  -0.01823
 Alpha virt. eigenvalues --   -0.00061   0.03439   0.03596   0.03788   0.09398
 Alpha virt. eigenvalues --    0.10338   0.10501   0.10629   0.11440   0.11738
 Alpha virt. eigenvalues --    0.11837   0.12598   0.13200   0.13276   0.16287
 Alpha virt. eigenvalues --    0.16304   0.16685   0.17419   0.19283   0.19872
 Alpha virt. eigenvalues --    0.20661   0.21688   0.22430   0.22622   0.27036
 Alpha virt. eigenvalues --    0.27482   0.27730   0.27934   0.28047   0.29077
 Alpha virt. eigenvalues --    0.29767   0.30057   0.32127   0.32340   0.32796
 Alpha virt. eigenvalues --    0.38272   0.39208   0.39567   0.39880   0.40960
 Alpha virt. eigenvalues --    0.41406   0.41526   0.42396   0.43923   0.44106
 Alpha virt. eigenvalues --    0.46102   0.46295   0.47452   0.48429   0.49372
 Alpha virt. eigenvalues --    0.50675   0.52231   0.52396   0.53140   0.53730
 Alpha virt. eigenvalues --    0.53932   0.54618   0.54774   0.55831   0.56988
 Alpha virt. eigenvalues --    0.57285   0.57831   0.58036   0.58204   0.58299
 Alpha virt. eigenvalues --    0.58771   0.59216   0.59809   0.60305   0.60385
 Alpha virt. eigenvalues --    0.61398   0.61711   0.62447   0.62577   0.62925
 Alpha virt. eigenvalues --    0.64124   0.65053   0.65832   0.66883   0.67422
 Alpha virt. eigenvalues --    0.67677   0.69957   0.70896   0.72037   0.73254
 Alpha virt. eigenvalues --    0.74269   0.74915   0.75086   0.75600   0.77429
 Alpha virt. eigenvalues --    0.78638   0.78995   0.80156   0.80640   0.81105
 Alpha virt. eigenvalues --    0.82585   0.82737   0.83035   0.84375   0.84930
 Alpha virt. eigenvalues --    0.85326   0.85495   0.86181   0.86752   0.86839
 Alpha virt. eigenvalues --    0.87166   0.88439   0.88961   0.89057   0.90108
 Alpha virt. eigenvalues --    0.90987   0.91372   0.92061   0.92809   0.93133
 Alpha virt. eigenvalues --    0.93502   0.94256   0.97132   0.97812   0.98352
 Alpha virt. eigenvalues --    0.99000   1.00891   1.02731   1.02955   1.03881
 Alpha virt. eigenvalues --    1.05069   1.06329   1.08376   1.08850   1.10905
 Alpha virt. eigenvalues --    1.11636   1.11809   1.12169   1.13701   1.14765
 Alpha virt. eigenvalues --    1.15912   1.16740   1.17835   1.18339   1.19324
 Alpha virt. eigenvalues --    1.20301   1.23774   1.24102   1.24496   1.27900
 Alpha virt. eigenvalues --    1.30242   1.31274   1.33770   1.34528   1.35202
 Alpha virt. eigenvalues --    1.37574   1.39056   1.40427   1.40917   1.42170
 Alpha virt. eigenvalues --    1.42867   1.43334   1.44529   1.45315   1.45460
 Alpha virt. eigenvalues --    1.46080   1.47432   1.49318   1.49548   1.51260
 Alpha virt. eigenvalues --    1.53954   1.55231   1.55488   1.56086   1.59037
 Alpha virt. eigenvalues --    1.60108   1.64130   1.65875   1.68250   1.69221
 Alpha virt. eigenvalues --    1.70875   1.74979   1.75704   1.76522   1.77328
 Alpha virt. eigenvalues --    1.77612   1.78313   1.78906   1.80179   1.81531
 Alpha virt. eigenvalues --    1.82422   1.83494   1.84326   1.85847   1.85929
 Alpha virt. eigenvalues --    1.86619   1.88391   1.90247   1.93486   1.93854
 Alpha virt. eigenvalues --    1.93893   1.95588   1.96523   1.97954   1.98924
 Alpha virt. eigenvalues --    1.99637   2.02792   2.04581   2.04937   2.06236
 Alpha virt. eigenvalues --    2.06817   2.07321   2.08728   2.11565   2.12121
 Alpha virt. eigenvalues --    2.12433   2.12891   2.13474   2.13798   2.14760
 Alpha virt. eigenvalues --    2.15591   2.20041   2.20899   2.22070   2.22726
 Alpha virt. eigenvalues --    2.25551   2.26322   2.28553   2.28719   2.29359
 Alpha virt. eigenvalues --    2.30887   2.31971   2.33147   2.34271   2.38209
 Alpha virt. eigenvalues --    2.41473   2.42721   2.44437   2.48078   2.50821
 Alpha virt. eigenvalues --    2.55239   2.55522   2.58843   2.58962   2.61335
 Alpha virt. eigenvalues --    2.61912   2.62829   2.63094   2.65873   2.66568
 Alpha virt. eigenvalues --    2.67493   2.70110   2.70547   2.72615   2.73240
 Alpha virt. eigenvalues --    2.74092   2.75685   2.76293   2.76900   2.77556
 Alpha virt. eigenvalues --    2.81959   2.84123   2.86359   2.87484   2.92661
 Alpha virt. eigenvalues --    2.93628   3.03585   3.04086   3.06618   3.10161
 Alpha virt. eigenvalues --    3.19509   3.24266   3.36050   3.36326   3.77669
 Alpha virt. eigenvalues --    3.89891   3.98604   4.02095   4.04831   4.05397
 Alpha virt. eigenvalues --    4.08783   4.09519   4.09991   4.13512   4.21144
 Alpha virt. eigenvalues --    4.23835   4.26869   4.28473   4.29010   4.30859
 Alpha virt. eigenvalues --    4.31300   4.33661   4.35782   4.36519   4.43563
 Alpha virt. eigenvalues --    4.44847   4.67981   4.70024
          Condensed to atoms (all electrons):
               1          2          3          4          5          6
     1  C    4.757918   0.330436  -0.040161  -0.001488   0.001417  -0.000866
     2  C    0.330436   4.982617   0.206551  -0.023000   0.000949   0.004685
     3  O   -0.040161   0.206551   8.211271   0.282923  -0.076576  -0.089267
     4  C   -0.001488  -0.023000   0.282923   4.256357   0.523802   0.248745
     5  O    0.001417   0.000949  -0.076576   0.523802   8.040752  -0.074119
     6  N   -0.000866   0.004685  -0.089267   0.248745  -0.074119   6.921186
     7  N    0.000055  -0.000065   0.002108  -0.055203  -0.000267   0.244035
     8  C    0.000000   0.000003  -0.000167   0.006223   0.000187  -0.053307
     9  O   -0.000000   0.000000   0.000006   0.000108  -0.000005  -0.000757
    10  O    0.000000  -0.000000   0.000000  -0.000161   0.000005   0.002267
    11  C   -0.000000   0.000000  -0.000000   0.000005   0.000000  -0.000061
    12  C    0.000000  -0.000000   0.000000  -0.000000  -0.000000   0.000014
    13  C    0.000000   0.000000   0.000000   0.000000  -0.000000  -0.000000
    14  C   -0.000000   0.000000  -0.000000  -0.000000   0.000000  -0.000000
    15  C    0.000000  -0.000000   0.000000  -0.000000   0.000000   0.000000
    16  C    0.000000  -0.000000   0.000000  -0.000000   0.000000  -0.000000
    17  C    0.000000   0.000000  -0.000000   0.000000  -0.000000  -0.000028
    18  Cl   0.000000  -0.000000   0.000000  -0.000000  -0.000000  -0.000000
    19  C    0.532797  -0.048601   0.001971   0.000096  -0.001444  -0.000021
    20  C   -0.017757   0.005507  -0.000050  -0.000071  -0.000076   0.000000
    21  C   -0.031745   0.000489  -0.000010  -0.000000   0.000073   0.000000
    22  C   -0.023462   0.005686   0.000559  -0.000379  -0.000519   0.000002
    23  C    0.532861  -0.067411  -0.001692   0.001064  -0.000844  -0.000867
    24  Cl   0.000671   0.000008   0.000000  -0.000000  -0.000000  -0.000000
    25  H   -0.043458   0.361852  -0.031497  -0.006614   0.008694   0.000085
    26  H   -0.033174   0.367792  -0.025614   0.003697   0.000222  -0.000077
    27  H    0.000000   0.000000  -0.000000   0.000001   0.000000   0.000010
    28  H    0.000000   0.000000  -0.000000  -0.000000   0.000000  -0.000003
    29  H    0.000000  -0.000000   0.000000  -0.000000   0.000000   0.000000
    30  H   -0.000000   0.000000  -0.000000   0.000000  -0.000000  -0.000000
    31  H    0.000000   0.000000   0.000000   0.000000  -0.000000  -0.000000
    32  H    0.000000  -0.000000  -0.000000  -0.000001   0.000000   0.000120
    33  H   -0.047543  -0.007892   0.000034  -0.000008  -0.000047  -0.000000
    34  H    0.003590  -0.000141   0.000000   0.000000  -0.000001   0.000000
    35  H    0.003648  -0.000180   0.000003   0.000008  -0.000005  -0.000000
    36  H   -0.046248  -0.010379   0.008377   0.000737  -0.000536   0.000027
               7          8          9         10         11         12
     1  C    0.000055   0.000000  -0.000000   0.000000  -0.000000   0.000000
     2  C   -0.000065   0.000003   0.000000  -0.000000   0.000000  -0.000000
     3  O    0.002108  -0.000167   0.000006   0.000000  -0.000000   0.000000
     4  C   -0.055203   0.006223   0.000108  -0.000161   0.000005  -0.000000
     5  O   -0.000267   0.000187  -0.000005   0.000005   0.000000  -0.000000
     6  N    0.244035  -0.053307  -0.000757   0.002267  -0.000061   0.000014
     7  N    6.926818   0.243720  -0.074455  -0.087632   0.003397  -0.000031
     8  C    0.243720   4.241534   0.538366   0.282935  -0.015975  -0.002100
     9  O   -0.074455   0.538366   8.031184  -0.077411  -0.008784  -0.000552
    10  O   -0.087632   0.282935  -0.077411   8.224129   0.188485  -0.037628
    11  C    0.003397  -0.015975  -0.008784   0.188485   5.032995   0.338077
    12  C   -0.000031  -0.002100  -0.000552  -0.037628   0.338077   4.725529
    13  C    0.000003   0.000003  -0.000019   0.001413  -0.055507   0.526623
    14  C   -0.000000   0.000001   0.000000  -0.000060   0.005611  -0.016539
    15  C    0.000000  -0.000001  -0.000000  -0.000003   0.000435  -0.031874
    16  C   -0.000001   0.000013   0.000000   0.000379   0.006071  -0.019811
    17  C   -0.000326   0.001344   0.000228   0.001410  -0.059921   0.538025
    18  Cl   0.000000  -0.000000  -0.000000   0.000000   0.000008   0.000681
    19  C    0.000000  -0.000000   0.000000   0.000000  -0.000000   0.000000
    20  C   -0.000000   0.000000  -0.000000   0.000000   0.000000   0.000000
    21  C    0.000000   0.000000   0.000000  -0.000000   0.000000   0.000000
    22  C   -0.000004  -0.000000   0.000000  -0.000000  -0.000000  -0.000000
    23  C    0.000086  -0.000001  -0.000000   0.000000  -0.000000   0.000000
    24  Cl   0.000000  -0.000000  -0.000000   0.000000  -0.000000  -0.000000
    25  H   -0.000010  -0.000000   0.000000  -0.000000  -0.000000   0.000000
    26  H    0.000001  -0.000000   0.000000   0.000000  -0.000000   0.000000
    27  H    0.000547  -0.007807   0.022165  -0.028690   0.345521  -0.027396
    28  H   -0.000099   0.001560   0.000586  -0.031527   0.368296  -0.044066
    29  H   -0.000000  -0.000002  -0.000000   0.000052  -0.007971  -0.047338
    30  H    0.000000   0.000000  -0.000000   0.000000  -0.000141   0.003422
    31  H   -0.000000   0.000000  -0.000000   0.000002  -0.000178   0.003588
    32  H    0.000276   0.001277  -0.000300   0.007189  -0.011584  -0.043768
    33  H   -0.000000  -0.000000   0.000000   0.000000  -0.000000   0.000000
    34  H   -0.000000  -0.000000  -0.000000  -0.000000   0.000000   0.000000
    35  H   -0.000001  -0.000000   0.000000   0.000000   0.000000   0.000000
    36  H    0.000114  -0.000006   0.000000  -0.000000  -0.000000  -0.000000
              13         14         15         16         17         18
     1  C    0.000000  -0.000000   0.000000   0.000000   0.000000   0.000000
     2  C    0.000000   0.000000  -0.000000  -0.000000   0.000000  -0.000000
     3  O    0.000000  -0.000000   0.000000   0.000000  -0.000000   0.000000
     4  C    0.000000  -0.000000  -0.000000  -0.000000   0.000000  -0.000000
     5  O   -0.000000   0.000000   0.000000   0.000000  -0.000000  -0.000000
     6  N   -0.000000  -0.000000   0.000000  -0.000000  -0.000028  -0.000000
     7  N    0.000003  -0.000000   0.000000  -0.000001  -0.000326   0.000000
     8  C    0.000003   0.000001  -0.000001   0.000013   0.001344  -0.000000
     9  O   -0.000019   0.000000  -0.000000   0.000000   0.000228  -0.000000
    10  O    0.001413  -0.000060  -0.000003   0.000379   0.001410   0.000000
    11  C   -0.055507   0.005611   0.000435   0.006071  -0.059921   0.000008
    12  C    0.526623  -0.016539  -0.031874  -0.019811   0.538025   0.000681
    13  C    4.971617   0.508569  -0.031531  -0.042496  -0.034784   0.004616
    14  C    0.508569   4.927007   0.533389  -0.034786  -0.042571  -0.071548
    15  C   -0.031531   0.533389   4.932118   0.530022  -0.030234   0.238069
    16  C   -0.042496  -0.034786   0.530022   4.931112   0.510671  -0.071433
    17  C   -0.034784  -0.042571  -0.030234   0.510671   4.938401   0.004551
    18  Cl   0.004616  -0.071548   0.238069  -0.071433   0.004551  16.903477
    19  C    0.000000  -0.000000   0.000000   0.000000  -0.000000   0.000000
    20  C   -0.000000   0.000000   0.000000  -0.000000  -0.000000   0.000000
    21  C   -0.000000  -0.000000   0.000000  -0.000000  -0.000000   0.000000
    22  C    0.000000   0.000000  -0.000000   0.000000  -0.000000   0.000000
    23  C    0.000000   0.000000   0.000000   0.000000   0.000000   0.000000
    24  Cl   0.000000   0.000000   0.000000   0.000000   0.000000   0.000000
    25  H    0.000000  -0.000000   0.000000  -0.000000  -0.000000   0.000000
    26  H    0.000000  -0.000000   0.000000   0.000000  -0.000000   0.000000
    27  H   -0.000220  -0.000203   0.000025  -0.000072  -0.002557  -0.000000
    28  H   -0.003101   0.000051   0.000005  -0.000098   0.004797  -0.000000
    29  H    0.359009  -0.041726   0.004613   0.000469   0.005430  -0.000172
    30  H   -0.035297   0.360176  -0.042813   0.004377   0.000696  -0.000368
    31  H    0.000796   0.004283  -0.043530   0.360274  -0.035493  -0.000382
    32  H    0.005640   0.000413   0.004587  -0.040965   0.357262  -0.000171
    33  H    0.000000  -0.000000   0.000000   0.000000  -0.000000   0.000000
    34  H    0.000000   0.000000   0.000000  -0.000000  -0.000000   0.000000
    35  H   -0.000000  -0.000000   0.000000  -0.000000  -0.000000   0.000000
    36  H    0.000000   0.000000  -0.000000   0.000000   0.000000   0.000000
              19         20         21         22         23         24
     1  C    0.532797  -0.017757  -0.031745  -0.023462   0.532861   0.000671
     2  C   -0.048601   0.005507   0.000489   0.005686  -0.067411   0.000008
     3  O    0.001971  -0.000050  -0.000010   0.000559  -0.001692   0.000000
     4  C    0.000096  -0.000071  -0.000000  -0.000379   0.001064  -0.000000
     5  O   -0.001444  -0.000076   0.000073  -0.000519  -0.000844  -0.000000
     6  N   -0.000021   0.000000   0.000000   0.000002  -0.000867  -0.000000
     7  N    0.000000  -0.000000   0.000000  -0.000004   0.000086   0.000000
     8  C   -0.000000   0.000000   0.000000  -0.000000  -0.000001  -0.000000
     9  O    0.000000  -0.000000   0.000000   0.000000  -0.000000  -0.000000
    10  O    0.000000   0.000000  -0.000000  -0.000000   0.000000   0.000000
    11  C   -0.000000   0.000000   0.000000  -0.000000  -0.000000  -0.000000
    12  C    0.000000   0.000000   0.000000  -0.000000   0.000000  -0.000000
    13  C    0.000000  -0.000000  -0.000000   0.000000   0.000000   0.000000
    14  C   -0.000000   0.000000  -0.000000   0.000000   0.000000   0.000000
    15  C    0.000000   0.000000   0.000000  -0.000000   0.000000   0.000000
    16  C    0.000000  -0.000000  -0.000000   0.000000   0.000000   0.000000
    17  C   -0.000000  -0.000000  -0.000000  -0.000000   0.000000   0.000000
    18  Cl   0.000000   0.000000   0.000000   0.000000   0.000000   0.000000
    19  C    4.943010   0.512832  -0.031834  -0.041203  -0.033773   0.004595
    20  C    0.512832   4.924305   0.533328  -0.034915  -0.042624  -0.071375
    21  C   -0.031834   0.533328   4.929428   0.532064  -0.029892   0.237539
    22  C   -0.041203  -0.034915   0.532064   4.929020   0.509032  -0.071580
    23  C   -0.033773  -0.042624  -0.029892   0.509032   4.963111   0.004600
    24  Cl   0.004595  -0.071375   0.237539  -0.071580   0.004600  16.905494
    25  H   -0.003765   0.000028   0.000003  -0.000066   0.005636  -0.000000
    26  H    0.000830  -0.000229   0.000026  -0.000118  -0.003607  -0.000000
    27  H   -0.000000   0.000000  -0.000000  -0.000000   0.000000   0.000000
    28  H    0.000000  -0.000000  -0.000000   0.000000   0.000000   0.000000
    29  H    0.000000  -0.000000  -0.000000  -0.000000  -0.000000   0.000000
    30  H    0.000000   0.000000   0.000000   0.000000  -0.000000   0.000000
    31  H   -0.000000  -0.000000  -0.000000   0.000000  -0.000000   0.000000
    32  H    0.000000  -0.000000  -0.000000  -0.000000  -0.000000   0.000000
    33  H    0.358979  -0.041481   0.004642   0.000500   0.005457  -0.000172
    34  H   -0.035324   0.359829  -0.043195   0.004415   0.000666  -0.000386
    35  H    0.000828   0.004277  -0.043239   0.359738  -0.035959  -0.000383
    36  H    0.005115   0.000508   0.004418  -0.038363   0.357131  -0.000168
              25         26         27         28         29         30
     1  C   -0.043458  -0.033174   0.000000   0.000000   0.000000  -0.000000
     2  C    0.361852   0.367792   0.000000   0.000000  -0.000000   0.000000
     3  O   -0.031497  -0.025614  -0.000000  -0.000000   0.000000  -0.000000
     4  C   -0.006614   0.003697   0.000001  -0.000000  -0.000000   0.000000
     5  O    0.008694   0.000222   0.000000   0.000000   0.000000  -0.000000
     6  N    0.000085  -0.000077   0.000010  -0.000003   0.000000  -0.000000
     7  N   -0.000010   0.000001   0.000547  -0.000099  -0.000000   0.000000
     8  C   -0.000000  -0.000000  -0.007807   0.001560  -0.000002   0.000000
     9  O    0.000000   0.000000   0.022165   0.000586  -0.000000  -0.000000
    10  O   -0.000000   0.000000  -0.028690  -0.031527   0.000052   0.000000
    11  C   -0.000000  -0.000000   0.345521   0.368296  -0.007971  -0.000141
    12  C    0.000000   0.000000  -0.027396  -0.044066  -0.047338   0.003422
    13  C    0.000000   0.000000  -0.000220  -0.003101   0.359009  -0.035297
    14  C   -0.000000  -0.000000  -0.000203   0.000051  -0.041726   0.360176
    15  C    0.000000   0.000000   0.000025   0.000005   0.004613  -0.042813
    16  C   -0.000000   0.000000  -0.000072  -0.000098   0.000469   0.004377
    17  C   -0.000000  -0.000000  -0.002557   0.004797   0.005430   0.000696
    18  Cl   0.000000   0.000000  -0.000000  -0.000000  -0.000172  -0.000368
    19  C   -0.003765   0.000830  -0.000000   0.000000   0.000000   0.000000
    20  C    0.000028  -0.000229   0.000000  -0.000000  -0.000000   0.000000
    21  C    0.000003   0.000026  -0.000000  -0.000000  -0.000000   0.000000
    22  C   -0.000066  -0.000118  -0.000000   0.000000  -0.000000   0.000000
    23  C    0.005636  -0.003607   0.000000   0.000000  -0.000000  -0.000000
    24  Cl  -0.000000  -0.000000   0.000000   0.000000   0.000000   0.000000
    25  H    0.564191  -0.037173  -0.000000  -0.000000  -0.000000  -0.000000
    26  H   -0.037173   0.535807  -0.000000  -0.000000   0.000000  -0.000000
    27  H   -0.000000  -0.000000   0.524693  -0.035501   0.000478   0.000003
    28  H   -0.000000  -0.000000  -0.035501   0.562012   0.005118  -0.000003
    29  H   -0.000000   0.000000   0.000478   0.005118   0.590588  -0.005636
    30  H   -0.000000  -0.000000   0.000003  -0.000003  -0.005636   0.559335
    31  H   -0.000000  -0.000000   0.000002   0.000003   0.000016  -0.000172
    32  H    0.000000   0.000000   0.000515   0.000194  -0.000162   0.000015
    33  H    0.005032   0.000412  -0.000000  -0.000000   0.000000   0.000000
    34  H   -0.000003   0.000003   0.000000  -0.000000   0.000000   0.000000
    35  H    0.000002   0.000002   0.000000  -0.000000   0.000000  -0.000000
    36  H    0.000337   0.000337  -0.000000   0.000000   0.000000   0.000000
              31         32         33         34         35         36
     1  C    0.000000   0.000000  -0.047543   0.003590   0.003648  -0.046248
     2  C    0.000000  -0.000000  -0.007892  -0.000141  -0.000180  -0.010379
     3  O    0.000000  -0.000000   0.000034   0.000000   0.000003   0.008377
     4  C    0.000000  -0.000001  -0.000008   0.000000   0.000008   0.000737
     5  O   -0.000000   0.000000  -0.000047  -0.000001  -0.000005  -0.000536
     6  N   -0.000000   0.000120  -0.000000   0.000000  -0.000000   0.000027
     7  N   -0.000000   0.000276  -0.000000  -0.000000  -0.000001   0.000114
     8  C    0.000000   0.001277  -0.000000  -0.000000  -0.000000  -0.000006
     9  O   -0.000000  -0.000300   0.000000  -0.000000   0.000000   0.000000
    10  O    0.000002   0.007189   0.000000  -0.000000   0.000000  -0.000000
    11  C   -0.000178  -0.011584  -0.000000   0.000000   0.000000  -0.000000
    12  C    0.003588  -0.043768   0.000000   0.000000   0.000000  -0.000000
    13  C    0.000796   0.005640   0.000000   0.000000  -0.000000   0.000000
    14  C    0.004283   0.000413  -0.000000   0.000000  -0.000000   0.000000
    15  C   -0.043530   0.004587   0.000000   0.000000   0.000000  -0.000000
    16  C    0.360274  -0.040965   0.000000  -0.000000  -0.000000   0.000000
    17  C   -0.035493   0.357262  -0.000000  -0.000000  -0.000000   0.000000
    18  Cl  -0.000382  -0.000171   0.000000   0.000000   0.000000   0.000000
    19  C   -0.000000   0.000000   0.358979  -0.035324   0.000828   0.005115
    20  C   -0.000000  -0.000000  -0.041481   0.359829   0.004277   0.000508
    21  C   -0.000000  -0.000000   0.004642  -0.043195  -0.043239   0.004418
    22  C    0.000000  -0.000000   0.000500   0.004415   0.359738  -0.038363
    23  C   -0.000000  -0.000000   0.005457   0.000666  -0.035959   0.357131
    24  Cl   0.000000   0.000000  -0.000172  -0.000386  -0.000383  -0.000168
    25  H   -0.000000   0.000000   0.005032  -0.000003   0.000002   0.000337
    26  H   -0.000000   0.000000   0.000412   0.000003   0.000002   0.000337
    27  H    0.000002   0.000515  -0.000000   0.000000   0.000000  -0.000000
    28  H    0.000003   0.000194  -0.000000  -0.000000  -0.000000   0.000000
    29  H    0.000016  -0.000162   0.000000   0.000000   0.000000   0.000000
    30  H   -0.000172   0.000015   0.000000   0.000000  -0.000000   0.000000
    31  H    0.559106  -0.005440  -0.000000  -0.000000  -0.000000   0.000000
    32  H   -0.005440   0.582759   0.000000   0.000000   0.000000   0.000000
    33  H   -0.000000   0.000000   0.591969  -0.005721   0.000016  -0.000165
    34  H   -0.000000   0.000000  -0.005721   0.560767  -0.000173   0.000015
    35  H   -0.000000   0.000000   0.000016  -0.000173   0.561206  -0.005340
    36  H    0.000000   0.000000  -0.000165   0.000015  -0.005340   0.576496
 Mulliken charges:
               1
     1  C    0.122510
     2  C   -0.108904
     3  O   -0.448768
     4  C    0.763160
     5  O   -0.421661
     6  N   -0.201804
     7  N   -0.203066
     8  C    0.762199
     9  O   -0.430360
    10  O   -0.445154
    11  C   -0.128779
    12  C    0.135144
    13  C   -0.175333
    14  C   -0.132068
    15  C   -0.063276
    16  C   -0.133725
    17  C   -0.156901
    18  Cl  -0.007329
    19  C   -0.165088
    20  C   -0.132033
    21  C   -0.062095
    22  C   -0.130407
    23  C   -0.162974
    24  Cl  -0.008843
    25  H    0.176726
    26  H    0.190864
    27  H    0.208488
    28  H    0.171777
    29  H    0.137236
    30  H    0.156406
    31  H    0.157125
    32  H    0.142144
    33  H    0.135989
    34  H    0.155657
    35  H    0.155552
    36  H    0.147594
 Sum of Mulliken charges =  -0.00000
 Mulliken charges with hydrogens summed into heavy atoms:
               1
     1  C    0.122510
     2  C    0.258686
     3  O   -0.448768
     4  C    0.763160
     5  O   -0.421661
     6  N   -0.201804
     7  N   -0.203066
     8  C    0.762199
     9  O   -0.430360
    10  O   -0.445154
    11  C    0.251485
    12  C    0.135144
    13  C   -0.038096
    14  C    0.024339
    15  C   -0.063276
    16  C    0.023399
    17  C   -0.014757
    18  Cl  -0.007329
    19  C   -0.029099
    20  C    0.023624
    21  C   -0.062095
    22  C    0.025144
    23  C   -0.015380
    24  Cl  -0.008843
 APT charges:
               1
     1  C   -0.024680
     2  C    0.634505
     3  O   -0.915098
     4  C    1.241238
     5  O   -0.622872
     6  N   -0.183048
     7  N   -0.268458
     8  C    1.399779
     9  O   -0.690618
    10  O   -0.977248
    11  C    0.584224
    12  C    0.005612
    13  C   -0.008332
    14  C   -0.106834
    15  C    0.429208
    16  C   -0.095046
    17  C   -0.026254
    18  Cl  -0.361637
    19  C   -0.001195
    20  C   -0.093656
    21  C    0.420107
    22  C   -0.090612
    23  C   -0.049182
    24  Cl  -0.354036
    25  H   -0.048313
    26  H   -0.040317
    27  H   -0.001095
    28  H   -0.049225
    29  H    0.024448
    30  H    0.042507
    31  H    0.044388
    32  H    0.030869
    33  H    0.021848
    34  H    0.044209
    35  H    0.044988
    36  H    0.039823
 Sum of APT charges =  -0.00000
 APT charges with hydrogens summed into heavy atoms:
               1
     1  C   -0.024680
     2  C    0.545875
     3  O   -0.915098
     4  C    1.241238
     5  O   -0.622872
     6  N   -0.183048
     7  N   -0.268458
     8  C    1.399779
     9  O   -0.690618
    10  O   -0.977248
    11  C    0.533905
    12  C    0.005612
    13  C    0.016117
    14  C   -0.064326
    15  C    0.429208
    16  C   -0.050657
    17  C    0.004615
    18  Cl  -0.361637
    19  C    0.020654
    20  C   -0.049446
    21  C    0.420107
    22  C   -0.045624
    23  C   -0.009359
    24  Cl  -0.354036
 Electronic spatial extent (au):  <R**2>=          18966.4204
 Charge=             -0.0000 electrons
 Dipole moment (field-independent basis, Debye):
    X=             -0.6113    Y=             -0.7699    Z=              1.0872  Tot=              1.4657
 Quadrupole moment (field-independent basis, Debye-Ang):
   XX=           -150.6291   YY=           -136.2199   ZZ=           -155.9587
   XY=             23.0783   XZ=              3.5142   YZ=              9.2137
 Traceless Quadrupole moment (field-independent basis, Debye-Ang):
   XX=             -3.0265   YY=             11.3826   ZZ=             -8.3561
   XY=             23.0783   XZ=              3.5142   YZ=              9.2137
 Octapole moment (field-independent basis, Debye-Ang**2):
  XXX=            -45.4170  YYY=            -16.3727  ZZZ=            -14.6610  XYY=              4.7353
  XXY=            -23.5256  XXZ=             38.2026  XZZ=            -26.1296  YZZ=              6.2857
  YYZ=              6.8574  XYZ=              2.1579
 Hexadecapole moment (field-independent basis, Debye-Ang**3):
 XXXX=         -23422.6820 YYYY=          -1635.9103 ZZZZ=          -1228.8338 XXXY=            836.2725
 XXXZ=            376.1642 YYYX=            112.8708 YYYZ=             28.9028 ZZZX=              9.1762
 ZZZY=             18.2358 XXYY=          -3755.2511 XXZZ=          -3905.1553 YYZZ=           -477.1308
 XXYZ=            159.8675 YYXZ=              8.1420 ZZXY=              5.4898
 N-N= 2.035010520331D+03 E-N=-8.649523217817D+03  KE= 1.935466359621D+03
  Exact polarizability: 281.833  -1.061 203.391   5.770  20.925 155.513
 Approx polarizability: 341.331   0.487 342.503  13.340  32.686 275.978
 Calling FoFJK, ICntrl=    100127 FMM=F ISym2X=0 I1Cent= 0 IOpClX= 0 NMat=1 NMatS=1 NMatT=0.
 ***** Axes restored to original set *****
 -------------------------------------------------------------------
 Center     Atomic                   Forces (Hartrees/Bohr)
 Number     Number              X              Y              Z
 -------------------------------------------------------------------
      1        6          -0.002580964   -0.005268978    0.010168034
      2        6          -0.014580814   -0.020713570   -0.013908410
      3        8           0.002568342    0.018232932   -0.001473297
      4        6           0.006730334   -0.078533821   -0.001730756
      5        8           0.015250180    0.025808625    0.005356056
      6        7          -0.009778815    0.040847286   -0.002530870
      7        7           0.011839761   -0.040689818    0.003768185
      8        6          -0.010259879    0.075741285    0.003107423
      9        8          -0.009745537   -0.023594307   -0.007755989
     10        8           0.011676301   -0.007914532    0.011076086
     11        6          -0.011419940    0.013239867   -0.005393154
     12        6           0.006969129   -0.001075895   -0.006048656
     13        6           0.002876778   -0.004198463   -0.001054559
     14        6          -0.003596549    0.002166044    0.005809669
     15        6           0.000602519   -0.004846774    0.013780221
     16        6           0.004419101   -0.004193781    0.003651382
     17        6          -0.003642465    0.003223928   -0.002919682
     18       17          -0.000629647    0.005894125   -0.016161538
     19        6          -0.002553952    0.004390652    0.002446100
     20        6           0.005869813   -0.001351591   -0.003873734
     21        6           0.010078013    0.008923715   -0.006234218
     22        6           0.001577726    0.006845792    0.000511135
     23        6          -0.000471152   -0.006499805    0.000531055
     24       17          -0.011504093   -0.010617359    0.007300713
     25        1           0.001696529    0.000108407   -0.000223914
     26        1          -0.002743026    0.016733814    0.000860298
     27        1           0.004268632   -0.007196122    0.001712585
     28        1           0.001262477   -0.004094135    0.002269468
     29        1           0.000163646   -0.001424267   -0.000301344
     30        1           0.001280802   -0.000654977   -0.000661308
     31        1          -0.001301399    0.000964636   -0.000034508
     32        1          -0.002962146    0.000797020   -0.000630622
     33        1          -0.001148291    0.001187604   -0.000477580
     34        1          -0.000873354    0.001060943    0.000925120
     35        1           0.000307884   -0.001447482   -0.000721055
     36        1           0.000354056   -0.001850998   -0.001138334
 -------------------------------------------------------------------
 Cartesian Forces:  Max     0.078533821 RMS     0.013986478
 FormGI is forming the generalized inverse of G from B-inverse, IUseBI=4.

 GradGradGradGradGradGradGradGradGradGradGradGradGradGradGradGradGradGrad
 Berny optimization.
 Internal  Forces:  Max     0.043871534 RMS     0.007341257
 Search for a local minimum.
 Step number   1 out of a maximum of  180
 All quantities printed in internal units (Hartrees-Bohrs-Radians)
 Mixed Optimization -- RFO/linear search
 Second derivative matrix not updated -- analytic derivatives used.
 ITU=  0
     Eigenvalues ---   -0.00301  -0.00153  -0.00070  -0.00042   0.00119
     Eigenvalues ---    0.01039   0.01434   0.01582   0.01621   0.01713
     Eigenvalues ---    0.01729   0.01773   0.01774   0.02020   0.02037
     Eigenvalues ---    0.02215   0.02252   0.02424   0.02523   0.02538
     Eigenvalues ---    0.02670   0.02672   0.02739   0.02744   0.03037
     Eigenvalues ---    0.03050   0.06151   0.06210   0.07018   0.07217
     Eigenvalues ---    0.07772   0.09715   0.10180   0.10546   0.11370
     Eigenvalues ---    0.11401   0.11410   0.11663   0.11668   0.11990
     Eigenvalues ---    0.11993   0.12860   0.12867   0.13769   0.13995
     Eigenvalues ---    0.17410   0.17429   0.17995   0.18002   0.18782
     Eigenvalues ---    0.18841   0.19537   0.19593   0.20547   0.20634
     Eigenvalues ---    0.21424   0.21885   0.23885   0.24014   0.24422
     Eigenvalues ---    0.25075   0.26056   0.27195   0.28906   0.28960
     Eigenvalues ---    0.29391   0.29447   0.30135   0.31402   0.32451
     Eigenvalues ---    0.32476   0.33393   0.33481   0.33969   0.34247
     Eigenvalues ---    0.35573   0.35579   0.35937   0.35992   0.36120
[...]
   142    O   10  py     Val( 2p)     1.68837
   143    O   10  py     Ryd( 3p)     0.00155
   144    O   10  pz     Val( 2p)     1.68226
   145    O   10  pz     Ryd( 3p)     0.00151
   146    O   10  dxy    Ryd( 3d)     0.00052
   147    O   10  dxz    Ryd( 3d)     0.00161
   148    O   10  dyz    Ryd( 3d)     0.00198
   149    O   10  dx2y2  Ryd( 3d)     0.00035
   150    O   10  dz2    Ryd( 3d)     0.00145
 
   151    C   11  S      Cor( 1S)     1.99912
   152    C   11  S      Val( 2S)     1.03221
   153    C   11  S      Ryd( 3S)     0.00121
   154    C   11  S      Ryd( 4S)     0.00005
   155    C   11  px     Val( 2p)     0.78571
   156    C   11  px     Ryd( 3p)     0.00311
   157    C   11  py     Val( 2p)     1.03015
   158    C   11  py     Ryd( 3p)     0.00116
   159    C   11  pz     Val( 2p)     1.25771
   160    C   11  pz     Ryd( 3p)     0.00769
   161    C   11  dxy    Ryd( 3d)     0.00160
   162    C   11  dxz    Ryd( 3d)     0.00066
   163    C   11  dyz    Ryd( 3d)     0.00138
   164    C   11  dx2y2  Ryd( 3d)     0.00139
   165    C   11  dz2    Ryd( 3d)     0.00108
 
   166    C   12  S      Cor( 1S)     1.99901
   167    C   12  S      Val( 2S)     0.88852
   168    C   12  S      Ryd( 3S)     0.00068
   169    C   12  S      Ryd( 4S)     0.00006
   170    C   12  px     Val( 2p)     1.05235
   171    C   12  px     Ryd( 3p)     0.00390
   172    C   12  py     Val( 2p)     1.04629
   173    C   12  py     Ryd( 3p)     0.00244
   174    C   12  pz     Val( 2p)     1.09355
   175    C   12  pz     Ryd( 3p)     0.00444
   176    C   12  dxy    Ryd( 3d)     0.00052
   177    C   12  dxz    Ryd( 3d)     0.00066
   178    C   12  dyz    Ryd( 3d)     0.00066
   179    C   12  dx2y2  Ryd( 3d)     0.00037
   180    C   12  dz2    Ryd( 3d)     0.00058
 
   181    C   13  S      Cor( 1S)     1.99903
   182    C   13  S      Val( 2S)     0.95332
   183    C   13  S      Ryd( 3S)     0.00058
   184    C   13  S      Ryd( 4S)     0.00005
   185    C   13  px     Val( 2p)     1.03923
   186    C   13  px     Ryd( 3p)     0.00282
   187    C   13  py     Val( 2p)     1.01919
   188    C   13  py     Ryd( 3p)     0.00183
   189    C   13  pz     Val( 2p)     1.17517
   190    C   13  pz     Ryd( 3p)     0.00501
   191    C   13  dxy    Ryd( 3d)     0.00042
   192    C   13  dxz    Ryd( 3d)     0.00058
   193    C   13  dyz    Ryd( 3d)     0.00054
   194    C   13  dx2y2  Ryd( 3d)     0.00054
   195    C   13  dz2    Ryd( 3d)     0.00074
 
   196    C   14  S      Cor( 1S)     1.99893
   197    C   14  S      Val( 2S)     0.95910
   198    C   14  S      Ryd( 3S)     0.00097
   199    C   14  S      Ryd( 4S)     0.00005
   200    C   14  px     Val( 2p)     1.07570
   201    C   14  px     Ryd( 3p)     0.00383
   202    C   14  py     Val( 2p)     1.03828
   203    C   14  py     Ryd( 3p)     0.00256
   204    C   14  pz     Val( 2p)     1.15648
   205    C   14  pz     Ryd( 3p)     0.00479
   206    C   14  dxy    Ryd( 3d)     0.00043
   207    C   14  dxz    Ryd( 3d)     0.00067
   208    C   14  dyz    Ryd( 3d)     0.00054
   209    C   14  dx2y2  Ryd( 3d)     0.00046
   210    C   14  dz2    Ryd( 3d)     0.00060
 
   211    C   15  S      Cor( 1S)     1.99856
   212    C   15  S      Val( 2S)     0.93312
   213    C   15  S      Ryd( 3S)     0.00060
   214    C   15  S      Ryd( 4S)     0.00009
   215    C   15  px     Val( 2p)     0.97385
   216    C   15  px     Ryd( 3p)     0.00492
   217    C   15  py     Val( 2p)     1.00442
   218    C   15  py     Ryd( 3p)     0.00333
   219    C   15  pz     Val( 2p)     1.10393
   220    C   15  pz     Ryd( 3p)     0.00767
   221    C   15  dxy    Ryd( 3d)     0.00139
   222    C   15  dxz    Ryd( 3d)     0.00089
   223    C   15  dyz    Ryd( 3d)     0.00080
   224    C   15  dx2y2  Ryd( 3d)     0.00109
   225    C   15  dz2    Ryd( 3d)     0.00099
 
   226    C   16  S      Cor( 1S)     1.99894
   227    C   16  S      Val( 2S)     0.95984
   228    C   16  S      Ryd( 3S)     0.00097
   229    C   16  S      Ryd( 4S)     0.00005
   230    C   16  px     Val( 2p)     1.05122
   231    C   16  px     Ryd( 3p)     0.00368
   232    C   16  py     Val( 2p)     1.03470
   233    C   16  py     Ryd( 3p)     0.00256
   234    C   16  pz     Val( 2p)     1.18251
   235    C   16  pz     Ryd( 3p)     0.00495
   236    C   16  dxy    Ryd( 3d)     0.00040
   237    C   16  dxz    Ryd( 3d)     0.00064
   238    C   16  dyz    Ryd( 3d)     0.00056
   239    C   16  dx2y2  Ryd( 3d)     0.00046
   240    C   16  dz2    Ryd( 3d)     0.00065
 
   241    C   17  S      Cor( 1S)     1.99903
   242    C   17  S      Val( 2S)     0.95646
   243    C   17  S      Ryd( 3S)     0.00059
   244    C   17  S      Ryd( 4S)     0.00004
   245    C   17  px     Val( 2p)     1.05728
   246    C   17  px     Ryd( 3p)     0.00313
   247    C   17  py     Val( 2p)     1.01497
   248    C   17  py     Ryd( 3p)     0.00189
   249    C   17  pz     Val( 2p)     1.15781
   250    C   17  pz     Ryd( 3p)     0.00483
   251    C   17  dxy    Ryd( 3d)     0.00044
   252    C   17  dxz    Ryd( 3d)     0.00070
   253    C   17  dyz    Ryd( 3d)     0.00054
   254    C   17  dx2y2  Ryd( 3d)     0.00052
   255    C   17  dz2    Ryd( 3d)     0.00063
 
   256   Cl   18  S      Cor( 1S)     2.00000
   257   Cl   18  S      Cor( 2S)     1.99979
   258   Cl   18  S      Val( 3S)     1.83542
   259   Cl   18  S      Ryd( 4S)     0.00331
   260   Cl   18  S      Ryd( 5S)     0.00000
   261   Cl   18  px     Cor( 2p)     1.99994
   262   Cl   18  px     Val( 3p)     1.50784
   263   Cl   18  px     Ryd( 4p)     0.00306
   264   Cl   18  py     Cor( 2p)     1.99996
   265   Cl   18  py     Val( 3p)     1.67015
   266   Cl   18  py     Ryd( 4p)     0.00250
   267   Cl   18  pz     Cor( 2p)     1.99999
   268   Cl   18  pz     Val( 3p)     1.96525
   269   Cl   18  pz     Ryd( 4p)     0.00154
   270   Cl   18  dxy    Ryd( 3d)     0.00377
   271   Cl   18  dxz    Ryd( 3d)     0.00082
   272   Cl   18  dyz    Ryd( 3d)     0.00051
   273   Cl   18  dx2y2  Ryd( 3d)     0.00242
   274   Cl   18  dz2    Ryd( 3d)     0.00136
 
   275    C   19  S      Cor( 1S)     1.99903
   276    C   19  S      Val( 2S)     0.95646
   277    C   19  S      Ryd( 3S)     0.00059
   278    C   19  S      Ryd( 4S)     0.00004
   279    C   19  px     Val( 2p)     1.05728
   280    C   19  px     Ryd( 3p)     0.00313
   281    C   19  py     Val( 2p)     1.01497
   282    C   19  py     Ryd( 3p)     0.00189
   283    C   19  pz     Val( 2p)     1.15781
   284    C   19  pz     Ryd( 3p)     0.00483
   285    C   19  dxy    Ryd( 3d)     0.00044
   286    C   19  dxz    Ryd( 3d)     0.00070
   287    C   19  dyz    Ryd( 3d)     0.00054
   288    C   19  dx2y2  Ryd( 3d)     0.00052
   289    C   19  dz2    Ryd( 3d)     0.00063
 
   290    C   20  S      Cor( 1S)     1.99894
   291    C   20  S      Val( 2S)     0.95984
   292    C   20  S      Ryd( 3S)     0.00097
   293    C   20  S      Ryd( 4S)     0.00005
   294    C   20  px     Val( 2p)     1.05122
   295    C   20  px     Ryd( 3p)     0.00368
   296    C   20  py     Val( 2p)     1.03470
   297    C   20  py     Ryd( 3p)     0.00256
   298    C   20  pz     Val( 2p)     1.18251
   299    C   20  pz     Ryd( 3p)     0.00495
   300    C   20  dxy    Ryd( 3d)     0.00040
   301    C   20  dxz    Ryd( 3d)     0.00064
   302    C   20  dyz    Ryd( 3d)     0.00056
   303    C   20  dx2y2  Ryd( 3d)     0.00046
   304    C   20  dz2    Ryd( 3d)     0.00065
 
   305    C   21  S      Cor( 1S)     1.99856
   306    C   21  S      Val( 2S)     0.93312
   307    C   21  S      Ryd( 3S)     0.00060
   308    C   21  S      Ryd( 4S)     0.00009
   309    C   21  px     Val( 2p)     0.97385
   310    C   21  px     Ryd( 3p)     0.00492
   311    C   21  py     Val( 2p)     1.00442
   312    C   21  py     Ryd( 3p)     0.00333
   313    C   21  pz     Val( 2p)     1.10393
   314    C   21  pz     Ryd( 3p)     0.00767
   315    C   21  dxy    Ryd( 3d)     0.00139
   316    C   21  dxz    Ryd( 3d)     0.00089
   317    C   21  dyz    Ryd( 3d)     0.00080
   318    C   21  dx2y2  Ryd( 3d)     0.00109
   319    C   21  dz2    Ryd( 3d)     0.00099
 
   320    C   22  S      Cor( 1S)     1.99893
   321    C   22  S      Val( 2S)     0.95910
   322    C   22  S      Ryd( 3S)     0.00097
   323    C   22  S      Ryd( 4S)     0.00005
   324    C   22  px     Val( 2p)     1.07570
   325    C   22  px     Ryd( 3p)     0.00383
   326    C   22  py     Val( 2p)     1.03828
   327    C   22  py     Ryd( 3p)     0.00256
   328    C   22  pz     Val( 2p)     1.15648
   329    C   22  pz     Ryd( 3p)     0.00479
   330    C   22  dxy    Ryd( 3d)     0.00043
   331    C   22  dxz    Ryd( 3d)     0.00067
   332    C   22  dyz    Ryd( 3d)     0.00054
   333    C   22  dx2y2  Ryd( 3d)     0.00046
   334    C   22  dz2    Ryd( 3d)     0.00060
 
   335    C   23  S      Cor( 1S)     1.99903
   336    C   23  S      Val( 2S)     0.95332
   337    C   23  S      Ryd( 3S)     0.00058
   338    C   23  S      Ryd( 4S)     0.00005
   339    C   23  px     Val( 2p)     1.03923
   340    C   23  px     Ryd( 3p)     0.00282
   341    C   23  py     Val( 2p)     1.01919
   342    C   23  py     Ryd( 3p)     0.00183
   343    C   23  pz     Val( 2p)     1.17517
   344    C   23  pz     Ryd( 3p)     0.00501
   345    C   23  dxy    Ryd( 3d)     0.00042
   346    C   23  dxz    Ryd( 3d)     0.00058
   347    C   23  dyz    Ryd( 3d)     0.00054
   348    C   23  dx2y2  Ryd( 3d)     0.00054
   349    C   23  dz2    Ryd( 3d)     0.00074
 
   350   Cl   24  S      Cor( 1S)     2.00000
   351   Cl   24  S      Cor( 2S)     1.99979
   352   Cl   24  S      Val( 3S)     1.83542
   353   Cl   24  S      Ryd( 4S)     0.00331
   354   Cl   24  S      Ryd( 5S)     0.00000
   355   Cl   24  px     Cor( 2p)     1.99994
   356   Cl   24  px     Val( 3p)     1.50784
   357   Cl   24  px     Ryd( 4p)     0.00306
   358   Cl   24  py     Cor( 2p)     1.99996
   359   Cl   24  py     Val( 3p)     1.67015
   360   Cl   24  py     Ryd( 4p)     0.00250
   361   Cl   24  pz     Cor( 2p)     1.99999
   362   Cl   24  pz     Val( 3p)     1.96525
   363   Cl   24  pz     Ryd( 4p)     0.00154
   364   Cl   24  dxy    Ryd( 3d)     0.00377
   365   Cl   24  dxz    Ryd( 3d)     0.00082
   366   Cl   24  dyz    Ryd( 3d)     0.00051
   367   Cl   24  dx2y2  Ryd( 3d)     0.00242
   368   Cl   24  dz2    Ryd( 3d)     0.00136
 
   369    H   25  S      Val( 1S)     0.75420
   370    H   25  S      Ryd( 2S)     0.00217
 
   371    H   26  S      Val( 1S)     0.75500
   372    H   26  S      Ryd( 2S)     0.00111
 
   373    H   27  S      Val( 1S)     0.75420
   374    H   27  S      Ryd( 2S)     0.00217
 
   375    H   28  S      Val( 1S)     0.75500
   376    H   28  S      Ryd( 2S)     0.00111
 
   377    H   29  S      Val( 1S)     0.75506
   378    H   29  S      Ryd( 2S)     0.00100
 
   379    H   30  S      Val( 1S)     0.74245
   380    H   30  S      Ryd( 2S)     0.00101
 
   381    H   31  S      Val( 1S)     0.74181
   382    H   31  S      Ryd( 2S)     0.00100
 
   383    H   32  S      Val( 1S)     0.74020
   384    H   32  S      Ryd( 2S)     0.00132
 
   385    H   33  S      Val( 1S)     0.74020
   386    H   33  S      Ryd( 2S)     0.00132
 
   387    H   34  S      Val( 1S)     0.74181
   388    H   34  S      Ryd( 2S)     0.00100
 
   389    H   35  S      Val( 1S)     0.74245
   390    H   35  S      Ryd( 2S)     0.00101
 
   391    H   36  S      Val( 1S)     0.75506
   392    H   36  S      Ryd( 2S)     0.00100

 WARNING:  1 low occupancy (<1.9990e) core orbital  found on  C   14
           1 low occupancy (<1.9990e) core orbital  found on  C   15
           1 low occupancy (<1.9990e) core orbital  found on  C   16
           1 low occupancy (<1.9990e) core orbital  found on  C   20
           1 low occupancy (<1.9990e) core orbital  found on  C   21
           1 low occupancy (<1.9990e) core orbital  found on  C   22


 Summary of Natural Population Analysis:                  
                                                          
                                       Natural Population 
                Natural  -----------------------------------------------
    Atom  No    Charge         Core      Valence    Rydberg      Total
 -----------------------------------------------------------------------
      C    1   -0.09406      1.99901     4.08072    0.01433     6.09406
      C    2   -0.12421      1.99912     4.10576    0.01933     6.12421
      O    3   -0.52175      1.99973     6.50975    0.01227     8.52175
      C    4    0.91916      1.99950     3.03105    0.05029     5.08084
      O    5   -0.55586      1.99977     6.53539    0.02070     8.55586
      N    6   -0.21025      1.99938     5.18460    0.02627     7.21025
      N    7   -0.21025      1.99938     5.18460    0.02627     7.21025
      C    8    0.91916      1.99950     3.03105    0.05029     5.08084
      O    9   -0.55586      1.99977     6.53539    0.02070     8.55586
      O   10   -0.52175      1.99973     6.50975    0.01227     8.52175
      C   11   -0.12421      1.99912     4.10576    0.01933     6.12421
      C   12   -0.09406      1.99901     4.08072    0.01433     6.09406
      C   13   -0.19904      1.99903     4.18691    0.01310     6.19904
      C   14   -0.24340      1.99893     4.22956    0.01491     6.24340
      C   15   -0.03563      1.99856     4.01532    0.02175     6.03563
      C   16   -0.24214      1.99894     4.22828    0.01492     6.24214
      C   17   -0.19887      1.99903     4.18652    0.01332     6.19887
     Cl   18    0.00238      9.99967     6.97866    0.01929    16.99762
      C   19   -0.19887      1.99903     4.18652    0.01332     6.19887
      C   20   -0.24214      1.99894     4.22828    0.01492     6.24214
      C   21   -0.03563      1.99856     4.01532    0.02175     6.03563
      C   22   -0.24340      1.99893     4.22956    0.01491     6.24340
      C   23   -0.19904      1.99903     4.18691    0.01310     6.19904
     Cl   24    0.00238      9.99967     6.97866    0.01929    16.99762
      H   25    0.24364      0.00000     0.75420    0.00217     0.75636
      H   26    0.24389      0.00000     0.75500    0.00111     0.75611
      H   27    0.24364      0.00000     0.75420    0.00217     0.75636
      H   28    0.24389      0.00000     0.75500    0.00111     0.75611
      H   29    0.24394      0.00000     0.75506    0.00100     0.75606
      H   30    0.25654      0.00000     0.74245    0.00101     0.74346
      H   31    0.25719      0.00000     0.74181    0.00100     0.74281
      H   32    0.25848      0.00000     0.74020    0.00132     0.74152
      H   33    0.25848      0.00000     0.74020    0.00132     0.74152
      H   34    0.25719      0.00000     0.74181    0.00100     0.74281
      H   35    0.25654      0.00000     0.74245    0.00101     0.74346
      H   36    0.24394      0.00000     0.75506    0.00100     0.75606
 =======================================================================
   * Total *   -0.00000     63.98134   123.52244    0.49622   188.00000

                                 Natural Population      
 --------------------------------------------------------
   Core                      63.98134 ( 99.9708% of  64)
   Valence                  123.52244 ( 99.6149% of 124)
   Natural Minimal Basis    187.50378 ( 99.7361% of 188)
   Natural Rydberg Basis      0.49622 (  0.2639% of 188)
 --------------------------------------------------------

    Atom  No          Natural Electron Configuration
 ----------------------------------------------------------------------------
      C    1      [core]2S( 0.89)2p( 3.19)3p( 0.01)
      C    2      [core]2S( 1.03)2p( 3.07)3p( 0.01)3d( 0.01)
      O    3      [core]2S( 1.63)2p( 4.88)3d( 0.01)
      C    4      [core]2S( 0.73)2p( 2.30)3p( 0.03)3d( 0.01)
      O    5      [core]2S( 1.71)2p( 4.83)3d( 0.02)
      N    6      [core]2S( 1.39)2p( 3.79)3S( 0.01)3p( 0.01)3d( 0.01)
      N    7      [core]2S( 1.39)2p( 3.79)3S( 0.01)3p( 0.01)3d( 0.01)
      C    8      [core]2S( 0.73)2p( 2.30)3p( 0.03)3d( 0.01)
      O    9      [core]2S( 1.71)2p( 4.83)3d( 0.02)
      O   10      [core]2S( 1.63)2p( 4.88)3d( 0.01)
      C   11      [core]2S( 1.03)2p( 3.07)3p( 0.01)3d( 0.01)
      C   12      [core]2S( 0.89)2p( 3.19)3p( 0.01)
      C   13      [core]2S( 0.95)2p( 3.23)3p( 0.01)
      C   14      [core]2S( 0.96)2p( 3.27)3p( 0.01)
      C   15      [core]2S( 0.93)2p( 3.08)3p( 0.02)3d( 0.01)
      C   16      [core]2S( 0.96)2p( 3.27)3p( 0.01)
      C   17      [core]2S( 0.96)2p( 3.23)3p( 0.01)
     Cl   18      [core]3S( 1.84)3p( 5.14)3d( 0.01)4p( 0.01)
      C   19      [core]2S( 0.96)2p( 3.23)3p( 0.01)
      C   20      [core]2S( 0.96)2p( 3.27)3p( 0.01)
      C   21      [core]2S( 0.93)2p( 3.08)3p( 0.02)3d( 0.01)
      C   22      [core]2S( 0.96)2p( 3.27)3p( 0.01)
      C   23      [core]2S( 0.95)2p( 3.23)3p( 0.01)
     Cl   24      [core]3S( 1.84)3p( 5.14)3d( 0.01)4p( 0.01)
      H   25            1S( 0.75)
      H   26            1S( 0.75)
      H   27            1S( 0.75)
      H   28            1S( 0.75)
      H   29            1S( 0.76)
      H   30            1S( 0.74)
      H   31            1S( 0.74)
      H   32            1S( 0.74)
      H   33            1S( 0.74)
      H   34            1S( 0.74)
      H   35            1S( 0.74)
      H   36            1S( 0.76)


 NBO analysis skipped by request.
 1\1\GINC-DELLA-R2C1N10\SP\RB3LYP TD-FC\6-31G(d)\C16H12Cl2N2O4\BJS4\22-
 Aug-2020\0\\# TD(NStates=10, Root=1) B3LYP/6-31G* scf=qc volume pop=NP
 A density=current Geom=AllCheck Guess=Read\\Title Card Required\\0,1\C
 ,0,-4.3820210078,-0.9617055805,0.905011653\C,0,-3.9085347819,-0.111289
 8904,-0.2430086391\O,0,-4.6997971187,1.116753918,-0.3720890972\C,0,-5.
 7813774491,1.0395439414,-1.1430048585\O,0,-6.1978815413,0.0859882659,-
 1.7531919359\N,0,-6.3933213845,2.3439275909,-1.2913664693\N,0,-7.01978
 37418,2.7040357735,-0.2768277154\C,0,-7.6317275204,4.0084195343,-0.425
 1892832\O,0,-7.2152190201,4.9619769383,0.1849920587\O,0,-8.7133129251,
 3.9312077356,-1.1960977247\C,0,-9.5045751925,5.1592516738,-1.325177117
 1\C,0,-9.0310951326,6.0096638937,-2.4732025408\C,0,-9.5402795154,5.804
 5031029,-3.7611929504\C,0,-9.1071256172,6.5786729026,-4.8360572946\C,0
 ,-8.1520037513,7.5698115869,-4.6120199301\C,0,-7.627564536,7.794094420
 3,-3.3393291808\C,0,-8.0705880331,7.0103366671,-2.2752570436\Cl,0,-7.6
 023837059,8.5567041413,-5.9581837024\C,0,-5.3425272886,-1.9623775409,0
 .7070580377\C,0,-5.7855565026,-2.7461384928,1.7711254318\C,0,-5.261123
 8523,-2.5218597403,3.043819608\C,0,-4.3060029324,-1.530721973,3.267865
 0229\C,0,-3.8728432943,-0.7565489058,2.1930053447\Cl,0,-5.8107510949,-
 3.508756387,4.3899774302\H,0,-3.9584292676,-0.646672855,-1.1929680789\
 H,0,-2.8951154259,0.2577942241,-0.0783280833\H,0,-9.4546748881,5.69463
 72992,-0.3752194813\H,0,-10.517995726,4.7901676985,-1.4898507497\H,0,-
 10.2855205135,5.0310887195,-3.930037773\H,0,-9.5045055935,6.4197055559
 ,-5.8326557684\H,0,-6.8855575601,8.5701168209,-3.1853554412\H,0,-7.659
 176419,7.1686123447,-1.2830472628\H,0,-5.7539337288,-2.1206500929,-0.2
 85154386\H,0,-6.5275628292,-3.5221602674,1.6171454112\H,0,-3.908628090
 6,-1.3717578216,4.2644660512\H,0,-3.1276030179,0.0168647982,2.36185645
 86\\Version=ES64L-G16RevA.03\State=1-A\HF=-1947.6739163\RMSD=6.966e-10
 \Dipole=-0.0000021,0.0000026,0.0000061\Quadrupole=13.579599,-5.708065,
 -7.871534,-7.3953377,4.6480885,5.7800681\PG=C01 [X(C16H12Cl2N2O4)]\\@


 DEFINE YOUR TERMS, YOU WILL PERMIT ME AGAIN TO SAY, 
 OR WE SHALL NEVER UNDERSTAND ONE ANOTHER.

                                    -- VOLTAIRE
 Job cpu time:       0 days  0 hours 53 minutes 29.5 seconds.
 Elapsed time:       0 days  0 hours 10 minutes 44.0 seconds.
 File lengths (MBytes):  RWF=   1224 Int=      0 D2E=      0 Chk=    268 Scr=      1
 Normal termination of Gaussian 16 at Sat Aug 22 16:07:35 2020.
