 Entering Gaussian System, Link 0=g16
 Input=azadicarboxylate_6_conf11123.com
 Output=azadicarboxylate_6_conf11123.log
 Initial command:
 /opt/export//g16/l1.exe "/scratch/bjs4/job.25725/Gau-25727.inp" -scrdir="/scratch/bjs4/job.25725/"
 Entering Link 1 = /opt/export//g16/l1.exe PID=     25728.
  
 Copyright (c) 1988,1990,1992,1993,1995,1998,2003,2009,2016,
            Gaussian, Inc.  All Rights Reserved.
  
 This is part of the Gaussian(R) 16 program.  It is based on
 the Gaussian(R) 09 system (copyright 2009, Gaussian, Inc.),
 the Gaussian(R) 03 system (copyright 2003, Gaussian, Inc.),
 the Gaussian(R) 98 system (copyright 1998, Gaussian, Inc.),
 the Gaussian(R) 94 system (copyright 1995, Gaussian, Inc.),
 the Gaussian 92(TM) system (copyright 1992, Gaussian, Inc.),
 the Gaussian 90(TM) system (copyright 1990, Gaussian, Inc.),
 the Gaussian 88(TM) system (copyright 1988, Gaussian, Inc.),
 the Gaussian 86(TM) system (copyright 1986, Carnegie Mellon
 University), and the Gaussian 82(TM) system (copyright 1983,
 Carnegie Mellon University). Gaussian is a federally registered
 trademark of Gaussian, Inc.
  
 This software contains proprietary and confidential information,
 including trade secrets, belonging to Gaussian, Inc.
  
 This software is provided under written license and may be
 used, copied, transmitted, or stored only in accord with that
 written license.
  
 The following legend is applicable only to US Government
 contracts under FAR:
  
                    RESTRICTED RIGHTS LEGEND
  
 Use, reproduction and disclosure by the US Government is
 subject to restrictions as set forth in subparagraphs (a)
 and (c) of the Commercial Computer Software - Restricted
 Rights clause in FAR 52.227-19.
  
 Gaussian, Inc.
 340 Quinnipiac St., Bldg. 40, Wallingford CT 06492
  
  
 ---------------------------------------------------------------
 Warning -- This program may not be used in any manner that
 competes with the business of Gaussian, Inc. or will provide
 assistance to any competitor of Gaussian, Inc.  The licensee
 of this program is prohibited from giving any competitor of
 Gaussian, Inc. access to this program.  By using this program,
 the user acknowledges that Gaussian, Inc. is engaged in the
 business of creating and licensing software in the field of
 computational chemistry and represents and warrants to the
 licensee that it is not a competitor of Gaussian, Inc. and that
 it will not use this program in any manner prohibited above.
 ---------------------------------------------------------------
  

 Cite this work as:
 Gaussian 16, Revision A.03,
 M. J. Frisch, G. W. Trucks, H. B. Schlegel, G. E. Scuseria, 
 M. A. Robb, J. R. Cheeseman, G. Scalmani, V. Barone, 
 G. A. Petersson, H. Nakatsuji, X. Li, M. Caricato, A. V. Marenich, 
 J. Bloino, B. G. Janesko, R. Gomperts, B. Mennucci, H. P. Hratchian, 
 J. V. Ortiz, A. F. Izmaylov, J. L. Sonnenberg, D. Williams-Young, 
 F. Ding, F. Lipparini, F. Egidi, J. Goings, B. Peng, A. Petrone, 
 T. Henderson, D. Ranasinghe, V. G. Zakrzewski, J. Gao, N. Rega, 
 G. Zheng, W. Liang, M. Hada, M. Ehara, K. Toyota, R. Fukuda, 
 J. Hasegawa, M. Ishida, T. Nakajima, Y. Honda, O. Kitao, H. Nakai, 
 T. Vreven, K. Throssell, J. A. Montgomery, Jr., J. E. Peralta, 
 F. Ogliaro, M. J. Bearpark, J. J. Heyd, E. N. Brothers, K. N. Kudin, 
 V. N. Staroverov, T. A. Keith, R. Kobayashi, J. Normand, 
 K. Raghavachari, A. P. Rendell, J. C. Burant, S. S. Iyengar, 
 J. Tomasi, M. Cossi, J. M. Millam, M. Klene, C. Adamo, R. Cammi, 
 J. W. Ochterski, R. L. Martin, K. Morokuma, O. Farkas, 
 J. B. Foresman, and D. J. Fox, Gaussian, Inc., Wallingford CT, 2016.
 
 ******************************************
 Gaussian 16:  ES64L-G16RevA.03 25-Dec-2016
                22-Aug-2020 
 ******************************************
 %nprocshared=3
 Will use up to    3 processors via shared memory.
 %Mem=6GB
 %Chk=azadicarboxylate_6_conf111.chk
 ---------------------------------
 # opt=CalcAll B3LYP/6-31G* scf=qc
 ---------------------------------
 1/10=4,18=20,19=15,26=3,38=1/1,3;
 2/9=110,12=2,17=6,18=5,40=1/2;
 3/5=1,6=6,7=1,11=2,25=1,30=1,71=2,74=-5,140=1/1,2,3;
 4//1;
 5/5=2,8=3,38=5/8;
 8/6=4,10=90,11=11/1;
 11/6=1,8=1,9=11,15=111,16=1/1,2,10;
 10/6=1/2;
 6/7=2,8=2,9=2,10=2,18=1,28=1/1;
 7/10=1,25=1/1,2,3,16;
 1/10=4,18=20,19=15,26=3/3(3);
 2/9=110/2;
 7/8=1,9=1,25=1,44=-1/16;
 99//99;
 2/9=110/2;
 3/5=1,6=6,7=1,11=2,25=1,30=1,71=2,74=-5,140=1/1,2,3;
 4/5=5,16=3,69=1/1;
 5/5=2,8=3,38=5/8;
 8/6=4,10=90,11=11/1;
 11/6=1,8=1,9=11,15=111,16=1/1,2,10;
 10/6=1/2;
 7/10=1,25=1/1,2,3,16;
 1/10=4,18=20,19=15,26=3/3(-8);
 2/9=110/2;
 6/7=2,8=2,9=2,10=2,18=1,19=2,28=1/1;
 7/8=1,9=1,25=1,44=-1/16;
 99//99;
 -------------------
 Title Card Required
 -------------------
 Symbolic Z-matrix:
 Charge =  0 Multiplicity = 1
 C2                    0.8051    0.1255    0.0867 
 O3                    2.02533  -0.02645  -0.00102 
 N4                    0.1995    1.147     0.7925 
 N5                   -1.0503    1.0879    0.7508 
 C6                   -1.6557    2.1093    1.4564 
 O7                   -2.75077   2.01172   2.01407 
 N8                   -0.93306   3.30416   1.50621 
 C                    -1.39734   4.49469   2.19983 
 C                     0.35335   3.40013   0.84204 
 N1                   -0.07188  -0.75904  -0.54555 
 C                     0.45271  -1.87208  -1.31473 
 C                    -1.5192   -0.63611  -0.48315 
 H                    -2.36894   4.35848   2.6779 
 H                    -1.47363   5.31228   1.47643 
 H                    -0.66313   4.76021   2.96651 
 H                     0.63667   2.47014   0.34348 
 H                     1.11605   3.64635   1.5869 
 H                     0.30491   4.19874   0.09567 
 H                     1.54488  -1.90075  -1.31715 
 H                     0.10092  -1.78251  -2.34686 
 H                     0.07726  -2.80492  -0.88372 
 H                    -1.84992   0.21897   0.10895 
 H                    -1.92796  -1.5492   -0.03961 
 H                    -1.90418  -0.52764  -1.50173 
 

 GradGradGradGradGradGradGradGradGradGradGradGradGradGradGradGradGradGrad
 Berny optimization.
 Initialization pass.
                           ----------------------------
                           !    Initial Parameters    !
                           ! (Angstroms and Degrees)  !
 --------------------------                            --------------------------
 ! Name  Definition              Value          Derivative Info.                !
 --------------------------------------------------------------------------------
 ! R1    R(1,2)                  1.2328         calculate D2E/DX2 analytically  !
 ! R2    R(1,3)                  1.3814         calculate D2E/DX2 analytically  !
 ! R3    R(1,10)                 1.3969         calculate D2E/DX2 analytically  !
 ! R4    R(3,4)                  1.2519         calculate D2E/DX2 analytically  !
 ! R5    R(4,5)                  1.3812         calculate D2E/DX2 analytically  !
 ! R6    R(5,6)                  1.2328         calculate D2E/DX2 analytically  !
 ! R7    R(5,7)                  1.3973         calculate D2E/DX2 analytically  !
 ! R8    R(7,8)                  1.454          calculate D2E/DX2 analytically  !
 ! R9    R(7,9)                  1.4509         calculate D2E/DX2 analytically  !
 ! R10   R(8,13)                 1.0914         calculate D2E/DX2 analytically  !
 ! R11   R(8,14)                 1.0943         calculate D2E/DX2 analytically  !
 ! R12   R(8,15)                 1.0942         calculate D2E/DX2 analytically  !
 ! R13   R(9,16)                 1.0926         calculate D2E/DX2 analytically  !
 ! R14   R(9,17)                 1.0941         calculate D2E/DX2 analytically  !
 ! R15   R(9,18)                 1.0942         calculate D2E/DX2 analytically  !
 ! R16   R(10,11)                1.4511         calculate D2E/DX2 analytically  !
 ! R17   R(10,12)                1.4539         calculate D2E/DX2 analytically  !
 ! R18   R(11,19)                1.0925         calculate D2E/DX2 analytically  !
 ! R19   R(11,20)                1.0941         calculate D2E/DX2 analytically  !
 ! R20   R(11,21)                1.094          calculate D2E/DX2 analytically  !
 ! R21   R(12,22)                1.0914         calculate D2E/DX2 analytically  !
 ! R22   R(12,23)                1.0943         calculate D2E/DX2 analytically  !
 ! R23   R(12,24)                1.0943         calculate D2E/DX2 analytically  !
 ! A1    A(2,1,3)              124.154          calculate D2E/DX2 analytically  !
 ! A2    A(2,1,10)             120.7418         calculate D2E/DX2 analytically  !
 ! A3    A(3,1,10)             115.1042         calculate D2E/DX2 analytically  !
 ! A4    A(1,3,4)              112.6888         calculate D2E/DX2 analytically  !
 ! A5    A(3,4,5)              112.6849         calculate D2E/DX2 analytically  !
 ! A6    A(4,5,6)              124.1897         calculate D2E/DX2 analytically  !
 ! A7    A(4,5,7)              115.0815         calculate D2E/DX2 analytically  !
 ! A8    A(6,5,7)              120.7288         calculate D2E/DX2 analytically  !
 ! A9    A(5,7,8)              123.5083         calculate D2E/DX2 analytically  !
 ! A10   A(5,7,9)              119.9194         calculate D2E/DX2 analytically  !
 ! A11   A(8,7,9)              116.5723         calculate D2E/DX2 analytically  !
 ! A12   A(7,8,13)             113.0199         calculate D2E/DX2 analytically  !
 ! A13   A(7,8,14)             108.5815         calculate D2E/DX2 analytically  !
 ! A14   A(7,8,15)             108.583          calculate D2E/DX2 analytically  !
 ! A15   A(13,8,14)            108.7079         calculate D2E/DX2 analytically  !
 ! A16   A(13,8,15)            108.7057         calculate D2E/DX2 analytically  !
 ! A17   A(14,8,15)            109.1865         calculate D2E/DX2 analytically  !
 ! A18   A(7,9,16)             112.4882         calculate D2E/DX2 analytically  !
 ! A19   A(7,9,17)             108.7412         calculate D2E/DX2 analytically  !
 ! A20   A(7,9,18)             108.7403         calculate D2E/DX2 analytically  !
 ! A21   A(16,9,17)            108.7496         calculate D2E/DX2 analytically  !
 ! A22   A(16,9,18)            108.7524         calculate D2E/DX2 analytically  !
 ! A23   A(17,9,18)            109.3289         calculate D2E/DX2 analytically  !
 ! A24   A(1,10,11)            119.9115         calculate D2E/DX2 analytically  !
 ! A25   A(1,10,12)            123.5058         calculate D2E/DX2 analytically  !
 ! A26   A(11,10,12)           116.5827         calculate D2E/DX2 analytically  !
 ! A27   A(10,11,19)           112.5003         calculate D2E/DX2 analytically  !
 ! A28   A(10,11,20)           108.724          calculate D2E/DX2 analytically  !
 ! A29   A(10,11,21)           108.731          calculate D2E/DX2 analytically  !
 ! A30   A(19,11,20)           108.7524         calculate D2E/DX2 analytically  !
 ! A31   A(19,11,21)           108.7571         calculate D2E/DX2 analytically  !
 ! A32   A(20,11,21)           109.3359         calculate D2E/DX2 analytically  !
 ! A33   A(10,12,22)           113.0288         calculate D2E/DX2 analytically  !
 ! A34   A(10,12,23)           108.5837         calculate D2E/DX2 analytically  !
 ! A35   A(10,12,24)           108.5814         calculate D2E/DX2 analytically  !
 ! A36   A(22,12,23)           108.7022         calculate D2E/DX2 analytically  !
 ! A37   A(22,12,24)           108.7062         calculate D2E/DX2 analytically  !
 ! A38   A(23,12,24)           109.1816         calculate D2E/DX2 analytically  !
 ! D1    D(2,1,3,4)           -179.2373         calculate D2E/DX2 analytically  !
 ! D2    D(10,1,3,4)             0.7503         calculate D2E/DX2 analytically  !
 ! D3    D(2,1,10,11)            0.0592         calculate D2E/DX2 analytically  !
 ! D4    D(2,1,10,12)         -179.9398         calculate D2E/DX2 analytically  !
 ! D5    D(3,1,10,11)         -179.9289         calculate D2E/DX2 analytically  !
 ! D6    D(3,1,10,12)            0.0721         calculate D2E/DX2 analytically  !
 ! D7    D(1,3,4,5)           -179.9952         calculate D2E/DX2 analytically  !
 ! D8    D(3,4,5,6)           -149.6761         calculate D2E/DX2 analytically  !
 ! D9    D(3,4,5,7)             30.3179         calculate D2E/DX2 analytically  !
 ! D10   D(4,5,7,8)           -179.9202         calculate D2E/DX2 analytically  !
 ! D11   D(4,5,7,9)              0.0881         calculate D2E/DX2 analytically  !
 ! D12   D(6,5,7,8)              0.0741         calculate D2E/DX2 analytically  !
 ! D13   D(6,5,7,9)           -179.9176         calculate D2E/DX2 analytically  !
 ! D14   D(5,7,8,13)             0.0102         calculate D2E/DX2 analytically  !
 ! D15   D(5,7,8,14)          -120.6866         calculate D2E/DX2 analytically  !
 ! D16   D(5,7,8,15)           120.7053         calculate D2E/DX2 analytically  !
 ! D17   D(9,7,8,13)          -179.9978         calculate D2E/DX2 analytically  !
 ! D18   D(9,7,8,14)            59.3053         calculate D2E/DX2 analytically  !
 ! D19   D(9,7,8,15)           -59.3027         calculate D2E/DX2 analytically  !
 ! D20   D(5,7,9,16)            -0.0125         calculate D2E/DX2 analytically  !
 ! D21   D(5,7,9,17)          -120.5312         calculate D2E/DX2 analytically  !
 ! D22   D(5,7,9,18)           120.509          calculate D2E/DX2 analytically  !
 ! D23   D(8,7,9,16)           179.9952         calculate D2E/DX2 analytically  !
 ! D24   D(8,7,9,17)            59.4766         calculate D2E/DX2 analytically  !
 ! D25   D(8,7,9,18)           -59.4833         calculate D2E/DX2 analytically  !
 ! D26   D(1,10,11,19)          -0.0044         calculate D2E/DX2 analytically  !
 ! D27   D(1,10,11,20)        -120.5226         calculate D2E/DX2 analytically  !
 ! D28   D(1,10,11,21)         120.5244         calculate D2E/DX2 analytically  !
 ! D29   D(12,10,11,19)        179.9946         calculate D2E/DX2 analytically  !
 ! D30   D(12,10,11,20)         59.4765         calculate D2E/DX2 analytically  !
 ! D31   D(12,10,11,21)        -59.4766         calculate D2E/DX2 analytically  !
 ! D32   D(1,10,12,22)          -0.0016         calculate D2E/DX2 analytically  !
 ! D33   D(1,10,12,23)        -120.6985         calculate D2E/DX2 analytically  !
 ! D34   D(1,10,12,24)         120.6989         calculate D2E/DX2 analytically  !
 ! D35   D(11,10,12,22)        179.9994         calculate D2E/DX2 analytically  !
 ! D36   D(11,10,12,23)         59.3025         calculate D2E/DX2 analytically  !
 ! D37   D(11,10,12,24)        -59.3001         calculate D2E/DX2 analytically  !
 --------------------------------------------------------------------------------
 Trust Radius=3.00D-01 FncErr=1.00D-07 GrdErr=1.00D-06 EigMax=2.50D+02 EigMin=1.00D-04
 Number of steps in this run=    108 maximum allowed number of steps=    144.
 GradGradGradGradGradGradGradGradGradGradGradGradGradGradGradGradGradGrad

                          Input orientation:                          
 ---------------------------------------------------------------------
 Center     Atomic      Atomic             Coordinates (Angstroms)
 Number     Number       Type             X           Y           Z
 ---------------------------------------------------------------------
      1          6           0        0.805100    0.125500    0.086700
      2          8           0        2.025330   -0.026450   -0.001020
      3          7           0        0.199500    1.147000    0.792500
      4          7           0       -1.050300    1.087900    0.750800
      5          6           0       -1.655700    2.109300    1.456400
      6          8           0       -2.750770    2.011720    2.014070
      7          7           0       -0.933060    3.304160    1.506210
      8          6           0       -1.397340    4.494690    2.199830
      9          6           0        0.353350    3.400130    0.842040
     10          7           0       -0.071880   -0.759040   -0.545550
     11          6           0        0.452710   -1.872080   -1.314730
     12          6           0       -1.519200   -0.636110   -0.483150
     13          1           0       -2.368940    4.358480    2.677900
     14          1           0       -1.473630    5.312280    1.476430
     15          1           0       -0.663130    4.760210    2.966510
     16          1           0        0.636670    2.470140    0.343480
     17          1           0        1.116050    3.646350    1.586900
     18          1           0        0.304910    4.198740    0.095670
     19          1           0        1.544880   -1.900750   -1.317150
     20          1           0        0.100920   -1.782510   -2.346860
     21          1           0        0.077260   -2.804920   -0.883720
     22          1           0       -1.849920    0.218970    0.108950
     23          1           0       -1.927960   -1.549200   -0.039610
     24          1           0       -1.904180   -0.527640   -1.501730
 ---------------------------------------------------------------------
                    Distance matrix (angstroms):
                    1          2          3          4          5
     1  C    0.000000
     2  O    1.232779   0.000000
     3  N    1.381437   2.310912   0.000000
     4  N    2.193115   3.356562   1.251891   0.000000
     5  C    3.444862   4.498387   2.192841   1.381173   0.000000
     6  O    4.462823   5.570086   3.308182   2.311037   1.232760
     7  N    3.891027   4.702848   2.538782   2.344397   1.397276
     8  C    5.329717   6.082690   3.967052   3.718379   2.511876
     9  C    3.390843   3.904833   2.258920   2.706467   2.465758
    10  N    1.396870   2.287245   2.344571   2.459475   3.839748
    11  C    2.465464   2.757774   3.690444   3.909851   5.289229
    12  C    2.511404   3.628750   2.785802   2.171338   3.364188
    13  H    5.891262   6.761201   4.523850   4.018609   2.656988
    14  H    5.833236   6.551917   4.540560   4.307103   3.208213
    15  H    5.650623   6.240686   4.304153   4.306406   3.208263
    16  H    2.364665   2.877502   1.464048   2.218640   2.573666
    17  H    3.839749   4.103382   2.778108   3.455112   3.172089
    18  H    4.103846   4.563050   3.132060   3.455881   3.171961
    19  H    2.573666   2.340092   3.943279   4.465804   5.832392
    20  H    3.171527   3.505719   4.295035   4.377220   5.718102
    21  H    3.171565   3.506285   4.294453   4.370022   5.712169
    22  H    2.656758   3.884570   2.351298   1.344025   2.329526
    23  H    3.207833   4.236598   3.533835   2.889521   3.961918
    24  H    3.207787   4.236080   3.534598   2.900512   3.970608
                    6          7          8          9         10
     6  O    0.000000
     7  N    2.287442   0.000000
     8  C    2.833976   1.453969   0.000000
     9  C    3.596790   1.450925   2.471148   0.000000
    10  N    4.626577   4.632596   6.074178   4.405102   0.000000
    11  C    6.035486   6.055702   7.504037   5.697168   1.451100
    12  C    3.842379   4.452734   5.791230   4.642608   1.453871
    13  H    2.468552   2.132182   1.091380   3.420479   6.469631
    14  H    3.579642   2.079819   1.094341   2.719674   6.550896
    15  H    3.580444   2.079764   1.094241   2.719636   6.568581
    16  H    3.804704   2.124049   3.417899   1.092572   3.423452
    17  H    4.219809   2.079052   2.722589   1.094144   5.036465
    18  H    4.219063   2.079054   2.722633   1.094163   5.013254
    19  H    6.697541   6.418928   7.869400   5.846467   2.124331
    20  H    6.445621   6.464478   7.894328   6.090366   2.078958
    21  H    6.292453   6.637271   8.060213   6.446481   2.078997
    22  H    2.766761   3.508755   4.781045   3.938477   2.132205
    23  H    4.192227   5.189845   6.467245   5.520648   2.079750
    24  H    4.418814   4.967240   6.259571   5.100694   2.079699
                   11         12         13         14         15
    11  C    0.000000
    12  C    2.471351   0.000000
    13  H    7.919765   5.971618   0.000000
    14  H    7.944582   6.263016   1.776188   0.000000
    15  H    7.972539   6.461678   1.776083   1.783825   0.000000
    16  H    4.651707   3.870385   4.248416   3.716813   3.716744
    17  H    6.269972   5.437749   3.720560   3.081228   2.511870
    18  H    6.234254   5.199825   3.720605   2.511906   3.081245
    19  H    1.092549   3.418107   8.393829   8.303210   8.221523
    20  H    1.094108   2.722579   8.310245   8.211748   8.463029
    21  H    1.094040   2.722660   8.365604   8.594446   8.520777
    22  H    3.420740   1.091384   4.899431   5.287098   5.495178
    23  H    2.719885   1.094324   6.517669   7.041640   7.102479
    24  H    2.719820   1.094295   6.446664   6.569587   7.033259
                   16         17         18         19         20
    16  H    0.000000
    17  H    1.777461   0.000000
    18  H    1.777507   1.785175   0.000000
    19  H    4.763110   6.275964   6.382583   0.000000
    20  H    5.060631   6.780669   6.463971   1.777443   0.000000
    21  H    5.444742   6.985838   7.075470   1.777440   1.785122
    22  H    3.362425   4.767415   4.525709   4.248722   3.720578
    23  H    4.783218   6.237409   6.167886   3.717030   3.081264
    24  H    4.341360   6.006964   5.456229   3.716923   2.511846
                   21         22         23         24
    21  H    0.000000
    22  H    3.720662   0.000000
    23  H    2.512023   1.776115   0.000000
    24  H    3.081241   1.776136   1.783801   0.000000
 Stoichiometry    C6H12N4O2
 Framework group  C1[X(C6H12N4O2)]
 Deg. of freedom    66
 Full point group                 C1      NOp   1
 Largest Abelian subgroup         C1      NOp   1
 Largest concise Abelian subgroup C1      NOp   1
                         Standard orientation:                         
 ---------------------------------------------------------------------
 Center     Atomic      Atomic             Coordinates (Angstroms)
 Number     Number       Type             X           Y           Z
 ---------------------------------------------------------------------
      1          6           0        1.525912   -0.803040   -0.264253
      2          8           0        2.070936   -1.885097   -0.491949
      3          7           0        0.163746   -0.588274   -0.346385
      4          7           0       -0.155321    0.593838   -0.085542
      5          6           0       -1.517250    0.808448   -0.167578
      6          8           0       -2.031313    1.882842   -0.485561
      7          7           0       -2.311067   -0.299347    0.140684
      8          6           0       -3.764590   -0.278347    0.111460
      9          6           0       -1.687487   -1.554965    0.514523
     10          7           0        2.280715    0.313140    0.104067
     11          6           0        3.723076    0.204899    0.220559
     12          6           0        1.701081    1.616034    0.387321
     13          1           0       -4.171691    0.692476   -0.176431
     14          1           0       -4.137141   -0.533560    1.108281
     15          1           0       -4.109867   -1.030055   -0.604838
     16          1           0       -0.596507   -1.495998    0.514711
     17          1           0       -1.997850   -2.326893   -0.196079
     18          1           0       -2.025061   -1.829962    1.518322
     19          1           0        4.086611   -0.800124   -0.006232
     20          1           0        4.013003    0.461199    1.243948
     21          1           0        4.185720    0.911584   -0.474768
     22          1           0        0.614868    1.632021    0.282408
     23          1           0        2.131204    2.346914   -0.304311
     24          1           0        1.958764    1.896766    1.413123
 ---------------------------------------------------------------------
 Rotational constants (GHZ):           1.9918746           0.5681589           0.4621729
 Standard basis: 6-31G(d) (6D, 7F)
 There are   204 symmetry adapted cartesian basis functions of A   symmetry.
 There are   204 symmetry adapted basis functions of A   symmetry.
   204 basis functions,   384 primitive gaussians,   204 cartesian basis functions
    46 alpha electrons       46 beta electrons
       nuclear repulsion energy       756.3901074813 Hartrees.
 NAtoms=   24 NActive=   24 NUniq=   24 SFac= 1.00D+00 NAtFMM=   60 NAOKFM=F Big=F
 Integral buffers will be    131072 words long.
 Raffenetti 2 integral format.
 Two-electron integral symmetry is turned on.
 One-electron integrals computed using PRISM.
 NBasis=   204 RedAO= T EigKep=  1.64D-03  NBF=   204
 NBsUse=   204 1.00D-06 EigRej= -1.00D+00 NBFU=   204
 ExpMin= 1.61D-01 ExpMax= 5.48D+03 ExpMxC= 8.25D+02 IAcc=3 IRadAn=         5 AccDes= 0.00D+00
 Harris functional with IExCor=  402 and IRadAn=       5 diagonalized for initial guess.
 HarFok:  IExCor=  402 AccDes= 0.00D+00 IRadAn=         5 IDoV= 1 UseB2=F ITyADJ=14
 ICtDFT=  3500011 ScaDFX=  1.000000  1.000000  1.000000  1.000000
 FoFCou: FMM=F IPFlag=           0 FMFlag=      100000 FMFlg1=           0
         NFxFlg=           0 DoJE=T BraDBF=F KetDBF=T FulRan=T
         wScrn=  0.000000 ICntrl=       500 IOpCl=  0 I1Cent=   200000004 NGrid=           0
         NMat0=    1 NMatS0=      1 NMatT0=    0 NMatD0=    1 NMtDS0=    0 NMtDT0=    0
 Petite list used in FoFCou.
 Keep R1 ints in memory in canonical form, NReq=222933844.
 Gradient too large for Newton-Raphson -- use scaled steepest descent instead.
     Minimum is close to point  2 DX=  2.90D-03 DF= -2.98D-05 DXR=  9.57D-03 DFR=  9.16D-05 which will be used.
 Gradient too large for Newton-Raphson -- use scaled steepest descent instead.
     Minimum is close to point  3 DX= -2.14D-02 DF= -7.75D-05 DXR=  4.47D-02 DFR=  1.99D-03 which will be used.
 Gradient too large for Newton-Raphson -- use scaled steepest descent instead.
     Accept linear search using points  1 and  2.
 Gradient too large for Newton-Raphson -- use scaled steepest descent instead.
 Gradient too large for Newton-Raphson -- use scaled steepest descent instead.
     Accept linear search using points  1 and  2.
 Gradient too large for Newton-Raphson -- use scaled steepest descent instead.
     Minimum is close to point  2 DX=  4.98D-03 DF= -9.25D-09 DXR=  7.07D-03 DFR=  5.00D-05 which will be used.
 Gradient too large for Newton-Raphson -- use scaled steepest descent instead.
     Minimum is close to point  2 DX=  1.21D-02 DF= -6.23D-08 DXR=  2.94D-02 DFR=  8.62D-04 which will be used.
 LinEq1:  Iter=  0 NonCon=     1 RMS=2.30D-04 Max=1.86D-02 NDo=     1
 AX will form     1 AO Fock derivatives at one time.
 LinEq1:  Iter=  1 NonCon=     1 RMS=1.84D-04 Max=7.66D-03 NDo=     1
 LinEq1:  Iter=  2 NonCon=     1 RMS=7.31D-05 Max=2.34D-03 NDo=     1
 LinEq1:  Iter=  3 NonCon=     1 RMS=7.00D-05 Max=2.86D-03 NDo=     1
 LinEq1:  Iter=  4 NonCon=     1 RMS=3.81D-05 Max=1.03D-03 NDo=     1
 LinEq1:  Iter=  5 NonCon=     1 RMS=3.44D-05 Max=1.10D-03 NDo=     1
 LinEq1:  Iter=  6 NonCon=     1 RMS=2.08D-05 Max=7.72D-04 NDo=     1
 LinEq1:  Iter=  7 NonCon=     1 RMS=1.71D-05 Max=5.42D-04 NDo=     1
 LinEq1:  Iter=  8 NonCon=     1 RMS=1.20D-05 Max=3.06D-04 NDo=     1
 LinEq1:  Iter=  9 NonCon=     1 RMS=6.98D-06 Max=1.65D-04 NDo=     1
 LinEq1:  Iter= 10 NonCon=     1 RMS=2.54D-06 Max=4.02D-05 NDo=     1
 LinEq1:  Iter= 11 NonCon=     1 RMS=1.19D-06 Max=4.14D-05 NDo=     1
 LinEq1:  Iter= 12 NonCon=     1 RMS=5.63D-07 Max=9.87D-06 NDo=     1
 LinEq1:  Iter= 13 NonCon=     1 RMS=3.01D-07 Max=7.84D-06 NDo=     1
 LinEq1:  Iter= 14 NonCon=     1 RMS=1.75D-07 Max=4.04D-06 NDo=     1
 LinEq1:  Iter= 15 NonCon=     1 RMS=7.29D-08 Max=2.02D-06 NDo=     1
 LinEq1:  Iter= 16 NonCon=     1 RMS=2.53D-08 Max=5.75D-07 NDo=     1
 LinEq1:  Iter= 17 NonCon=     1 RMS=1.27D-08 Max=2.96D-07 NDo=     1
 LinEq1:  Iter= 18 NonCon=     0 RMS=4.27D-09 Max=9.28D-08 NDo=     1
 Linear equations converged to 1.206D-08 1.206D-07 after    18 iterations.
     Accept linear search using points  1 and  2.
     Minimum is close to point  2 DX= -1.91D-02 DF= -5.15D-08 DXR=  1.95D-02 DFR=  3.85D-04 which will be used.
 LinEq1:  Iter=  0 NonCon=     1 RMS=1.26D-05 Max=5.44D-04 NDo=     1
 LinEq1:  Iter=  1 NonCon=     1 RMS=1.15D-05 Max=6.29D-04 NDo=     1
 LinEq1:  Iter=  2 NonCon=     1 RMS=9.61D-06 Max=2.62D-04 NDo=     1
 LinEq1:  Iter=  3 NonCon=     1 RMS=7.85D-06 Max=2.94D-04 NDo=     1
 LinEq1:  Iter=  4 NonCon=     1 RMS=8.26D-06 Max=2.32D-04 NDo=     1
 LinEq1:  Iter=  5 NonCon=     1 RMS=5.13D-06 Max=1.76D-04 NDo=     1
 LinEq1:  Iter=  6 NonCon=     1 RMS=5.31D-06 Max=1.87D-04 NDo=     1
 LinEq1:  Iter=  7 NonCon=     1 RMS=2.15D-06 Max=5.81D-05 NDo=     1
 LinEq1:  Iter=  8 NonCon=     1 RMS=2.33D-06 Max=6.98D-05 NDo=     1
 LinEq1:  Iter=  9 NonCon=     1 RMS=1.13D-06 Max=2.15D-05 NDo=     1
 LinEq1:  Iter= 10 NonCon=     1 RMS=6.39D-07 Max=1.44D-05 NDo=     1
 LinEq1:  Iter= 11 NonCon=     1 RMS=2.30D-07 Max=6.13D-06 NDo=     1
 LinEq1:  Iter= 12 NonCon=     1 RMS=9.61D-08 Max=1.45D-06 NDo=     1
 LinEq1:  Iter= 13 NonCon=     1 RMS=3.99D-08 Max=7.84D-07 NDo=     1
 LinEq1:  Iter= 14 NonCon=     1 RMS=1.71D-08 Max=4.82D-07 NDo=     1
 LinEq1:  Iter= 15 NonCon=     1 RMS=6.78D-09 Max=1.27D-07 NDo=     1
 LinEq1:  Iter= 16 NonCon=     1 RMS=3.45D-09 Max=7.21D-08 NDo=     1
 LinEq1:  Iter= 17 NonCon=     0 RMS=1.89D-09 Max=4.15D-08 NDo=     1
 Linear equations converged to 7.007D-09 7.007D-08 after    17 iterations.
     Minimum is close to point  2 DX=  1.79D-03 DF= -1.02D-12 DXR=  1.79D-03 DFR=  3.18D-06 which will be used.
 SCF Done:  E(RB3LYP) =  -605.111823411     a.u. after   10 cycles
            Convg  =    0.5044D-06                    55 Fock formations.
              S**2 =  0.0000                  -V/T =  2.0075
 DoSCS=F DFT=T ScalE2(SS,OS)=  1.000000  1.000000
 Range of M.O.s used for correlation:     1   204
 NBasis=   204 NAE=    46 NBE=    46 NFC=     0 NFV=     0
 NROrb=    204 NOA=    46 NOB=    46 NVA=   158 NVB=   158

 **** Warning!!: The smallest alpha delta epsilon is  0.68478370D-01

 Symmetrizing basis deriv contribution to polar:
 IMax=3 JMax=2 DiffMx= 0.00D+00
 G2DrvN: will do    25 centers at a time, making    1 passes.
 Calling FoFCou, ICntrl=  3107 FMM=F I1Cent=   0 AccDes= 0.00D+00.
 End of G2Drv F.D. properties file   721 does not exist.
 End of G2Drv F.D. properties file   722 does not exist.
 End of G2Drv F.D. properties file   788 does not exist.
          IDoAtm=111111111111111111111111
          Differentiating once with respect to electric field.
                with respect to dipole field.
          Differentiating once with respect to nuclear coordinates.
 Keep R1 ints in memory in canonical form, NReq=222943279.
          There are    75 degrees of freedom in the 1st order CPHF.  IDoFFX=6 NUNeed=     3.
     72 vectors produced by pass  0 Test12= 9.69D-15 1.33D-09 XBig12= 1.85D+02 5.97D+00.
 AX will form    72 AO Fock derivatives at one time.
     72 vectors produced by pass  1 Test12= 9.69D-15 1.33D-09 XBig12= 6.46D+01 1.77D+00.
     72 vectors produced by pass  2 Test12= 9.69D-15 1.33D-09 XBig12= 6.30D-01 1.07D-01.
     72 vectors produced by pass  3 Test12= 9.69D-15 1.33D-09 XBig12= 2.69D-03 6.12D-03.
     72 vectors produced by pass  4 Test12= 9.69D-15 1.33D-09 XBig12= 3.96D-06 2.23D-04.
     49 vectors produced by pass  5 Test12= 9.69D-15 1.33D-09 XBig12= 3.10D-09 6.58D-06.
      9 vectors produced by pass  6 Test12= 9.69D-15 1.33D-09 XBig12= 2.31D-12 1.28D-07.
      3 vectors produced by pass  7 Test12= 9.69D-15 1.33D-09 XBig12= 1.58D-15 3.34D-09.
 InvSVY:  IOpt=1 It=  1 EMax= 5.33D-15
 Solved reduced A of dimension   421 with    75 vectors.
 Isotropic polarizability for W=    0.000000      109.06 Bohr**3.
 End of Minotr F.D. properties file   721 does not exist.
 End of Minotr F.D. properties file   722 does not exist.
 End of Minotr F.D. properties file   788 does not exist.

 **********************************************************************

            Population analysis using the SCF density.

 **********************************************************************

 Orbital symmetries:
       Occupied  (A) (A) (A) (A) (A) (A) (A) (A) (A) (A) (A) (A)
                 (A) (A) (A) (A) (A) (A) (A) (A) (A) (A) (A) (A)
                 (A) (A) (A) (A) (A) (A) (A) (A) (A) (A) (A) (A)
                 (A) (A) (A) (A) (A) (A) (A) (A) (A) (A)
       Virtual   (A) (A) (A) (A) (A) (A) (A) (A) (A) (A) (A) (A)
                 (A) (A) (A) (A) (A) (A) (A) (A) (A) (A) (A) (A)
                 (A) (A) (A) (A) (A) (A) (A) (A) (A) (A) (A) (A)
                 (A) (A) (A) (A) (A) (A) (A) (A) (A) (A) (A) (A)
                 (A) (A) (A) (A) (A) (A) (A) (A) (A) (A) (A) (A)
                 (A) (A) (A) (A) (A) (A) (A) (A) (A) (A) (A) (A)
                 (A) (A) (A) (A) (A) (A) (A) (A) (A) (A) (A) (A)
                 (A) (A) (A) (A) (A) (A) (A) (A) (A) (A) (A) (A)
                 (A) (A) (A) (A) (A) (A) (A) (A) (A) (A) (A) (A)
                 (A) (A) (A) (A) (A) (A) (A) (A) (A) (A) (A) (A)
                 (A) (A) (A) (A) (A) (A) (A) (A) (A) (A) (A) (A)
                 (A) (A) (A) (A) (A) (A) (A) (A) (A) (A) (A) (A)
                 (A) (A) (A) (A) (A) (A) (A) (A) (A) (A) (A) (A)
                 (A) (A)
 The electronic state is 1-A.
 Alpha  occ. eigenvalues --  -19.13157 -19.12624 -14.43345 -14.41146 -14.38240
 Alpha  occ. eigenvalues --  -14.37932 -10.32279 -10.32045 -10.23036 -10.22402
 Alpha  occ. eigenvalues --  -10.21890 -10.17780  -1.12724  -1.05217  -1.02732
 Alpha  occ. eigenvalues --   -0.94818  -0.93525  -0.83151  -0.74794  -0.72947
 Alpha  occ. eigenvalues --   -0.70404  -0.67429  -0.62138  -0.60513  -0.54782
 Alpha  occ. eigenvalues --   -0.51252  -0.50058  -0.48648  -0.47531  -0.47518
 Alpha  occ. eigenvalues --   -0.45298  -0.44323  -0.43693  -0.42424  -0.41760
 Alpha  occ. eigenvalues --   -0.40184  -0.39951  -0.39825  -0.39172  -0.35490
 Alpha  occ. eigenvalues --   -0.32508  -0.28531  -0.27879  -0.25008  -0.24560
 Alpha  occ. eigenvalues --   -0.20615
 Alpha virt. eigenvalues --   -0.13767   0.03179   0.05701   0.08647   0.09746
 Alpha virt. eigenvalues --    0.12696   0.13383   0.14331   0.14733   0.15118
 Alpha virt. eigenvalues --    0.15571   0.16149   0.16399   0.17097   0.18644
 Alpha virt. eigenvalues --    0.19292   0.20672   0.21987   0.23291   0.23696
 Alpha virt. eigenvalues --    0.29211   0.30342   0.34029   0.37170   0.40102
 Alpha virt. eigenvalues --    0.43669   0.45170   0.46763   0.48850   0.49404
 Alpha virt. eigenvalues --    0.50628   0.51550   0.54037   0.55498   0.57526
 Alpha virt. eigenvalues --    0.60268   0.61973   0.62977   0.64868   0.65714
 Alpha virt. eigenvalues --    0.66650   0.66713   0.68837   0.69733   0.72313
 Alpha virt. eigenvalues --    0.73325   0.77800   0.79446   0.79952   0.81309
 Alpha virt. eigenvalues --    0.83657   0.84344   0.84889   0.85643   0.87235
 Alpha virt. eigenvalues --    0.88092   0.89125   0.89308   0.89700   0.91651
 Alpha virt. eigenvalues --    0.92338   0.93708   0.95138   0.96379   0.96950
 Alpha virt. eigenvalues --    0.98558   1.00395   1.01774   1.04092   1.07146
 Alpha virt. eigenvalues --    1.10436   1.11912   1.13560   1.16279   1.18022
 Alpha virt. eigenvalues --    1.23087   1.23371   1.30206   1.34895   1.35770
 Alpha virt. eigenvalues --    1.38127   1.39115   1.42092   1.43598   1.45031
 Alpha virt. eigenvalues --    1.48379   1.49642   1.51769   1.55683   1.57896
 Alpha virt. eigenvalues --    1.61390   1.66462   1.69933   1.77149   1.77639
 Alpha virt. eigenvalues --    1.77955   1.81150   1.82803   1.83593   1.84886
 Alpha virt. eigenvalues --    1.87207   1.88557   1.91247   1.92281   1.93731
 Alpha virt. eigenvalues --    1.97067   1.98074   2.04538   2.04743   2.05426
 Alpha virt. eigenvalues --    2.06666   2.07040   2.07949   2.09510   2.12294
 Alpha virt. eigenvalues --    2.16191   2.18895   2.20149   2.20683   2.26612
 Alpha virt. eigenvalues --    2.29910   2.31058   2.34760   2.36335   2.37459
 Alpha virt. eigenvalues --    2.38232   2.38487   2.42089   2.45244   2.47826
 Alpha virt. eigenvalues --    2.54351   2.56932   2.60815   2.64123   2.65029
 Alpha virt. eigenvalues --    2.66360   2.71148   2.73041   2.80271   2.81356
 Alpha virt. eigenvalues --    2.93559   2.96849   3.08127   3.11579   3.20239
 Alpha virt. eigenvalues --    3.25616   3.82959   3.96086   3.97699   4.07679
 Alpha virt. eigenvalues --    4.11485   4.21028   4.26213   4.28605   4.38062
 Alpha virt. eigenvalues --    4.40575   4.52369   4.59660
          Condensed to atoms (all electrons):
               1          2          3          4          5          6
     1  C    4.280735   0.584293   0.177376  -0.048871   0.001591  -0.000172
     2  O    0.584293   8.075693  -0.072255   0.002821  -0.000138   0.000000
     3  N    0.177376  -0.072255   7.396348   0.128662  -0.034771   0.001089
     4  N   -0.048871   0.002821   0.128662   7.638347   0.192990  -0.079484
     5  C    0.001591  -0.000138  -0.034771   0.192990   4.235763   0.600477
     6  O   -0.000172   0.000000   0.001089  -0.079484   0.600477   8.069098
     7  N    0.001199   0.000015  -0.014024  -0.103066   0.298353  -0.104929
     8  C    0.000011  -0.000000  -0.000667   0.004885  -0.024099  -0.004138
     9  C    0.001456  -0.000583  -0.117393  -0.012984  -0.030125   0.003028
    10  N    0.306358  -0.107138  -0.113199   0.000521   0.001060   0.000021
    11  C   -0.028187  -0.007535   0.005467  -0.002082  -0.000006  -0.000000
    12  C   -0.017645   0.002870   0.020155  -0.353504   0.003244  -0.001477
    13  H    0.000001  -0.000000   0.000003   0.000482  -0.000540   0.014324
    14  H    0.000002  -0.000000   0.000085  -0.000181   0.001191   0.000303
    15  H   -0.000004   0.000000  -0.000111  -0.000020   0.001147   0.000522
    16  H    0.010099   0.005288  -0.057761  -0.011466  -0.009604  -0.000104
    17  H   -0.000517   0.000025   0.000017   0.001494   0.000689  -0.000021
    18  H    0.000063   0.000002   0.007383  -0.000510   0.000595  -0.000068
    19  H   -0.002292   0.017023   0.000520   0.000055   0.000001  -0.000000
    20  H    0.001352   0.000677  -0.000083   0.000028   0.000001   0.000000
    21  H    0.000907   0.000514  -0.000200   0.000147   0.000000  -0.000000
    22  H   -0.007618  -0.000072   0.005864  -0.110631   0.013717   0.011664
    23  H    0.000300  -0.000053  -0.001339   0.014356  -0.000166  -0.000005
    24  H    0.000790  -0.000022  -0.001094   0.011748  -0.000027  -0.000004
               7          8          9         10         11         12
     1  C    0.001199   0.000011   0.001456   0.306358  -0.028187  -0.017645
     2  O    0.000015  -0.000000  -0.000583  -0.107138  -0.007535   0.002870
     3  N   -0.014024  -0.000667  -0.117393  -0.113199   0.005467   0.020155
     4  N   -0.103066   0.004885  -0.012984   0.000521  -0.002082  -0.353504
     5  C    0.298353  -0.024099  -0.030125   0.001060  -0.000006   0.003244
     6  O   -0.104929  -0.004138   0.003028   0.000021  -0.000000  -0.001477
     7  N    7.011801   0.291986   0.291627  -0.000011   0.000000  -0.000490
     8  C    0.291986   4.966861  -0.051622  -0.000000   0.000000   0.000023
     9  C    0.291627  -0.051622   5.104561  -0.000274   0.000009  -0.000044
    10  N   -0.000011  -0.000000  -0.000274   7.008117   0.295587   0.279063
    11  C    0.000000   0.000000   0.000009   0.295587   4.985205  -0.057728
    12  C   -0.000490   0.000023  -0.000044   0.279063  -0.057728   5.402806
    13  H   -0.028592   0.373779   0.003928  -0.000000   0.000000   0.000001
    14  H   -0.047081   0.374628  -0.000874   0.000000  -0.000000  -0.000001
    15  H   -0.047612   0.381832  -0.002030  -0.000000  -0.000000   0.000000
    16  H   -0.023524   0.003590   0.376429  -0.000537   0.000018  -0.000686
    17  H   -0.048452  -0.000135   0.380364   0.000000  -0.000000   0.000003
    18  H   -0.053769  -0.005046   0.343122   0.000020  -0.000001  -0.000034
    19  H   -0.000000  -0.000000   0.000000  -0.028499   0.368586   0.004405
    20  H   -0.000000   0.000000  -0.000000  -0.045979   0.379601  -0.001628
    21  H    0.000000  -0.000000  -0.000000  -0.046151   0.375169   0.001187
    22  H    0.001560  -0.000002  -0.000773  -0.020458   0.003036   0.392514
    23  H    0.000007  -0.000000  -0.000002  -0.054725  -0.004882   0.350811
    24  H   -0.000001  -0.000000   0.000015  -0.051939  -0.003138   0.349632
              13         14         15         16         17         18
     1  C    0.000001   0.000002  -0.000004   0.010099  -0.000517   0.000063
     2  O   -0.000000  -0.000000   0.000000   0.005288   0.000025   0.000002
     3  N    0.000003   0.000085  -0.000111  -0.057761   0.000017   0.007383
     4  N    0.000482  -0.000181  -0.000020  -0.011466   0.001494  -0.000510
     5  C   -0.000540   0.001191   0.001147  -0.009604   0.000689   0.000595
     6  O    0.014324   0.000303   0.000522  -0.000104  -0.000021  -0.000068
     7  N   -0.028592  -0.047081  -0.047612  -0.023524  -0.048452  -0.053769
     8  C    0.373779   0.374628   0.381832   0.003590  -0.000135  -0.005046
     9  C    0.003928  -0.000874  -0.002030   0.376429   0.380364   0.343122
    10  N   -0.000000   0.000000  -0.000000  -0.000537   0.000000   0.000020
    11  C    0.000000  -0.000000  -0.000000   0.000018  -0.000000  -0.000001
    12  C    0.000001  -0.000001   0.000000  -0.000686   0.000003  -0.000034
    13  H    0.479060  -0.024871  -0.025239  -0.000178  -0.000069  -0.000055
    14  H   -0.024871   0.570872  -0.041073  -0.000017  -0.001871   0.008447
    15  H   -0.025239  -0.041073   0.561742   0.000088   0.006615  -0.001986
    16  H   -0.000178  -0.000017   0.000088   0.497365  -0.023060  -0.025158
    17  H   -0.000069  -0.001871   0.006615  -0.023060   0.552140  -0.041319
    18  H   -0.000055   0.008447  -0.001986  -0.025158  -0.041319   0.626476
    19  H    0.000000   0.000000  -0.000000   0.000001  -0.000000   0.000000
    20  H   -0.000000   0.000000  -0.000000   0.000003  -0.000000   0.000000
    21  H    0.000000  -0.000000   0.000000  -0.000002   0.000000   0.000000
    22  H   -0.000006  -0.000001  -0.000000  -0.000766   0.000006   0.000044
    23  H   -0.000000   0.000000   0.000000  -0.000009   0.000000   0.000000
    24  H   -0.000000   0.000000  -0.000000   0.000114  -0.000000   0.000001
              19         20         21         22         23         24
     1  C   -0.002292   0.001352   0.000907  -0.007618   0.000300   0.000790
     2  O    0.017023   0.000677   0.000514  -0.000072  -0.000053  -0.000022
     3  N    0.000520  -0.000083  -0.000200   0.005864  -0.001339  -0.001094
     4  N    0.000055   0.000028   0.000147  -0.110631   0.014356   0.011748
     5  C    0.000001   0.000001   0.000000   0.013717  -0.000166  -0.000027
     6  O   -0.000000   0.000000  -0.000000   0.011664  -0.000005  -0.000004
     7  N   -0.000000  -0.000000   0.000000   0.001560   0.000007  -0.000001
     8  C   -0.000000   0.000000  -0.000000  -0.000002  -0.000000  -0.000000
     9  C    0.000000  -0.000000  -0.000000  -0.000773  -0.000002   0.000015
    10  N   -0.028499  -0.045979  -0.046151  -0.020458  -0.054725  -0.051939
    11  C    0.368586   0.379601   0.375169   0.003036  -0.004882  -0.003138
    12  C    0.004405  -0.001628   0.001187   0.392514   0.350811   0.349632
    13  H    0.000000  -0.000000   0.000000  -0.000006  -0.000000  -0.000000
    14  H    0.000000   0.000000  -0.000000  -0.000001   0.000000   0.000000
    15  H   -0.000000  -0.000000   0.000000  -0.000000   0.000000  -0.000000
    16  H    0.000001   0.000003  -0.000002  -0.000766  -0.000009   0.000114
    17  H   -0.000000  -0.000000   0.000000   0.000006   0.000000  -0.000000
    18  H    0.000000   0.000000   0.000000   0.000044   0.000000   0.000001
    19  H    0.487683  -0.025574  -0.024427  -0.000197   0.000054   0.000030
    20  H   -0.025574   0.563249  -0.037753   0.000051  -0.001526   0.006211
    21  H   -0.024427  -0.037753   0.562284  -0.000012   0.007433  -0.001333
    22  H   -0.000197   0.000051  -0.000012   0.416739  -0.019905  -0.016819
    23  H    0.000054  -0.001526   0.007433  -0.019905   0.597725  -0.031999
    24  H    0.000030   0.006211  -0.001333  -0.016819  -0.031999   0.593285
 Mulliken charges:
               1
     1  C    0.738774
     2  O   -0.501426
     3  N   -0.330074
     4  N   -0.273739
     5  C    0.748657
     6  O   -0.510124
     7  N   -0.424997
     8  C   -0.311885
     9  C   -0.287836
    10  N   -0.421837
    11  C   -0.309118
    12  C   -0.373479
    13  H    0.207973
    14  H    0.160441
    15  H    0.166129
    16  H    0.259876
    17  H    0.174090
    18  H    0.141791
    19  H    0.202633
    20  H    0.161371
    21  H    0.162236
    22  H    0.332066
    23  H    0.143927
    24  H    0.144550
 Sum of Mulliken charges =  -0.00000
 Mulliken charges with hydrogens summed into heavy atoms:
               1
     1  C    0.738774
     2  O   -0.501426
     3  N   -0.330074
     4  N   -0.273739
     5  C    0.748657
     6  O   -0.510124
     7  N   -0.424997
     8  C    0.222659
     9  C    0.287921
    10  N   -0.421837
    11  C    0.217122
    12  C    0.247064
 APT charges:
               1
     1  C    0.830637
     2  O   -0.650106
     3  N    0.128288
     4  N   -0.239442
     5  C    1.022041
     6  O   -0.709561
     7  N   -0.690400
     8  C    0.375050
     9  C    0.269020
    10  N   -0.537216
    11  C    0.289890
    12  C   -0.013080
    13  H    0.052481
    14  H   -0.042235
    15  H   -0.051597
    16  H   -0.006060
    17  H   -0.056705
    18  H   -0.058646
    19  H    0.045446
    20  H   -0.043151
    21  H   -0.030525
    22  H    0.219486
    23  H   -0.031013
    24  H   -0.072599
 Sum of APT charges =  -0.00000
 APT charges with hydrogens summed into heavy atoms:
               1
     1  C    0.830637
     2  O   -0.650106
     3  N    0.128288
     4  N   -0.239442
     5  C    1.022041
     6  O   -0.709561
     7  N   -0.690400
     8  C    0.333698
     9  C    0.147608
    10  N   -0.537216
    11  C    0.261660
    12  C    0.102793
 Electronic spatial extent (au):  <R**2>=           2428.0331
 Charge=             -0.0000 electrons
 Dipole moment (field-independent basis, Debye):
    X=             -0.6587    Y=             -0.6492    Z=              1.9335  Tot=              2.1433
 Quadrupole moment (field-independent basis, Debye-Ang):
   XX=            -61.8319   YY=            -81.5311   ZZ=            -70.7062
   XY=             13.0774   XZ=             -0.0964   YZ=             -0.6956
 Traceless Quadrupole moment (field-independent basis, Debye-Ang):
   XX=              9.5245   YY=            -10.1747   ZZ=              0.6502
   XY=             13.0774   XZ=             -0.0964   YZ=             -0.6956
 Octapole moment (field-independent basis, Debye-Ang**2):
  XXX=             -9.3499  YYY=             -3.7876  ZZZ=             -2.0688  XYY=             -3.4997
  XXY=             -3.9323  XXZ=              6.4399  XZZ=              0.3902  YZZ=              0.2236
  YYZ=              6.0997  XYZ=             -7.1752
 Hexadecapole moment (field-independent basis, Debye-Ang**3):
 XXXX=          -2088.9939 YYYY=           -692.8557 ZZZZ=           -135.6589 XXXY=             28.0209
 XXXZ=              6.3580 YYYX=             33.9824 YYYZ=             -0.0775 ZZZX=              0.2360
 ZZZY=              0.2350 XXYY=           -541.9762 XXZZ=           -409.5608 YYZZ=           -131.8004
 XXYZ=             -0.3188 YYXZ=              0.1792 ZZXY=             -0.7468
 N-N= 7.563901074813D+02 E-N=-2.923781792831D+03  KE= 6.005803168412D+02
  Exact polarizability: 147.603  12.059 113.425   1.581   0.184  66.144
 Approx polarizability: 178.581   8.621 216.531   2.277   1.447 101.465
 Calling FoFJK, ICntrl=    100127 FMM=F ISym2X=0 I1Cent= 0 IOpClX= 0 NMat=1 NMatS=1 NMatT=0.
 ***** Axes restored to original set *****
 -------------------------------------------------------------------
 Center     Atomic                   Forces (Hartrees/Bohr)
 Number     Number              X              Y              Z
 -------------------------------------------------------------------
      1        6           0.012821479   -0.069614552   -0.065589469
      2        8          -0.007679269    0.019587502    0.013764767
      3        7          -0.008704293   -0.064522317    0.056109899
      4        7           0.034529806    0.119489228    0.055582742
      5        6          -0.015544248    0.053779682    0.054477614
      6        8           0.004888215   -0.013718866   -0.013380906
      7        7           0.002338667   -0.032595942   -0.014769482
      8        6          -0.001941449   -0.000082708   -0.004929782
      9        6           0.001632579    0.058992351   -0.005164261
     10        7           0.013676242    0.025461800    0.016410197
     11        6           0.000914960   -0.002898390    0.001665159
     12        6          -0.033936420   -0.070418091   -0.041191031
     13        1           0.001267924   -0.007314944   -0.003401400
     14        1           0.000162874    0.004414499    0.000876954
     15        1           0.000891790    0.002286408    0.001108163
     16        1           0.010286342    0.034776436   -0.003075231
     17        1           0.006836706   -0.004538269   -0.002703177
     18        1           0.002118803    0.009053030   -0.000462145
     19        1          -0.002425338    0.005224770    0.003697269
     20        1          -0.001278584   -0.002293970   -0.001807812
     21        1          -0.001201500   -0.003306476   -0.002019181
     22        1          -0.015414712   -0.048355060   -0.033525309
     23        1          -0.001586637   -0.009833533   -0.005929416
     24        1          -0.002653937   -0.003572587   -0.005744161
 -------------------------------------------------------------------
 Cartesian Forces:  Max     0.119489228 RMS     0.029266994
 FormGI is forming the generalized inverse of G from B-inverse, IUseBI=4.

 GradGradGradGradGradGradGradGradGradGradGradGradGradGradGradGradGradGrad
 Berny optimization.
 Internal  Forces:  Max     0.450682686 RMS     0.093725473
 Search for a local minimum.
 Step number   1 out of a maximum of  108
 All quantities printed in internal units (Hartrees-Bohrs-Radians)
 Mixed Optimization -- RFO/linear search
 Second derivative matrix not updated -- analytic derivatives used.
 ITU=  0
     Eigenvalues ---   -0.72965  -0.18851  -0.14128  -0.09737  -0.05181
     Eigenvalues ---   -0.03077  -0.01891   0.00060   0.00137   0.01783
     Eigenvalues ---    0.03364   0.04280   0.04685   0.05098   0.06115
     Eigenvalues ---    0.06361   0.06395   0.06428   0.06441   0.06599
     Eigenvalues ---    0.07754   0.11243   0.12451   0.12886   0.13101
     Eigenvalues ---    0.14191   0.15004   0.15834   0.16270   0.17406
     Eigenvalues ---    0.17946   0.18084   0.18941   0.19063   0.19576
     Eigenvalues ---    0.20136   0.21895   0.22004   0.24312   0.27880
     Eigenvalues ---    0.28995   0.31232   0.31943   0.32512   0.33275
     Eigenvalues ---    0.33454   0.33576   0.33604   0.33773   0.33782
     Eigenvalues ---    0.34288   0.34856   0.35124   0.35191   0.36536
     Eigenvalues ---    0.37262   0.38228   0.39452   0.41770   0.43764
     Eigenvalues ---    0.45172   0.67487   0.78729   0.79338   2.21916
     Eigenvalues ---    5.71003
 RFO step:  Lambda=-7.55317051D-01 EMin=-7.29651086D-01
 Linear search not attempted -- first point.
 Maximum step size (   0.300) exceeded in Quadratic search.
    -- Step size scaled by   0.435
 Iteration  1 RMS(Cart)=  0.20830341 RMS(Int)=  0.00979352
 Iteration  2 RMS(Cart)=  0.03893425 RMS(Int)=  0.00040279
 Iteration  3 RMS(Cart)=  0.00066456 RMS(Int)=  0.00024993
 Iteration  4 RMS(Cart)=  0.00000019 RMS(Int)=  0.00024993
 Variable       Old X    -DE/DX   Delta X   Delta X   Delta X     New X
                                 (Linear)    (Quad)   (Total)
    R1        2.32962  -0.01099   0.00000  -0.00438  -0.00438   2.32524
    R2        2.61054   0.16278   0.00000   0.04490   0.04490   2.65544
    R3        2.63970   0.12819   0.00000   0.00248   0.00248   2.64218
    R4        2.36573  -0.06012   0.00000  -0.05939  -0.05939   2.30635
    R5        2.61004   0.07640   0.00000   0.07752   0.07752   2.68756
    R6        2.32958  -0.00931   0.00000  -0.00204  -0.00204   2.32753
    R7        2.64047   0.06662   0.00000  -0.02967  -0.02967   2.61080
    R8        2.74760  -0.00372   0.00000   0.00082   0.00082   2.74842
    R9        2.74185   0.03023   0.00000   0.00814   0.00814   2.74999
   R10        2.06241  -0.00171   0.00000  -0.00063  -0.00063   2.06178
   R11        2.06800   0.00271   0.00000   0.00026   0.00026   2.06826
   R12        2.06782   0.00193   0.00000   0.00054   0.00054   2.06836
   R13        2.06466  -0.02553   0.00000  -0.03971  -0.03971   2.02496
   R14        2.06763   0.00190   0.00000   0.00367   0.00367   2.07130
   R15        2.06767   0.00683   0.00000  -0.00033  -0.00033   2.06734
   R16        2.74218   0.00025   0.00000  -0.00035  -0.00035   2.74183
   R17        2.74742   0.03847   0.00000   0.06434   0.06434   2.81176
   R18        2.06462  -0.00257   0.00000  -0.00207  -0.00207   2.06255
   R19        2.06756   0.00193   0.00000   0.00267   0.00267   2.07023
   R20        2.06744   0.00244   0.00000  -0.00023  -0.00023   2.06720
   R21        2.06242  -0.05140   0.00000  -0.06271  -0.06271   1.99971
   R22        2.06797   0.00639   0.00000  -0.00064  -0.00064   2.06733
   R23        2.06792   0.00593   0.00000   0.00548   0.00548   2.07340
    A1        2.16690  -0.25168   0.00000  -0.05199  -0.05273   2.11417
    A2        2.10734  -0.19901   0.00000  -0.00701  -0.00781   2.09954
    A3        2.00895   0.45068   0.00000   0.05902   0.05826   2.06721
    A4        1.96679   0.38247   0.00000  -0.05897  -0.05897   1.90782
    A5        1.96672   0.13345   0.00000   0.08027   0.08027   2.04699
    A6        2.16752  -0.12254   0.00000  -0.11146  -0.11151   2.05601
    A7        2.00855   0.20595   0.00000   0.11990   0.11984   2.12839
    A8        2.10712  -0.08341   0.00000  -0.00844  -0.00850   2.09862
    A9        2.15563  -0.10854   0.00000  -0.01572  -0.01572   2.13991
   A10        2.09299   0.20158   0.00000   0.02634   0.02634   2.11933
   A11        2.03457  -0.09304   0.00000  -0.01062  -0.01062   2.02395
   A12        1.97257  -0.01343   0.00000   0.00098   0.00098   1.97355
   A13        1.89510   0.00684   0.00000  -0.00279  -0.00279   1.89232
   A14        1.89513   0.00371   0.00000   0.00046   0.00046   1.89559
   A15        1.89731   0.00263   0.00000   0.00185   0.00185   1.89916
   A16        1.89727   0.00334   0.00000   0.00018   0.00018   1.89745
   A17        1.90566  -0.00297   0.00000  -0.00074  -0.00074   1.90492
   A18        1.96329   0.03637   0.00000  -0.01688  -0.01693   1.94636
   A19        1.89789   0.00382   0.00000  -0.00688  -0.00697   1.89092
   A20        1.89788  -0.00840   0.00000  -0.00398  -0.00399   1.89389
   A21        1.89804  -0.01450   0.00000   0.00332   0.00319   1.90123
   A22        1.89809  -0.01331   0.00000   0.02947   0.02950   1.92759
   A23        1.90815  -0.00475   0.00000  -0.00501  -0.00506   1.90309
   A24        2.09285  -0.17626   0.00000  -0.03554  -0.03556   2.05729
   A25        2.15558   0.34906   0.00000   0.09308   0.09305   2.24863
   A26        2.03475  -0.17280   0.00000  -0.05753  -0.05755   1.97720
   A27        1.96350  -0.01045   0.00000  -0.00337  -0.00337   1.96013
   A28        1.89759   0.00353   0.00000   0.00679   0.00679   1.90438
   A29        1.89771   0.00497   0.00000  -0.00096  -0.00097   1.89675
   A30        1.89809   0.00280   0.00000  -0.00052  -0.00052   1.89757
   A31        1.89817   0.00242   0.00000   0.00061   0.00061   1.89878
   A32        1.90827  -0.00326   0.00000  -0.00261  -0.00261   1.90566
   A33        1.97272   0.05350   0.00000   0.07454   0.07462   2.04734
   A34        1.89514  -0.01259   0.00000  -0.01442  -0.01474   1.88040
   A35        1.89510  -0.01015   0.00000  -0.03868  -0.03892   1.85618
   A36        1.89721  -0.01207   0.00000  -0.02817  -0.02818   1.86903
   A37        1.89728  -0.01457   0.00000   0.01030   0.01046   1.90774
   A38        1.90558  -0.00547   0.00000  -0.00537  -0.00614   1.89944
    D1       -3.12828  -0.01113   0.00000   0.14953   0.15025  -2.97803
    D2        0.01310  -0.01614   0.00000   0.22342   0.22270   0.23579
    D3        0.00103  -0.00484   0.00000   0.04283   0.04296   0.04399
    D4       -3.14054  -0.00697   0.00000   0.05507   0.05562  -3.08492
    D5       -3.14035  -0.00001   0.00000  -0.02830  -0.02885   3.11399
    D6        0.00126  -0.00214   0.00000  -0.01606  -0.01619  -0.01493
    D7       -3.14151   0.00218   0.00000   0.08011   0.08011  -3.06140
    D8       -2.61234   0.05705   0.00000  -0.02581  -0.02622  -2.63856
    D9        0.52915   0.07924   0.00000  -0.04594  -0.04553   0.48362
   D10       -3.14020   0.00791   0.00000   0.00023   0.00044  -3.13976
   D11        0.00154   0.01816   0.00000  -0.00413  -0.00394  -0.00240
   D12        0.00129   0.02927   0.00000  -0.01915  -0.01933  -0.01804
   D13       -3.14015   0.03951   0.00000  -0.02350  -0.02372   3.11931
   D14        0.00018   0.00523   0.00000  -0.00226  -0.00223  -0.00205
   D15       -2.10638   0.00580   0.00000  -0.00329  -0.00326  -2.10963
   D16        2.10671   0.00338   0.00000  -0.00108  -0.00105   2.10566
   D17       -3.14155  -0.00468   0.00000   0.00197   0.00194  -3.13962
   D18        1.03507  -0.00410   0.00000   0.00094   0.00091   1.03598
   D19       -1.03503  -0.00653   0.00000   0.00315   0.00312  -1.03191
   D20       -0.00022   0.00395   0.00000  -0.01573  -0.01565  -0.01586
   D21       -2.10367  -0.00363   0.00000  -0.00445  -0.00445  -2.10812
   D22        2.10328   0.00472   0.00000   0.00783   0.00782   2.11110
   D23        3.14151   0.01351   0.00000  -0.01979  -0.01975   3.12176
   D24        1.03806   0.00593   0.00000  -0.00851  -0.00856   1.02950
   D25       -1.03818   0.01427   0.00000   0.00376   0.00371  -1.03447
   D26       -0.00008  -0.00108   0.00000   0.00610   0.00576   0.00568
   D27       -2.10352  -0.00034   0.00000   0.00428   0.00394  -2.09957
   D28        2.10355  -0.00132   0.00000   0.00407   0.00373   2.10728
   D29        3.14150   0.00091   0.00000  -0.00531  -0.00497   3.13652
   D30        1.03806   0.00164   0.00000  -0.00713  -0.00679   1.03127
   D31       -1.03806   0.00067   0.00000  -0.00735  -0.00700  -1.04507
   D32       -0.00003  -0.00036   0.00000   0.00013   0.00003   0.00001
   D33       -2.10659  -0.01080   0.00000  -0.00225  -0.00208  -2.10867
   D34        2.10659   0.00863   0.00000   0.03425   0.03370   2.14030
   D35        3.14158  -0.00242   0.00000   0.01200   0.01222  -3.12939
   D36        1.03502  -0.01286   0.00000   0.00962   0.01010   1.04512
   D37       -1.03498   0.00657   0.00000   0.04612   0.04588  -0.98910
         Item               Value     Threshold  Converged?
 Maximum Force            0.450683     0.000450     NO 
 RMS     Force            0.093725     0.000300     NO 
 Maximum Displacement     0.778013     0.001800     NO 
 RMS     Displacement     0.224784     0.001200     NO 
 Predicted change in Energy=-1.691423D-01
 GradGradGradGradGradGradGradGradGradGradGradGradGradGradGradGradGradGrad

                          Input orientation:                          
 ---------------------------------------------------------------------
 Center     Atomic      Atomic             Coordinates (Angstroms)
 Number     Number       Type             X           Y           Z
 ---------------------------------------------------------------------
      1          6           0        0.857068   -0.076856    0.127832
      2          8           0        2.053253   -0.346904    0.026557
      3          7           0        0.424554    1.044835    0.855374
      4          7           0       -0.789557    1.005700    0.973440
      5          6           0       -1.419903    2.116682    1.598751
      6          8           0       -2.471753    1.913231    2.206412
      7          7           0       -0.874478    3.385360    1.557232
      8          6           0       -1.505506    4.530965    2.193376
      9          6           0        0.380903    3.649502    0.870244
     10          7           0       -0.097657   -0.835705   -0.555949
     11          6           0        0.366528   -1.970578   -1.331673
     12          6           0       -1.571222   -0.640688   -0.622874
     13          1           0       -2.441090    4.279786    2.695352
     14          1           0       -1.707957    5.284653    1.426011
     15          1           0       -0.811911    4.946912    2.930872
     16          1           0        0.792192    2.755762    0.445610
     17          1           0        1.092471    4.058057    1.596987
     18          1           0        0.199853    4.394899    0.090237
     19          1           0        1.449323   -2.095771   -1.275470
     20          1           0        0.082926   -1.828435   -2.380257
     21          1           0       -0.113241   -2.876166   -0.949070
     22          1           0       -1.977379    0.177335   -0.088397
     23          1           0       -2.045339   -1.546399   -0.233385
     24          1           0       -1.821407   -0.539307   -1.686342
 ---------------------------------------------------------------------
                    Distance matrix (angstroms):
                    1          2          3          4          5
     1  C    0.000000
     2  O    1.230464   0.000000
     3  N    1.405196   2.297071   0.000000
     4  N    2.144377   3.287506   1.220466   0.000000
     5  C    3.487092   4.539148   2.259090   1.422193   0.000000
     6  O    4.400226   5.507782   3.311798   2.274559   1.231678
     7  N    4.126545   4.984413   2.767335   2.451695   1.381577
     8  C    5.574965   6.415098   4.203389   3.798463   2.487904
     9  C    3.829314   4.413596   2.605075   2.893150   2.474502
    10  N    1.398180   2.281371   2.408519   2.491691   3.886857
    11  C    2.440690   2.706685   3.725487   3.938058   5.337079
    12  C    2.603471   3.693900   3.001555   2.422769   3.544236
    13  H    6.037411   6.980534   4.697057   4.051196   2.631421
    14  H    6.083617   6.915173   4.780093   4.399741   3.185727
    15  H    5.990055   6.683465   4.589416   4.400590   3.186597
    16  H    2.851125   3.375266   1.797313   2.417282   2.575174
    17  H    4.394466   4.774205   3.174210   3.639743   3.175054
    18  H    4.519948   5.091546   3.443668   3.639457   3.176397
    19  H    2.529040   2.262419   3.931165   4.437263   5.851356
    20  H    3.155604   3.445269   4.340703   4.476698   5.801289
    21  H    3.152357   3.470261   4.349654   4.384327   5.755631
    22  H    2.854025   4.066207   2.722598   1.795718   2.630269
    23  H    3.273225   4.278413   3.741693   3.089761   4.143194
    24  H    3.267923   4.240759   3.743550   3.244410   4.243503
                    6          7          8          9         10
     6  O    0.000000
     7  N    2.267131   0.000000
     8  C    2.790400   1.454402   0.000000
     9  C    3.596891   1.455233   2.467021   0.000000
    10  N    4.563290   4.783970   6.192089   4.730763   0.000000
    11  C    5.971420   6.210630   7.628927   6.036053   1.450914
    12  C    3.916417   4.631131   5.889107   4.944282   1.487920
    13  H    2.416730   2.132977   1.091049   3.419345   6.498529
    14  H    3.543853   2.078274   1.094478   2.710338   6.631743
    15  H    3.533148   2.080684   1.094526   2.711506   6.790194
    16  H    3.803106   2.099972   3.389018   1.071561   3.833221
    17  H    4.204209   2.079181   2.707178   1.096085   5.477265
    18  H    4.215964   2.079767   2.711081   1.093987   5.278757
    19  H    6.600791   6.592955   8.042235   6.225253   2.120996
    20  H    6.447014   6.603340   7.992697   6.376703   2.084760
    21  H    6.201449   6.787322   8.165718   6.792527   2.078045
    22  H    2.919570   3.770398   4.937938   4.305395   2.185912
    23  H    4.254819   5.375823   6.566197   5.839695   2.098238
    24  H    4.646657   5.178847   6.392156   5.378886   2.082536
                   11         12         13         14         15
    11  C    0.000000
    12  C    2.454767   0.000000
    13  H    7.947748   5.998197   0.000000
    14  H    8.034095   6.271068   1.777208   0.000000
    15  H    8.210339   6.665354   1.776162   1.783698   0.000000
    16  H    5.067367   4.273554   4.223517   3.688797   3.681142
    17  H    6.741548   5.839628   3.706970   3.062054   2.489174
    18  H    6.524484   5.385385   3.711396   2.493130   3.065550
    19  H    1.091456   3.415676   8.458751   8.469775   8.509164
    20  H    1.095520   2.689860   8.333237   8.263835   8.655296
    21  H    1.093916   2.688768   8.361121   8.647722   8.760288
    22  H    3.413674   1.058202   4.979396   5.333921   5.763954
    23  H    2.683890   1.093984   6.532883   7.037805   7.327821
    24  H    2.638445   1.097194   6.542699   6.604402   7.241294
                   16         17         18         19         20
    16  H    0.000000
    17  H    1.764031   0.000000
    18  H    1.778742   1.783403   0.000000
    19  H    5.189539   6.800585   6.749454   0.000000
    20  H    5.431708   7.175544   6.696783   1.777375   0.000000
    21  H    5.872270   7.484624   7.351637   1.776839   1.784521
    22  H    3.821514   5.227284   4.749746   4.280005   3.677036
    23  H    5.198193   6.678776   6.359610   3.687874   3.036135
    24  H    4.715252   6.356625   5.620330   3.645419   2.402053
                   21         22         23         24
    21  H    0.000000
    22  H    3.679625   0.000000
    23  H    2.452242   1.731156   0.000000
    24  H    2.987024   1.758219   1.781984   0.000000
 Stoichiometry    C6H12N4O2
 Framework group  C1[X(C6H12N4O2)]
 Deg. of freedom    66
 Full point group                 C1      NOp   1
 Largest Abelian subgroup         C1      NOp   1
 Largest concise Abelian subgroup C1      NOp   1
                         Standard orientation:                         
 ---------------------------------------------------------------------
 Center     Atomic      Atomic             Coordinates (Angstroms)
 Number     Number       Type             X           Y           Z
 ---------------------------------------------------------------------
      1          6           0        1.629533   -0.795500   -0.316388
      2          8           0        2.237305   -1.835631   -0.566952
      3          7           0        0.229486   -0.729858   -0.417062
      4          7           0       -0.129130    0.431426   -0.305930
      5          6           0       -1.528863    0.682056   -0.282176
      6          8           0       -1.925177    1.768548   -0.705850
      7          7           0       -2.432194   -0.257890    0.175265
      8          6           0       -3.866341   -0.017701    0.203834
      9          6           0       -1.994594   -1.559965    0.655694
     10          7           0        2.316106    0.325046    0.161004
     11          6           0        3.757985    0.231754    0.293045
     12          6           0        1.770861    1.643476    0.583327
     13          1           0       -4.141936    0.970398   -0.167778
     14          1           0       -4.212860   -0.115375    1.237403
     15          1           0       -4.359705   -0.775188   -0.413251
     16          1           0       -0.930806   -1.667756    0.585139
     17          1           0       -2.471816   -2.332397    0.041682
     18          1           0       -2.322399   -1.675597    1.692989
     19          1           0        4.140122   -0.742777   -0.016045
     20          1           0        4.034132    0.402001    1.339431
     21          1           0        4.217536    1.004334   -0.330322
     22          1           0        0.722796    1.776923    0.523807
     23          1           0        2.228969    2.411099   -0.047302
     24          1           0        2.097575    1.795219    1.619699
 ---------------------------------------------------------------------
 Rotational constants (GHZ):           1.9595343           0.5254613           0.4435821
 Standard basis: 6-31G(d) (6D, 7F)
 There are   204 symmetry adapted cartesian basis functions of A   symmetry.
 There are   204 symmetry adapted basis functions of A   symmetry.
   204 basis functions,   384 primitive gaussians,   204 cartesian basis functions
    46 alpha electrons       46 beta electrons
       nuclear repulsion energy       742.0332643968 Hartrees.
 NAtoms=   24 NActive=   24 NUniq=   24 SFac= 1.00D+00 NAtFMM=   60 NAOKFM=F Big=F
 Integral buffers will be    131072 words long.
 Raffenetti 2 integral format.
 Two-electron integral symmetry is turned on.
 One-electron integrals computed using PRISM.
 NBasis=   204 RedAO= T EigKep=  1.88D-03  NBF=   204
 NBsUse=   204 1.00D-06 EigRej= -1.00D+00 NBFU=   204
 Initial guess from the checkpoint file:  "azadicarboxylate_6_conf111.chk"
 B after Tr=    -0.000000    0.000000    0.000000
         Rot=    0.999874    0.012110    0.005593    0.008592 Ang=   1.82 deg.
 ExpMin= 1.61D-01 ExpMax= 5.48D+03 ExpMxC= 8.25D+02 IAcc=2 IRadAn=         4 AccDes= 0.00D+00
 Harris functional with IExCor=  402 and IRadAn=       4 diagonalized for initial guess.
 HarFok:  IExCor=  402 AccDes= 0.00D+00 IRadAn=         4 IDoV= 1 UseB2=F ITyADJ=14
 ICtDFT=  3500011 ScaDFX=  1.000000  1.000000  1.000000  1.000000
 FoFCou: FMM=F IPFlag=           0 FMFlag=      100000 FMFlg1=           0
         NFxFlg=           0 DoJE=T BraDBF=F KetDBF=T FulRan=T
         wScrn=  0.000000 ICntrl=       500 IOpCl=  0 I1Cent=   200000004 NGrid=           0
         NMat0=    1 NMatS0=      1 NMatT0=    0 NMatD0=    1 NMtDS0=    0 NMtDT0=    0
 Petite list used in FoFCou.
 Keep R1 ints in memory in canonical form, NReq=222933844.
 Gradient too large for Newton-Raphson -- use scaled steepest descent instead.
     Minimum is close to point  4 DX=  1.05D-01 DF= -4.73D-04 DXR=  8.07D-02 DFR=  6.56D-03 which will be used.
 Gradient too large for Newton-Raphson -- use scaled steepest descent instead.
 Gradient too large for Newton-Raphson -- use scaled steepest descent instead.
     Accept linear search using points  1 and  2.
 Gradient too large for Newton-Raphson -- use scaled steepest descent instead.
     Accept linear search using points  1 and  2.
 Gradient too large for Newton-Raphson -- use scaled steepest descent instead.
 Gradient too large for Newton-Raphson -- use scaled steepest descent instead.
     Accept linear search using points  1 and  2.
 Gradient too large for Newton-Raphson -- use scaled steepest descent instead.
     Accept linear search using points  2 and  3.
 Gradient too large for Newton-Raphson -- use scaled steepest descent instead.
     Accept linear search using points  1 and  2.
 Gradient too large for Newton-Raphson -- use scaled steepest descent instead.
     Minimum is close to point  3 DX=  9.01D-02 DF= -4.47D-06 DXR=  5.33D-02 DFR=  2.85D-03 which will be used.
 Gradient too large for Newton-Raphson -- use scaled steepest descent instead.
     Accept linear search using points  1 and  2.
 Gradient too large for Newton-Raphson -- use scaled steepest descent instead.
     Accept linear search using points  2 and  3.
     Minimum is close to point  3 DX= -1.35D-01 DF= -6.27D-06 DXR=  8.09D-02 DFR=  5.82D-03 which will be used.
 Gradient too large for Newton-Raphson -- use scaled steepest descent instead.
     Accept linear search using points  1 and  2.
 Gradient too large for Newton-Raphson -- use scaled steepest descent instead.
 Gradient too large for Newton-Raphson -- use scaled steepest descent instead.
     Minimum is close to point  3 DX= -3.03D-02 DF= -3.21D-06 DXR=  6.46D-02 DFR=  4.19D-03 which will be used.
 Gradient too large for Newton-Raphson -- use scaled steepest descent instead.
 Gradient too large for Newton-Raphson -- use scaled steepest descent instead.
     Accept linear search using points  1 and  2.
 Gradient too large for Newton-Raphson -- use scaled steepest descent instead.
 Gradient too large for Newton-Raphson -- use scaled steepest descent instead.
     Minimum is close to point  3 DX= -2.81D-02 DF= -1.59D-06 DXR=  5.94D-02 DFR=  3.55D-03 which will be used.
 Gradient too large for Newton-Raphson -- use scaled steepest descent instead.
 Gradient too large for Newton-Raphson -- use scaled steepest descent instead.
     Accept linear search using points  1 and  2.
 Gradient too large for Newton-Raphson -- use scaled steepest descent instead.
 Gradient too large for Newton-Raphson -- use scaled steepest descent instead.
     Minimum is close to point  3 DX= -3.06D-02 DF= -1.20D-06 DXR=  6.52D-02 DFR=  4.27D-03 which will be used.
 Gradient too large for Newton-Raphson -- use scaled steepest descent instead.
 Gradient too large for Newton-Raphson -- use scaled steepest descent instead.
     Accept linear search using points  1 and  2.
 Gradient too large for Newton-Raphson -- use scaled steepest descent instead.
 Gradient too large for Newton-Raphson -- use scaled steepest descent instead.
     Minimum is close to point  3 DX= -2.79D-02 DF= -6.08D-07 DXR=  5.90D-02 DFR=  3.49D-03 which will be used.
 Gradient too large for Newton-Raphson -- use scaled steepest descent instead.
 Gradient too large for Newton-Raphson -- use scaled steepest descent instead.
     Accept linear search using points  1 and  2.
 Gradient too large for Newton-Raphson -- use scaled steepest descent instead.
 Gradient too large for Newton-Raphson -- use scaled steepest descent instead.
     Minimum is close to point  3 DX= -3.07D-02 DF= -4.84D-07 DXR=  6.54D-02 DFR=  4.30D-03 which will be used.
 LinEq1:  Iter=  0 NonCon=     1 RMS=5.50D-04 Max=4.44D-02 NDo=     1
 AX will form     1 AO Fock derivatives at one time.
 LinEq1:  Iter=  1 NonCon=     1 RMS=8.49D-05 Max=3.33D-03 NDo=     1
 LinEq1:  Iter=  2 NonCon=     1 RMS=8.00D-05 Max=2.73D-03 NDo=     1
 LinEq1:  Iter=  3 NonCon=     1 RMS=4.16D-05 Max=1.09D-03 NDo=     1
 LinEq1:  Iter=  4 NonCon=     1 RMS=3.74D-05 Max=1.75D-03 NDo=     1
 LinEq1:  Iter=  5 NonCon=     1 RMS=2.45D-05 Max=5.09D-04 NDo=     1
 LinEq1:  Iter=  6 NonCon=     1 RMS=1.56D-05 Max=5.18D-04 NDo=     1
 LinEq1:  Iter=  7 NonCon=     1 RMS=1.32D-05 Max=3.52D-04 NDo=     1
 LinEq1:  Iter=  8 NonCon=     1 RMS=9.61D-06 Max=2.26D-04 NDo=     1
 LinEq1:  Iter=  9 NonCon=     1 RMS=6.76D-06 Max=1.63D-04 NDo=     1
 LinEq1:  Iter= 10 NonCon=     1 RMS=2.55D-06 Max=5.03D-05 NDo=     1
 LinEq1:  Iter= 11 NonCon=     1 RMS=1.20D-06 Max=2.80D-05 NDo=     1
 LinEq1:  Iter= 12 NonCon=     1 RMS=6.74D-07 Max=1.70D-05 NDo=     1
 LinEq1:  Iter= 13 NonCon=     1 RMS=3.82D-07 Max=8.10D-06 NDo=     1
 LinEq1:  Iter= 14 NonCon=     1 RMS=2.24D-07 Max=5.68D-06 NDo=     1
 LinEq1:  Iter= 15 NonCon=     1 RMS=9.20D-08 Max=1.55D-06 NDo=     1
 LinEq1:  Iter= 16 NonCon=     1 RMS=2.43D-08 Max=4.33D-07 NDo=     1
 LinEq1:  Iter= 17 NonCon=     1 RMS=1.12D-08 Max=1.70D-07 NDo=     1
 LinEq1:  Iter= 18 NonCon=     0 RMS=4.48D-09 Max=7.01D-08 NDo=     1
 Linear equations converged to 1.206D-08 1.206D-07 after    18 iterations.
     Accept linear search using points  1 and  2.
     Minimum is close to point  2 DX= -7.67D-03 DF= -5.03D-08 DXR=  7.73D-03 DFR=  6.00D-05 which will be used.
 LinEq1:  Iter=  0 NonCon=     1 RMS=9.29D-06 Max=4.38D-04 NDo=     1
 LinEq1:  Iter=  1 NonCon=     1 RMS=8.86D-06 Max=3.26D-04 NDo=     1
 LinEq1:  Iter=  2 NonCon=     1 RMS=7.16D-06 Max=2.75D-04 NDo=     1
 LinEq1:  Iter=  3 NonCon=     1 RMS=4.53D-06 Max=1.32D-04 NDo=     1
 LinEq1:  Iter=  4 NonCon=     1 RMS=3.67D-06 Max=9.21D-05 NDo=     1
 LinEq1:  Iter=  5 NonCon=     1 RMS=2.47D-06 Max=6.04D-05 NDo=     1
 LinEq1:  Iter=  6 NonCon=     1 RMS=1.68D-06 Max=4.94D-05 NDo=     1
 LinEq1:  Iter=  7 NonCon=     1 RMS=1.27D-06 Max=3.65D-05 NDo=     1
 LinEq1:  Iter=  8 NonCon=     1 RMS=1.05D-06 Max=3.00D-05 NDo=     1
 LinEq1:  Iter=  9 NonCon=     1 RMS=6.37D-07 Max=2.28D-05 NDo=     1
 LinEq1:  Iter= 10 NonCon=     1 RMS=3.11D-07 Max=7.39D-06 NDo=     1
 LinEq1:  Iter= 11 NonCon=     1 RMS=1.34D-07 Max=2.58D-06 NDo=     1
 LinEq1:  Iter= 12 NonCon=     1 RMS=7.84D-08 Max=1.34D-06 NDo=     1
 LinEq1:  Iter= 13 NonCon=     1 RMS=4.02D-08 Max=8.56D-07 NDo=     1
 LinEq1:  Iter= 14 NonCon=     1 RMS=1.86D-08 Max=2.86D-07 NDo=     1
 LinEq1:  Iter= 15 NonCon=     1 RMS=6.66D-09 Max=1.17D-07 NDo=     1
 LinEq1:  Iter= 16 NonCon=     0 RMS=3.22D-09 Max=4.76D-08 NDo=     1
 Linear equations converged to 8.116D-09 8.116D-08 after    16 iterations.
     Minimum is close to point  2 DX=  2.88D-04 DF=  0.00D+00 DXR=  2.88D-04 DFR=  0.00D+00 which will be used.
 SCF Done:  E(RB3LYP) =  -605.215921260     a.u. after   33 cycles
            Convg  =    0.1676D-06                   118 Fock formations.
              S**2 =  0.0000                  -V/T =  2.0084
 DoSCS=F DFT=T ScalE2(SS,OS)=  1.000000  1.000000
 Range of M.O.s used for correlation:     1   204
 NBasis=   204 NAE=    46 NBE=    46 NFC=     0 NFV=     0
 NROrb=    204 NOA=    46 NOB=    46 NVA=   158 NVB=   158
 Symmetrizing basis deriv contribution to polar:
 IMax=3 JMax=2 DiffMx= 0.00D+00
 G2DrvN: will do    25 centers at a time, making    1 passes.
 Calling FoFCou, ICntrl=  3107 FMM=F I1Cent=   0 AccDes= 0.00D+00.
 End of G2Drv F.D. properties file   721 does not exist.
 End of G2Drv F.D. properties file   722 does not exist.
 End of G2Drv F.D. properties file   788 does not exist.
          IDoAtm=111111111111111111111111
          Differentiating once with respect to electric field.
                with respect to dipole field.
          Differentiating once with respect to nuclear coordinates.
 Keep R1 ints in memory in canonical form, NReq=222943286.
          There are    75 degrees of freedom in the 1st order CPHF.  IDoFFX=6 NUNeed=     3.
     72 vectors produced by pass  0 Test12= 9.69D-15 1.33D-09 XBig12= 1.51D+02 5.35D+00.
 AX will form    72 AO Fock derivatives at one time.
     72 vectors produced by pass  1 Test12= 9.69D-15 1.33D-09 XBig12= 5.20D+01 1.50D+00.
     72 vectors produced by pass  2 Test12= 9.69D-15 1.33D-09 XBig12= 4.34D-01 1.20D-01.
     72 vectors produced by pass  3 Test12= 9.69D-15 1.33D-09 XBig12= 1.42D-03 5.51D-03.
     72 vectors produced by pass  4 Test12= 9.69D-15 1.33D-09 XBig12= 1.76D-06 1.40D-04.
     49 vectors produced by pass  5 Test12= 9.69D-15 1.33D-09 XBig12= 1.35D-09 4.96D-06.
      7 vectors produced by pass  6 Test12= 9.69D-15 1.33D-09 XBig12= 1.10D-12 1.60D-07.
      2 vectors produced by pass  7 Test12= 9.69D-15 1.33D-09 XBig12= 7.53D-16 2.79D-09.
 InvSVY:  IOpt=1 It=  1 EMax= 7.11D-15
 Solved reduced A of dimension   418 with    75 vectors.
 Isotropic polarizability for W=    0.000000      102.07 Bohr**3.
 End of Minotr F.D. properties file   721 does not exist.
 End of Minotr F.D. properties file   722 does not exist.
 End of Minotr F.D. properties file   788 does not exist.
 Calling FoFJK, ICntrl=    100127 FMM=F ISym2X=0 I1Cent= 0 IOpClX= 0 NMat=1 NMatS=1 NMatT=0.
 ***** Axes restored to original set *****
 -------------------------------------------------------------------
 Center     Atomic                   Forces (Hartrees/Bohr)
 Number     Number              X              Y              Z
 -------------------------------------------------------------------
      1        6           0.013506345   -0.057117495   -0.040672533
      2        8          -0.005928345    0.013577596    0.011748659
      3        7           0.028832138   -0.009476530    0.005128284
[...]
    15  H    0.000000   0.000000   0.000000  -0.000000  -0.000000   0.000000
    16  H   -0.000001  -0.000000  -0.000000   0.000004   0.000000   0.000000
    17  H    0.000000   0.000000  -0.000000   0.000000  -0.000000  -0.000000
    18  H   -0.000000  -0.000000   0.000000   0.000000   0.000000  -0.000000
    19  H    0.483898  -0.022220  -0.024603  -0.000194  -0.000117  -0.000000
    20  H   -0.022220   0.568105  -0.042007  -0.000014  -0.001590   0.006216
    21  H   -0.024603  -0.042007   0.565920  -0.000061   0.005883  -0.001774
    22  H   -0.000194  -0.000014  -0.000061   0.471947  -0.023945  -0.021869
    23  H   -0.000117  -0.001590   0.005883  -0.023945   0.576915  -0.044226
    24  H   -0.000000   0.006216  -0.001774  -0.021869  -0.044226   0.573596
 Mulliken charges:
               1
     1  C    0.704254
     2  O   -0.463694
     3  N   -0.277702
     4  N   -0.277710
     5  C    0.704269
     6  O   -0.463699
     7  N   -0.386843
     8  C   -0.320151
     9  C   -0.322024
    10  N   -0.386832
    11  C   -0.320151
    12  C   -0.322029
    13  H    0.203667
    14  H    0.162310
    15  H    0.160972
    16  H    0.219706
    17  H    0.158812
    18  H    0.160688
    19  H    0.203667
    20  H    0.160973
    21  H    0.162309
    22  H    0.219713
    23  H    0.160686
    24  H    0.158813
 Sum of Mulliken charges =  -0.00000
 Mulliken charges with hydrogens summed into heavy atoms:
               1
     1  C    0.704254
     2  O   -0.463694
     3  N   -0.277702
     4  N   -0.277710
     5  C    0.704269
     6  O   -0.463699
     7  N   -0.386843
     8  C    0.206797
     9  C    0.217182
    10  N   -0.386832
    11  C    0.206797
    12  C    0.217182
 Electronic spatial extent (au):  <R**2>=           2862.1042
 Charge=              0.0000 electrons
 Dipole moment (field-independent basis, Debye):
    X=             -0.0002    Y=              0.0001    Z=             -0.0009  Tot=              0.0009
 Quadrupole moment (field-independent basis, Debye-Ang):
   XX=            -46.6802   YY=            -77.3275   ZZ=            -70.9906
   XY=             10.5399   XZ=             -1.1226   YZ=              0.4902
 Traceless Quadrupole moment (field-independent basis, Debye-Ang):
   XX=             18.3192   YY=            -12.3280   ZZ=             -5.9912
   XY=             10.5399   XZ=             -1.1226   YZ=              0.4902
 Octapole moment (field-independent basis, Debye-Ang**2):
  XXX=             -0.0019  YYY=              0.0009  ZZZ=              0.0007  XYY=             -0.0014
  XXY=              0.0011  XXZ=             -0.0031  XZZ=             -0.0002  YZZ=             -0.0001
  YYZ=             -0.0033  XYZ=              0.0013
 Hexadecapole moment (field-independent basis, Debye-Ang**3):
 XXXX=          -2588.3313 YYYY=           -645.9851 ZZZZ=           -110.8637 XXXY=             -4.1875
 XXXZ=             -3.2703 YYYX=             33.0948 YYYZ=              2.8220 ZZZX=             -2.3689
 ZZZY=             -2.7732 XXYY=           -593.5975 XXZZ=           -502.8265 YYZZ=           -118.9273
 XXYZ=              5.7040 YYXZ=              0.6889 ZZXY=             -0.7762
 N-N= 7.215796419435D+02 E-N=-2.854433858705D+03  KE= 5.997739239209D+02
 Evaluate density.
 Using the total density.
 Monte-Carlo method of calculating molar volume:
 based on  0.001 e/bohr**3 density envelope.
 Number of points per bohr**3 =   20 CutOff= 1.00D-04
 Using the CI density.
 There are       391 points.  Will hold       391 in memory.
 LenV=   805183220 MDV=   805306368.
 Box volume = 7473.275 fraction occupied=0.217
 Integrated density= 1.0247295579456478D+02 error= 1.0472955794564783D+01
 Molar volume = 1624.625 bohr**3/mol (144.980 cm**3/mol)
 Recommended a0 for SCRF calculation =  4.75 angstrom (  8.97 bohr)
 ******************************Gaussian NBO Version 3.1******************************
             N A T U R A L   A T O M I C   O R B I T A L   A N D
          N A T U R A L   B O N D   O R B I T A L   A N A L Y S I S
 ******************************Gaussian NBO Version 3.1******************************
       /RESON  / : Allow strongly delocalized NBO set

 Analyzing the CI density

 Job title: Title Card Required                                             

 Storage needed:    126804 in NPA ( 805303248 available)


 NATURAL POPULATIONS:  Natural atomic orbital occupancies 
                                                          
   NAO  Atom  No  lang   Type(AO)    Occupancy
 --------------------------------------------
     1    C    1  S      Cor( 1S)     1.99935
     2    C    1  S      Val( 2S)     0.73541
     3    C    1  S      Ryd( 3S)     0.00442
     4    C    1  S      Ryd( 4S)     0.00038
     5    C    1  px     Val( 2p)     0.83532
     6    C    1  px     Ryd( 3p)     0.00861
     7    C    1  py     Val( 2p)     0.76703
     8    C    1  py     Ryd( 3p)     0.01946
     9    C    1  pz     Val( 2p)     0.82502
    10    C    1  pz     Ryd( 3p)     0.00356
    11    C    1  dxy    Ryd( 3d)     0.00350
    12    C    1  dxz    Ryd( 3d)     0.00167
    13    C    1  dyz    Ryd( 3d)     0.00259
    14    C    1  dx2y2  Ryd( 3d)     0.00180
    15    C    1  dz2    Ryd( 3d)     0.00041
 
    16    O    2  S      Cor( 1S)     1.99979
    17    O    2  S      Val( 2S)     1.70335
    18    O    2  S      Ryd( 3S)     0.00079
    19    O    2  S      Ryd( 4S)     0.00008
    20    O    2  px     Val( 2p)     1.73133
    21    O    2  px     Ryd( 3p)     0.00156
    22    O    2  py     Val( 2p)     1.57372
    23    O    2  py     Ryd( 3p)     0.00032
    24    O    2  pz     Val( 2p)     1.54201
    25    O    2  pz     Ryd( 3p)     0.00095
    26    O    2  dxy    Ryd( 3d)     0.00447
    27    O    2  dxz    Ryd( 3d)     0.00005
    28    O    2  dyz    Ryd( 3d)     0.00480
    29    O    2  dx2y2  Ryd( 3d)     0.00435
    30    O    2  dz2    Ryd( 3d)     0.00134
 
    31    N    3  S      Cor( 1S)     1.99941
    32    N    3  S      Val( 2S)     1.40065
    33    N    3  S      Ryd( 3S)     0.00616
    34    N    3  S      Ryd( 4S)     0.00004
    35    N    3  px     Val( 2p)     1.13238
    36    N    3  px     Ryd( 3p)     0.00393
    37    N    3  py     Val( 2p)     1.41803
    38    N    3  py     Ryd( 3p)     0.00422
    39    N    3  pz     Val( 2p)     1.26961
    40    N    3  pz     Ryd( 3p)     0.00447
    41    N    3  dxy    Ryd( 3d)     0.00118
    42    N    3  dxz    Ryd( 3d)     0.00137
    43    N    3  dyz    Ryd( 3d)     0.00189
    44    N    3  dx2y2  Ryd( 3d)     0.00076
    45    N    3  dz2    Ryd( 3d)     0.00229
 
    46    N    4  S      Cor( 1S)     1.99941
    47    N    4  S      Val( 2S)     1.40065
    48    N    4  S      Ryd( 3S)     0.00616
    49    N    4  S      Ryd( 4S)     0.00004
    50    N    4  px     Val( 2p)     1.13238
    51    N    4  px     Ryd( 3p)     0.00393
    52    N    4  py     Val( 2p)     1.41804
    53    N    4  py     Ryd( 3p)     0.00422
    54    N    4  pz     Val( 2p)     1.26961
    55    N    4  pz     Ryd( 3p)     0.00447
    56    N    4  dxy    Ryd( 3d)     0.00118
    57    N    4  dxz    Ryd( 3d)     0.00137
    58    N    4  dyz    Ryd( 3d)     0.00189
    59    N    4  dx2y2  Ryd( 3d)     0.00076
    60    N    4  dz2    Ryd( 3d)     0.00229
 
    61    C    5  S      Cor( 1S)     1.99935
    62    C    5  S      Val( 2S)     0.73541
    63    C    5  S      Ryd( 3S)     0.00442
    64    C    5  S      Ryd( 4S)     0.00038
    65    C    5  px     Val( 2p)     0.83532
    66    C    5  px     Ryd( 3p)     0.00861
    67    C    5  py     Val( 2p)     0.76703
    68    C    5  py     Ryd( 3p)     0.01946
    69    C    5  pz     Val( 2p)     0.82503
    70    C    5  pz     Ryd( 3p)     0.00357
    71    C    5  dxy    Ryd( 3d)     0.00349
    72    C    5  dxz    Ryd( 3d)     0.00167
    73    C    5  dyz    Ryd( 3d)     0.00259
    74    C    5  dx2y2  Ryd( 3d)     0.00180
    75    C    5  dz2    Ryd( 3d)     0.00041
 
    76    O    6  S      Cor( 1S)     1.99979
    77    O    6  S      Val( 2S)     1.70335
    78    O    6  S      Ryd( 3S)     0.00079
    79    O    6  S      Ryd( 4S)     0.00008
    80    O    6  px     Val( 2p)     1.73133
    81    O    6  px     Ryd( 3p)     0.00156
    82    O    6  py     Val( 2p)     1.57372
    83    O    6  py     Ryd( 3p)     0.00032
    84    O    6  pz     Val( 2p)     1.54201
    85    O    6  pz     Ryd( 3p)     0.00095
    86    O    6  dxy    Ryd( 3d)     0.00447
    87    O    6  dxz    Ryd( 3d)     0.00005
    88    O    6  dyz    Ryd( 3d)     0.00480
    89    O    6  dx2y2  Ryd( 3d)     0.00435
    90    O    6  dz2    Ryd( 3d)     0.00134
 
    91    N    7  S      Cor( 1S)     1.99930
    92    N    7  S      Val( 2S)     1.20777
    93    N    7  S      Ryd( 3S)     0.00116
    94    N    7  S      Ryd( 4S)     0.00005
    95    N    7  px     Val( 2p)     1.29404
    96    N    7  px     Ryd( 3p)     0.00119
    97    N    7  py     Val( 2p)     1.29362
    98    N    7  py     Ryd( 3p)     0.00129
    99    N    7  pz     Val( 2p)     1.65296
   100    N    7  pz     Ryd( 3p)     0.00407
   101    N    7  dxy    Ryd( 3d)     0.00080
   102    N    7  dxz    Ryd( 3d)     0.00061
   103    N    7  dyz    Ryd( 3d)     0.00050
   104    N    7  dx2y2  Ryd( 3d)     0.00059
   105    N    7  dz2    Ryd( 3d)     0.00050
 
   106    C    8  S      Cor( 1S)     1.99947
   107    C    8  S      Val( 2S)     1.08838
   108    C    8  S      Ryd( 3S)     0.00094
   109    C    8  S      Ryd( 4S)     0.00002
   110    C    8  px     Val( 2p)     0.92331
   111    C    8  px     Ryd( 3p)     0.00214
   112    C    8  py     Val( 2p)     1.21885
   113    C    8  py     Ryd( 3p)     0.00310
   114    C    8  pz     Val( 2p)     1.22835
   115    C    8  pz     Ryd( 3p)     0.00113
   116    C    8  dxy    Ryd( 3d)     0.00072
   117    C    8  dxz    Ryd( 3d)     0.00142
   118    C    8  dyz    Ryd( 3d)     0.00045
   119    C    8  dx2y2  Ryd( 3d)     0.00114
   120    C    8  dz2    Ryd( 3d)     0.00090
 
   121    C    9  S      Cor( 1S)     1.99945
   122    C    9  S      Val( 2S)     1.08828
   123    C    9  S      Ryd( 3S)     0.00104
   124    C    9  S      Ryd( 4S)     0.00002
   125    C    9  px     Val( 2p)     1.27470
   126    C    9  px     Ryd( 3p)     0.00320
   127    C    9  py     Val( 2p)     0.85928
   128    C    9  py     Ryd( 3p)     0.00208
   129    C    9  pz     Val( 2p)     1.23895
   130    C    9  pz     Ryd( 3p)     0.00085
   131    C    9  dxy    Ryd( 3d)     0.00051
   132    C    9  dxz    Ryd( 3d)     0.00074
   133    C    9  dyz    Ryd( 3d)     0.00119
   134    C    9  dx2y2  Ryd( 3d)     0.00131
   135    C    9  dz2    Ryd( 3d)     0.00084
 
   136    N   10  S      Cor( 1S)     1.99930
   137    N   10  S      Val( 2S)     1.20777
   138    N   10  S      Ryd( 3S)     0.00116
   139    N   10  S      Ryd( 4S)     0.00005
   140    N   10  px     Val( 2p)     1.29405
   141    N   10  px     Ryd( 3p)     0.00119
   142    N   10  py     Val( 2p)     1.29362
   143    N   10  py     Ryd( 3p)     0.00128
   144    N   10  pz     Val( 2p)     1.65296
   145    N   10  pz     Ryd( 3p)     0.00407
   146    N   10  dxy    Ryd( 3d)     0.00080
   147    N   10  dxz    Ryd( 3d)     0.00061
   148    N   10  dyz    Ryd( 3d)     0.00050
   149    N   10  dx2y2  Ryd( 3d)     0.00059
   150    N   10  dz2    Ryd( 3d)     0.00050
 
   151    C   11  S      Cor( 1S)     1.99947
   152    C   11  S      Val( 2S)     1.08838
   153    C   11  S      Ryd( 3S)     0.00094
   154    C   11  S      Ryd( 4S)     0.00002
   155    C   11  px     Val( 2p)     0.92329
   156    C   11  px     Ryd( 3p)     0.00214
   157    C   11  py     Val( 2p)     1.21886
   158    C   11  py     Ryd( 3p)     0.00310
   159    C   11  pz     Val( 2p)     1.22835
   160    C   11  pz     Ryd( 3p)     0.00113
   161    C   11  dxy    Ryd( 3d)     0.00072
   162    C   11  dxz    Ryd( 3d)     0.00142
   163    C   11  dyz    Ryd( 3d)     0.00045
   164    C   11  dx2y2  Ryd( 3d)     0.00114
   165    C   11  dz2    Ryd( 3d)     0.00090
 
   166    C   12  S      Cor( 1S)     1.99945
   167    C   12  S      Val( 2S)     1.08828
   168    C   12  S      Ryd( 3S)     0.00104
   169    C   12  S      Ryd( 4S)     0.00002
   170    C   12  px     Val( 2p)     1.27470
   171    C   12  px     Ryd( 3p)     0.00320
   172    C   12  py     Val( 2p)     0.85928
   173    C   12  py     Ryd( 3p)     0.00208
   174    C   12  pz     Val( 2p)     1.23896
   175    C   12  pz     Ryd( 3p)     0.00086
   176    C   12  dxy    Ryd( 3d)     0.00051
   177    C   12  dxz    Ryd( 3d)     0.00074
   178    C   12  dyz    Ryd( 3d)     0.00119
   179    C   12  dx2y2  Ryd( 3d)     0.00131
   180    C   12  dz2    Ryd( 3d)     0.00084
 
   181    H   13  S      Val( 1S)     0.73793
   182    H   13  S      Ryd( 2S)     0.00171
 
   183    H   14  S      Val( 1S)     0.77424
   184    H   14  S      Ryd( 2S)     0.00127
 
   185    H   15  S      Val( 1S)     0.77339
   186    H   15  S      Ryd( 2S)     0.00128
 
   187    H   16  S      Val( 1S)     0.73208
   188    H   16  S      Ryd( 2S)     0.00190
 
   189    H   17  S      Val( 1S)     0.77316
   190    H   17  S      Ryd( 2S)     0.00135
 
   191    H   18  S      Val( 1S)     0.77512
   192    H   18  S      Ryd( 2S)     0.00155
 
   193    H   19  S      Val( 1S)     0.73793
   194    H   19  S      Ryd( 2S)     0.00171
 
   195    H   20  S      Val( 1S)     0.77339
   196    H   20  S      Ryd( 2S)     0.00128
 
   197    H   21  S      Val( 1S)     0.77424
   198    H   21  S      Ryd( 2S)     0.00127
 
   199    H   22  S      Val( 1S)     0.73208
   200    H   22  S      Ryd( 2S)     0.00190
 
   201    H   23  S      Val( 1S)     0.77512
   202    H   23  S      Ryd( 2S)     0.00155
 
   203    H   24  S      Val( 1S)     0.77316
   204    H   24  S      Ryd( 2S)     0.00135


 Summary of Natural Population Analysis:                  
                                                          
                                       Natural Population 
                Natural  -----------------------------------------------
    Atom  No    Charge         Core      Valence    Rydberg      Total
 -----------------------------------------------------------------------
      C    1    0.79148      1.99935     3.16278    0.04640     5.20852
      O    2   -0.56890      1.99979     6.55041    0.01871     8.56890
      N    3   -0.24639      1.99941     5.22066    0.02631     7.24639
      N    4   -0.24640      1.99941     5.22068    0.02631     7.24640
      C    5    0.79147      1.99935     3.16278    0.04640     5.20853
      O    6   -0.56890      1.99979     6.55041    0.01871     8.56890
      N    7   -0.45845      1.99930     5.44839    0.01076     7.45845
      C    8   -0.47032      1.99947     4.45889    0.01196     6.47032
      C    9   -0.47244      1.99945     4.46122    0.01177     6.47244
      N   10   -0.45845      1.99930     5.44839    0.01076     7.45845
      C   11   -0.47032      1.99947     4.45889    0.01196     6.47032
      C   12   -0.47244      1.99945     4.46122    0.01177     6.47244
      H   13    0.26036      0.00000     0.73793    0.00171     0.73964
      H   14    0.22449      0.00000     0.77424    0.00127     0.77551
      H   15    0.22533      0.00000     0.77339    0.00128     0.77467
      H   16    0.26602      0.00000     0.73208    0.00190     0.73398
      H   17    0.22549      0.00000     0.77316    0.00135     0.77451
      H   18    0.22333      0.00000     0.77512    0.00155     0.77667
      H   19    0.26036      0.00000     0.73793    0.00171     0.73964
      H   20    0.22533      0.00000     0.77339    0.00128     0.77467
      H   21    0.22449      0.00000     0.77424    0.00127     0.77551
      H   22    0.26602      0.00000     0.73208    0.00190     0.73398
      H   23    0.22333      0.00000     0.77512    0.00155     0.77667
      H   24    0.22549      0.00000     0.77316    0.00135     0.77451
 =======================================================================
   * Total *   -0.00000     23.99350    67.73658    0.26992    92.00000

                                 Natural Population      
 --------------------------------------------------------
   Core                      23.99350 ( 99.9729% of  24)
   Valence                   67.73658 ( 99.6126% of  68)
   Natural Minimal Basis     91.73008 ( 99.7066% of  92)
   Natural Rydberg Basis      0.26992 (  0.2934% of  92)
 --------------------------------------------------------

    Atom  No          Natural Electron Configuration
 ----------------------------------------------------------------------------
      C    1      [core]2S( 0.74)2p( 2.43)3p( 0.03)3d( 0.01)
      O    2      [core]2S( 1.70)2p( 4.85)3d( 0.02)
      N    3      [core]2S( 1.40)2p( 3.82)3S( 0.01)3p( 0.01)3d( 0.01)
      N    4      [core]2S( 1.40)2p( 3.82)3S( 0.01)3p( 0.01)3d( 0.01)
      C    5      [core]2S( 0.74)2p( 2.43)3p( 0.03)3d( 0.01)
      O    6      [core]2S( 1.70)2p( 4.85)3d( 0.02)
      N    7      [core]2S( 1.21)2p( 4.24)3p( 0.01)
      C    8      [core]2S( 1.09)2p( 3.37)3p( 0.01)
      C    9      [core]2S( 1.09)2p( 3.37)3p( 0.01)
      N   10      [core]2S( 1.21)2p( 4.24)3p( 0.01)
      C   11      [core]2S( 1.09)2p( 3.37)3p( 0.01)
      C   12      [core]2S( 1.09)2p( 3.37)3p( 0.01)
      H   13            1S( 0.74)
      H   14            1S( 0.77)
      H   15            1S( 0.77)
      H   16            1S( 0.73)
      H   17            1S( 0.77)
      H   18            1S( 0.78)
      H   19            1S( 0.74)
      H   20            1S( 0.77)
      H   21            1S( 0.77)
      H   22            1S( 0.73)
      H   23            1S( 0.78)
      H   24            1S( 0.77)


 NBO analysis skipped by request.
 1\1\GINC-DELLA-R1C4N1\SP\RB3LYP TD-FC\6-31G(d)\C6H12N4O2\BJS4\22-Aug-2
 020\0\\# TD(NStates=10, Root=1) B3LYP/6-31G* scf=qc volume pop=NPA den
 sity=current Geom=AllCheck Guess=Read\\Title Card Required\\0,1\C,0,-0
 .7288161393,-0.4159275418,-0.0920473897\O,0,-1.8852748793,-0.778733087
 5,0.0467586564\N,0,-0.2505603739,0.7528471407,0.6476745609\N,0,-0.7451
 893416,1.812526852,0.2251282926\C,0,-0.2669098865,2.9812941908,0.96486
 10346\O,0,0.8896292739,3.3439272469,0.8262720078\N,0,-1.2415728545,3.6
 204400376,1.6593590955\C,0,-0.9169769998,4.8528337146,2.3621608844\C,0
 ,-2.5924738447,3.0974526001,1.8222766638\N,0,0.2457979034,-1.054880875
 1,-0.7867881245\C,0,-0.0787428445,-2.2872936822,-1.4895804088\C,0,1.59
 65942423,-0.5316870587,-0.9499065254\H,0,0.114744726,5.1207887704,2.13
 63899962\H,0,-1.0306872705,4.7201243423,3.445717901\H,0,-1.5864465436,
 5.6591161734,2.037356036\H,0,-2.7396646132,2.2187019403,1.194273812\H,
 0,-3.3240625981,3.8626982594,1.5353088976\H,0,-2.7748443985,2.81777898
 69,2.8682809236\H,0,-1.1103916476,-2.5553966098,-1.2636503077\H,0,0.59
 08872876,-3.0934990555,-1.164914358\H,0,0.0347722314,-2.1545284211,-2.
 5731507904\H,0,1.7437540078,0.3470754388,-0.3219105715\H,0,1.778756777
 9,-0.25196612,-1.9959342239\H,0,2.3283477854,-1.2968232425,-0.66306606
 25\\Version=ES64L-G16RevA.03\State=1-A\HF=-605.2793301\RMSD=3.297e-13\
 Dipole=-0.0000709,0.0002168,-0.0002769\Quadrupole=-4.9471066,4.1326828
 ,0.8144238,-10.2065909,-4.2341192,7.9811886\PG=C01 [X(C6H12N4O2)]\\@


 ASKING FOR EFFICIENCY AND ADAPTABILITY IN THE SAME PROGRAM IS LIKE
 ASKING FOR A BEAUTIFUL AND MODEST WIFE ...
 WE'LL PROBABLY HAVE TO SETTLE FOR ONE OR THE OTHER.

             -- THE PSYCHOLOGY OF COMPUTER PROGRAMMING
                GERALD M. WEINBERG
 Job cpu time:       0 days  0 hours 19 minutes 12.0 seconds.
 Elapsed time:       0 days  0 hours  6 minutes 31.2 seconds.
 File lengths (MBytes):  RWF=    400 Int=      0 D2E=      0 Chk=     24 Scr=      1
 Normal termination of Gaussian 16 at Sat Aug 22 19:54:04 2020.
