 Entering Gaussian System, Link 0=g16
 Input=azadicarboxylate_3_conf28123.com
 Output=azadicarboxylate_3_conf28123.log
 Initial command:
 /opt/export//g16/l1.exe "/scratch/bjs4/job.30227/Gau-30229.inp" -scrdir="/scratch/bjs4/job.30227/"
 Entering Link 1 = /opt/export//g16/l1.exe PID=     30230.
  
 Copyright (c) 1988,1990,1992,1993,1995,1998,2003,2009,2016,
            Gaussian, Inc.  All Rights Reserved.
  
 This is part of the Gaussian(R) 16 program.  It is based on
 the Gaussian(R) 09 system (copyright 2009, Gaussian, Inc.),
 the Gaussian(R) 03 system (copyright 2003, Gaussian, Inc.),
 the Gaussian(R) 98 system (copyright 1998, Gaussian, Inc.),
 the Gaussian(R) 94 system (copyright 1995, Gaussian, Inc.),
 the Gaussian 92(TM) system (copyright 1992, Gaussian, Inc.),
 the Gaussian 90(TM) system (copyright 1990, Gaussian, Inc.),
 the Gaussian 88(TM) system (copyright 1988, Gaussian, Inc.),
 the Gaussian 86(TM) system (copyright 1986, Carnegie Mellon
 University), and the Gaussian 82(TM) system (copyright 1983,
 Carnegie Mellon University). Gaussian is a federally registered
 trademark of Gaussian, Inc.
  
 This software contains proprietary and confidential information,
 including trade secrets, belonging to Gaussian, Inc.
  
 This software is provided under written license and may be
 used, copied, transmitted, or stored only in accord with that
 written license.
  
 The following legend is applicable only to US Government
 contracts under FAR:
  
                    RESTRICTED RIGHTS LEGEND
  
 Use, reproduction and disclosure by the US Government is
 subject to restrictions as set forth in subparagraphs (a)
 and (c) of the Commercial Computer Software - Restricted
 Rights clause in FAR 52.227-19.
  
 Gaussian, Inc.
 340 Quinnipiac St., Bldg. 40, Wallingford CT 06492
  
  
 ---------------------------------------------------------------
 Warning -- This program may not be used in any manner that
 competes with the business of Gaussian, Inc. or will provide
 assistance to any competitor of Gaussian, Inc.  The licensee
 of this program is prohibited from giving any competitor of
 Gaussian, Inc. access to this program.  By using this program,
 the user acknowledges that Gaussian, Inc. is engaged in the
 business of creating and licensing software in the field of
 computational chemistry and represents and warrants to the
 licensee that it is not a competitor of Gaussian, Inc. and that
 it will not use this program in any manner prohibited above.
 ---------------------------------------------------------------
  

 Cite this work as:
 Gaussian 16, Revision A.03,
 M. J. Frisch, G. W. Trucks, H. B. Schlegel, G. E. Scuseria, 
 M. A. Robb, J. R. Cheeseman, G. Scalmani, V. Barone, 
 G. A. Petersson, H. Nakatsuji, X. Li, M. Caricato, A. V. Marenich, 
 J. Bloino, B. G. Janesko, R. Gomperts, B. Mennucci, H. P. Hratchian, 
 J. V. Ortiz, A. F. Izmaylov, J. L. Sonnenberg, D. Williams-Young, 
 F. Ding, F. Lipparini, F. Egidi, J. Goings, B. Peng, A. Petrone, 
 T. Henderson, D. Ranasinghe, V. G. Zakrzewski, J. Gao, N. Rega, 
 G. Zheng, W. Liang, M. Hada, M. Ehara, K. Toyota, R. Fukuda, 
 J. Hasegawa, M. Ishida, T. Nakajima, Y. Honda, O. Kitao, H. Nakai, 
 T. Vreven, K. Throssell, J. A. Montgomery, Jr., J. E. Peralta, 
 F. Ogliaro, M. J. Bearpark, J. J. Heyd, E. N. Brothers, K. N. Kudin, 
 V. N. Staroverov, T. A. Keith, R. Kobayashi, J. Normand, 
 K. Raghavachari, A. P. Rendell, J. C. Burant, S. S. Iyengar, 
 J. Tomasi, M. Cossi, J. M. Millam, M. Klene, C. Adamo, R. Cammi, 
 J. W. Ochterski, R. L. Martin, K. Morokuma, O. Farkas, 
 J. B. Foresman, and D. J. Fox, Gaussian, Inc., Wallingford CT, 2016.
 
 ******************************************
 Gaussian 16:  ES64L-G16RevA.03 25-Dec-2016
                22-Aug-2020 
 ******************************************
 %nprocshared=5
 Will use up to    5 processors via shared memory.
 %Mem=10GB
 %Chk=azadicarboxylate_3_conf281.chk
 ---------------------------------
 # opt=CalcAll B3LYP/6-31G* scf=qc
 ---------------------------------
 1/10=4,18=20,19=15,26=3,38=1/1,3;
 2/9=110,12=2,17=6,18=5,40=1/2;
 3/5=1,6=6,7=1,11=2,25=1,30=1,71=2,74=-5,140=1/1,2,3;
 4//1;
 5/5=2,8=3,38=5/8;
 8/6=4,10=90,11=11/1;
 11/6=1,8=1,9=11,15=111,16=1/1,2,10;
 10/6=1/2;
 6/7=2,8=2,9=2,10=2,18=1,28=1/1;
 7/10=1,25=1/1,2,3,16;
 1/10=4,18=20,19=15,26=3/3(3);
 2/9=110/2;
 7/8=1,9=1,25=1,44=-1/16;
 99//99;
 2/9=110/2;
 3/5=1,6=6,7=1,11=2,25=1,30=1,71=2,74=-5,140=1/1,2,3;
 4/5=5,16=3,69=1/1;
 5/5=2,8=3,38=5/8;
 8/6=4,10=90,11=11/1;
 11/6=1,8=1,9=11,15=111,16=1/1,2,10;
 10/6=1/2;
 7/10=1,25=1/1,2,3,16;
 1/10=4,18=20,19=15,26=3/3(-8);
 2/9=110/2;
 6/7=2,8=2,9=2,10=2,18=1,19=2,28=1/1;
 7/8=1,9=1,25=1,44=-1/16;
 99//99;
 -------------------
 Title Card Required
 -------------------
 Symbolic Z-matrix:
 Charge =  0 Multiplicity = 1
 C                    -5.57518  -1.41538   0.08953 
 C                    -5.59763  -0.72112  -1.25458 
 O1                   -5.87348   0.67713  -1.09578 
 C2                   -5.0041    1.3932   -0.331 
 O3                   -4.01755   0.91641   0.22013 
 N4                   -5.404     2.7122   -0.3088 
 N5                   -6.6449    2.8402   -0.4308 
 C6                   -7.0458    4.1568   -0.3655 
 O7                   -8.19472   4.5779   -0.44139 
 O8                   -5.94972   4.95164  -0.22398 
 C                    -6.17888   6.3661   -0.16226 
 C                    -5.67385   6.92962   1.1476 
 C                    -4.36019   7.40483   1.28393 
 C                    -3.91244   7.92127   2.50311 
 C                    -4.78055   7.98397   3.58998 
 C                    -6.0979    7.55111   3.4632 
 C                    -6.54428   7.03133   2.24484 
 Cl                   -4.22291   8.59775   5.09735 
 C                    -5.80356  -0.71182   1.28246 
 C                    -5.77898  -1.3719    2.51444 
 C                    -5.54422  -2.74373   2.56147 
 C                    -5.3515   -3.46427   1.3857 
 C                    -5.37288  -2.80349   0.15431 
 Cl                   -5.49057  -3.55233   4.07912 
 H                    -6.40587  -1.15187  -1.85632 
 H                    -4.65808  -0.90721  -1.78661 
 H                    -7.2338    6.62761  -0.29824 
 H                    -5.61745   6.82812  -0.98185 
 H                    -3.67052   7.36835   0.44248 
 H                    -2.88698   8.26862   2.59714 
 H                    -6.78011   7.61099   4.30713 
 H                    -7.57751   6.69862   2.16265 
 H                    -5.9942    0.35972   1.26279 
 H                    -5.94024  -0.80967   3.43056 
 H                    -5.18051  -4.53712   1.41985 
 H                    -5.22206  -3.38233  -0.75514 
 

 GradGradGradGradGradGradGradGradGradGradGradGradGradGradGradGradGradGrad
 Berny optimization.
 Initialization pass.
                           ----------------------------
                           !    Initial Parameters    !
                           ! (Angstroms and Degrees)  !
 --------------------------                            --------------------------
 ! Name  Definition              Value          Derivative Info.                !
 --------------------------------------------------------------------------------
 ! R1    R(1,2)                  1.513          calculate D2E/DX2 analytically  !
 ! R2    R(1,19)                 1.4037         calculate D2E/DX2 analytically  !
 ! R3    R(1,23)                 1.4043         calculate D2E/DX2 analytically  !
 ! R4    R(2,3)                  1.434          calculate D2E/DX2 analytically  !
 ! R5    R(2,25)                 1.0959         calculate D2E/DX2 analytically  !
 ! R6    R(2,26)                 1.0956         calculate D2E/DX2 analytically  !
 ! R7    R(3,4)                  1.3614         calculate D2E/DX2 analytically  !
 ! R8    R(4,5)                  1.2265         calculate D2E/DX2 analytically  !
 ! R9    R(4,6)                  1.3785         calculate D2E/DX2 analytically  !
 ! R10   R(6,7)                  1.2534         calculate D2E/DX2 analytically  !
 ! R11   R(7,8)                  1.3778         calculate D2E/DX2 analytically  !
 ! R12   R(8,9)                  1.226          calculate D2E/DX2 analytically  !
 ! R13   R(8,10)                 1.3613         calculate D2E/DX2 analytically  !
 ! R14   R(10,11)                1.4342         calculate D2E/DX2 analytically  !
 ! R15   R(11,12)                1.5127         calculate D2E/DX2 analytically  !
 ! R16   R(11,27)                1.0953         calculate D2E/DX2 analytically  !
 ! R17   R(11,28)                1.0956         calculate D2E/DX2 analytically  !
 ! R18   R(12,13)                1.4036         calculate D2E/DX2 analytically  !
 ! R19   R(12,17)                1.4043         calculate D2E/DX2 analytically  !
 ! R20   R(13,14)                1.3977         calculate D2E/DX2 analytically  !
 ! R21   R(13,29)                1.0886         calculate D2E/DX2 analytically  !
 ! R22   R(14,15)                1.3924         calculate D2E/DX2 analytically  !
 ! R23   R(14,30)                1.0868         calculate D2E/DX2 analytically  !
 ! R24   R(15,16)                1.3924         calculate D2E/DX2 analytically  !
 ! R25   R(15,18)                1.7204         calculate D2E/DX2 analytically  !
 ! R26   R(16,17)                1.3978         calculate D2E/DX2 analytically  !
 ! R27   R(16,31)                1.0868         calculate D2E/DX2 analytically  !
 ! R28   R(17,32)                1.0886         calculate D2E/DX2 analytically  !
 ! R29   R(19,20)                1.3979         calculate D2E/DX2 analytically  !
 ! R30   R(19,33)                1.0885         calculate D2E/DX2 analytically  !
 ! R31   R(20,21)                1.3926         calculate D2E/DX2 analytically  !
 ! R32   R(20,34)                1.0869         calculate D2E/DX2 analytically  !
 ! R33   R(21,22)                1.3924         calculate D2E/DX2 analytically  !
 ! R34   R(21,24)                1.7205         calculate D2E/DX2 analytically  !
 ! R35   R(22,23)                1.3976         calculate D2E/DX2 analytically  !
 ! R36   R(22,35)                1.0869         calculate D2E/DX2 analytically  !
 ! R37   R(23,36)                1.0885         calculate D2E/DX2 analytically  !
 ! A1    A(2,1,19)             121.5068         calculate D2E/DX2 analytically  !
 ! A2    A(2,1,23)             119.7823         calculate D2E/DX2 analytically  !
 ! A3    A(19,1,23)            118.6659         calculate D2E/DX2 analytically  !
 ! A4    A(1,2,3)              110.6034         calculate D2E/DX2 analytically  !
 ! A5    A(1,2,25)             108.5657         calculate D2E/DX2 analytically  !
 ! A6    A(1,2,26)             109.921          calculate D2E/DX2 analytically  !
 ! A7    A(3,2,25)             107.5898         calculate D2E/DX2 analytically  !
 ! A8    A(3,2,26)             112.6026         calculate D2E/DX2 analytically  !
 ! A9    A(25,2,26)            107.4016         calculate D2E/DX2 analytically  !
 ! A10   A(2,3,4)              116.8863         calculate D2E/DX2 analytically  !
 ! A11   A(3,4,5)              124.1665         calculate D2E/DX2 analytically  !
 ! A12   A(3,4,6)              109.0912         calculate D2E/DX2 analytically  !
 ! A13   A(5,4,6)              126.7319         calculate D2E/DX2 analytically  !
 ! A14   A(4,6,7)              112.5413         calculate D2E/DX2 analytically  !
 ! A15   A(6,7,8)              112.397          calculate D2E/DX2 analytically  !
 ! A16   A(7,8,9)              126.7227         calculate D2E/DX2 analytically  !
 ! A17   A(7,8,10)             109.1827         calculate D2E/DX2 analytically  !
 ! A18   A(9,8,10)             124.085          calculate D2E/DX2 analytically  !
 ! A19   A(8,10,11)            116.8497         calculate D2E/DX2 analytically  !
 ! A20   A(10,11,12)           110.5671         calculate D2E/DX2 analytically  !
 ! A21   A(10,11,27)           112.5818         calculate D2E/DX2 analytically  !
 ! A22   A(10,11,28)           107.5667         calculate D2E/DX2 analytically  !
 ! A23   A(12,11,27)           109.8828         calculate D2E/DX2 analytically  !
 ! A24   A(12,11,28)           108.637          calculate D2E/DX2 analytically  !
 ! A25   A(27,11,28)           107.4563         calculate D2E/DX2 analytically  !
 ! A26   A(11,12,13)           121.5124         calculate D2E/DX2 analytically  !
 ! A27   A(11,12,17)           119.7768         calculate D2E/DX2 analytically  !
 ! A28   A(13,12,17)           118.6668         calculate D2E/DX2 analytically  !
 ! A29   A(12,13,14)           120.6395         calculate D2E/DX2 analytically  !
 ! A30   A(12,13,29)           120.4326         calculate D2E/DX2 analytically  !
 ! A31   A(14,13,29)           118.9256         calculate D2E/DX2 analytically  !
 ! A32   A(13,14,15)           119.8531         calculate D2E/DX2 analytically  !
 ! A33   A(13,14,30)           119.7252         calculate D2E/DX2 analytically  !
 ! A34   A(15,14,30)           120.4214         calculate D2E/DX2 analytically  !
 ! A35   A(14,15,16)           120.3161         calculate D2E/DX2 analytically  !
 ! A36   A(14,15,18)           119.8601         calculate D2E/DX2 analytically  !
 ! A37   A(16,15,18)           119.8237         calculate D2E/DX2 analytically  !
 ! A38   A(15,16,17)           119.8075         calculate D2E/DX2 analytically  !
 ! A39   A(15,16,31)           120.3998         calculate D2E/DX2 analytically  !
 ! A40   A(17,16,31)           119.7922         calculate D2E/DX2 analytically  !
 ! A41   A(12,17,16)           120.6672         calculate D2E/DX2 analytically  !
 ! A42   A(12,17,32)           120.4776         calculate D2E/DX2 analytically  !
 ! A43   A(16,17,32)           118.8534         calculate D2E/DX2 analytically  !
 ! A44   A(1,19,20)            120.6283         calculate D2E/DX2 analytically  !
 ! A45   A(1,19,33)            120.4339         calculate D2E/DX2 analytically  !
 ! A46   A(20,19,33)           118.9357         calculate D2E/DX2 analytically  !
 ! A47   A(19,20,21)           119.8609         calculate D2E/DX2 analytically  !
 ! A48   A(19,20,34)           119.7334         calculate D2E/DX2 analytically  !
 ! A49   A(21,20,34)           120.4054         calculate D2E/DX2 analytically  !
 ! A50   A(20,21,22)           120.3043         calculate D2E/DX2 analytically  !
 ! A51   A(20,21,24)           119.8705         calculate D2E/DX2 analytically  !
 ! A52   A(22,21,24)           119.8252         calculate D2E/DX2 analytically  !
 ! A53   A(21,22,23)           119.8152         calculate D2E/DX2 analytically  !
 ! A54   A(21,22,35)           120.3994         calculate D2E/DX2 analytically  !
 ! A55   A(23,22,35)           119.785          calculate D2E/DX2 analytically  !
 ! A56   A(1,23,22)            120.6764         calculate D2E/DX2 analytically  !
 ! A57   A(1,23,36)            120.4683         calculate D2E/DX2 analytically  !
 ! A58   A(22,23,36)           118.8536         calculate D2E/DX2 analytically  !
 ! D1    D(19,1,2,3)             0.0003         calculate D2E/DX2 analytically  !
 ! D2    D(19,1,2,25)         -117.8292         calculate D2E/DX2 analytically  !
 ! D3    D(19,1,2,26)          124.9585         calculate D2E/DX2 analytically  !
 ! D4    D(23,1,2,3)           177.5284         calculate D2E/DX2 analytically  !
 ! D5    D(23,1,2,25)           59.6988         calculate D2E/DX2 analytically  !
 ! D6    D(23,1,2,26)          -57.5135         calculate D2E/DX2 analytically  !
 ! D7    D(2,1,19,20)          179.9784         calculate D2E/DX2 analytically  !
 ! D8    D(2,1,19,33)           -0.5613         calculate D2E/DX2 analytically  !
 ! D9    D(23,1,19,20)           2.4235         calculate D2E/DX2 analytically  !
 ! D10   D(23,1,19,33)        -178.1161         calculate D2E/DX2 analytically  !
 ! D11   D(2,1,23,22)         -179.8653         calculate D2E/DX2 analytically  !
 ! D12   D(2,1,23,36)            0.6183         calculate D2E/DX2 analytically  !
 ! D13   D(19,1,23,22)          -2.2672         calculate D2E/DX2 analytically  !
 ! D14   D(19,1,23,36)         178.2164         calculate D2E/DX2 analytically  !
 ! D15   D(1,2,3,4)             59.2938         calculate D2E/DX2 analytically  !
 ! D16   D(25,2,3,4)           177.7193         calculate D2E/DX2 analytically  !
 ! D17   D(26,2,3,4)           -64.1283         calculate D2E/DX2 analytically  !
 ! D18   D(2,3,4,5)             -0.0793         calculate D2E/DX2 analytically  !
 ! D19   D(2,3,4,6)            178.8171         calculate D2E/DX2 analytically  !
 ! D20   D(3,4,6,7)             29.6471         calculate D2E/DX2 analytically  !
 ! D21   D(5,4,6,7)           -151.4923         calculate D2E/DX2 analytically  !
 ! D22   D(4,6,7,8)            178.0638         calculate D2E/DX2 analytically  !
 ! D23   D(6,7,8,9)           -179.2939         calculate D2E/DX2 analytically  !
 ! D24   D(6,7,8,10)             1.8019         calculate D2E/DX2 analytically  !
 ! D25   D(7,8,10,11)          178.9397         calculate D2E/DX2 analytically  !
 ! D26   D(9,8,10,11)            0.0001         calculate D2E/DX2 analytically  !
 ! D27   D(8,10,11,12)         119.9997         calculate D2E/DX2 analytically  !
 ! D28   D(8,10,11,27)          -3.3303         calculate D2E/DX2 analytically  !
 ! D29   D(8,10,11,28)        -121.5231         calculate D2E/DX2 analytically  !
 ! D30   D(10,11,12,13)         90.3528         calculate D2E/DX2 analytically  !
 ! D31   D(10,11,12,17)        -92.0896         calculate D2E/DX2 analytically  !
 ! D32   D(27,11,12,13)       -144.7683         calculate D2E/DX2 analytically  !
 ! D33   D(27,11,12,17)         32.7893         calculate D2E/DX2 analytically  !
 ! D34   D(28,11,12,13)        -27.4705         calculate D2E/DX2 analytically  !
 ! D35   D(28,11,12,17)        150.0871         calculate D2E/DX2 analytically  !
 ! D36   D(11,12,13,14)       -179.9697         calculate D2E/DX2 analytically  !
 ! D37   D(11,12,13,29)         -0.5264         calculate D2E/DX2 analytically  !
 ! D38   D(17,12,13,14)          2.4463         calculate D2E/DX2 analytically  !
 ! D39   D(17,12,13,29)       -178.1103         calculate D2E/DX2 analytically  !
 ! D40   D(11,12,17,16)       -179.8986         calculate D2E/DX2 analytically  !
 ! D41   D(11,12,17,32)          0.5948         calculate D2E/DX2 analytically  !
 ! D42   D(13,12,17,16)         -2.2716         calculate D2E/DX2 analytically  !
 ! D43   D(13,12,17,32)        178.2218         calculate D2E/DX2 analytically  !
 ! D44   D(12,13,14,15)         -0.9086         calculate D2E/DX2 analytically  !
 ! D45   D(12,13,14,30)        178.8995         calculate D2E/DX2 analytically  !
 ! D46   D(29,13,14,15)        179.6398         calculate D2E/DX2 analytically  !
 ! D47   D(29,13,14,30)         -0.5521         calculate D2E/DX2 analytically  !
 ! D48   D(13,14,15,16)         -0.857          calculate D2E/DX2 analytically  !
 ! D49   D(13,14,15,18)        179.0858         calculate D2E/DX2 analytically  !
 ! D50   D(30,14,15,16)        179.3362         calculate D2E/DX2 analytically  !
 ! D51   D(30,14,15,18)         -0.7209         calculate D2E/DX2 analytically  !
 ! D52   D(14,15,16,17)          1.0305         calculate D2E/DX2 analytically  !
 ! D53   D(14,15,16,31)       -179.2321         calculate D2E/DX2 analytically  !
 ! D54   D(18,15,16,17)       -178.9124         calculate D2E/DX2 analytically  !
 ! D55   D(18,15,16,31)          0.825          calculate D2E/DX2 analytically  !
 ! D56   D(15,16,17,12)          0.5581         calculate D2E/DX2 analytically  !
 ! D57   D(15,16,17,32)       -179.9274         calculate D2E/DX2 analytically  !
 ! D58   D(31,16,17,12)       -179.1809         calculate D2E/DX2 analytically  !
 ! D59   D(31,16,17,32)          0.3336         calculate D2E/DX2 analytically  !
 ! D60   D(1,19,20,21)          -0.8876         calculate D2E/DX2 analytically  !
 ! D61   D(1,19,20,34)         178.9148         calculate D2E/DX2 analytically  !
 ! D62   D(33,19,20,21)        179.6441         calculate D2E/DX2 analytically  !
 ! D63   D(33,19,20,34)         -0.5535         calculate D2E/DX2 analytically  !
 ! D64   D(19,20,21,22)         -0.8579         calculate D2E/DX2 analytically  !
 ! D65   D(19,20,21,24)        179.0882         calculate D2E/DX2 analytically  !
 ! D66   D(34,20,21,22)        179.3411         calculate D2E/DX2 analytically  !
 ! D67   D(34,20,21,24)         -0.7129         calculate D2E/DX2 analytically  !
 ! D68   D(20,21,22,23)          1.0136         calculate D2E/DX2 analytically  !
 ! D69   D(20,21,22,35)       -179.2329         calculate D2E/DX2 analytically  !
 ! D70   D(24,21,22,23)       -178.9325         calculate D2E/DX2 analytically  !
 ! D71   D(24,21,22,35)          0.8209         calculate D2E/DX2 analytically  !
 ! D72   D(21,22,23,1)           0.573          calculate D2E/DX2 analytically  !
 ! D73   D(21,22,23,36)       -179.9029         calculate D2E/DX2 analytically  !
 ! D74   D(35,22,23,1)        -179.182          calculate D2E/DX2 analytically  !
 ! D75   D(35,22,23,36)          0.3421         calculate D2E/DX2 analytically  !
 --------------------------------------------------------------------------------
 Trust Radius=3.00D-01 FncErr=1.00D-07 GrdErr=1.00D-06 EigMax=2.50D+02 EigMin=1.00D-04
 Number of steps in this run=    180 maximum allowed number of steps=    216.
 GradGradGradGradGradGradGradGradGradGradGradGradGradGradGradGradGradGrad

                          Input orientation:                          
 ---------------------------------------------------------------------
 Center     Atomic      Atomic             Coordinates (Angstroms)
 Number     Number       Type             X           Y           Z
 ---------------------------------------------------------------------
      1          6           0       -5.575180   -1.415380    0.089530
      2          6           0       -5.597630   -0.721120   -1.254580
      3          8           0       -5.873480    0.677130   -1.095780
      4          6           0       -5.004100    1.393200   -0.331000
      5          8           0       -4.017550    0.916410    0.220130
      6          7           0       -5.404000    2.712200   -0.308800
      7          7           0       -6.644900    2.840200   -0.430800
      8          6           0       -7.045800    4.156800   -0.365500
      9          8           0       -8.194720    4.577900   -0.441390
     10          8           0       -5.949720    4.951640   -0.223980
     11          6           0       -6.178880    6.366100   -0.162260
     12          6           0       -5.673850    6.929620    1.147600
     13          6           0       -4.360190    7.404830    1.283930
     14          6           0       -3.912440    7.921270    2.503110
     15          6           0       -4.780550    7.983970    3.589980
     16          6           0       -6.097900    7.551110    3.463200
     17          6           0       -6.544280    7.031330    2.244840
     18         17           0       -4.222910    8.597750    5.097350
     19          6           0       -5.803560   -0.711820    1.282460
     20          6           0       -5.778980   -1.371900    2.514440
     21          6           0       -5.544220   -2.743730    2.561470
     22          6           0       -5.351500   -3.464270    1.385700
     23          6           0       -5.372880   -2.803490    0.154310
     24         17           0       -5.490570   -3.552330    4.079120
     25          1           0       -6.405870   -1.151870   -1.856320
     26          1           0       -4.658080   -0.907210   -1.786610
     27          1           0       -7.233800    6.627610   -0.298240
     28          1           0       -5.617450    6.828120   -0.981850
     29          1           0       -3.670520    7.368350    0.442480
     30          1           0       -2.886980    8.268620    2.597140
     31          1           0       -6.780110    7.610990    4.307130
     32          1           0       -7.577510    6.698620    2.162650
     33          1           0       -5.994200    0.359720    1.262790
     34          1           0       -5.940240   -0.809670    3.430560
     35          1           0       -5.180510   -4.537120    1.419850
     36          1           0       -5.222060   -3.382330   -0.755140
 ---------------------------------------------------------------------
                    Distance matrix (angstroms):
                    1          2          3          4          5
     1  C    0.000000
     2  C    1.512988   0.000000
     3  O    2.423333   1.434020   0.000000
     4  C    2.896739   2.382357   1.361421   0.000000
     5  O    2.807225   2.711628   2.287652   1.226521   0.000000
     6  N    4.150287   3.566466   2.231873   1.378468   2.329565
     7  N    4.418711   3.802419   2.390849   2.189976   3.320790
     8  C    5.780914   5.165439   3.743761   3.436163   4.473633
     9  O    6.562261   5.956993   4.586108   4.509385   5.594003
    10  O    6.385727   5.776358   4.363174   3.683496   4.495953
    11  C    7.808923   7.194422   5.773137   5.112564   5.875091
    12  C    8.412388   8.019358   6.645768   5.769469   6.305730
    13  C    8.983256   8.602695   7.294862   6.257980   6.583970
    14  C    9.785863   9.573453   8.323176   7.199972   7.368250
    15  C   10.061430   9.995798   8.748757   7.672178   7.866922
    16  C    9.594417   9.536116   8.251440   7.315204   7.672327
    17  C    8.771056   8.558187   7.210102   6.387145   6.919253
    18  Cl  11.276953  11.361259  10.188987   9.054434   9.101232
    19  C    1.403651   2.545401   2.755013   2.770108   2.639983
    20  C    2.433847   3.829088   4.152245   4.042616   3.688205
    21  C    2.806414   4.319264   5.018583   5.076643   4.605347
    22  C    2.434757   3.815302   4.856068   5.163600   4.725287
    23  C    1.404269   2.524232   3.732029   4.240723   3.959660
    24  Cl   4.526648   6.039501   6.694366   6.644101   6.085329
    25  H    2.132092   1.095851   2.051122   3.281607   3.780674
    26  H    2.149235   1.095646   2.112954   2.744160   2.786193
    27  H    8.221379   7.589168   6.155871   5.689612   6.575012
    28  H    8.312938   7.554191   6.157370   5.508009   6.241214
    29  H    8.994788   8.487243   7.210527   6.170829   6.465091
    30  H   10.358300  10.148832   8.954751   7.767084   7.809184
    31  H   10.035704  10.087365   8.836958   7.957850   8.315811
    32  H    8.610700   8.405351   7.055454   6.402204   7.062624
    33  H    2.168662   2.768146   2.382892   2.142089   2.303082
    34  H    3.415060   4.698485   4.764744   4.458512   4.121037
    35  H    3.416252   4.678506   5.830695   6.185895   5.703753
    36  H    2.169574   2.733593   4.125482   4.799280   4.569591
                    6          7          8          9         10
     6  N    0.000000
     7  N    1.253436   0.000000
     8  C    2.187599   1.377832   0.000000
     9  O    3.359544   2.328445   1.226010   0.000000
    10  O    2.306533   2.232539   1.361319   2.286258   0.000000
    11  C    3.738034   3.566687   2.381987   2.709093   1.434232
    12  C    4.469961   4.489726   3.443871   3.796085   2.422755
    13  C    5.064297   5.384798   4.525795   5.066743   3.289155
    14  C    6.104588   6.472360   5.676099   6.179492   4.517326
    15  C    6.586405   6.789760   5.951841   6.285683   5.010816
    16  C    6.174507   6.136377   5.203729   5.336896   4.513812
    17  C    5.145503   4.973404   3.915140   3.994885   3.282329
    18  Cl   8.078436   8.341215   7.585082   7.912781   6.677765
    19  C    3.796797   4.032364   5.287948   6.055612   5.862210
    20  C    4.979073   5.212105   6.361243   7.069148   6.893131
    21  C    6.166464   6.430043   7.644554   8.345573   8.194015
    22  C    6.404910   6.687219   8.001129   8.723454   8.589323
    23  C    5.535185   5.814776   7.177360   7.924806   7.785749
    24  Cl   7.648900   7.907989   9.033497   9.687522   9.541750
    25  H    4.281308   4.245688   5.551039   6.167031   6.334465
    26  H    3.980006   4.452949   5.776241   6.663623   6.199699
    27  H    4.321888   3.835212   2.478865   2.268297   2.112641
    28  H    4.176045   4.154854   3.091282   3.463800   2.050841
    29  H    5.024849   5.487595   4.728573   5.388527   3.388128
    30  H    6.756751   7.263479   6.555920   7.143261   5.323669
    31  H    6.870126   6.725080   5.816828   5.809406   5.319083
    32  H    5.169502   4.741640   3.624239   3.414590   3.376039
    33  H    2.890051   3.073181   4.263216   5.053668   4.826820
    34  H    5.164681   5.359869   6.348083   7.007181   6.822642
    35  H    7.455925   7.745592   9.069235   9.779226   9.660767
    36  H    6.113560   6.391365   7.766359   8.502965   8.382522
                   11         12         13         14         15
    11  C    0.000000
    12  C    1.512727   0.000000
    13  C    2.545203   1.403607   0.000000
    14  C    3.828773   2.433792   1.397709   0.000000
    15  C    4.318812   2.806218   2.414534   1.392420   0.000000
    16  C    3.815071   2.434763   2.791102   2.415580   1.392427
    17  C    2.523921   1.404254   2.415181   2.790211   2.414056
    18  Cl   6.039005   4.526412   3.998009   2.698907   1.720422
    19  C    7.233604   7.643731   8.243987   8.921691   9.054720
    20  C    8.197639   8.413949   8.975417   9.478771   9.470267
    21  C    9.529454   9.776990  10.296956  10.789270  10.803915
    22  C    9.985836  10.401613  10.914687  11.530395  11.672490
    23  C    9.210387   9.788291  10.320435  11.075659  11.336842
    24  Cl  10.809178  10.885710  11.364427  11.688362  11.568475
    25  H    7.709814   8.652738   9.341472  10.370328  10.759527
    26  H    7.606075   8.429548   8.866057   9.843766  10.391140
    27  H    1.095324   2.148280   3.371197   4.533492   4.793371
    28  H    1.095625   2.132614   2.654629   4.030755   4.789365
    29  H    2.768047   2.168642   1.088583   2.147194   3.393805
    30  H    4.697923   3.414781   2.154298   1.086767   2.156934
    31  H    4.678320   3.416242   3.877919   3.402101   2.156770
    32  H    2.733485   2.169702   3.409110   3.878598   3.392990
    33  H    6.175878   6.578714   7.232151   7.940350   8.063371
    34  H    8.028510   8.073381   8.636121   9.011185   8.871212
    35  H   11.062550  11.480576  11.970863  12.569524  12.714052
    36  H    9.813200  10.495754  11.011968  11.836497  12.176526
                   16         17         18         19         20
    16  C    0.000000
    17  C    1.397794   0.000000
    18  Cl   2.698423   3.997405   0.000000
    19  C    8.550922   7.837807  10.184298   0.000000
    20  C    8.978973   8.442313  10.415695   1.397886   0.000000
    21  C   10.349078   9.831184  11.696398   2.414908   1.392567
    22  C   11.234399  10.598041  12.670532   2.791236   2.415534
    23  C   10.894593  10.122558  12.479758   2.415221   2.790086
    24  Cl  11.137082  10.792995  12.258393   3.998471   2.699200
    25  H   10.204607   9.154421  12.172671   3.226199   4.420967
    26  H   10.058666   9.101140  11.744043   3.281690   4.468936
    27  H    4.036279   2.665649   6.485314   7.642737   8.603478
    28  H    4.529019   3.363307   6.483287   7.874797   8.915742
    29  H    3.879475   3.408897   4.846068   8.399082   9.226624
    30  H    3.402189   3.876963   2.853784   9.533264  10.065293
    31  H    1.086837   2.155148   2.852615   8.909065   9.214571
    32  H    2.146489   1.088584   4.844843   7.670479   8.275975
    33  H    7.521213   6.765899   9.257778   1.088544   2.147430
    34  H    8.362330   7.953117   9.707057   2.154667   1.086915
    35  H   12.293990  11.677736  13.673544   3.878142   3.402192
    36  H   11.751664  10.917530  13.370574   3.409044   3.878420
                   21         22         23         24         25
    21  C    0.000000
    22  C    1.392391   0.000000
    23  C    2.413990   1.397644   0.000000
    24  Cl   1.720457   2.698445   3.997342   0.000000
    25  H    4.774236   4.119415   2.799562   6.467568   0.000000
    26  H    4.802484   4.133151   2.806063   6.488181   1.766207
    27  H    9.942567  10.403112   9.623589  11.217456   7.977054
    28  H   10.206899  10.564531   9.701473  11.549167   8.066384
    29  H   10.500240  11.002773  10.317335  11.653282   9.239089
    30  H   11.328462  12.049986  11.607702  12.194663  10.998251
    31  H   10.573314  11.542836  11.299894  11.239867  10.719883
    32  H    9.667021  10.432790   9.959112  10.635326   8.896913
    33  H    3.394179   3.879571   3.408909   4.846596   3.490447
    34  H    2.157020   3.402201   3.876987   2.853948   5.318366
    35  H    2.156810   1.086927   2.155011   2.852659   4.867722
    36  H    3.392860   2.146314   1.088532   4.844695   2.754806
                   26         27         28         29         30
    26  H    0.000000
    27  H    8.100808   0.000000
    28  H    7.836030   1.766385   0.000000
    29  H    8.627225   3.714071   2.472064   0.000000
    30  H   10.322302   5.474576   4.726487   2.463124   0.000000
    31  H   10.686272   4.730994   5.471560   4.966281   4.302674
    32  H    9.053639   2.485791   3.707625   4.321122   4.965355
    33  H    3.562186   6.577223   6.857153   7.429219   8.601512
    34  H    5.373296   8.419643   8.826630   8.997792   9.614174
    35  H    4.871403  11.481247  11.624447  12.040579  13.062667
    36  H    2.740114  10.220311  10.220617  10.927886  12.346458
                   31         32         33         34         35
    31  H    0.000000
    32  H    2.463140   0.000000
    33  H    7.903580   6.595322   0.000000
    34  H    8.507718   7.788624   2.463658   0.000000
    35  H   12.588554  11.512568   4.966468   4.302793   0.000000
    36  H   12.202753  10.755798   4.321016   4.965324   2.462894
                   36
    36  H    0.000000
 Stoichiometry    C16H12Cl2N2O4
 Framework group  C1[X(C16H12Cl2N2O4)]
 Deg. of freedom   102
 Full point group                 C1      NOp   1
 Largest Abelian subgroup         C1      NOp   1
 Largest concise Abelian subgroup C1      NOp   1
                         Standard orientation:                         
 ---------------------------------------------------------------------
 Center     Atomic      Atomic             Coordinates (Angstroms)
 Number     Number       Type             X           Y           Z
 ---------------------------------------------------------------------
      1          6           0        4.243224   -0.799796   -0.308597
      2          6           0        3.711999   -2.182222   -0.618164
      3          8           0        2.314789   -2.267338   -0.306759
      4          6           0        1.485541   -1.405072   -0.956615
      5          8           0        1.861358   -0.574439   -1.777080
      6          7           0        0.187112   -1.642430   -0.559226
      7          7           0        0.115839   -2.080584    0.612969
      8          6           0       -1.185213   -2.276451    1.022018
      9          8           0       -1.555878   -2.683263    2.117560
     10          8           0       -2.027368   -1.967324   -0.001898
     11          6           0       -3.430881   -2.136277    0.240234
     12          6           0       -4.160244   -0.820948    0.078119
     13          6           0       -4.691815   -0.424433   -1.158943
     14          6           0       -5.361930    0.795328   -1.288244
     15          6           0       -5.522182    1.619289   -0.177281
     16          6           0       -5.033641    1.225903    1.065871
     17          6           0       -4.360352    0.007673    1.194037
     18         17           0       -6.326282    3.131381   -0.341154
     19          6           0        3.413066    0.205640    0.211183
     20          6           0        3.923401    1.476610    0.490967
     21          6           0        5.271699    1.746335    0.270553
     22          6           0        6.117898    0.750690   -0.210481
     23          6           0        5.606692   -0.519010   -0.493216
     24         17           0        5.895084    3.317213    0.592590
     25          1           0        4.236939   -2.907345    0.013914
     26          1           0        3.927472   -2.440068   -1.661010
     27          1           0       -3.639261   -2.558349    1.229257
     28          1           0       -3.812442   -2.842445   -0.505508
     29          1           0       -4.580309   -1.059481   -2.036037
     30          1           0       -5.752002    1.095806   -2.257067
     31          1           0       -5.168912    1.862326    1.936435
     32          1           0       -3.985935   -0.285111    2.173376
     33          1           0        2.358155    0.009580    0.394625
     34          1           0        3.263639    2.249553    0.876527
     35          1           0        7.173074    0.956000   -0.371299
     36          1           0        6.282510   -1.286088   -0.867063
 ---------------------------------------------------------------------
 Rotational constants (GHZ):           0.2874854           0.0704631           0.0603614
 Standard basis: 6-31G(d) (6D, 7F)
 There are   392 symmetry adapted cartesian basis functions of A   symmetry.
 There are   392 symmetry adapted basis functions of A   symmetry.
   392 basis functions,   768 primitive gaussians,   392 cartesian basis functions
    94 alpha electrons       94 beta electrons
       nuclear repulsion energy      2079.4082024601 Hartrees.
 NAtoms=   36 NActive=   36 NUniq=   36 SFac= 1.00D+00 NAtFMM=   60 NAOKFM=F Big=F
 Integral buffers will be    131072 words long.
 Raffenetti 2 integral format.
 Two-electron integral symmetry is turned on.
 One-electron integrals computed using PRISM.
 NBasis=   392 RedAO= T EigKep=  4.45D-04  NBF=   392
 NBsUse=   392 1.00D-06 EigRej= -1.00D+00 NBFU=   392
 ExpMin= 1.43D-01 ExpMax= 2.52D+04 ExpMxC= 3.78D+03 IAcc=3 IRadAn=         5 AccDes= 0.00D+00
 Harris functional with IExCor=  402 and IRadAn=       5 diagonalized for initial guess.
 HarFok:  IExCor=  402 AccDes= 0.00D+00 IRadAn=         5 IDoV= 1 UseB2=F ITyADJ=14
 ICtDFT=  3500011 ScaDFX=  1.000000  1.000000  1.000000  1.000000
 FoFCou: FMM=F IPFlag=           0 FMFlag=      100000 FMFlg1=           0
         NFxFlg=           0 DoJE=T BraDBF=F KetDBF=T FulRan=T
         wScrn=  0.000000 ICntrl=       500 IOpCl=  0 I1Cent=   200000004 NGrid=           0
         NMat0=    1 NMatS0=      1 NMatT0=    0 NMatD0=    1 NMtDS0=    0 NMtDT0=    0
 Petite list used in FoFCou.
 Gradient too large for Newton-Raphson -- use scaled steepest descent instead.
 Gradient too large for Newton-Raphson -- use scaled steepest descent instead.
 Gradient too large for Newton-Raphson -- use scaled steepest descent instead.
     Minimum is close to point  2 DX=  2.17D-02 DF= -2.89D-05 DXR=  5.15D-02 DFR=  2.66D-03 which will be used.
 Gradient too large for Newton-Raphson -- use scaled steepest descent instead.
 Gradient too large for Newton-Raphson -- use scaled steepest descent instead.
     Minimum is close to point  2 DX= -7.00D-03 DF= -2.97D-07 DXR=  1.78D-02 DFR=  3.17D-04 which will be used.
 Gradient too large for Newton-Raphson -- use scaled steepest descent instead.
 Gradient too large for Newton-Raphson -- use scaled steepest descent instead.
     Minimum is close to point  2 DX=  1.48D-02 DF= -1.36D-07 DXR=  3.56D-02 DFR=  1.27D-03 which will be used.
 Gradient too large for Newton-Raphson -- use scaled steepest descent instead.
 Restarting incremental Fock formation.
 LinEq1:  Iter=  0 NonCon=     1 RMS=4.51D-05 Max=2.42D-03 NDo=     1
 AX will form     1 AO Fock derivatives at one time.
 LinEq1:  Iter=  1 NonCon=     1 RMS=5.98D-05 Max=3.19D-03 NDo=     1
 LinEq1:  Iter=  2 NonCon=     1 RMS=8.79D-06 Max=4.85D-04 NDo=     1
 LinEq1:  Iter=  3 NonCon=     1 RMS=9.30D-06 Max=5.10D-04 NDo=     1
 LinEq1:  Iter=  4 NonCon=     1 RMS=5.55D-06 Max=2.72D-04 NDo=     1
 LinEq1:  Iter=  5 NonCon=     1 RMS=4.33D-06 Max=2.54D-04 NDo=     1
 LinEq1:  Iter=  6 NonCon=     1 RMS=3.85D-06 Max=2.33D-04 NDo=     1
 LinEq1:  Iter=  7 NonCon=     1 RMS=2.32D-06 Max=1.75D-04 NDo=     1
 LinEq1:  Iter=  8 NonCon=     1 RMS=1.84D-06 Max=9.36D-05 NDo=     1
 LinEq1:  Iter=  9 NonCon=     1 RMS=1.40D-06 Max=8.52D-05 NDo=     1
 LinEq1:  Iter= 10 NonCon=     1 RMS=8.55D-07 Max=4.40D-05 NDo=     1
 LinEq1:  Iter= 11 NonCon=     1 RMS=4.95D-07 Max=1.74D-05 NDo=     1
 LinEq1:  Iter= 12 NonCon=     1 RMS=2.47D-07 Max=1.15D-05 NDo=     1
 LinEq1:  Iter= 13 NonCon=     1 RMS=1.90D-07 Max=8.21D-06 NDo=     1
 LinEq1:  Iter= 14 NonCon=     1 RMS=8.50D-08 Max=3.21D-06 NDo=     1
 LinEq1:  Iter= 15 NonCon=     1 RMS=5.64D-08 Max=1.51D-06 NDo=     1
 LinEq1:  Iter= 16 NonCon=     1 RMS=3.09D-08 Max=1.31D-06 NDo=     1
 LinEq1:  Iter= 17 NonCon=     1 RMS=1.68D-08 Max=7.18D-07 NDo=     1
 LinEq1:  Iter= 18 NonCon=     1 RMS=1.22D-08 Max=5.19D-07 NDo=     1
 LinEq1:  Iter= 19 NonCon=     1 RMS=7.65D-09 Max=3.51D-07 NDo=     1
 LinEq1:  Iter= 20 NonCon=     0 RMS=3.28D-09 Max=1.41D-07 NDo=     1
 Linear equations converged to 2.367D-08 2.367D-07 after    20 iterations.
     Accept linear search using points  1 and  2.
     Minimum is close to point  2 DX= -4.42D-04 DF= -5.00D-12 DXR=  4.42D-04 DFR=  1.96D-07 which will be used.
 LinEq1:  Iter=  0 NonCon=     1 RMS=1.35D-07 Max=1.20D-05 NDo=     1
 LinEq1:  Iter=  1 NonCon=     1 RMS=9.95D-08 Max=6.19D-06 NDo=     1
 LinEq1:  Iter=  2 NonCon=     1 RMS=7.48D-08 Max=4.92D-06 NDo=     1
 LinEq1:  Iter=  3 NonCon=     1 RMS=5.34D-08 Max=3.53D-06 NDo=     1
 LinEq1:  Iter=  4 NonCon=     1 RMS=4.19D-08 Max=2.49D-06 NDo=     1
 LinEq1:  Iter=  5 NonCon=     1 RMS=2.73D-08 Max=1.76D-06 NDo=     1
 LinEq1:  Iter=  6 NonCon=     1 RMS=1.59D-08 Max=9.44D-07 NDo=     1
 LinEq1:  Iter=  7 NonCon=     1 RMS=1.29D-08 Max=5.42D-07 NDo=     1
 LinEq1:  Iter=  8 NonCon=     1 RMS=8.94D-09 Max=4.07D-07 NDo=     1
 LinEq1:  Iter=  9 NonCon=     1 RMS=8.76D-09 Max=3.37D-07 NDo=     1
 LinEq1:  Iter= 10 NonCon=     1 RMS=4.88D-09 Max=2.34D-07 NDo=     1
 LinEq1:  Iter= 11 NonCon=     1 RMS=4.40D-09 Max=2.03D-07 NDo=     1
 LinEq1:  Iter= 12 NonCon=     1 RMS=2.97D-09 Max=1.34D-07 NDo=     1
 LinEq1:  Iter= 13 NonCon=     1 RMS=1.95D-09 Max=6.65D-08 NDo=     1
 LinEq1:  Iter= 14 NonCon=     1 RMS=1.16D-09 Max=5.58D-08 NDo=     1
 LinEq1:  Iter= 15 NonCon=     1 RMS=8.82D-10 Max=3.67D-08 NDo=     1
 LinEq1:  Iter= 16 NonCon=     1 RMS=3.95D-10 Max=1.18D-08 NDo=     1
 LinEq1:  Iter= 17 NonCon=     1 RMS=1.99D-10 Max=7.97D-09 NDo=     1
 LinEq1:  Iter= 18 NonCon=     1 RMS=9.31D-11 Max=3.56D-09 NDo=     1
 LinEq1:  Iter= 19 NonCon=     1 RMS=4.86D-11 Max=1.96D-09 NDo=     1
 LinEq1:  Iter= 20 NonCon=     0 RMS=3.21D-11 Max=1.20D-09 NDo=     1
 Linear equations converged to 1.333D-10 1.333D-09 after    20 iterations.
 SCF Done:  E(RB3LYP) =  -1947.62661154     a.u. after   11 cycles
            Convg  =    0.3976D-09                    64 Fock formations.
              S**2 =  0.0000                  -V/T =  2.0062
 DoSCS=F DFT=T ScalE2(SS,OS)=  1.000000  1.000000
 Range of M.O.s used for correlation:     1   392
 NBasis=   392 NAE=    94 NBE=    94 NFC=     0 NFV=     0
 NROrb=    392 NOA=    94 NOB=    94 NVA=   298 NVB=   298

 **** Warning!!: The smallest alpha delta epsilon is  0.85214132D-01

 Symmetrizing basis deriv contribution to polar:
 IMax=3 JMax=2 DiffMx= 0.00D+00
 G2DrvN: will do    37 centers at a time, making    1 passes.
 Calling FoFCou, ICntrl=  3107 FMM=F I1Cent=   0 AccDes= 0.00D+00.
 End of G2Drv F.D. properties file   721 does not exist.
 End of G2Drv F.D. properties file   722 does not exist.
 End of G2Drv F.D. properties file   788 does not exist.
          IDoAtm=111111111111111111111111111111111111
          Differentiating once with respect to electric field.
                with respect to dipole field.
          Differentiating once with respect to nuclear coordinates.
 CalDSu exits because no D1Ps are significant.
          There are   111 degrees of freedom in the 1st order CPHF.  IDoFFX=6 NUNeed=     3.
    108 vectors produced by pass  0 Test12= 2.80D-14 1.00D-09 XBig12= 2.64D+02 6.53D+00.
 AX will form   108 AO Fock derivatives at one time.
    108 vectors produced by pass  1 Test12= 2.80D-14 1.00D-09 XBig12= 6.03D+01 1.79D+00.
    108 vectors produced by pass  2 Test12= 2.80D-14 1.00D-09 XBig12= 9.55D-01 1.61D-01.
    108 vectors produced by pass  3 Test12= 2.80D-14 1.00D-09 XBig12= 8.43D-03 1.08D-02.
    108 vectors produced by pass  4 Test12= 2.80D-14 1.00D-09 XBig12= 1.96D-05 4.79D-04.
    104 vectors produced by pass  5 Test12= 2.80D-14 1.00D-09 XBig12= 2.66D-08 1.72D-05.
     33 vectors produced by pass  6 Test12= 2.80D-14 1.00D-09 XBig12= 2.87D-11 3.87D-07.
      3 vectors produced by pass  7 Test12= 2.80D-14 1.00D-09 XBig12= 2.75D-14 1.37D-08.
 InvSVY:  IOpt=1 It=  1 EMax= 7.11D-15
 Solved reduced A of dimension   680 with   111 vectors.
 Isotropic polarizability for W=    0.000000      212.96 Bohr**3.
 End of Minotr F.D. properties file   721 does not exist.
 End of Minotr F.D. properties file   722 does not exist.
 End of Minotr F.D. properties file   788 does not exist.

 **********************************************************************

            Population analysis using the SCF density.

 **********************************************************************

 Orbital symmetries:
       Occupied  (A) (A) (A) (A) (A) (A) (A) (A) (A) (A) (A) (A)
                 (A) (A) (A) (A) (A) (A) (A) (A) (A) (A) (A) (A)
                 (A) (A) (A) (A) (A) (A) (A) (A) (A) (A) (A) (A)
                 (A) (A) (A) (A) (A) (A) (A) (A) (A) (A) (A) (A)
                 (A) (A) (A) (A) (A) (A) (A) (A) (A) (A) (A) (A)
                 (A) (A) (A) (A) (A) (A) (A) (A) (A) (A) (A) (A)
                 (A) (A) (A) (A) (A) (A) (A) (A) (A) (A) (A) (A)
                 (A) (A) (A) (A) (A) (A) (A) (A) (A) (A)
       Virtual   (A) (A) (A) (A) (A) (A) (A) (A) (A) (A) (A) (A)
                 (A) (A) (A) (A) (A) (A) (A) (A) (A) (A) (A) (A)
                 (A) (A) (A) (A) (A) (A) (A) (A) (A) (A) (A) (A)
                 (A) (A) (A) (A) (A) (A) (A) (A) (A) (A) (A) (A)
                 (A) (A) (A) (A) (A) (A) (A) (A) (A) (A) (A) (A)
                 (A) (A) (A) (A) (A) (A) (A) (A) (A) (A) (A) (A)
                 (A) (A) (A) (A) (A) (A) (A) (A) (A) (A) (A) (A)
                 (A) (A) (A) (A) (A) (A) (A) (A) (A) (A) (A) (A)
                 (A) (A) (A) (A) (A) (A) (A) (A) (A) (A) (A) (A)
                 (A) (A) (A) (A) (A) (A) (A) (A) (A) (A) (A) (A)
                 (A) (A) (A) (A) (A) (A) (A) (A) (A) (A) (A) (A)
                 (A) (A) (A) (A) (A) (A) (A) (A) (A) (A) (A) (A)
                 (A) (A) (A) (A) (A) (A) (A) (A) (A) (A) (A) (A)
                 (A) (A) (A) (A) (A) (A) (A) (A) (A) (A) (A) (A)
                 (A) (A) (A) (A) (A) (A) (A) (A) (A) (A) (A) (A)
                 (A) (A) (A) (A) (A) (A) (A) (A) (A) (A) (A) (A)
                 (A) (A) (A) (A) (A) (A) (A) (A) (A) (A) (A) (A)
                 (A) (A) (A) (A) (A) (A) (A) (A) (A) (A) (A) (A)
                 (A) (A) (A) (A) (A) (A) (A) (A) (A) (A) (A) (A)
                 (A) (A) (A) (A) (A) (A) (A) (A) (A) (A) (A) (A)
                 (A) (A) (A) (A) (A) (A) (A) (A) (A) (A) (A) (A)
                 (A) (A) (A) (A) (A) (A) (A) (A) (A) (A) (A) (A)
                 (A) (A) (A) (A) (A) (A) (A) (A) (A) (A) (A) (A)
                 (A) (A) (A) (A) (A) (A) (A) (A) (A) (A) (A) (A)
                 (A) (A) (A) (A) (A) (A) (A) (A) (A) (A)
 The electronic state is 1-A.
 Alpha  occ. eigenvalues -- -101.55588-101.54882 -19.22047 -19.21410 -19.17873
 Alpha  occ. eigenvalues --  -19.17476 -14.44043 -14.43832 -10.36731 -10.36678
 Alpha  occ. eigenvalues --  -10.27096 -10.26093 -10.26024 -10.25069 -10.21600
 Alpha  occ. eigenvalues --  -10.21392 -10.21299 -10.21228 -10.21191 -10.21163
 Alpha  occ. eigenvalues --  -10.20696 -10.20540 -10.20482 -10.20389  -9.47281
 Alpha  occ. eigenvalues --   -9.46575  -7.23669  -7.22960  -7.22709  -7.22667
 Alpha  occ. eigenvalues --   -7.22001  -7.21965  -1.15977  -1.13347  -1.07236
 Alpha  occ. eigenvalues --   -1.04596  -1.04440  -0.90420  -0.89681  -0.86061
 Alpha  occ. eigenvalues --   -0.85037  -0.83997  -0.77741  -0.76845  -0.76663
 Alpha  occ. eigenvalues --   -0.75989  -0.70924  -0.70006  -0.64099  -0.63262
 Alpha  occ. eigenvalues --   -0.62584  -0.60784  -0.60138  -0.57878  -0.57123
 Alpha  occ. eigenvalues --   -0.53871  -0.53112  -0.52243  -0.51343  -0.49544
 Alpha  occ. eigenvalues --   -0.49307  -0.48642  -0.47886  -0.47487  -0.47062
 Alpha  occ. eigenvalues --   -0.46105  -0.45467  -0.44436  -0.43949  -0.43670
 Alpha  occ. eigenvalues --   -0.43171  -0.41601  -0.40423  -0.40193  -0.39443
 Alpha  occ. eigenvalues --   -0.38992  -0.38091  -0.37538  -0.37070  -0.36344
 Alpha  occ. eigenvalues --   -0.36261  -0.34026  -0.33408  -0.32976  -0.32207
 Alpha  occ. eigenvalues --   -0.32026  -0.31875  -0.31507  -0.31215  -0.27839
 Alpha  occ. eigenvalues --   -0.27025  -0.26090  -0.25241  -0.23922
 Alpha virt. eigenvalues --   -0.15400  -0.02812  -0.02205  -0.01621  -0.01213
 Alpha virt. eigenvalues --   -0.00071   0.03283   0.03759   0.04320   0.09740
 Alpha virt. eigenvalues --    0.10068   0.10492   0.11473   0.11637   0.11695
 Alpha virt. eigenvalues --    0.12062   0.12734   0.13526   0.15307   0.16073
 Alpha virt. eigenvalues --    0.16419   0.17253   0.17842   0.17995   0.19154
 Alpha virt. eigenvalues --    0.21100   0.21801   0.22590   0.23721   0.24031
 Alpha virt. eigenvalues --    0.26702   0.27462   0.27722   0.28735   0.29487
 Alpha virt. eigenvalues --    0.30140   0.31774   0.33110   0.33837   0.34168
 Alpha virt. eigenvalues --    0.36141   0.39026   0.40235   0.40849   0.41264
 Alpha virt. eigenvalues --    0.41583   0.42391   0.43726   0.44279   0.44438
 Alpha virt. eigenvalues --    0.44954   0.46851   0.48043   0.48997   0.49953
 Alpha virt. eigenvalues --    0.51798   0.52244   0.52865   0.53435   0.53497
 Alpha virt. eigenvalues --    0.53976   0.54760   0.55750   0.56153   0.56553
 Alpha virt. eigenvalues --    0.57270   0.57607   0.57659   0.57888   0.58339
 Alpha virt. eigenvalues --    0.58843   0.58895   0.59475   0.59729   0.60348
 Alpha virt. eigenvalues --    0.61638   0.62142   0.62698   0.62721   0.63092
 Alpha virt. eigenvalues --    0.64074   0.65267   0.65882   0.66638   0.67612
 Alpha virt. eigenvalues --    0.68199   0.69744   0.71180   0.71757   0.72947
 Alpha virt. eigenvalues --    0.74138   0.74653   0.74892   0.75738   0.76357
 Alpha virt. eigenvalues --    0.77788   0.78805   0.80052   0.80595   0.81044
 Alpha virt. eigenvalues --    0.82167   0.82828   0.83345   0.84230   0.84580
 Alpha virt. eigenvalues --    0.85077   0.85992   0.86541   0.86920   0.87213
 Alpha virt. eigenvalues --    0.88136   0.88403   0.89413   0.89971   0.90727
 Alpha virt. eigenvalues --    0.91599   0.91970   0.92676   0.92863   0.93758
 Alpha virt. eigenvalues --    0.94034   0.95373   0.96985   0.98268   0.99481
 Alpha virt. eigenvalues --    1.00075   1.01741   1.02136   1.03384   1.03818
 Alpha virt. eigenvalues --    1.07213   1.07480   1.09258   1.10166   1.10982
 Alpha virt. eigenvalues --    1.11433   1.12673   1.13399   1.13903   1.14714
 Alpha virt. eigenvalues --    1.16288   1.17544   1.19669   1.20979   1.23357
 Alpha virt. eigenvalues --    1.23577   1.24546   1.26146   1.27299   1.29157
 Alpha virt. eigenvalues --    1.32728   1.34342   1.35563   1.36307   1.37468
 Alpha virt. eigenvalues --    1.38143   1.39891   1.40592   1.41538   1.43025
 Alpha virt. eigenvalues --    1.43472   1.43827   1.45253   1.45525   1.45968
 Alpha virt. eigenvalues --    1.46562   1.48050   1.49110   1.49564   1.51696
 Alpha virt. eigenvalues --    1.54690   1.54907   1.56066   1.59315   1.60228
 Alpha virt. eigenvalues --    1.61827   1.63609   1.66398   1.68396   1.70341
 Alpha virt. eigenvalues --    1.71473   1.73419   1.75776   1.76213   1.77181
 Alpha virt. eigenvalues --    1.78171   1.78917   1.79814   1.81489   1.82416
 Alpha virt. eigenvalues --    1.83173   1.83797   1.84797   1.86463   1.87434
 Alpha virt. eigenvalues --    1.88531   1.89452   1.90816   1.93954   1.94677
 Alpha virt. eigenvalues --    1.95142   1.95820   1.97230   1.98532   1.99839
 Alpha virt. eigenvalues --    2.00742   2.02276   2.03730   2.04914   2.05577
 Alpha virt. eigenvalues --    2.06458   2.07804   2.08762   2.11431   2.12082
 Alpha virt. eigenvalues --    2.12995   2.13299   2.13864   2.14294   2.14772
 Alpha virt. eigenvalues --    2.17808   2.20812   2.22401   2.22837   2.23662
 Alpha virt. eigenvalues --    2.24973   2.26762   2.28508   2.28870   2.29667
 Alpha virt. eigenvalues --    2.32158   2.34871   2.35932   2.36735   2.37832
 Alpha virt. eigenvalues --    2.40261   2.42415   2.44619   2.51096   2.54114
 Alpha virt. eigenvalues --    2.55036   2.55449   2.56940   2.57675   2.60269
 Alpha virt. eigenvalues --    2.62311   2.63527   2.65014   2.66281   2.67768
 Alpha virt. eigenvalues --    2.68638   2.69159   2.70195   2.72611   2.73580
 Alpha virt. eigenvalues --    2.75111   2.75803   2.76237   2.77162   2.79227
 Alpha virt. eigenvalues --    2.82856   2.85118   2.87365   2.88961   2.92161
 Alpha virt. eigenvalues --    2.97599   3.03213   3.03658   3.08454   3.10923
 Alpha virt. eigenvalues --    3.16775   3.23763   3.35869   3.36761   3.79372
 Alpha virt. eigenvalues --    3.93017   3.99379   4.02917   4.04672   4.05833
 Alpha virt. eigenvalues --    4.09217   4.09917   4.10198   4.16454   4.18128
 Alpha virt. eigenvalues --    4.20415   4.25292   4.27120   4.30690   4.31168
 Alpha virt. eigenvalues --    4.34881   4.35617   4.40028   4.42093   4.45009
 Alpha virt. eigenvalues --    4.52335   4.68962   4.69190
          Condensed to atoms (all electrons):
               1          2          3          4          5          6
     1  C    4.768305   0.323512  -0.034202  -0.001677  -0.005277  -0.000050
     2  C    0.323512   4.976539   0.207187  -0.023197   0.007763   0.005220
     3  O   -0.034202   0.207187   8.257319   0.245359  -0.080335  -0.103692
     4  C   -0.001677  -0.023197   0.245359   4.322229   0.516018   0.233192
     5  O   -0.005277   0.007763  -0.080335   0.516018   8.066434  -0.061510
     6  N   -0.000050   0.005220  -0.103692   0.233192  -0.061510   7.016970
     7  N   -0.000117   0.000317  -0.009750  -0.055643   0.000708   0.182571
     8  C   -0.000002   0.000000   0.000294   0.003390  -0.000125  -0.049695
     9  O   -0.000000  -0.000000   0.000005  -0.000105   0.000000   0.001802
    10  O   -0.000000   0.000001  -0.000023   0.000193   0.000006  -0.018728
    11  C    0.000000  -0.000000   0.000001  -0.000009  -0.000000   0.000483
    12  C    0.000000   0.000000   0.000000  -0.000001  -0.000000   0.000100
    13  C    0.000000   0.000000  -0.000000   0.000000   0.000000  -0.000011
    14  C   -0.000000  -0.000000   0.000000  -0.000000   0.000000   0.000000
    15  C    0.000000  -0.000000   0.000000   0.000000  -0.000000  -0.000000
    16  C    0.000000   0.000000  -0.000000   0.000000  -0.000000  -0.000000
    17  C   -0.000000  -0.000000   0.000000  -0.000000  -0.000000   0.000005
    18  Cl  -0.000000   0.000000  -0.000000  -0.000000  -0.000000   0.000000
    19  C    0.549924  -0.061783   0.000155   0.006872  -0.011739  -0.001966
    20  C   -0.022471   0.006556   0.000798  -0.000638  -0.001187  -0.000040
    21  C   -0.032623   0.000490  -0.000013  -0.000018  -0.000004   0.000000
    22  C   -0.016313   0.005115  -0.000061  -0.000034   0.000038   0.000000
    23  C    0.525478  -0.056971   0.002054   0.000465  -0.000950  -0.000010
    24  Cl   0.000723   0.000008   0.000000  -0.000000   0.000000   0.000000
    25  H   -0.035738   0.371686  -0.027189   0.004208   0.000170  -0.000116
    26  H   -0.040416   0.356992  -0.027679  -0.005410   0.005930  -0.000084
    27  H   -0.000000   0.000000  -0.000000   0.000004  -0.000000  -0.000133
    28  H   -0.000000   0.000000  -0.000000   0.000000   0.000000   0.000073
    29  H    0.000000  -0.000000  -0.000000  -0.000000   0.000000  -0.000000
    30  H    0.000000  -0.000000  -0.000000  -0.000000   0.000000   0.000000
    31  H    0.000000  -0.000000  -0.000000  -0.000000   0.000000  -0.000000
    32  H    0.000000   0.000000  -0.000000   0.000000   0.000000  -0.000003
    33  H   -0.048588  -0.012234   0.000443   0.004664  -0.011888  -0.002066
    34  H    0.003822  -0.000186   0.000008   0.000045  -0.000007  -0.000001
    35  H    0.003594  -0.000145   0.000000   0.000000  -0.000000   0.000000
    36  H   -0.053491  -0.006821   0.000054   0.000003  -0.000012  -0.000000
               7          8          9         10         11         12
     1  C   -0.000117  -0.000002  -0.000000  -0.000000   0.000000   0.000000
     2  C    0.000317   0.000000  -0.000000   0.000001  -0.000000   0.000000
     3  O   -0.009750   0.000294   0.000005  -0.000023   0.000001   0.000000
     4  C   -0.055643   0.003390  -0.000105   0.000193  -0.000009  -0.000001
     5  O    0.000708  -0.000125   0.000000   0.000006  -0.000000  -0.000000
     6  N    0.182571  -0.049695   0.001802  -0.018728   0.000483   0.000100
     7  N    7.037734   0.233526  -0.060759  -0.100491   0.004059  -0.000261
     8  C    0.233526   4.211320   0.548677   0.282243  -0.011778  -0.002029
     9  O   -0.060759   0.548677   8.019869  -0.077361  -0.009926  -0.000406
    10  O   -0.100491   0.282243  -0.077361   8.262466   0.186958  -0.046037
    11  C    0.004059  -0.011778  -0.009926   0.186958   5.025863   0.353211
    12  C   -0.000261  -0.002029  -0.000406  -0.046037   0.353211   4.684534
    13  C    0.000001  -0.000137  -0.000015   0.000445  -0.050318   0.539557
    14  C   -0.000000   0.000001   0.000000  -0.000024   0.005904  -0.021703
    15  C    0.000000  -0.000000   0.000000   0.000002   0.000394  -0.030900
    16  C    0.000000   0.000002   0.000006  -0.000028   0.006256  -0.023698
    17  C   -0.000058   0.001296  -0.000042  -0.000378  -0.051114   0.538701
    18  Cl  -0.000000  -0.000000   0.000000  -0.000000   0.000007   0.000588
    19  C   -0.000925   0.000009   0.000000  -0.000000   0.000000  -0.000000
    20  C    0.000011   0.000000   0.000000   0.000000   0.000000   0.000000
    21  C    0.000000  -0.000000  -0.000000  -0.000000  -0.000000   0.000000
    22  C   -0.000000   0.000000   0.000000  -0.000000  -0.000000  -0.000000
    23  C    0.000002  -0.000000  -0.000000  -0.000000   0.000000  -0.000000
    24  Cl  -0.000000  -0.000000   0.000000   0.000000   0.000000   0.000000
    25  H    0.000065  -0.000001  -0.000000   0.000000   0.000000   0.000000
    26  H   -0.000008   0.000003  -0.000000  -0.000000   0.000000  -0.000000
    27  H    0.000539  -0.009098   0.019662  -0.028842   0.344683  -0.028123
    28  H   -0.000171   0.002295   0.000621  -0.036269   0.362259  -0.036770
    29  H    0.000000  -0.000002   0.000000   0.000322  -0.008231  -0.042111
    30  H    0.000000  -0.000000  -0.000000   0.000001  -0.000150   0.003634
    31  H    0.000000   0.000000  -0.000000   0.000001  -0.000166   0.003649
    32  H    0.000016   0.000645   0.001022  -0.000291  -0.008029  -0.040843
    33  H    0.005537  -0.000076  -0.000002   0.000002  -0.000000   0.000000
    34  H   -0.000002   0.000000   0.000000   0.000000   0.000000  -0.000000
    35  H   -0.000000   0.000000   0.000000   0.000000  -0.000000  -0.000000
    36  H    0.000000   0.000000  -0.000000   0.000000   0.000000   0.000000
              13         14         15         16         17         18
     1  C    0.000000  -0.000000   0.000000   0.000000  -0.000000  -0.000000
     2  C    0.000000  -0.000000  -0.000000   0.000000  -0.000000   0.000000
     3  O   -0.000000   0.000000   0.000000  -0.000000   0.000000  -0.000000
     4  C    0.000000  -0.000000   0.000000   0.000000  -0.000000  -0.000000
     5  O    0.000000   0.000000  -0.000000  -0.000000  -0.000000  -0.000000
     6  N   -0.000011   0.000000  -0.000000  -0.000000   0.000005   0.000000
     7  N    0.000001  -0.000000   0.000000   0.000000  -0.000058  -0.000000
     8  C   -0.000137   0.000001  -0.000000   0.000002   0.001296  -0.000000
     9  O   -0.000015   0.000000   0.000000   0.000006  -0.000042   0.000000
    10  O    0.000445  -0.000024   0.000002  -0.000028  -0.000378  -0.000000
    11  C   -0.050318   0.005904   0.000394   0.006256  -0.051114   0.000007
    12  C    0.539557  -0.021703  -0.030900  -0.023698   0.538701   0.000588
    13  C    4.951771   0.507503  -0.030524  -0.041672  -0.044340   0.004563
    14  C    0.507503   4.936105   0.531215  -0.035476  -0.042054  -0.071615
    15  C   -0.030524   0.531215   4.926608   0.531206  -0.030354   0.240699
    16  C   -0.041672  -0.035476   0.531206   4.939187   0.505836  -0.071866
    17  C   -0.044340  -0.042054  -0.030354   0.505836   4.962867   0.004601
    18  Cl   0.004563  -0.071615   0.240699  -0.071866   0.004601  16.897074
    19  C   -0.000000  -0.000000   0.000000   0.000000  -0.000000  -0.000000
    20  C   -0.000000   0.000000  -0.000000  -0.000000   0.000000   0.000000
    21  C    0.000000  -0.000000  -0.000000  -0.000000   0.000000   0.000000
    22  C   -0.000000  -0.000000   0.000000  -0.000000  -0.000000  -0.000000
    23  C   -0.000000   0.000000  -0.000000   0.000000   0.000000  -0.000000
    24  Cl   0.000000  -0.000000  -0.000000   0.000000   0.000000   0.000000
    25  H   -0.000000   0.000000  -0.000000  -0.000000   0.000000   0.000000
    26  H   -0.000000  -0.000000   0.000000  -0.000000   0.000000  -0.000000
    27  H    0.004317  -0.000192   0.000003   0.000093  -0.006542  -0.000000
    28  H   -0.006878   0.000103   0.000001  -0.000222   0.005129  -0.000000
    29  H    0.357696  -0.041900   0.004576   0.000425   0.005333  -0.000168
    30  H   -0.034684   0.359901  -0.043192   0.004376   0.000655  -0.000453
    31  H    0.000716   0.004311  -0.043296   0.359351  -0.034338  -0.000464
    32  H    0.005123   0.000445   0.004480  -0.040695   0.357457  -0.000166
    33  H    0.000000   0.000000  -0.000000  -0.000000   0.000000   0.000000
    34  H   -0.000000   0.000000   0.000000   0.000000  -0.000000  -0.000000
    35  H   -0.000000   0.000000   0.000000   0.000000  -0.000000  -0.000000
    36  H   -0.000000   0.000000  -0.000000  -0.000000   0.000000   0.000000
              19         20         21         22         23         24
     1  C    0.549924  -0.022471  -0.032623  -0.016313   0.525478   0.000723
     2  C   -0.061783   0.006556   0.000490   0.005115  -0.056971   0.000008
     3  O    0.000155   0.000798  -0.000013  -0.000061   0.002054   0.000000
     4  C    0.006872  -0.000638  -0.000018  -0.000034   0.000465  -0.000000
     5  O   -0.011739  -0.001187  -0.000004   0.000038  -0.000950   0.000000
     6  N   -0.001966  -0.000040   0.000000   0.000000  -0.000010   0.000000
     7  N   -0.000925   0.000011   0.000000  -0.000000   0.000002  -0.000000
     8  C    0.000009   0.000000  -0.000000   0.000000  -0.000000  -0.000000
     9  O    0.000000   0.000000  -0.000000   0.000000  -0.000000   0.000000
    10  O   -0.000000   0.000000  -0.000000  -0.000000  -0.000000   0.000000
    11  C    0.000000   0.000000  -0.000000  -0.000000   0.000000   0.000000
    12  C   -0.000000   0.000000   0.000000  -0.000000  -0.000000   0.000000
    13  C   -0.000000  -0.000000   0.000000  -0.000000  -0.000000   0.000000
    14  C   -0.000000   0.000000  -0.000000  -0.000000   0.000000  -0.000000
    15  C    0.000000  -0.000000  -0.000000   0.000000  -0.000000  -0.000000
    16  C    0.000000  -0.000000  -0.000000  -0.000000   0.000000   0.000000
    17  C   -0.000000   0.000000   0.000000  -0.000000   0.000000   0.000000
    18  Cl  -0.000000   0.000000   0.000000  -0.000000  -0.000000   0.000000
    19  C    4.902865   0.507143  -0.028717  -0.042203  -0.027641   0.004621
    20  C    0.507143   4.951517   0.529172  -0.035334  -0.042009  -0.070908
    21  C   -0.028717   0.529172   4.931804   0.535712  -0.032341   0.235639
    22  C   -0.042203  -0.035334   0.535712   4.923572   0.512526  -0.071448
    23  C   -0.027641  -0.042009  -0.032341   0.512526   4.958275   0.004672
    24  Cl   0.004621  -0.070908   0.235639  -0.071448   0.004672  16.909474
    25  H   -0.000671  -0.000115   0.000024  -0.000135  -0.001114  -0.000000
    26  H    0.002885   0.000000   0.000008  -0.000117  -0.002553  -0.000000
    27  H    0.000000  -0.000000  -0.000000   0.000000  -0.000000   0.000000
    28  H    0.000000   0.000000  -0.000000  -0.000000   0.000000  -0.000000
    29  H    0.000000  -0.000000  -0.000000   0.000000  -0.000000  -0.000000
    30  H    0.000000  -0.000000  -0.000000   0.000000   0.000000  -0.000000
    31  H    0.000000  -0.000000  -0.000000   0.000000  -0.000000  -0.000000
    32  H    0.000000  -0.000000  -0.000000  -0.000000   0.000000   0.000000
    33  H    0.350274  -0.035915   0.004641   0.000526   0.005103  -0.000174
    34  H   -0.034171   0.358658  -0.043738   0.004174   0.000894  -0.000367
    35  H    0.000693   0.004418  -0.043058   0.359527  -0.035985  -0.000333
    36  H    0.004857   0.000539   0.004761  -0.040644   0.362132  -0.000177
              25         26         27         28         29         30
     1  C   -0.035738  -0.040416  -0.000000  -0.000000   0.000000   0.000000
     2  C    0.371686   0.356992   0.000000   0.000000  -0.000000  -0.000000
     3  O   -0.027189  -0.027679  -0.000000  -0.000000  -0.000000  -0.000000
     4  C    0.004208  -0.005410   0.000004   0.000000  -0.000000  -0.000000
     5  O    0.000170   0.005930  -0.000000   0.000000   0.000000   0.000000
     6  N   -0.000116  -0.000084  -0.000133   0.000073  -0.000000   0.000000
     7  N    0.000065  -0.000008   0.000539  -0.000171   0.000000   0.000000
     8  C   -0.000001   0.000003  -0.009098   0.002295  -0.000002  -0.000000
     9  O   -0.000000  -0.000000   0.019662   0.000621   0.000000  -0.000000
    10  O    0.000000  -0.000000  -0.028842  -0.036269   0.000322   0.000001
    11  C    0.000000   0.000000   0.344683   0.362259  -0.008231  -0.000150
    12  C    0.000000  -0.000000  -0.028123  -0.036770  -0.042111   0.003634
    13  C   -0.000000  -0.000000   0.004317  -0.006878   0.357696  -0.034684
    14  C    0.000000  -0.000000  -0.000192   0.000103  -0.041900   0.359901
    15  C   -0.000000   0.000000   0.000003   0.000001   0.004576  -0.043192
    16  C   -0.000000  -0.000000   0.000093  -0.000222   0.000425   0.004376
    17  C    0.000000   0.000000  -0.006542   0.005129   0.005333   0.000655
    18  Cl   0.000000  -0.000000  -0.000000  -0.000000  -0.000168  -0.000453
    19  C   -0.000671   0.002885   0.000000   0.000000   0.000000   0.000000
    20  C   -0.000115   0.000000  -0.000000   0.000000  -0.000000  -0.000000
    21  C    0.000024   0.000008  -0.000000  -0.000000  -0.000000  -0.000000
    22  C   -0.000135  -0.000117   0.000000  -0.000000   0.000000   0.000000
    23  C   -0.001114  -0.002553  -0.000000   0.000000  -0.000000   0.000000
    24  Cl  -0.000000  -0.000000   0.000000  -0.000000  -0.000000  -0.000000
    25  H    0.539754  -0.039468  -0.000000   0.000000  -0.000000  -0.000000
    26  H   -0.039468   0.566211   0.000000  -0.000000   0.000000   0.000000
    27  H   -0.000000   0.000000   0.543584  -0.036206   0.000078   0.000002
    28  H    0.000000  -0.000000  -0.036206   0.578304   0.005300  -0.000004
    29  H   -0.000000   0.000000   0.000078   0.005300   0.579822  -0.005633
    30  H   -0.000000   0.000000   0.000002  -0.000004  -0.005633   0.557896
    31  H   -0.000000   0.000000  -0.000003   0.000003   0.000015  -0.000171
    32  H   -0.000000   0.000000   0.004418   0.000053  -0.000170   0.000014
    33  H   -0.000046   0.000269  -0.000000   0.000000  -0.000000  -0.000000
    34  H    0.000002   0.000003   0.000000   0.000000   0.000000   0.000000
    35  H    0.000000   0.000002   0.000000   0.000000  -0.000000   0.000000
    36  H    0.001792   0.002193  -0.000000   0.000000  -0.000000  -0.000000
              31         32         33         34         35         36
     1  C    0.000000   0.000000  -0.048588   0.003822   0.003594  -0.053491
     2  C   -0.000000   0.000000  -0.012234  -0.000186  -0.000145  -0.006821
     3  O   -0.000000  -0.000000   0.000443   0.000008   0.000000   0.000054
     4  C   -0.000000   0.000000   0.004664   0.000045   0.000000   0.000003
     5  O    0.000000   0.000000  -0.011888  -0.000007  -0.000000  -0.000012
     6  N   -0.000000  -0.000003  -0.002066  -0.000001   0.000000  -0.000000
     7  N    0.000000   0.000016   0.005537  -0.000002  -0.000000   0.000000
     8  C    0.000000   0.000645  -0.000076   0.000000   0.000000   0.000000
     9  O   -0.000000   0.001022  -0.000002   0.000000   0.000000  -0.000000
    10  O    0.000001  -0.000291   0.000002   0.000000   0.000000   0.000000
    11  C   -0.000166  -0.008029  -0.000000   0.000000  -0.000000   0.000000
    12  C    0.003649  -0.040843   0.000000  -0.000000  -0.000000   0.000000
    13  C    0.000716   0.005123   0.000000  -0.000000  -0.000000  -0.000000
    14  C    0.004311   0.000445   0.000000   0.000000   0.000000   0.000000
    15  C   -0.043296   0.004480  -0.000000   0.000000   0.000000  -0.000000
    16  C    0.359351  -0.040695  -0.000000   0.000000   0.000000  -0.000000
    17  C   -0.034338   0.357457   0.000000  -0.000000  -0.000000   0.000000
    18  Cl  -0.000464  -0.000166   0.000000  -0.000000  -0.000000   0.000000
    19  C    0.000000   0.000000   0.350274  -0.034171   0.000693   0.004857
    20  C   -0.000000  -0.000000  -0.035915   0.358658   0.004418   0.000539
    21  C   -0.000000  -0.000000   0.004641  -0.043738  -0.043058   0.004761
    22  C    0.000000  -0.000000   0.000526   0.004174   0.359527  -0.040644
    23  C   -0.000000   0.000000   0.005103   0.000894  -0.035985   0.362132
    24  Cl  -0.000000   0.000000  -0.000174  -0.000367  -0.000333  -0.000177
    25  H   -0.000000  -0.000000  -0.000046   0.000002   0.000000   0.001792
    26  H    0.000000   0.000000   0.000269   0.000003   0.000002   0.002193
    27  H   -0.000003   0.004418  -0.000000   0.000000   0.000000  -0.000000
    28  H    0.000003   0.000053   0.000000   0.000000   0.000000   0.000000
    29  H    0.000015  -0.000170  -0.000000   0.000000  -0.000000  -0.000000
    30  H   -0.000171   0.000014  -0.000000   0.000000   0.000000  -0.000000
    31  H    0.558068  -0.005518  -0.000000   0.000000   0.000000  -0.000000
    32  H   -0.005518   0.569444  -0.000000   0.000000   0.000000  -0.000000
    33  H   -0.000000  -0.000000   0.596767  -0.005756   0.000015  -0.000178
    34  H    0.000000   0.000000  -0.005756   0.561573  -0.000175   0.000017
    35  H    0.000000   0.000000   0.000015  -0.000175   0.564264  -0.005807
    36  H   -0.000000  -0.000000  -0.000178   0.000017  -0.005807   0.598912
 Mulliken charges:
               1
     1  C    0.115605
     2  C   -0.100048
     3  O   -0.430733
     4  C    0.750089
     5  O   -0.424032
     6  N   -0.202310
     7  N   -0.236903
     8  C    0.789244
     9  O   -0.443049
    10  O   -0.424166
    11  C   -0.150354
    12  C    0.148909
    13  C   -0.163113
    14  C   -0.132525
    15  C   -0.060918
    16  C   -0.133080
    17  C   -0.172662
    18  Cl  -0.002799
    19  C   -0.120481
    20  C   -0.150194
    21  C   -0.061741
    22  C   -0.134901
    23  C   -0.172027
    24  Cl  -0.011729
    25  H    0.186894
    26  H    0.181238
    27  H    0.191756
    28  H    0.162377
    29  H    0.144649
    30  H    0.157807
    31  H    0.157841
    32  H    0.152599
    33  H    0.148685
    34  H    0.155209
    35  H    0.152990
    36  H    0.131873
 Sum of Mulliken charges =  -0.00000
 Mulliken charges with hydrogens summed into heavy atoms:
               1
     1  C    0.115605
     2  C    0.268083
     3  O   -0.430733
     4  C    0.750089
     5  O   -0.424032
     6  N   -0.202310
     7  N   -0.236903
     8  C    0.789244
     9  O   -0.443049
    10  O   -0.424166
    11  C    0.203779
    12  C    0.148909
    13  C   -0.018464
    14  C    0.025282
    15  C   -0.060918
    16  C    0.024761
    17  C   -0.020063
    18  Cl  -0.002799
    19  C    0.028204
    20  C    0.005015
    21  C   -0.061741
    22  C    0.018088
    23  C   -0.040154
    24  Cl  -0.011729
 APT charges:
               1
     1  C   -0.029478
     2  C    0.563465
     3  O   -0.822427
     4  C    1.163527
     5  O   -0.617437
     6  N   -0.167722
     7  N   -0.205500
     8  C    1.282585
     9  O   -0.637885
    10  O   -0.988121
    11  C    0.681472
    12  C   -0.085653
    13  C    0.012791
    14  C   -0.122217
    15  C    0.454365
    16  C   -0.119279
    17  C   -0.011614
    18  Cl  -0.357025
    19  C    0.009547
    20  C   -0.082704
    21  C    0.409562
    22  C   -0.115725
    23  C    0.018116
    24  Cl  -0.355867
    25  H   -0.039371
    26  H   -0.053192
    27  H    0.000451
    28  H   -0.057177
    29  H    0.028161
    30  H    0.045186
    31  H    0.044818
    32  H    0.036895
    33  H    0.014530
    34  H    0.045076
    35  H    0.041173
    36  H    0.016673
 Sum of APT charges =  -0.00000
 APT charges with hydrogens summed into heavy atoms:
               1
     1  C   -0.029478
     2  C    0.470902
     3  O   -0.822427
     4  C    1.163527
     5  O   -0.617437
     6  N   -0.167722
     7  N   -0.205500
     8  C    1.282585
     9  O   -0.637885
    10  O   -0.988121
    11  C    0.624747
    12  C   -0.085653
    13  C    0.040952
    14  C   -0.077031
    15  C    0.454365
    16  C   -0.074461
    17  C    0.025281
    18  Cl  -0.357025
    19  C    0.024076
    20  C   -0.037627
    21  C    0.409562
    22  C   -0.074552
    23  C    0.034789
    24  Cl  -0.355867
 Electronic spatial extent (au):  <R**2>=          16198.2750
 Charge=             -0.0000 electrons
 Dipole moment (field-independent basis, Debye):
    X=             -0.2580    Y=             -3.2974    Z=             -0.8398  Tot=              3.4124
 Quadrupole moment (field-independent basis, Debye-Ang):
   XX=           -139.7186   YY=           -149.9603   ZZ=           -152.2738
   XY=             -7.0368   XZ=             -1.7022   YZ=              9.7917
 Traceless Quadrupole moment (field-independent basis, Debye-Ang):
   XX=              7.5990   YY=             -2.6427   ZZ=             -4.9563
   XY=             -7.0368   XZ=             -1.7022   YZ=              9.7917
 Octapole moment (field-independent basis, Debye-Ang**2):
  XXX=             92.7919  YYY=            -38.9850  ZZZ=             -9.3284  XYY=              6.1857
  XXY=           -129.8598  XXZ=            -39.7883  XZZ=            -32.2404  YZZ=             10.2409
  YYZ=            -21.3357  XYZ=             -4.2643
 Hexadecapole moment (field-independent basis, Debye-Ang**3):
 XXXX=         -17052.0641 YYYY=          -3512.9183 ZZZZ=           -832.1623 XXXY=           -174.6942
 XXXZ=           -154.3200 YYYX=            -44.1398 YYYZ=             61.2585 ZZZX=             27.8686
 ZZZY=             39.0432 XXYY=          -3509.0768 XXZZ=          -2909.9366 YYZZ=           -753.7541
 XXYZ=             58.8617 YYXZ=            -17.3742 ZZXY=            -54.9737
 N-N= 2.079408202460D+03 E-N=-8.738510304210D+03  KE= 1.935656029938D+03
  Exact polarizability: 248.796 -12.344 230.365  -7.080   6.142 159.723
 Approx polarizability: 310.608 -24.144 365.703 -16.509  -1.657 301.646
 Calling FoFJK, ICntrl=    100127 FMM=F ISym2X=0 I1Cent= 0 IOpClX= 0 NMat=1 NMatS=1 NMatT=0.
 ***** Axes restored to original set *****
 -------------------------------------------------------------------
 Center     Atomic                   Forces (Hartrees/Bohr)
 Number     Number              X              Y              Z
 -------------------------------------------------------------------
      1        6          -0.004931892   -0.008009015    0.007603969
      2        6          -0.000393456   -0.008673156    0.013513209
      3        8           0.011412340   -0.006215299   -0.009155333
      4        6           0.020382455   -0.065390419   -0.014154339
      5        8          -0.015601025    0.033088487   -0.018060453
      6        7          -0.001979722    0.028635561    0.007496085
      7        7          -0.002190106   -0.042693608    0.005806929
      8        6          -0.006844226    0.078073950   -0.000591335
      9        8           0.022815550   -0.026716032    0.001673833
     10        8          -0.018097900    0.009481918   -0.002242692
     11        6           0.004236663    0.020275739    0.003175335
     12        6          -0.003096102    0.002945003    0.001405128
     13        6          -0.002881491   -0.002038498    0.003796376
     14        6           0.004326542   -0.000702658   -0.006540902
     15        6          -0.004588375   -0.005473195   -0.012776069
     16        6          -0.007252068   -0.003163520   -0.001437590
     17        6           0.005555632    0.000132873    0.002565791
     18       17           0.005301120    0.006366324    0.014382786
     19        6          -0.004763374   -0.010099738    0.004312607
     20        6          -0.002020216    0.006149798   -0.002720444
     21        6          -0.000075302    0.007289687   -0.013440982
     22        6           0.000970037   -0.002913506   -0.006337579
     23        6           0.000613640    0.005360871    0.004363346
     24       17           0.000242605   -0.008311051    0.015435128
     25        1          -0.001040439    0.008632167   -0.002048210
     26        1           0.002145797    0.007042904   -0.000356115
     27        1           0.001162303   -0.007703760   -0.000292750
     28        1           0.000638168   -0.004897959   -0.002111880
     29        1          -0.001378145   -0.000835398    0.000446352
     30        1          -0.001331518    0.000199413    0.001037068
     31        1           0.001514836    0.000652031   -0.000250513
     32        1           0.001341585   -0.000118677   -0.001179981
     33        1          -0.004328039   -0.010835000    0.006170317
     34        1           0.000180918   -0.001567617   -0.000561563
     35        1          -0.000404300    0.001198234    0.001027134
     36        1           0.000357504    0.000833147    0.000047336
 -------------------------------------------------------------------
 Cartesian Forces:  Max     0.078073950 RMS     0.013657282
 FormGI is forming the generalized inverse of G from B-inverse, IUseBI=4.

 GradGradGradGradGradGradGradGradGradGradGradGradGradGradGradGradGradGrad
 Berny optimization.
 Internal  Forces:  Max     0.070107179 RMS     0.013785494
 Search for a local minimum.
 Step number   1 out of a maximum of  180
 All quantities printed in internal units (Hartrees-Bohrs-Radians)
 Mixed Optimization -- RFO/linear search
 Second derivative matrix not updated -- analytic derivatives used.
 ITU=  0
     Eigenvalues ---   -0.02192  -0.00731  -0.00641  -0.00358   0.00029
     Eigenvalues ---    0.01173   0.01352   0.01494   0.01716   0.01719
     Eigenvalues ---    0.01762   0.01781   0.01787   0.02044   0.02116
     Eigenvalues ---    0.02187   0.02257   0.02475   0.02521   0.02643
     Eigenvalues ---    0.02682   0.02763   0.02785   0.02979   0.03116
     Eigenvalues ---    0.03775   0.06054   0.06515   0.06866   0.07313
     Eigenvalues ---    0.07682   0.10012   0.10464   0.10628   0.11391
     Eigenvalues ---    0.11424   0.11682   0.11688   0.11965   0.12038
     Eigenvalues ---    0.12184   0.12859   0.12887   0.12998   0.13712
     Eigenvalues ---    0.17293   0.17449   0.17557   0.18080   0.18994
     Eigenvalues ---    0.19117   0.19183   0.20031   0.20269   0.20537
     Eigenvalues ---    0.21123   0.21608   0.22121   0.24566   0.25738
[...]
   140    O   10  px     Val( 2p)     1.53879
   141    O   10  px     Ryd( 3p)     0.00126
   142    O   10  py     Val( 2p)     1.71836
   143    O   10  py     Ryd( 3p)     0.00163
   144    O   10  pz     Val( 2p)     1.62269
   145    O   10  pz     Ryd( 3p)     0.00138
   146    O   10  dxy    Ryd( 3d)     0.00075
   147    O   10  dxz    Ryd( 3d)     0.00144
   148    O   10  dyz    Ryd( 3d)     0.00173
   149    O   10  dx2y2  Ryd( 3d)     0.00054
   150    O   10  dz2    Ryd( 3d)     0.00143
 
   151    C   11  S      Cor( 1S)     1.99912
   152    C   11  S      Val( 2S)     1.03219
   153    C   11  S      Ryd( 3S)     0.00122
   154    C   11  S      Ryd( 4S)     0.00005
   155    C   11  px     Val( 2p)     0.79002
   156    C   11  px     Ryd( 3p)     0.00305
   157    C   11  py     Val( 2p)     1.03673
   158    C   11  py     Ryd( 3p)     0.00149
   159    C   11  pz     Val( 2p)     1.24750
   160    C   11  pz     Ryd( 3p)     0.00736
   161    C   11  dxy    Ryd( 3d)     0.00159
   162    C   11  dxz    Ryd( 3d)     0.00064
   163    C   11  dyz    Ryd( 3d)     0.00113
   164    C   11  dx2y2  Ryd( 3d)     0.00145
   165    C   11  dz2    Ryd( 3d)     0.00128
 
   166    C   12  S      Cor( 1S)     1.99901
   167    C   12  S      Val( 2S)     0.88838
   168    C   12  S      Ryd( 3S)     0.00069
   169    C   12  S      Ryd( 4S)     0.00006
   170    C   12  px     Val( 2p)     1.05327
   171    C   12  px     Ryd( 3p)     0.00399
   172    C   12  py     Val( 2p)     1.04708
   173    C   12  py     Ryd( 3p)     0.00242
   174    C   12  pz     Val( 2p)     1.09216
   175    C   12  pz     Ryd( 3p)     0.00439
   176    C   12  dxy    Ryd( 3d)     0.00053
   177    C   12  dxz    Ryd( 3d)     0.00066
   178    C   12  dyz    Ryd( 3d)     0.00062
   179    C   12  dx2y2  Ryd( 3d)     0.00039
   180    C   12  dz2    Ryd( 3d)     0.00060
 
   181    C   13  S      Cor( 1S)     1.99903
   182    C   13  S      Val( 2S)     0.95304
   183    C   13  S      Ryd( 3S)     0.00057
   184    C   13  S      Ryd( 4S)     0.00005
   185    C   13  px     Val( 2p)     1.04877
   186    C   13  px     Ryd( 3p)     0.00297
   187    C   13  py     Val( 2p)     1.00806
   188    C   13  py     Ryd( 3p)     0.00168
   189    C   13  pz     Val( 2p)     1.17842
   190    C   13  pz     Ryd( 3p)     0.00496
   191    C   13  dxy    Ryd( 3d)     0.00041
   192    C   13  dxz    Ryd( 3d)     0.00064
   193    C   13  dyz    Ryd( 3d)     0.00043
   194    C   13  dx2y2  Ryd( 3d)     0.00057
   195    C   13  dz2    Ryd( 3d)     0.00077
 
   196    C   14  S      Cor( 1S)     1.99893
   197    C   14  S      Val( 2S)     0.95892
   198    C   14  S      Ryd( 3S)     0.00097
   199    C   14  S      Ryd( 4S)     0.00005
   200    C   14  px     Val( 2p)     1.07005
   201    C   14  px     Ryd( 3p)     0.00391
   202    C   14  py     Val( 2p)     1.05856
   203    C   14  py     Ryd( 3p)     0.00260
   204    C   14  pz     Val( 2p)     1.14231
   205    C   14  pz     Ryd( 3p)     0.00467
   206    C   14  dxy    Ryd( 3d)     0.00048
   207    C   14  dxz    Ryd( 3d)     0.00061
   208    C   14  dyz    Ryd( 3d)     0.00059
   209    C   14  dx2y2  Ryd( 3d)     0.00044
   210    C   14  dz2    Ryd( 3d)     0.00059
 
   211    C   15  S      Cor( 1S)     1.99856
   212    C   15  S      Val( 2S)     0.93305
   213    C   15  S      Ryd( 3S)     0.00060
   214    C   15  S      Ryd( 4S)     0.00009
   215    C   15  px     Val( 2p)     0.96870
   216    C   15  px     Ryd( 3p)     0.00508
   217    C   15  py     Val( 2p)     1.01482
   218    C   15  py     Ryd( 3p)     0.00334
   219    C   15  pz     Val( 2p)     1.09914
   220    C   15  pz     Ryd( 3p)     0.00751
   221    C   15  dxy    Ryd( 3d)     0.00134
   222    C   15  dxz    Ryd( 3d)     0.00093
   223    C   15  dyz    Ryd( 3d)     0.00080
   224    C   15  dx2y2  Ryd( 3d)     0.00111
   225    C   15  dz2    Ryd( 3d)     0.00097
 
   226    C   16  S      Cor( 1S)     1.99894
   227    C   16  S      Val( 2S)     0.95997
   228    C   16  S      Ryd( 3S)     0.00098
   229    C   16  S      Ryd( 4S)     0.00005
   230    C   16  px     Val( 2p)     1.06034
   231    C   16  px     Ryd( 3p)     0.00386
   232    C   16  py     Val( 2p)     1.02078
   233    C   16  py     Ryd( 3p)     0.00242
   234    C   16  pz     Val( 2p)     1.18631
   235    C   16  pz     Ryd( 3p)     0.00492
   236    C   16  dxy    Ryd( 3d)     0.00038
   237    C   16  dxz    Ryd( 3d)     0.00070
   238    C   16  dyz    Ryd( 3d)     0.00050
   239    C   16  dx2y2  Ryd( 3d)     0.00047
   240    C   16  dz2    Ryd( 3d)     0.00065
 
   241    C   17  S      Cor( 1S)     1.99903
   242    C   17  S      Val( 2S)     0.95655
   243    C   17  S      Ryd( 3S)     0.00059
   244    C   17  S      Ryd( 4S)     0.00004
   245    C   17  px     Val( 2p)     1.05229
   246    C   17  px     Ryd( 3p)     0.00314
   247    C   17  py     Val( 2p)     1.03615
   248    C   17  py     Ryd( 3p)     0.00208
   249    C   17  pz     Val( 2p)     1.14188
   250    C   17  pz     Ryd( 3p)     0.00462
   251    C   17  dxy    Ryd( 3d)     0.00048
   252    C   17  dxz    Ryd( 3d)     0.00063
   253    C   17  dyz    Ryd( 3d)     0.00064
   254    C   17  dx2y2  Ryd( 3d)     0.00049
   255    C   17  dz2    Ryd( 3d)     0.00059
 
   256   Cl   18  S      Cor( 1S)     2.00000
   257   Cl   18  S      Cor( 2S)     1.99979
   258   Cl   18  S      Val( 3S)     1.83537
   259   Cl   18  S      Ryd( 4S)     0.00331
   260   Cl   18  S      Ryd( 5S)     0.00000
   261   Cl   18  px     Cor( 2p)     1.99994
   262   Cl   18  px     Val( 3p)     1.48273
   263   Cl   18  px     Ryd( 4p)     0.00315
   264   Cl   18  py     Cor( 2p)     1.99996
   265   Cl   18  py     Val( 3p)     1.70974
   266   Cl   18  py     Ryd( 4p)     0.00237
   267   Cl   18  pz     Cor( 2p)     1.99999
   268   Cl   18  pz     Val( 3p)     1.95076
   269   Cl   18  pz     Ryd( 4p)     0.00159
   270   Cl   18  dxy    Ryd( 3d)     0.00354
   271   Cl   18  dxz    Ryd( 3d)     0.00100
   272   Cl   18  dyz    Ryd( 3d)     0.00060
   273   Cl   18  dx2y2  Ryd( 3d)     0.00245
   274   Cl   18  dz2    Ryd( 3d)     0.00128
 
   275    C   19  S      Cor( 1S)     1.99903
   276    C   19  S      Val( 2S)     0.95304
   277    C   19  S      Ryd( 3S)     0.00057
   278    C   19  S      Ryd( 4S)     0.00005
   279    C   19  px     Val( 2p)     1.04877
   280    C   19  px     Ryd( 3p)     0.00297
   281    C   19  py     Val( 2p)     1.00806
   282    C   19  py     Ryd( 3p)     0.00168
   283    C   19  pz     Val( 2p)     1.17842
   284    C   19  pz     Ryd( 3p)     0.00496
   285    C   19  dxy    Ryd( 3d)     0.00041
   286    C   19  dxz    Ryd( 3d)     0.00064
   287    C   19  dyz    Ryd( 3d)     0.00043
   288    C   19  dx2y2  Ryd( 3d)     0.00057
   289    C   19  dz2    Ryd( 3d)     0.00077
 
   290    C   20  S      Cor( 1S)     1.99893
   291    C   20  S      Val( 2S)     0.95892
   292    C   20  S      Ryd( 3S)     0.00097
   293    C   20  S      Ryd( 4S)     0.00005
   294    C   20  px     Val( 2p)     1.07005
   295    C   20  px     Ryd( 3p)     0.00391
   296    C   20  py     Val( 2p)     1.05856
   297    C   20  py     Ryd( 3p)     0.00260
   298    C   20  pz     Val( 2p)     1.14230
   299    C   20  pz     Ryd( 3p)     0.00467
   300    C   20  dxy    Ryd( 3d)     0.00048
   301    C   20  dxz    Ryd( 3d)     0.00061
   302    C   20  dyz    Ryd( 3d)     0.00059
   303    C   20  dx2y2  Ryd( 3d)     0.00044
   304    C   20  dz2    Ryd( 3d)     0.00059
 
   305    C   21  S      Cor( 1S)     1.99856
   306    C   21  S      Val( 2S)     0.93305
   307    C   21  S      Ryd( 3S)     0.00060
   308    C   21  S      Ryd( 4S)     0.00009
   309    C   21  px     Val( 2p)     0.96870
   310    C   21  px     Ryd( 3p)     0.00508
   311    C   21  py     Val( 2p)     1.01482
   312    C   21  py     Ryd( 3p)     0.00334
   313    C   21  pz     Val( 2p)     1.09914
   314    C   21  pz     Ryd( 3p)     0.00751
   315    C   21  dxy    Ryd( 3d)     0.00134
   316    C   21  dxz    Ryd( 3d)     0.00093
   317    C   21  dyz    Ryd( 3d)     0.00080
   318    C   21  dx2y2  Ryd( 3d)     0.00111
   319    C   21  dz2    Ryd( 3d)     0.00097
 
   320    C   22  S      Cor( 1S)     1.99894
   321    C   22  S      Val( 2S)     0.95997
   322    C   22  S      Ryd( 3S)     0.00098
   323    C   22  S      Ryd( 4S)     0.00005
   324    C   22  px     Val( 2p)     1.06035
   325    C   22  px     Ryd( 3p)     0.00386
   326    C   22  py     Val( 2p)     1.02078
   327    C   22  py     Ryd( 3p)     0.00242
   328    C   22  pz     Val( 2p)     1.18630
   329    C   22  pz     Ryd( 3p)     0.00492
   330    C   22  dxy    Ryd( 3d)     0.00038
   331    C   22  dxz    Ryd( 3d)     0.00070
   332    C   22  dyz    Ryd( 3d)     0.00050
   333    C   22  dx2y2  Ryd( 3d)     0.00047
   334    C   22  dz2    Ryd( 3d)     0.00065
 
   335    C   23  S      Cor( 1S)     1.99903
   336    C   23  S      Val( 2S)     0.95655
   337    C   23  S      Ryd( 3S)     0.00059
   338    C   23  S      Ryd( 4S)     0.00004
   339    C   23  px     Val( 2p)     1.05229
   340    C   23  px     Ryd( 3p)     0.00314
   341    C   23  py     Val( 2p)     1.03616
   342    C   23  py     Ryd( 3p)     0.00208
   343    C   23  pz     Val( 2p)     1.14188
   344    C   23  pz     Ryd( 3p)     0.00462
   345    C   23  dxy    Ryd( 3d)     0.00048
   346    C   23  dxz    Ryd( 3d)     0.00063
   347    C   23  dyz    Ryd( 3d)     0.00064
   348    C   23  dx2y2  Ryd( 3d)     0.00049
   349    C   23  dz2    Ryd( 3d)     0.00059
 
   350   Cl   24  S      Cor( 1S)     2.00000
   351   Cl   24  S      Cor( 2S)     1.99979
   352   Cl   24  S      Val( 3S)     1.83537
   353   Cl   24  S      Ryd( 4S)     0.00331
   354   Cl   24  S      Ryd( 5S)     0.00000
   355   Cl   24  px     Cor( 2p)     1.99994
   356   Cl   24  px     Val( 3p)     1.48273
   357   Cl   24  px     Ryd( 4p)     0.00315
   358   Cl   24  py     Cor( 2p)     1.99996
   359   Cl   24  py     Val( 3p)     1.70975
   360   Cl   24  py     Ryd( 4p)     0.00237
   361   Cl   24  pz     Cor( 2p)     1.99999
   362   Cl   24  pz     Val( 3p)     1.95075
   363   Cl   24  pz     Ryd( 4p)     0.00159
   364   Cl   24  dxy    Ryd( 3d)     0.00354
   365   Cl   24  dxz    Ryd( 3d)     0.00100
   366   Cl   24  dyz    Ryd( 3d)     0.00060
   367   Cl   24  dx2y2  Ryd( 3d)     0.00245
   368   Cl   24  dz2    Ryd( 3d)     0.00128
 
   369    H   25  S      Val( 1S)     0.75619
   370    H   25  S      Ryd( 2S)     0.00112
 
   371    H   26  S      Val( 1S)     0.75391
   372    H   26  S      Ryd( 2S)     0.00216
 
   373    H   27  S      Val( 1S)     0.75391
   374    H   27  S      Ryd( 2S)     0.00216
 
   375    H   28  S      Val( 1S)     0.75619
   376    H   28  S      Ryd( 2S)     0.00112
 
   377    H   29  S      Val( 1S)     0.75630
   378    H   29  S      Ryd( 2S)     0.00101
 
   379    H   30  S      Val( 1S)     0.74286
   380    H   30  S      Ryd( 2S)     0.00102
 
   381    H   31  S      Val( 1S)     0.74133
   382    H   31  S      Ryd( 2S)     0.00100
 
   383    H   32  S      Val( 1S)     0.73966
   384    H   32  S      Ryd( 2S)     0.00133
 
   385    H   33  S      Val( 1S)     0.75630
   386    H   33  S      Ryd( 2S)     0.00101
 
   387    H   34  S      Val( 1S)     0.74286
   388    H   34  S      Ryd( 2S)     0.00102
 
   389    H   35  S      Val( 1S)     0.74133
   390    H   35  S      Ryd( 2S)     0.00100
 
   391    H   36  S      Val( 1S)     0.73966
   392    H   36  S      Ryd( 2S)     0.00133

 WARNING:  1 low occupancy (<1.9990e) core orbital  found on  C   14
           1 low occupancy (<1.9990e) core orbital  found on  C   15
           1 low occupancy (<1.9990e) core orbital  found on  C   16
           1 low occupancy (<1.9990e) core orbital  found on  C   20
           1 low occupancy (<1.9990e) core orbital  found on  C   21
           1 low occupancy (<1.9990e) core orbital  found on  C   22


 Summary of Natural Population Analysis:                  
                                                          
                                       Natural Population 
                Natural  -----------------------------------------------
    Atom  No    Charge         Core      Valence    Rydberg      Total
 -----------------------------------------------------------------------
      C    1   -0.09426      1.99901     4.08089    0.01436     6.09426
      C    2   -0.12481      1.99912     4.10644    0.01925     6.12481
      O    3   -0.52268      1.99973     6.51069    0.01226     8.52268
      C    4    0.92253      1.99950     3.02775    0.05022     5.07747
      O    5   -0.54827      1.99977     6.52774    0.02076     8.54827
      N    6   -0.21649      1.99938     5.19070    0.02641     7.21649
      N    7   -0.21649      1.99938     5.19070    0.02641     7.21649
      C    8    0.92253      1.99950     3.02775    0.05022     5.07747
      O    9   -0.54827      1.99977     6.52775    0.02076     8.54827
      O   10   -0.52268      1.99973     6.51069    0.01226     8.52268
      C   11   -0.12481      1.99912     4.10644    0.01925     6.12481
      C   12   -0.09426      1.99901     4.08089    0.01436     6.09426
      C   13   -0.20038      1.99903     4.18829    0.01306     6.20038
      C   14   -0.24368      1.99893     4.22983    0.01491     6.24368
      C   15   -0.03603      1.99856     4.01571    0.02176     6.03603
      C   16   -0.24127      1.99894     4.22740    0.01493     6.24127
      C   17   -0.19922      1.99903     4.18688    0.01331     6.19922
     Cl   18    0.00243      9.99967     6.97860    0.01930    16.99757
      C   19   -0.20038      1.99903     4.18829    0.01306     6.20038
      C   20   -0.24368      1.99893     4.22983    0.01491     6.24368
      C   21   -0.03603      1.99856     4.01571    0.02176     6.03603
      C   22   -0.24127      1.99894     4.22740    0.01493     6.24127
      C   23   -0.19922      1.99903     4.18688    0.01331     6.19922
     Cl   24    0.00243      9.99967     6.97860    0.01930    16.99757
      H   25    0.24270      0.00000     0.75619    0.00112     0.75730
      H   26    0.24393      0.00000     0.75391    0.00216     0.75607
      H   27    0.24393      0.00000     0.75391    0.00216     0.75607
      H   28    0.24270      0.00000     0.75619    0.00112     0.75730
      H   29    0.24269      0.00000     0.75630    0.00101     0.75731
      H   30    0.25612      0.00000     0.74286    0.00102     0.74388
      H   31    0.25767      0.00000     0.74133    0.00100     0.74233
      H   32    0.25902      0.00000     0.73966    0.00133     0.74098
      H   33    0.24269      0.00000     0.75630    0.00101     0.75731
      H   34    0.25612      0.00000     0.74286    0.00102     0.74388
      H   35    0.25767      0.00000     0.74133    0.00100     0.74233
      H   36    0.25902      0.00000     0.73966    0.00133     0.74098
 =======================================================================
   * Total *   -0.00000     63.98135   123.52232    0.49633   188.00000

                                 Natural Population      
 --------------------------------------------------------
   Core                      63.98135 ( 99.9709% of  64)
   Valence                  123.52232 ( 99.6148% of 124)
   Natural Minimal Basis    187.50367 ( 99.7360% of 188)
   Natural Rydberg Basis      0.49633 (  0.2640% of 188)
 --------------------------------------------------------

    Atom  No          Natural Electron Configuration
 ----------------------------------------------------------------------------
      C    1      [core]2S( 0.89)2p( 3.19)3p( 0.01)
      C    2      [core]2S( 1.03)2p( 3.07)3p( 0.01)3d( 0.01)
      O    3      [core]2S( 1.63)2p( 4.88)3d( 0.01)
      C    4      [core]2S( 0.73)2p( 2.30)3p( 0.03)3d( 0.01)
      O    5      [core]2S( 1.71)2p( 4.82)3d( 0.02)
      N    6      [core]2S( 1.39)2p( 3.80)3S( 0.01)3p( 0.01)3d( 0.01)
      N    7      [core]2S( 1.39)2p( 3.80)3S( 0.01)3p( 0.01)3d( 0.01)
      C    8      [core]2S( 0.73)2p( 2.30)3p( 0.03)3d( 0.01)
      O    9      [core]2S( 1.71)2p( 4.82)3d( 0.02)
      O   10      [core]2S( 1.63)2p( 4.88)3d( 0.01)
      C   11      [core]2S( 1.03)2p( 3.07)3p( 0.01)3d( 0.01)
      C   12      [core]2S( 0.89)2p( 3.19)3p( 0.01)
      C   13      [core]2S( 0.95)2p( 3.24)3p( 0.01)
      C   14      [core]2S( 0.96)2p( 3.27)3p( 0.01)
      C   15      [core]2S( 0.93)2p( 3.08)3p( 0.02)3d( 0.01)
      C   16      [core]2S( 0.96)2p( 3.27)3p( 0.01)
      C   17      [core]2S( 0.96)2p( 3.23)3p( 0.01)
     Cl   18      [core]3S( 1.84)3p( 5.14)3d( 0.01)4p( 0.01)
      C   19      [core]2S( 0.95)2p( 3.24)3p( 0.01)
      C   20      [core]2S( 0.96)2p( 3.27)3p( 0.01)
      C   21      [core]2S( 0.93)2p( 3.08)3p( 0.02)3d( 0.01)
      C   22      [core]2S( 0.96)2p( 3.27)3p( 0.01)
      C   23      [core]2S( 0.96)2p( 3.23)3p( 0.01)
     Cl   24      [core]3S( 1.84)3p( 5.14)3d( 0.01)4p( 0.01)
      H   25            1S( 0.76)
      H   26            1S( 0.75)
      H   27            1S( 0.75)
      H   28            1S( 0.76)
      H   29            1S( 0.76)
      H   30            1S( 0.74)
      H   31            1S( 0.74)
      H   32            1S( 0.74)
      H   33            1S( 0.76)
      H   34            1S( 0.74)
      H   35            1S( 0.74)
      H   36            1S( 0.74)


 NBO analysis skipped by request.
 1\1\GINC-DELLA-R1C4N7\SP\RB3LYP TD-FC\6-31G(d)\C16H12Cl2N2O4\BJS4\22-A
 ug-2020\0\\# TD(NStates=10, Root=1) B3LYP/6-31G* scf=qc volume pop=NPA
  density=current Geom=AllCheck Guess=Read\\Title Card Required\\0,1\C,
 0,-5.2007856637,-1.5521699024,-0.048886862\C,0,-4.2346395734,-0.443613
 9981,-0.3695547005\O,0,-4.7387753475,0.8612927835,0.0721414755\C,0,-4.
 4052394172,1.2322616255,1.3065308812\O,0,-3.7430412289,0.6300606438,2.
 1142619141\N,0,-4.8438961701,2.590820105,1.5530227026\N,0,-6.053627307
 5,2.6662035629,1.8371470613\C,0,-6.4694925392,4.009761434,2.1846625129
 \O,0,-6.6915775643,4.3222992806,3.3277203126\O,0,-6.6635475067,4.72796
 28271,1.0805301569\C,0,-7.2241244094,6.0700141395,1.2720708474\C,0,-6.
 1455713861,7.1045907494,1.4496536051\C,0,-5.6130038764,7.7679650122,0.
 3378061022\C,0,-4.6094500185,8.7239850981,0.4845776514\C,0,-4.13678071
 41,9.0147354762,1.7638434815\C,0,-4.6490628249,8.3676132669,2.88825096
 61\C,0,-5.6524553798,7.4143307156,2.724315436\Cl,0,-2.8754395143,10.22
 19251721,1.9623966743\C,0,-6.1918541617,-1.913774169,-0.9691713168\C,0
 ,-7.0981630864,-2.9337961978,-0.6849246651\C,0,-7.0061253607,-3.596215
 8787,0.5386774756\C,0,-6.029150431,-3.2549380417,1.4738468446\C,0,-5.1
 303773402,-2.2328001402,1.1740803694\Cl,0,-8.1396706439,-4.8875144036,
 0.9065573834\H,0,-4.1125324426,-0.3170417349,-1.4463627869\H,0,-3.2613
 11303,-0.604253218,0.0976282104\H,0,-7.8986048215,6.0339653347,2.12951
 39759\H,0,-7.7953904964,6.2390516162,0.3579991713\H,0,-5.9861467412,7.
 538483467,-0.6573349387\H,0,-4.2003555451,9.2389412229,-0.3779125036\H
 ,0,-4.268562727,8.6079724235,3.875119227\H,0,-6.0498817316,6.897154153
 ,3.5922863614\H,0,-6.2583101532,-1.3949640896,-1.9223882708\H,0,-7.863
 3352086,-3.2143938316,-1.4006089515\H,0,-5.973515258,-3.7823444902,2.4
 200016818\H,0,-4.373322106,-1.952320014,1.9000225136\\Version=ES64L-G1
 6RevA.03\State=1-A\HF=-1947.6734612\RMSD=1.794e-09\Dipole=-0.3352222,0
 .2206264,-1.485859\Quadrupole=-1.4331909,-3.1670359,4.6002268,-11.1101
 593,-0.3529999,1.3956836\PG=C01 [X(C16H12Cl2N2O4)]\\@


 A MAN IS EXACTLY AS GREAT AS THE TIDE SURGING
 BENEATH HIM.      - BISMARCK
 Job cpu time:       0 days  1 hours  8 minutes 37.1 seconds.
 Elapsed time:       0 days  0 hours 13 minutes 44.1 seconds.
 File lengths (MBytes):  RWF=   1224 Int=      0 D2E=      0 Chk=    268 Scr=      1
 Normal termination of Gaussian 16 at Sat Aug 22 17:55:37 2020.
