 Entering Gaussian System, Link 0=g16
 Input=azadicarboxylate_1_conf12123.com
 Output=azadicarboxylate_1_conf12123.log
 Initial command:
 /opt/export//g16/l1.exe "/scratch/bjs4/job.135115/Gau-135120.inp" -scrdir="/scratch/bjs4/job.135115/"
 Entering Link 1 = /opt/export//g16/l1.exe PID=    135122.
  
 Copyright (c) 1988,1990,1992,1993,1995,1998,2003,2009,2016,
            Gaussian, Inc.  All Rights Reserved.
  
 This is part of the Gaussian(R) 16 program.  It is based on
 the Gaussian(R) 09 system (copyright 2009, Gaussian, Inc.),
 the Gaussian(R) 03 system (copyright 2003, Gaussian, Inc.),
 the Gaussian(R) 98 system (copyright 1998, Gaussian, Inc.),
 the Gaussian(R) 94 system (copyright 1995, Gaussian, Inc.),
 the Gaussian 92(TM) system (copyright 1992, Gaussian, Inc.),
 the Gaussian 90(TM) system (copyright 1990, Gaussian, Inc.),
 the Gaussian 88(TM) system (copyright 1988, Gaussian, Inc.),
 the Gaussian 86(TM) system (copyright 1986, Carnegie Mellon
 University), and the Gaussian 82(TM) system (copyright 1983,
 Carnegie Mellon University). Gaussian is a federally registered
 trademark of Gaussian, Inc.
  
 This software contains proprietary and confidential information,
 including trade secrets, belonging to Gaussian, Inc.
  
 This software is provided under written license and may be
 used, copied, transmitted, or stored only in accord with that
 written license.
  
 The following legend is applicable only to US Government
 contracts under FAR:
  
                    RESTRICTED RIGHTS LEGEND
  
 Use, reproduction and disclosure by the US Government is
 subject to restrictions as set forth in subparagraphs (a)
 and (c) of the Commercial Computer Software - Restricted
 Rights clause in FAR 52.227-19.
  
 Gaussian, Inc.
 340 Quinnipiac St., Bldg. 40, Wallingford CT 06492
  
  
 ---------------------------------------------------------------
 Warning -- This program may not be used in any manner that
 competes with the business of Gaussian, Inc. or will provide
 assistance to any competitor of Gaussian, Inc.  The licensee
 of this program is prohibited from giving any competitor of
 Gaussian, Inc. access to this program.  By using this program,
 the user acknowledges that Gaussian, Inc. is engaged in the
 business of creating and licensing software in the field of
 computational chemistry and represents and warrants to the
 licensee that it is not a competitor of Gaussian, Inc. and that
 it will not use this program in any manner prohibited above.
 ---------------------------------------------------------------
  

 Cite this work as:
 Gaussian 16, Revision A.03,
 M. J. Frisch, G. W. Trucks, H. B. Schlegel, G. E. Scuseria, 
 M. A. Robb, J. R. Cheeseman, G. Scalmani, V. Barone, 
 G. A. Petersson, H. Nakatsuji, X. Li, M. Caricato, A. V. Marenich, 
 J. Bloino, B. G. Janesko, R. Gomperts, B. Mennucci, H. P. Hratchian, 
 J. V. Ortiz, A. F. Izmaylov, J. L. Sonnenberg, D. Williams-Young, 
 F. Ding, F. Lipparini, F. Egidi, J. Goings, B. Peng, A. Petrone, 
 T. Henderson, D. Ranasinghe, V. G. Zakrzewski, J. Gao, N. Rega, 
 G. Zheng, W. Liang, M. Hada, M. Ehara, K. Toyota, R. Fukuda, 
 J. Hasegawa, M. Ishida, T. Nakajima, Y. Honda, O. Kitao, H. Nakai, 
 T. Vreven, K. Throssell, J. A. Montgomery, Jr., J. E. Peralta, 
 F. Ogliaro, M. J. Bearpark, J. J. Heyd, E. N. Brothers, K. N. Kudin, 
 V. N. Staroverov, T. A. Keith, R. Kobayashi, J. Normand, 
 K. Raghavachari, A. P. Rendell, J. C. Burant, S. S. Iyengar, 
 J. Tomasi, M. Cossi, J. M. Millam, M. Klene, C. Adamo, R. Cammi, 
 J. W. Ochterski, R. L. Martin, K. Morokuma, O. Farkas, 
 J. B. Foresman, and D. J. Fox, Gaussian, Inc., Wallingford CT, 2016.
 
 ******************************************
 Gaussian 16:  ES64L-G16RevA.03 25-Dec-2016
                22-Aug-2020 
 ******************************************
 %nprocshared=5
 Will use up to    5 processors via shared memory.
 %Mem=10GB
 %Chk=azadicarboxylate_1_conf121.chk
 ---------------------------------
 # opt=CalcAll B3LYP/6-31G* scf=qc
 ---------------------------------
 1/10=4,18=20,19=15,26=3,38=1/1,3;
 2/9=110,12=2,17=6,18=5,40=1/2;
 3/5=1,6=6,7=1,11=2,25=1,30=1,71=2,74=-5,140=1/1,2,3;
 4//1;
 5/5=2,8=3,38=5/8;
 8/6=4,10=90,11=11/1;
 11/6=1,8=1,9=11,15=111,16=1/1,2,10;
 10/6=1/2;
 6/7=2,8=2,9=2,10=2,18=1,28=1/1;
 7/10=1,25=1/1,2,3,16;
 1/10=4,18=20,19=15,26=3/3(3);
 2/9=110/2;
 7/8=1,9=1,25=1,44=-1/16;
 99//99;
 2/9=110/2;
 3/5=1,6=6,7=1,11=2,25=1,30=1,71=2,74=-5,140=1/1,2,3;
 4/5=5,16=3,69=1/1;
 5/5=2,8=3,38=5/8;
 8/6=4,10=90,11=11/1;
 11/6=1,8=1,9=11,15=111,16=1/1,2,10;
 10/6=1/2;
 7/10=1,25=1/1,2,3,16;
 1/10=4,18=20,19=15,26=3/3(-8);
 2/9=110/2;
 6/7=2,8=2,9=2,10=2,18=1,19=2,28=1/1;
 7/8=1,9=1,25=1,44=-1/16;
 99//99;
 -------------------
 Title Card Required
 -------------------
 Symbolic Z-matrix:
 Charge =  0 Multiplicity = 1
 C                     2.80358  -0.70632  -0.31642 
 C                     3.04841   0.80599  -0.23783 
 C                     3.99734   1.29875  -1.33786 
 C                     1.69486   1.51356  -0.42834 
 O1                    3.52151   1.18944   1.08243 
 C2                    4.6771    0.6551    1.5808 
 O3                    5.37661  -0.15416   0.98203 
 N4                    4.9172    1.1559    2.8418 
 N5                    6.1448    1.2226    3.0972 
 C6                    6.3853    1.7078    4.365 
 O7                    5.64885   1.57655   5.33598 
 O8                    7.57917   2.3714    4.38681 
 C                     8.05456   2.9803    5.61553 
 C                     8.21452   1.93906   6.73119 
 C                     9.44814   3.54889   5.29531 
 C                     7.15495   4.1499    6.03641 
 H                     2.3683   -0.99046  -1.28032 
 H                     2.1217   -1.02743   0.47967 
 H                     3.72295  -1.28395  -0.18876 
 H                     3.59779   1.08146  -2.33448 
 H                     4.98542   0.83574  -1.27477 
 H                     4.15414   2.38045  -1.2568 
 H                     1.25437   1.28092  -1.405 
 H                     1.80334   2.60147  -0.35175 
 H                     0.98129   1.21579   0.34853 
 H                     8.86737   1.12111   6.40523 
 H                     7.26318   1.4826    7.0153 
 H                     8.6458    2.38605   7.63351 
 H                     10.13016   2.75861   4.96047 
 H                     9.89332   4.03817   6.16928 
 H                     9.39738   4.28165   4.48132 
 H                     6.14159   3.82601   6.28705 
 H                     7.05735   4.87274   5.21814 
 H                     7.55958   4.66959   6.91148 
 

 GradGradGradGradGradGradGradGradGradGradGradGradGradGradGradGradGradGrad
 Berny optimization.
 Initialization pass.
                           ----------------------------
                           !    Initial Parameters    !
                           ! (Angstroms and Degrees)  !
 --------------------------                            --------------------------
 ! Name  Definition              Value          Derivative Info.                !
 --------------------------------------------------------------------------------
 ! R1    R(1,2)                  1.534          calculate D2E/DX2 analytically  !
 ! R2    R(1,17)                 1.0951         calculate D2E/DX2 analytically  !
 ! R3    R(1,18)                 1.0963         calculate D2E/DX2 analytically  !
 ! R4    R(1,19)                 1.0932         calculate D2E/DX2 analytically  !
 ! R5    R(2,3)                  1.5341         calculate D2E/DX2 analytically  !
 ! R6    R(2,4)                  1.5392         calculate D2E/DX2 analytically  !
 ! R7    R(2,5)                  1.4539         calculate D2E/DX2 analytically  !
 ! R8    R(3,20)                 1.0955         calculate D2E/DX2 analytically  !
 ! R9    R(3,21)                 1.093          calculate D2E/DX2 analytically  !
 ! R10   R(3,22)                 1.096          calculate D2E/DX2 analytically  !
 ! R11   R(4,23)                 1.0964         calculate D2E/DX2 analytically  !
 ! R12   R(4,24)                 1.096          calculate D2E/DX2 analytically  !
 ! R13   R(4,25)                 1.0961         calculate D2E/DX2 analytically  !
 ! R14   R(5,6)                  1.3672         calculate D2E/DX2 analytically  !
 ! R15   R(6,7)                  1.2259         calculate D2E/DX2 analytically  !
 ! R16   R(6,8)                  1.3779         calculate D2E/DX2 analytically  !
 ! R17   R(8,9)                  1.2557         calculate D2E/DX2 analytically  !
 ! R18   R(9,10)                 1.3786         calculate D2E/DX2 analytically  !
 ! R19   R(10,11)                1.2257         calculate D2E/DX2 analytically  !
 ! R20   R(10,12)                1.3661         calculate D2E/DX2 analytically  !
 ! R21   R(12,13)                1.4514         calculate D2E/DX2 analytically  !
 ! R22   R(13,14)                1.5344         calculate D2E/DX2 analytically  !
 ! R23   R(13,15)                1.5388         calculate D2E/DX2 analytically  !
 ! R24   R(13,16)                1.5344         calculate D2E/DX2 analytically  !
 ! R25   R(14,26)                1.0961         calculate D2E/DX2 analytically  !
 ! R26   R(14,27)                1.0928         calculate D2E/DX2 analytically  !
 ! R27   R(14,28)                1.0954         calculate D2E/DX2 analytically  !
 ! R28   R(15,29)                1.0963         calculate D2E/DX2 analytically  !
 ! R29   R(15,30)                1.0961         calculate D2E/DX2 analytically  !
 ! R30   R(15,31)                1.0964         calculate D2E/DX2 analytically  !
 ! R31   R(16,32)                1.093          calculate D2E/DX2 analytically  !
 ! R32   R(16,33)                1.0962         calculate D2E/DX2 analytically  !
 ! R33   R(16,34)                1.0952         calculate D2E/DX2 analytically  !
 ! A1    A(2,1,17)             111.3655         calculate D2E/DX2 analytically  !
 ! A2    A(2,1,18)             110.5382         calculate D2E/DX2 analytically  !
 ! A3    A(2,1,19)             112.3762         calculate D2E/DX2 analytically  !
 ! A4    A(17,1,18)            108.4173         calculate D2E/DX2 analytically  !
 ! A5    A(17,1,19)            107.4542         calculate D2E/DX2 analytically  !
 ! A6    A(18,1,19)            106.4698         calculate D2E/DX2 analytically  !
 ! A7    A(1,2,3)              112.2505         calculate D2E/DX2 analytically  !
 ! A8    A(1,2,4)              107.849          calculate D2E/DX2 analytically  !
 ! A9    A(1,2,5)              111.0053         calculate D2E/DX2 analytically  !
 ! A10   A(3,2,4)              107.912          calculate D2E/DX2 analytically  !
 ! A11   A(3,2,5)              111.4167         calculate D2E/DX2 analytically  !
 ! A12   A(4,2,5)              106.0994         calculate D2E/DX2 analytically  !
 ! A13   A(2,3,20)             111.2865         calculate D2E/DX2 analytically  !
 ! A14   A(2,3,21)             112.441          calculate D2E/DX2 analytically  !
 ! A15   A(2,3,22)             110.6392         calculate D2E/DX2 analytically  !
 ! A16   A(20,3,21)            107.3494         calculate D2E/DX2 analytically  !
 ! A17   A(20,3,22)            108.3743         calculate D2E/DX2 analytically  !
 ! A18   A(21,3,22)            106.5279         calculate D2E/DX2 analytically  !
 ! A19   A(2,4,23)             111.4712         calculate D2E/DX2 analytically  !
 ! A20   A(2,4,24)             111.1388         calculate D2E/DX2 analytically  !
 ! A21   A(2,4,25)             111.0937         calculate D2E/DX2 analytically  !
 ! A22   A(23,4,24)            108.2189         calculate D2E/DX2 analytically  !
 ! A23   A(23,4,25)            108.1906         calculate D2E/DX2 analytically  !
 ! A24   A(24,4,25)            106.5335         calculate D2E/DX2 analytically  !
 ! A25   A(2,5,6)              120.1955         calculate D2E/DX2 analytically  !
 ! A26   A(5,6,7)              124.2122         calculate D2E/DX2 analytically  !
 ! A27   A(5,6,8)              109.8054         calculate D2E/DX2 analytically  !
 ! A28   A(7,6,8)              125.981          calculate D2E/DX2 analytically  !
 ! A29   A(6,8,9)              112.0744         calculate D2E/DX2 analytically  !
 ! A30   A(8,9,10)             112.1045         calculate D2E/DX2 analytically  !
 ! A31   A(9,10,11)            125.8733         calculate D2E/DX2 analytically  !
 ! A32   A(9,10,12)            109.7616         calculate D2E/DX2 analytically  !
 ! A33   A(11,10,12)           124.3648         calculate D2E/DX2 analytically  !
 ! A34   A(10,12,13)           120.2362         calculate D2E/DX2 analytically  !
 ! A35   A(12,13,14)           111.4075         calculate D2E/DX2 analytically  !
 ! A36   A(12,13,15)           105.9905         calculate D2E/DX2 analytically  !
 ! A37   A(12,13,16)           111.0981         calculate D2E/DX2 analytically  !
 ! A38   A(14,13,15)           107.9167         calculate D2E/DX2 analytically  !
 ! A39   A(14,13,16)           112.2677         calculate D2E/DX2 analytically  !
 ! A40   A(15,13,16)           107.8418         calculate D2E/DX2 analytically  !
 ! A41   A(13,14,26)           110.6246         calculate D2E/DX2 analytically  !
 ! A42   A(13,14,27)           112.4412         calculate D2E/DX2 analytically  !
 ! A43   A(13,14,28)           111.2879         calculate D2E/DX2 analytically  !
 ! A44   A(26,14,27)           106.5067         calculate D2E/DX2 analytically  !
 ! A45   A(26,14,28)           108.3578         calculate D2E/DX2 analytically  !
 ! A46   A(27,14,28)           107.4001         calculate D2E/DX2 analytically  !
 ! A47   A(13,15,29)           111.1376         calculate D2E/DX2 analytically  !
 ! A48   A(13,15,30)           111.5208         calculate D2E/DX2 analytically  !
 ! A49   A(13,15,31)           111.0706         calculate D2E/DX2 analytically  !
 ! A50   A(29,15,30)           108.2192         calculate D2E/DX2 analytically  !
 ! A51   A(29,15,31)           106.4888         calculate D2E/DX2 analytically  !
 ! A52   A(30,15,31)           108.2064         calculate D2E/DX2 analytically  !
 ! A53   A(13,16,32)           112.3707         calculate D2E/DX2 analytically  !
 ! A54   A(13,16,33)           110.4929         calculate D2E/DX2 analytically  !
 ! A55   A(13,16,34)           111.3608         calculate D2E/DX2 analytically  !
 ! A56   A(32,16,33)           106.5014         calculate D2E/DX2 analytically  !
 ! A57   A(32,16,34)           107.4529         calculate D2E/DX2 analytically  !
 ! A58   A(33,16,34)           108.4465         calculate D2E/DX2 analytically  !
 ! D1    D(17,1,2,3)           -59.3126         calculate D2E/DX2 analytically  !
 ! D2    D(17,1,2,4)            59.4279         calculate D2E/DX2 analytically  !
 ! D3    D(17,1,2,5)           175.2581         calculate D2E/DX2 analytically  !
 ! D4    D(18,1,2,3)          -179.8991         calculate D2E/DX2 analytically  !
 ! D5    D(18,1,2,4)           -61.1587         calculate D2E/DX2 analytically  !
 ! D6    D(18,1,2,5)            54.6716         calculate D2E/DX2 analytically  !
 ! D7    D(19,1,2,3)            61.3083         calculate D2E/DX2 analytically  !
 ! D8    D(19,1,2,4)          -179.9513         calculate D2E/DX2 analytically  !
 ! D9    D(19,1,2,5)           -64.121          calculate D2E/DX2 analytically  !
 ! D10   D(1,2,3,20)            59.4903         calculate D2E/DX2 analytically  !
 ! D11   D(1,2,3,21)           -60.9849         calculate D2E/DX2 analytically  !
 ! D12   D(1,2,3,22)          -179.9621         calculate D2E/DX2 analytically  !
 ! D13   D(4,2,3,20)           -59.2131         calculate D2E/DX2 analytically  !
 ! D14   D(4,2,3,21)          -179.6883         calculate D2E/DX2 analytically  !
 ! D15   D(4,2,3,22)            61.3345         calculate D2E/DX2 analytically  !
 ! D16   D(5,2,3,20)          -175.3058         calculate D2E/DX2 analytically  !
 ! D17   D(5,2,3,21)            64.219          calculate D2E/DX2 analytically  !
 ! D18   D(5,2,3,22)           -54.7581         calculate D2E/DX2 analytically  !
 ! D19   D(1,2,4,23)           -60.8746         calculate D2E/DX2 analytically  !
 ! D20   D(1,2,4,24)           178.3095         calculate D2E/DX2 analytically  !
 ! D21   D(1,2,4,25)            59.8743         calculate D2E/DX2 analytically  !
 ! D22   D(3,2,4,23)            60.6018         calculate D2E/DX2 analytically  !
 ! D23   D(3,2,4,24)           -60.2141         calculate D2E/DX2 analytically  !
 ! D24   D(3,2,4,25)          -178.6493         calculate D2E/DX2 analytically  !
 ! D25   D(5,2,4,23)          -179.8799         calculate D2E/DX2 analytically  !
 ! D26   D(5,2,4,24)            59.3042         calculate D2E/DX2 analytically  !
 ! D27   D(5,2,4,25)           -59.131          calculate D2E/DX2 analytically  !
 ! D28   D(1,2,5,6)             59.2949         calculate D2E/DX2 analytically  !
 ! D29   D(3,2,5,6)            -66.5999         calculate D2E/DX2 analytically  !
 ! D30   D(4,2,5,6)            176.2025         calculate D2E/DX2 analytically  !
 ! D31   D(2,5,6,7)             -0.0006         calculate D2E/DX2 analytically  !
 ! D32   D(2,5,6,8)           -179.5809         calculate D2E/DX2 analytically  !
 ! D33   D(5,6,8,9)           -149.6473         calculate D2E/DX2 analytically  !
 ! D34   D(7,6,8,9)             30.7816         calculate D2E/DX2 analytically  !
 ! D35   D(6,8,9,10)          -179.2377         calculate D2E/DX2 analytically  !
 ! D36   D(8,9,10,11)           29.647          calculate D2E/DX2 analytically  !
 ! D37   D(8,9,10,12)         -150.147          calculate D2E/DX2 analytically  !
 ! D38   D(9,10,12,13)         179.7976         calculate D2E/DX2 analytically  !
 ! D39   D(11,10,12,13)         -0.0002         calculate D2E/DX2 analytically  !
 ! D40   D(10,12,13,14)         59.2944         calculate D2E/DX2 analytically  !
 ! D41   D(10,12,13,15)        176.4288         calculate D2E/DX2 analytically  !
 ! D42   D(10,12,13,16)        -66.6871         calculate D2E/DX2 analytically  !
 ! D43   D(12,13,14,26)         55.1188         calculate D2E/DX2 analytically  !
 ! D44   D(12,13,14,27)        -63.8218         calculate D2E/DX2 analytically  !
 ! D45   D(12,13,14,28)        175.6367         calculate D2E/DX2 analytically  !
 ! D46   D(15,13,14,26)        -60.8402         calculate D2E/DX2 analytically  !
 ! D47   D(15,13,14,27)       -179.7807         calculate D2E/DX2 analytically  !
 ! D48   D(15,13,14,28)         59.6778         calculate D2E/DX2 analytically  !
 ! D49   D(16,13,14,26)       -179.548          calculate D2E/DX2 analytically  !
 ! D50   D(16,13,14,27)         61.5115         calculate D2E/DX2 analytically  !
 ! D51   D(16,13,14,28)        -59.03           calculate D2E/DX2 analytically  !
 ! D52   D(12,13,15,29)        -59.3885         calculate D2E/DX2 analytically  !
 ! D53   D(12,13,15,30)        179.762          calculate D2E/DX2 analytically  !
 ! D54   D(12,13,15,31)         58.9751         calculate D2E/DX2 analytically  !
 ! D55   D(14,13,15,29)         60.0634         calculate D2E/DX2 analytically  !
 ! D56   D(14,13,15,30)        -60.7861         calculate D2E/DX2 analytically  !
 ! D57   D(14,13,15,31)        178.4269         calculate D2E/DX2 analytically  !
 ! D58   D(16,13,15,29)       -178.441          calculate D2E/DX2 analytically  !
 ! D59   D(16,13,15,30)         60.7095         calculate D2E/DX2 analytically  !
 ! D60   D(16,13,15,31)        -60.0774         calculate D2E/DX2 analytically  !
 ! D61   D(12,13,16,32)         64.5409         calculate D2E/DX2 analytically  !
 ! D62   D(12,13,16,33)        -54.2575         calculate D2E/DX2 analytically  !
 ! D63   D(12,13,16,34)       -174.8471         calculate D2E/DX2 analytically  !
 ! D64   D(14,13,16,32)        -60.9616         calculate D2E/DX2 analytically  !
 ! D65   D(14,13,16,33)       -179.76           calculate D2E/DX2 analytically  !
 ! D66   D(14,13,16,34)         59.6504         calculate D2E/DX2 analytically  !
 ! D67   D(15,13,16,32)       -179.7135         calculate D2E/DX2 analytically  !
 ! D68   D(15,13,16,33)         61.4881         calculate D2E/DX2 analytically  !
 ! D69   D(15,13,16,34)        -59.1015         calculate D2E/DX2 analytically  !
 --------------------------------------------------------------------------------
 Trust Radius=3.00D-01 FncErr=1.00D-07 GrdErr=1.00D-06 EigMax=2.50D+02 EigMin=1.00D-04
 Number of steps in this run=    170 maximum allowed number of steps=    204.
 GradGradGradGradGradGradGradGradGradGradGradGradGradGradGradGradGradGrad

                          Input orientation:                          
 ---------------------------------------------------------------------
 Center     Atomic      Atomic             Coordinates (Angstroms)
 Number     Number       Type             X           Y           Z
 ---------------------------------------------------------------------
      1          6           0        2.803580   -0.706320   -0.316420
      2          6           0        3.048410    0.805990   -0.237830
      3          6           0        3.997340    1.298750   -1.337860
      4          6           0        1.694860    1.513560   -0.428340
      5          8           0        3.521510    1.189440    1.082430
      6          6           0        4.677100    0.655100    1.580800
      7          8           0        5.376610   -0.154160    0.982030
      8          7           0        4.917200    1.155900    2.841800
      9          7           0        6.144800    1.222600    3.097200
     10          6           0        6.385300    1.707800    4.365000
     11          8           0        5.648850    1.576550    5.335980
     12          8           0        7.579170    2.371400    4.386810
     13          6           0        8.054560    2.980300    5.615530
     14          6           0        8.214520    1.939060    6.731190
     15          6           0        9.448140    3.548890    5.295310
     16          6           0        7.154950    4.149900    6.036410
     17          1           0        2.368300   -0.990460   -1.280320
     18          1           0        2.121700   -1.027430    0.479670
     19          1           0        3.722950   -1.283950   -0.188760
     20          1           0        3.597790    1.081460   -2.334480
     21          1           0        4.985420    0.835740   -1.274770
     22          1           0        4.154140    2.380450   -1.256800
     23          1           0        1.254370    1.280920   -1.405000
     24          1           0        1.803340    2.601470   -0.351750
     25          1           0        0.981290    1.215790    0.348530
     26          1           0        8.867370    1.121110    6.405230
     27          1           0        7.263180    1.482600    7.015300
     28          1           0        8.645800    2.386050    7.633510
     29          1           0       10.130160    2.758610    4.960470
     30          1           0        9.893320    4.038170    6.169280
     31          1           0        9.397380    4.281650    4.481320
     32          1           0        6.141590    3.826010    6.287050
     33          1           0        7.057350    4.872740    5.218140
     34          1           0        7.559580    4.669590    6.911480
 ---------------------------------------------------------------------
                    Distance matrix (angstroms):
                    1          2          3          4          5
     1  C    0.000000
     2  C    1.534014   0.000000
     3  C    2.547294   1.534062   0.000000
     4  C    2.483879   1.539171   2.484911   0.000000
     5  O    2.462948   1.453941   2.469042   2.392515   0.000000
     6  C    2.993825   2.445979   3.065116   3.696938   1.367216
     7  O    2.934508   2.798296   3.065163   4.280855   2.292758
     8  N    4.231974   3.619245   4.282068   4.604912   2.245987
     9  N    5.151435   4.569860   4.928199   5.684721   3.307877
    10  C    6.369646   5.756226   6.196151   6.709252   4.386942
    11  O    6.727309   6.198662   6.880756   6.990378   4.771595
    12  O    7.375567   6.660750   6.837538   7.651579   5.364752
    13  C    8.737963   8.003186   8.224249   8.895250   6.656179
    14  C    9.270659   8.748702   9.127112   9.692569   7.382057
    15  C    9.682381   8.893575   8.875432   9.849675   7.644626
    16  C    9.103612   8.210450   8.513484   8.863175   6.819687
    17  H    1.095129   2.185536   2.810261   2.729379   3.415325
    18  H    1.096281   2.176012   3.497507   2.731905   2.690223
    19  H    1.093250   2.196648   2.840081   3.463612   2.788218
    20  H    2.810604   2.184867   1.095494   2.727860   3.419467
    21  H    2.838452   2.197302   1.093005   3.464631   2.797236
    22  H    3.498067   2.177123   1.096007   2.736038   2.700134
    23  H    2.744846   2.192356   2.743850   1.096366   3.366838
    24  H    3.455894   2.187904   2.735531   1.095985   2.646282
    25  H    2.730825   2.187405   3.456494   1.096073   2.644243
    26  H    9.235238   8.836846   9.148999   9.914464   7.544209
    27  H    8.856270   8.416055   8.970774   9.295963   7.020326
    28  H   10.339036   9.786999  10.162474  10.680367   8.402790
    29  H    9.671095   8.999235   8.911321  10.086809   7.821492
    30  H   10.716291   9.917199   9.930969  10.822060   8.636624
    31  H    9.559098   8.640602   8.480624   9.544417   7.459227
    32  H    8.676989   7.827026   8.314091   8.379576   6.395654
    33  H    8.935985   7.897953   8.069585   8.480750   6.570613
    34  H   10.186387   9.294659   9.597069   9.911025   7.899068
                    6          7          8          9         10
     6  C    0.000000
     7  O    1.225864   0.000000
     8  N    1.377886   2.320788   0.000000
     9  N    2.185330   2.638092   1.255659   0.000000
    10  C    3.431894   3.991095   2.186332   1.378614   0.000000
    11  O    3.986821   4.693224   2.633096   2.320212   1.225719
    12  O    4.386501   4.777264   3.309166   2.245051   1.366077
    13  C    5.752637   6.202062   4.567827   3.616446   2.443258
    14  C    6.378747   6.744490   5.158780   4.242987   2.999730
    15  C    6.703315   6.992447   5.681156   4.599496   3.692706
    16  C    6.181086   6.872713   4.917021   4.269478   3.057748
    17  H    4.027956   3.855847   5.300531   6.190498   7.435492
    18  H    3.251686   3.407258   4.261620   5.300890   6.384008
    19  H    2.793145   2.319863   4.069815   4.790165   6.064273
    20  H    4.083639   3.961085   5.342308   6.000861   7.283237
    21  H    2.877842   2.495211   4.129565   4.539597   5.875981
    22  H    3.361888   3.595976   4.345147   4.925511   6.085653
    23  H    4.584946   4.974960   5.609569   6.647519   7.733147
    24  H    3.972606   4.705393   4.688769   5.713564   6.636319
    25  H    3.935972   4.647249   4.659546   5.849536   6.751106
    26  H    6.407078   6.574406   5.320065   4.285528   3.266101
    27  H    6.075060   6.529814   4.798797   4.082877   2.800978
    28  H    7.441913   7.834696   6.194854   5.309117   4.031506
    29  H    6.751503   6.848974   5.850846   4.659849   3.934814
    30  H    7.727112   8.055052   6.643897   5.605043   4.581731
    31  H    6.621626   6.934554   5.703539   4.674703   3.963693
    32  H    5.860733   6.676091   4.527512   4.117390   2.870624
    33  H    6.056758   6.785222   4.903278   4.319104   3.346094
    34  H    7.269179   7.949358   5.990867   5.332174   4.078688
                   11         12         13         14         15
    11  O    0.000000
    12  O    2.293217   0.000000
    13  C    2.799304   1.451381   0.000000
    14  C    2.942905   2.467125   1.534427   0.000000
    15  C    4.280933   2.388494   1.538798   2.484979   0.000000
    16  C    3.062853   2.462561   1.534406   2.548180   2.483780
    17  H    7.818374   8.400692   9.780247  10.341406  10.675614
    18  H    6.542572   7.523415   8.811231   9.219763   9.889885
    19  H    6.512626   7.011980   8.404550   8.857071   9.284889
    20  H    7.955370   7.917769   9.309729  10.209606   9.926152
    21  H    6.685129   6.413991   7.841874   8.702861   8.393033
    22  H    6.807728   6.601609   7.924772   8.971594   8.504224
    23  H    8.052308   8.645074   9.920601  10.727275  10.824773
    24  H    6.941807   7.474429   8.650416   9.576537   9.551432
    25  H    6.840389   7.821455   8.993661   9.673732  10.079759
    26  H    3.421928   2.701241   2.177355   1.096132   2.731910
    27  H    2.331309   2.792629   2.197440   1.092759   3.464386
    28  H    3.862078   3.417452   2.185164   1.095438   2.731872
    29  H    4.649776   2.643212   2.187776   2.734372   1.096272
    30  H    4.976895   3.363125   2.192434   2.745974   1.096086
    31  H    4.701009   2.638915   2.187032   3.456704   1.096400
    32  H    2.491465   2.791673   2.196729   2.838112   3.463180
    33  H    3.586450   2.687026   2.175701   3.497834   2.733937
    34  H    3.962321   3.414091   2.185908   2.813760   2.726652
                   16         17         18         19         20
    16  C    0.000000
    17  H   10.142478   0.000000
    18  H    9.111296   1.777567   0.000000
    19  H    8.947519   1.764289   1.754025   0.000000
    20  H    9.598985   2.629782   3.813882   3.196083   0.000000
    21  H    8.315279   3.191294   3.840619   2.695614   1.763202
    22  H    8.082495   3.814815   4.331257   3.841154   1.777159
    23  H    9.920810   2.532894   3.103663   3.761873   2.528900
    24  H    8.476199   3.752783   3.736513   4.336814   3.075988
    25  H    8.892416   3.073189   2.519875   3.748877   3.750021
    26  H    3.498854  10.284178   9.232148   8.702303  10.205517
    27  H    2.843313   9.944505   8.686169   8.490318  10.050591
    28  H    2.807940  11.413334  10.266117   9.944408  11.249230
    29  H    3.456184  10.641873   9.927089   9.160197   9.934837
    30  H    2.743867  11.722183  10.882557  10.335526  10.985889
    31  H    2.732061  10.507122   9.855712   9.218715   9.504293
    32  H    1.092988   9.731454   8.569776   8.596373   9.398630
    33  H    1.096170   9.929466   9.034697   8.846334   9.131507
    34  H    1.095240  11.229031  10.168321  10.028847  10.679805
                   21         22         23         24         25
    21  H    0.000000
    22  H    1.754274   0.000000
    23  H    3.759771   3.104770   0.000000
    24  H    3.754384   2.528681   1.776107   0.000000
    25  H    4.337349   3.741723   1.775861   1.756778   0.000000
    26  H    8.610074   9.083346  10.907933   9.886797   9.943985
    27  H    8.621594   8.882562  10.346397   9.237703   9.164014
    28  H    9.754963   9.960555  11.728138  10.518082  10.638851
    29  H    8.309272   8.631933  11.021907   9.878274  10.361086
    30  H    9.474013   9.530629  11.815397  10.489791  11.012322
    31  H    8.029462   8.002009  10.486265   9.157020   9.864584
    32  H    8.213377   7.934058   9.462031   8.024561   8.289027
    33  H    7.921373   7.520970   9.510086   7.986674   8.602609
    34  H    9.398904   9.141006  10.972812   9.495574   9.913372
                   26         27         28         29         30
    26  H    0.000000
    27  H    1.753934   0.000000
    28  H    1.777031   1.763532   0.000000
    29  H    2.522573   3.751013   3.080141   0.000000
    30  H    3.101207   3.763552   2.535700   1.776116   0.000000
    31  H    3.737827   4.337113   3.754261   1.756759   1.776077
    32  H    3.841917   2.698126   3.187084   4.336802   3.759569
    33  H    4.331291   3.842551   3.813242   3.738730   3.105463
    34  H    3.815536   3.202427   2.629783   3.750489   2.529011
                   31         32         33         34
    31  H    0.000000
    32  H    3.750792   0.000000
    33  H    2.523496   1.754089   0.000000
    34  H    3.071430   1.764153   1.777893   0.000000
 Stoichiometry    C10H18N2O4
 Framework group  C1[X(C10H18N2O4)]
 Deg. of freedom    96
 Full point group                 C1      NOp   1
 Largest Abelian subgroup         C1      NOp   1
 Largest concise Abelian subgroup C1      NOp   1
                         Standard orientation:                         
 ---------------------------------------------------------------------
 Center     Atomic      Atomic             Coordinates (Angstroms)
 Number     Number       Type             X           Y           Z
 ---------------------------------------------------------------------
      1          6           0       -4.628113   -1.058030   -0.216085
      2          6           0       -4.000065    0.295979    0.138054
      3          6           0       -4.110641    1.305985   -1.011297
      4          6           0       -4.762867    0.868299    1.346205
      5          8           0       -2.621749    0.133747    0.571494
      6          6           0       -1.700442   -0.433990   -0.264059
      7          8           0       -1.950355   -0.834299   -1.395446
      8          7           0       -0.474433   -0.490523    0.362260
      9          7           0        0.476495   -0.406954   -0.453479
     10          6           0        1.703475   -0.480357    0.170787
     11          8           0        1.946831   -1.087724    1.207258
     12          8           0        2.625989    0.235501   -0.538212
     13          6           0        4.000180    0.315096   -0.078026
     14          6           0        4.639525   -1.076351    0.019841
     15          6           0        4.761537    1.111395   -1.152338
     16          6           0        4.096820    1.093444    1.240775
     17          1           0       -5.689867   -0.952984   -0.462967
     18          1           0       -4.535261   -1.756502    0.623765
     19          1           0       -4.138335   -1.533351   -1.070124
     20          1           0       -5.156605    1.488848   -1.280792
     21          1           0       -3.595612    0.968465   -1.914339
     22          1           0       -3.653939    2.261995   -0.730762
     23          1           0       -5.822943    1.024527    1.114148
     24          1           0       -4.336965    1.826612    1.664680
     25          1           0       -4.697005    0.195561    2.209027
     26          1           0        4.562662   -1.604778   -0.937427
     27          1           0        4.149647   -1.709111    0.763989
     28          1           0        5.698275   -1.009243    0.292841
     29          1           0        4.703380    0.614747   -2.127925
     30          1           0        5.819306    1.230032   -0.890702
     31          1           0        4.327406    2.109425   -1.284847
     32          1           0        3.581430    0.587494    2.061148
     33          1           0        3.628430    2.079339    1.139727
     34          1           0        5.139386    1.234641    1.545193
 ---------------------------------------------------------------------
 Rotational constants (GHZ):           1.4816862           0.1784433           0.1781653
 Standard basis: 6-31G(d) (6D, 7F)
 There are   276 symmetry adapted cartesian basis functions of A   symmetry.
 There are   276 symmetry adapted basis functions of A   symmetry.
   276 basis functions,   520 primitive gaussians,   276 cartesian basis functions
    62 alpha electrons       62 beta electrons
       nuclear repulsion energy      1139.5170248184 Hartrees.
 NAtoms=   34 NActive=   34 NUniq=   34 SFac= 1.00D+00 NAtFMM=   60 NAOKFM=F Big=F
 Integral buffers will be    131072 words long.
 Raffenetti 2 integral format.
 Two-electron integral symmetry is turned on.
 One-electron integrals computed using PRISM.
 NBasis=   276 RedAO= T EigKep=  2.37D-03  NBF=   276
 NBsUse=   276 1.00D-06 EigRej= -1.00D+00 NBFU=   276
 ExpMin= 1.61D-01 ExpMax= 5.48D+03 ExpMxC= 8.25D+02 IAcc=3 IRadAn=         5 AccDes= 0.00D+00
 Harris functional with IExCor=  402 and IRadAn=       5 diagonalized for initial guess.
 HarFok:  IExCor=  402 AccDes= 0.00D+00 IRadAn=         5 IDoV= 1 UseB2=F ITyADJ=14
 ICtDFT=  3500011 ScaDFX=  1.000000  1.000000  1.000000  1.000000
 FoFCou: FMM=F IPFlag=           0 FMFlag=      100000 FMFlg1=           0
         NFxFlg=           0 DoJE=T BraDBF=F KetDBF=T FulRan=T
         wScrn=  0.000000 ICntrl=       500 IOpCl=  0 I1Cent=   200000004 NGrid=           0
         NMat0=    1 NMatS0=      1 NMatT0=    0 NMatD0=    1 NMtDS0=    0 NMtDT0=    0
 Petite list used in FoFCou.
 Gradient too large for Newton-Raphson -- use scaled steepest descent instead.
     Minimum is close to point  2 DX=  1.64D-02 DF= -1.30D-03 DXR=  5.17D-02 DFR=  2.68D-03 which will be used.
 Gradient too large for Newton-Raphson -- use scaled steepest descent instead.
     Minimum is close to point  3 DX=  2.03D-02 DF= -1.37D-04 DXR=  4.84D-02 DFR=  2.31D-03 which will be used.
 Gradient too large for Newton-Raphson -- use scaled steepest descent instead.
     Minimum is close to point  2 DX=  4.00D-02 DF= -7.75D-05 DXR=  9.10D-02 DFR=  8.35D-03 which will be used.
 Gradient too large for Newton-Raphson -- use scaled steepest descent instead.
 Gradient too large for Newton-Raphson -- use scaled steepest descent instead.
     Accept linear search using points  1 and  2.
 Gradient too large for Newton-Raphson -- use scaled steepest descent instead.
     Minimum is close to point  3 DX=  1.26D-02 DF= -6.66D-08 DXR=  1.25D-02 DFR=  1.55D-04 which will be used.
 LinEq1:  Iter=  0 NonCon=     1 RMS=4.15D-05 Max=2.73D-03 NDo=     1
 AX will form     1 AO Fock derivatives at one time.
 LinEq1:  Iter=  1 NonCon=     1 RMS=5.36D-05 Max=4.68D-03 NDo=     1
 LinEq1:  Iter=  2 NonCon=     1 RMS=9.80D-06 Max=2.36D-04 NDo=     1
 LinEq1:  Iter=  3 NonCon=     1 RMS=8.32D-06 Max=2.71D-04 NDo=     1
 LinEq1:  Iter=  4 NonCon=     1 RMS=3.10D-06 Max=2.04D-04 NDo=     1
 LinEq1:  Iter=  5 NonCon=     1 RMS=1.36D-06 Max=6.27D-05 NDo=     1
 LinEq1:  Iter=  6 NonCon=     1 RMS=6.61D-07 Max=2.93D-05 NDo=     1
 LinEq1:  Iter=  7 NonCon=     1 RMS=5.34D-07 Max=2.33D-05 NDo=     1
 LinEq1:  Iter=  8 NonCon=     1 RMS=4.11D-07 Max=1.10D-05 NDo=     1
 LinEq1:  Iter=  9 NonCon=     1 RMS=2.15D-07 Max=6.50D-06 NDo=     1
 LinEq1:  Iter= 10 NonCon=     1 RMS=2.28D-07 Max=8.39D-06 NDo=     1
 LinEq1:  Iter= 11 NonCon=     1 RMS=1.10D-07 Max=5.31D-06 NDo=     1
 LinEq1:  Iter= 12 NonCon=     1 RMS=5.05D-08 Max=2.82D-06 NDo=     1
 LinEq1:  Iter= 13 NonCon=     1 RMS=2.99D-08 Max=1.44D-06 NDo=     1
 LinEq1:  Iter= 14 NonCon=     1 RMS=1.25D-08 Max=5.09D-07 NDo=     1
 LinEq1:  Iter= 15 NonCon=     0 RMS=7.46D-09 Max=1.44D-07 NDo=     1
 Linear equations converged to 1.629D-08 1.629D-07 after    15 iterations.
     Accept linear search using points  1 and  2.
     Minimum is close to point  2 DX= -6.18D-05 DF=  0.00D+00 DXR=  6.18D-05 DFR=  0.00D+00 which will be used.
 LinEq1:  Iter=  0 NonCon=     1 RMS=6.60D-08 Max=2.99D-06 NDo=     1
 LinEq1:  Iter=  1 NonCon=     1 RMS=4.42D-08 Max=2.54D-06 NDo=     1
 LinEq1:  Iter=  2 NonCon=     1 RMS=3.16D-08 Max=1.30D-06 NDo=     1
 LinEq1:  Iter=  3 NonCon=     1 RMS=2.38D-08 Max=8.30D-07 NDo=     1
 LinEq1:  Iter=  4 NonCon=     1 RMS=1.74D-08 Max=9.48D-07 NDo=     1
 LinEq1:  Iter=  5 NonCon=     1 RMS=1.05D-08 Max=4.09D-07 NDo=     1
 LinEq1:  Iter=  6 NonCon=     1 RMS=3.77D-09 Max=1.18D-07 NDo=     1
 LinEq1:  Iter=  7 NonCon=     1 RMS=1.64D-09 Max=3.28D-08 NDo=     1
 LinEq1:  Iter=  8 NonCon=     1 RMS=6.75D-10 Max=1.79D-08 NDo=     1
 LinEq1:  Iter=  9 NonCon=     1 RMS=5.25D-10 Max=1.99D-08 NDo=     1
 LinEq1:  Iter= 10 NonCon=     1 RMS=3.54D-10 Max=1.50D-08 NDo=     1
 LinEq1:  Iter= 11 NonCon=     1 RMS=2.39D-10 Max=1.24D-08 NDo=     1
 LinEq1:  Iter= 12 NonCon=     1 RMS=2.09D-10 Max=1.18D-08 NDo=     1
 LinEq1:  Iter= 13 NonCon=     1 RMS=1.33D-10 Max=6.81D-09 NDo=     1
 LinEq1:  Iter= 14 NonCon=     1 RMS=6.32D-11 Max=1.74D-09 NDo=     1
 LinEq1:  Iter= 15 NonCon=     1 RMS=3.70D-11 Max=8.02D-10 NDo=     1
 LinEq1:  Iter= 16 NonCon=     0 RMS=2.18D-11 Max=3.88D-10 NDo=     1
 Linear equations converged to 6.230D-11 6.230D-10 after    16 iterations.
 SCF Done:  E(RB3LYP) =  -802.259847224     a.u. after    9 cycles
            Convg  =    0.7278D-10                    49 Fock formations.
              S**2 =  0.0000                  -V/T =  2.0092
 DoSCS=F DFT=T ScalE2(SS,OS)=  1.000000  1.000000
 Range of M.O.s used for correlation:     1   276
 NBasis=   276 NAE=    62 NBE=    62 NFC=     0 NFV=     0
 NROrb=    276 NOA=    62 NOB=    62 NVA=   214 NVB=   214
 Symmetrizing basis deriv contribution to polar:
 IMax=3 JMax=2 DiffMx= 0.00D+00
 G2DrvN: will do    35 centers at a time, making    1 passes.
 Calling FoFCou, ICntrl=  3107 FMM=F I1Cent=   0 AccDes= 0.00D+00.
 End of G2Drv F.D. properties file   721 does not exist.
 End of G2Drv F.D. properties file   722 does not exist.
 End of G2Drv F.D. properties file   788 does not exist.
          IDoAtm=1111111111111111111111111111111111
          Differentiating once with respect to electric field.
                with respect to dipole field.
          Differentiating once with respect to nuclear coordinates.
 Keep R1 ints in memory in canonical form, NReq=741275395.
          There are   105 degrees of freedom in the 1st order CPHF.  IDoFFX=6 NUNeed=     3.
    102 vectors produced by pass  0 Test12= 1.33D-14 1.00D-09 XBig12= 1.35D+02 4.03D+00.
 AX will form   102 AO Fock derivatives at one time.
    102 vectors produced by pass  1 Test12= 1.33D-14 1.00D-09 XBig12= 5.49D+01 1.96D+00.
    102 vectors produced by pass  2 Test12= 1.33D-14 1.00D-09 XBig12= 9.26D-01 2.05D-01.
    102 vectors produced by pass  3 Test12= 1.33D-14 1.00D-09 XBig12= 6.70D-03 1.22D-02.
    102 vectors produced by pass  4 Test12= 1.33D-14 1.00D-09 XBig12= 1.41D-05 4.89D-04.
     54 vectors produced by pass  5 Test12= 1.33D-14 1.00D-09 XBig12= 1.02D-08 8.48D-06.
     11 vectors produced by pass  6 Test12= 1.33D-14 1.00D-09 XBig12= 7.45D-12 3.12D-07.
      3 vectors produced by pass  7 Test12= 1.33D-14 1.00D-09 XBig12= 4.76D-15 9.21D-09.
 InvSVY:  IOpt=1 It=  1 EMax= 7.11D-15
 Solved reduced A of dimension   578 with   105 vectors.
 Isotropic polarizability for W=    0.000000      138.80 Bohr**3.
 End of Minotr F.D. properties file   721 does not exist.
 End of Minotr F.D. properties file   722 does not exist.
 End of Minotr F.D. properties file   788 does not exist.

 **********************************************************************

            Population analysis using the SCF density.

 **********************************************************************

 Orbital symmetries:
       Occupied  (A) (A) (A) (A) (A) (A) (A) (A) (A) (A) (A) (A)
                 (A) (A) (A) (A) (A) (A) (A) (A) (A) (A) (A) (A)
                 (A) (A) (A) (A) (A) (A) (A) (A) (A) (A) (A) (A)
                 (A) (A) (A) (A) (A) (A) (A) (A) (A) (A) (A) (A)
                 (A) (A) (A) (A) (A) (A) (A) (A) (A) (A) (A) (A)
                 (A) (A)
       Virtual   (A) (A) (A) (A) (A) (A) (A) (A) (A) (A) (A) (A)
                 (A) (A) (A) (A) (A) (A) (A) (A) (A) (A) (A) (A)
                 (A) (A) (A) (A) (A) (A) (A) (A) (A) (A) (A) (A)
                 (A) (A) (A) (A) (A) (A) (A) (A) (A) (A) (A) (A)
                 (A) (A) (A) (A) (A) (A) (A) (A) (A) (A) (A) (A)
                 (A) (A) (A) (A) (A) (A) (A) (A) (A) (A) (A) (A)
                 (A) (A) (A) (A) (A) (A) (A) (A) (A) (A) (A) (A)
                 (A) (A) (A) (A) (A) (A) (A) (A) (A) (A) (A) (A)
                 (A) (A) (A) (A) (A) (A) (A) (A) (A) (A) (A) (A)
                 (A) (A) (A) (A) (A) (A) (A) (A) (A) (A) (A) (A)
                 (A) (A) (A) (A) (A) (A) (A) (A) (A) (A) (A) (A)
                 (A) (A) (A) (A) (A) (A) (A) (A) (A) (A) (A) (A)
                 (A) (A) (A) (A) (A) (A) (A) (A) (A) (A) (A) (A)
                 (A) (A) (A) (A) (A) (A) (A) (A) (A) (A) (A) (A)
                 (A) (A) (A) (A) (A) (A) (A) (A) (A) (A) (A) (A)
                 (A) (A) (A) (A) (A) (A) (A) (A) (A) (A) (A) (A)
                 (A) (A) (A) (A) (A) (A) (A) (A) (A) (A) (A) (A)
                 (A) (A) (A) (A) (A) (A) (A) (A) (A) (A)
 The electronic state is 1-A.
 Alpha  occ. eigenvalues --  -19.20578 -19.20516 -19.15543 -19.15529 -14.42820
 Alpha  occ. eigenvalues --  -14.42769 -10.35366 -10.35352 -10.26706 -10.26697
 Alpha  occ. eigenvalues --  -10.18489 -10.18486 -10.18147 -10.18142 -10.17886
 Alpha  occ. eigenvalues --  -10.17841  -1.13611  -1.11372  -1.06569  -1.02834
 Alpha  occ. eigenvalues --   -1.01877  -0.84859  -0.81728  -0.79116  -0.69844
 Alpha  occ. eigenvalues --   -0.69828  -0.69615  -0.69558  -0.67697  -0.61744
 Alpha  occ. eigenvalues --   -0.56301  -0.51990  -0.51819  -0.50800  -0.49868
 Alpha  occ. eigenvalues --   -0.48074  -0.47814  -0.46880  -0.45726  -0.45427
 Alpha  occ. eigenvalues --   -0.44938  -0.43102  -0.42344  -0.41761  -0.40830
 Alpha  occ. eigenvalues --   -0.40040  -0.39734  -0.38920  -0.37599  -0.36936
 Alpha  occ. eigenvalues --   -0.36822  -0.36754  -0.36691  -0.35631  -0.35099
 Alpha  occ. eigenvalues --   -0.34056  -0.33810  -0.30847  -0.30702  -0.30466
 Alpha  occ. eigenvalues --   -0.28344  -0.26208
 Alpha virt. eigenvalues --   -0.13551   0.01475   0.04060   0.08069   0.08182
 Alpha virt. eigenvalues --    0.09912   0.10156   0.14362   0.14387   0.14815
 Alpha virt. eigenvalues --    0.14842   0.15795   0.15807   0.16518   0.16584
 Alpha virt. eigenvalues --    0.17342   0.18662   0.18906   0.18970   0.19091
 Alpha virt. eigenvalues --    0.19565   0.20268   0.20338   0.22068   0.22126
 Alpha virt. eigenvalues --    0.22276   0.22320   0.24134   0.25082   0.25123
 Alpha virt. eigenvalues --    0.25143   0.30882   0.31196   0.34662   0.41237
 Alpha virt. eigenvalues --    0.43202   0.47950   0.48408   0.48565   0.49067
 Alpha virt. eigenvalues --    0.50644   0.50943   0.51179   0.52480   0.55165
 Alpha virt. eigenvalues --    0.55488   0.55821   0.57062   0.58748   0.59345
 Alpha virt. eigenvalues --    0.59607   0.60764   0.61286   0.62896   0.64550
 Alpha virt. eigenvalues --    0.67162   0.69398   0.69655   0.69803   0.70838
 Alpha virt. eigenvalues --    0.70872   0.71032   0.71582   0.72860   0.74772
 Alpha virt. eigenvalues --    0.75292   0.80133   0.80538   0.81719   0.81950
 Alpha virt. eigenvalues --    0.84616   0.85395   0.85511   0.86753   0.87752
 Alpha virt. eigenvalues --    0.88344   0.88565   0.89189   0.89398   0.89970
 Alpha virt. eigenvalues --    0.90024   0.91559   0.92268   0.92608   0.92829
 Alpha virt. eigenvalues --    0.93256   0.93771   0.94610   0.96106   0.96890
 Alpha virt. eigenvalues --    0.97340   0.97723   0.99044   1.00146   1.01962
 Alpha virt. eigenvalues --    1.06351   1.06902   1.09224   1.10954   1.12436
 Alpha virt. eigenvalues --    1.13318   1.14635   1.16661   1.21445   1.23218
 Alpha virt. eigenvalues --    1.26995   1.30798   1.32061   1.33470   1.37710
 Alpha virt. eigenvalues --    1.38605   1.39668   1.42152   1.43046   1.45360
 Alpha virt. eigenvalues --    1.46118   1.50066   1.50252   1.51640   1.54144
 Alpha virt. eigenvalues --    1.56268   1.58148   1.61775   1.66563   1.69704
 Alpha virt. eigenvalues --    1.71731   1.71890   1.72555   1.73096   1.75705
 Alpha virt. eigenvalues --    1.77031   1.77095   1.79153   1.79845   1.82223
 Alpha virt. eigenvalues --    1.82534   1.84337   1.84483   1.84847   1.85403
 Alpha virt. eigenvalues --    1.86858   1.87740   1.89318   1.91524   1.93495
 Alpha virt. eigenvalues --    1.95055   1.97221   1.97431   2.05600   2.05859
 Alpha virt. eigenvalues --    2.08306   2.08935   2.09251   2.09387   2.14117
 Alpha virt. eigenvalues --    2.14671   2.14740   2.17046   2.17637   2.19360
 Alpha virt. eigenvalues --    2.20485   2.22794   2.23025   2.24861   2.24959
 Alpha virt. eigenvalues --    2.26285   2.26337   2.26770   2.26813   2.31266
 Alpha virt. eigenvalues --    2.31512   2.33122   2.38975   2.43071   2.47042
 Alpha virt. eigenvalues --    2.48505   2.49805   2.52789   2.56434   2.56734
 Alpha virt. eigenvalues --    2.62940   2.63503   2.66473   2.70438   2.71216
 Alpha virt. eigenvalues --    2.71738   2.74344   2.75391   2.78069   2.79499
 Alpha virt. eigenvalues --    2.82082   2.87448   2.93935   2.96248   3.07312
 Alpha virt. eigenvalues --    3.11839   3.22166   3.25664   3.77210   3.91192
 Alpha virt. eigenvalues --    4.05502   4.09528   4.18666   4.20799   4.26556
 Alpha virt. eigenvalues --    4.28152   4.29048   4.29323   4.30272   4.30556
 Alpha virt. eigenvalues --    4.36002   4.38694   4.66701   4.67064
          Condensed to atoms (all electrons):
               1          2          3          4          5          6
     1  C    5.201791   0.380285  -0.063905  -0.072058  -0.041193  -0.005945
     2  C    0.380285   4.582355   0.378106   0.404315   0.174930  -0.014432
     3  C   -0.063905   0.378106   5.192037  -0.073792  -0.041479  -0.004300
     4  C   -0.072058   0.404315  -0.073792   5.153394  -0.044673   0.003291
     5  O   -0.041193   0.174930  -0.041479  -0.044673   8.300848   0.296583
     6  C   -0.005945  -0.014432  -0.004300   0.003291   0.296583   4.238797
     7  O   -0.009227   0.002195  -0.005864   0.000191  -0.074523   0.510154
     8  N   -0.000557   0.003875  -0.000432  -0.000174  -0.087688   0.243924
     9  N    0.000008  -0.000095   0.000033   0.000000   0.001738  -0.052194
    10  C   -0.000000   0.000004  -0.000000  -0.000000  -0.000206   0.005642
    11  O    0.000000   0.000000  -0.000000   0.000000  -0.000000   0.000445
    12  O    0.000000  -0.000000  -0.000000   0.000000   0.000000  -0.000207
    13  C   -0.000000   0.000000  -0.000000  -0.000000  -0.000000   0.000004
    14  C   -0.000000  -0.000000  -0.000000   0.000000   0.000000  -0.000000
    15  C    0.000000  -0.000000   0.000000   0.000000   0.000000  -0.000000
    16  C   -0.000000  -0.000000  -0.000000   0.000000  -0.000000  -0.000000
    17  H    0.360944  -0.024811  -0.002242  -0.002996   0.002613   0.000329
    18  H    0.362120  -0.028127   0.005563  -0.006528  -0.000003   0.000705
    19  H    0.365928  -0.024136  -0.004898   0.005068  -0.002925   0.000897
    20  H   -0.002134  -0.023787   0.362443  -0.002845   0.002651   0.000184
    21  H   -0.005231  -0.024174   0.367048   0.005160  -0.003174   0.002069
    22  H    0.005520  -0.027768   0.362392  -0.006342   0.000062   0.000365
    23  H   -0.002171  -0.026611  -0.001905   0.365616   0.002865  -0.000037
    24  H    0.006009  -0.025413  -0.005831   0.362239   0.000344  -0.000034
    25  H   -0.005843  -0.025217   0.005965   0.362981   0.000434   0.000014
    26  H   -0.000000  -0.000000   0.000000   0.000000  -0.000000  -0.000000
    27  H   -0.000000  -0.000000   0.000000  -0.000000   0.000000  -0.000000
    28  H   -0.000000   0.000000   0.000000  -0.000000  -0.000000   0.000000
    29  H   -0.000000   0.000000   0.000000   0.000000  -0.000000   0.000000
    30  H   -0.000000   0.000000  -0.000000  -0.000000  -0.000000   0.000000
    31  H    0.000000  -0.000000  -0.000000   0.000000   0.000000  -0.000000
    32  H    0.000000  -0.000000   0.000000  -0.000000   0.000000  -0.000000
    33  H   -0.000000  -0.000000   0.000000   0.000000   0.000000  -0.000000
    34  H    0.000000   0.000000  -0.000000  -0.000000   0.000000   0.000000
               7          8          9         10         11         12
     1  C   -0.009227  -0.000557   0.000008  -0.000000   0.000000   0.000000
     2  C    0.002195   0.003875  -0.000095   0.000004   0.000000  -0.000000
     3  C   -0.005864  -0.000432   0.000033  -0.000000  -0.000000  -0.000000
     4  C    0.000191  -0.000174   0.000000  -0.000000   0.000000   0.000000
     5  O   -0.074523  -0.087688   0.001738  -0.000206  -0.000000   0.000000
     6  C    0.510154   0.243924  -0.052194   0.005642   0.000445  -0.000207
     7  O    8.068823  -0.075868   0.001279   0.000418   0.000000  -0.000000
     8  N   -0.075868   6.936774   0.234646  -0.052399   0.001340   0.001755
     9  N    0.001279   0.234646   6.938321   0.244482  -0.076462  -0.087873
    10  C    0.000418  -0.052399   0.244482   4.238561   0.510214   0.297232
    11  O    0.000000   0.001340  -0.076462   0.510214   8.068495  -0.074170
    12  O   -0.000000   0.001755  -0.087873   0.297232  -0.074170   8.298981
    13  C    0.000000  -0.000096   0.003901  -0.014533   0.002233   0.174990
    14  C    0.000000   0.000008  -0.000530  -0.005931  -0.008997  -0.040669
    15  C    0.000000   0.000000  -0.000176   0.003323   0.000191  -0.045207
    16  C   -0.000000   0.000035  -0.000458  -0.004337  -0.005878  -0.042210
    17  H    0.000293   0.000006  -0.000000   0.000000   0.000000  -0.000000
    18  H    0.000020  -0.000014   0.000002  -0.000000   0.000000  -0.000000
    19  H    0.011882   0.000124  -0.000003  -0.000000   0.000000   0.000000
    20  H    0.000127   0.000005  -0.000000   0.000000  -0.000000   0.000000
    21  H    0.008685   0.000071  -0.000007  -0.000000  -0.000000   0.000000
    22  H    0.000058   0.000000  -0.000007  -0.000000   0.000000   0.000000
    23  H    0.000009   0.000002  -0.000000   0.000000  -0.000000  -0.000000
    24  H    0.000004   0.000003  -0.000000  -0.000000   0.000000   0.000000
    25  H    0.000002   0.000001   0.000000   0.000000   0.000000  -0.000000
    26  H    0.000000   0.000002  -0.000013   0.000686   0.000028   0.000007
    27  H    0.000000  -0.000003   0.000124   0.000999   0.011772  -0.002916
    28  H    0.000000  -0.000000   0.000006   0.000320   0.000285   0.002583
    29  H    0.000000   0.000000   0.000001   0.000016   0.000002   0.000432
    30  H   -0.000000  -0.000000   0.000002  -0.000038   0.000009   0.002894
    31  H    0.000000  -0.000000   0.000003  -0.000036   0.000004   0.000337
    32  H   -0.000000  -0.000008   0.000072   0.002084   0.008728  -0.003208
    33  H    0.000000  -0.000007   0.000000   0.000377   0.000052   0.000070
    34  H   -0.000000  -0.000000   0.000005   0.000188   0.000126   0.002687
              13         14         15         16         17         18
     1  C   -0.000000  -0.000000   0.000000  -0.000000   0.360944   0.362120
     2  C    0.000000  -0.000000  -0.000000  -0.000000  -0.024811  -0.028127
     3  C   -0.000000  -0.000000   0.000000  -0.000000  -0.002242   0.005563
     4  C   -0.000000   0.000000   0.000000   0.000000  -0.002996  -0.006528
     5  O   -0.000000   0.000000   0.000000  -0.000000   0.002613  -0.000003
     6  C    0.000004  -0.000000  -0.000000  -0.000000   0.000329   0.000705
     7  O    0.000000   0.000000   0.000000  -0.000000   0.000293   0.000020
     8  N   -0.000096   0.000008   0.000000   0.000035   0.000006  -0.000014
     9  N    0.003901  -0.000530  -0.000176  -0.000458  -0.000000   0.000002
    10  C   -0.014533  -0.005931   0.003323  -0.004337   0.000000  -0.000000
    11  O    0.002233  -0.008997   0.000191  -0.005878   0.000000   0.000000
    12  O    0.174990  -0.040669  -0.045207  -0.042210  -0.000000  -0.000000
    13  C    4.582471   0.380221   0.404544   0.378243   0.000000  -0.000000
    14  C    0.380221   5.200430  -0.072012  -0.063861  -0.000000  -0.000000
    15  C    0.404544  -0.072012   5.153792  -0.073852  -0.000000   0.000000
    16  C    0.378243  -0.063861  -0.073852   5.193074   0.000000   0.000000
    17  H    0.000000  -0.000000  -0.000000   0.000000   0.566254  -0.026548
    18  H   -0.000000  -0.000000   0.000000   0.000000  -0.026548   0.566709
    19  H   -0.000000  -0.000000  -0.000000   0.000000  -0.025457  -0.029357
    20  H    0.000000   0.000000  -0.000000  -0.000000   0.001509  -0.000037
    21  H   -0.000000   0.000000  -0.000000   0.000000   0.000193  -0.000018
    22  H   -0.000000  -0.000000   0.000000   0.000000  -0.000027  -0.000186
    23  H    0.000000  -0.000000  -0.000000  -0.000000   0.001854   0.000180
    24  H   -0.000000   0.000000   0.000000  -0.000000  -0.000001  -0.000041
    25  H    0.000000  -0.000000   0.000000   0.000000   0.000086   0.004462
    26  H   -0.028110   0.362160  -0.006503   0.005548  -0.000000   0.000000
    27  H   -0.024049   0.365888   0.005056  -0.004860  -0.000000   0.000000
    28  H   -0.024681   0.361117  -0.002963  -0.002304   0.000000  -0.000000
    29  H   -0.025217  -0.005812   0.362871   0.005979   0.000000  -0.000000
    30  H   -0.026662  -0.002117   0.365572  -0.001916   0.000000  -0.000000
    31  H   -0.025385   0.005998   0.362262  -0.005914  -0.000000  -0.000000
    32  H   -0.024230  -0.005236   0.005176   0.367022  -0.000000   0.000000
    33  H   -0.027800   0.005527  -0.006403   0.362322  -0.000000  -0.000000
    34  H   -0.023844  -0.002062  -0.002867   0.362500  -0.000000  -0.000000
              19         20         21         22         23         24
     1  C    0.365928  -0.002134  -0.005231   0.005520  -0.002171   0.006009
     2  C   -0.024136  -0.023787  -0.024174  -0.027768  -0.026611  -0.025413
     3  C   -0.004898   0.362443   0.367048   0.362392  -0.001905  -0.005831
     4  C    0.005068  -0.002845   0.005160  -0.006342   0.365616   0.362239
     5  O   -0.002925   0.002651  -0.003174   0.000062   0.002865   0.000344
     6  C    0.000897   0.000184   0.002069   0.000365  -0.000037  -0.000034
     7  O    0.011882   0.000127   0.008685   0.000058   0.000009   0.000004
     8  N    0.000124   0.000005   0.000071   0.000000   0.000002   0.000003
     9  N   -0.000003  -0.000000  -0.000007  -0.000007  -0.000000  -0.000000
    10  C   -0.000000   0.000000  -0.000000  -0.000000   0.000000  -0.000000
    11  O    0.000000  -0.000000  -0.000000   0.000000  -0.000000   0.000000
    12  O    0.000000   0.000000   0.000000   0.000000  -0.000000   0.000000
    13  C   -0.000000   0.000000  -0.000000  -0.000000   0.000000  -0.000000
    14  C   -0.000000   0.000000   0.000000  -0.000000  -0.000000   0.000000
    15  C   -0.000000  -0.000000  -0.000000   0.000000  -0.000000   0.000000
    16  C    0.000000  -0.000000   0.000000   0.000000  -0.000000  -0.000000
    17  H   -0.025457   0.001509   0.000193  -0.000027   0.001854  -0.000001
    18  H   -0.029357  -0.000037  -0.000018  -0.000186   0.000180  -0.000041
    19  H    0.510723   0.000181   0.002391  -0.000030   0.000008  -0.000181
    20  H    0.000181   0.562757  -0.026476  -0.026826   0.001758   0.000105
    21  H    0.002391  -0.026476   0.521961  -0.030075   0.000014  -0.000064
    22  H   -0.000030  -0.026826  -0.030075   0.567655   0.000157   0.004427
    23  H    0.000008   0.001758   0.000014   0.000157   0.560597  -0.027324
    24  H   -0.000181   0.000105  -0.000064   0.004427  -0.027324   0.560726
    25  H   -0.000056  -0.000007  -0.000180  -0.000045  -0.027048  -0.029517
    26  H    0.000000  -0.000000   0.000000  -0.000000  -0.000000  -0.000000
    27  H   -0.000000  -0.000000  -0.000000  -0.000000   0.000000  -0.000000
    28  H   -0.000000  -0.000000  -0.000000  -0.000000   0.000000  -0.000000
    29  H    0.000000  -0.000000  -0.000000  -0.000000  -0.000000  -0.000000
    30  H    0.000000   0.000000   0.000000  -0.000000   0.000000  -0.000000
    31  H   -0.000000   0.000000   0.000000   0.000000  -0.000000   0.000000
    32  H   -0.000000   0.000000   0.000000   0.000000   0.000000   0.000000
    33  H   -0.000000   0.000000   0.000000   0.000000  -0.000000   0.000000
    34  H   -0.000000   0.000000   0.000000   0.000000   0.000000   0.000000
              25         26         27         28         29         30
     1  C   -0.005843  -0.000000  -0.000000  -0.000000  -0.000000  -0.000000
     2  C   -0.025217  -0.000000  -0.000000   0.000000   0.000000   0.000000
     3  C    0.005965   0.000000   0.000000   0.000000   0.000000  -0.000000
     4  C    0.362981   0.000000  -0.000000  -0.000000   0.000000  -0.000000
     5  O    0.000434  -0.000000   0.000000  -0.000000  -0.000000  -0.000000
     6  C    0.000014  -0.000000  -0.000000   0.000000   0.000000   0.000000
     7  O    0.000002   0.000000   0.000000   0.000000   0.000000  -0.000000
     8  N    0.000001   0.000002  -0.000003  -0.000000   0.000000  -0.000000
     9  N    0.000000  -0.000013   0.000124   0.000006   0.000001   0.000002
    10  C    0.000000   0.000686   0.000999   0.000320   0.000016  -0.000038
    11  O    0.000000   0.000028   0.011772   0.000285   0.000002   0.000009
    12  O   -0.000000   0.000007  -0.002916   0.002583   0.000432   0.002894
    13  C    0.000000  -0.028110  -0.024049  -0.024681  -0.025217  -0.026662
    14  C   -0.000000   0.362160   0.365888   0.361117  -0.005812  -0.002117
    15  C    0.000000  -0.006503   0.005056  -0.002963   0.362871   0.365572
    16  C    0.000000   0.005548  -0.004860  -0.002304   0.005979  -0.001916
    17  H    0.000086  -0.000000  -0.000000   0.000000   0.000000   0.000000
    18  H    0.004462   0.000000   0.000000  -0.000000  -0.000000  -0.000000
    19  H   -0.000056   0.000000  -0.000000  -0.000000   0.000000   0.000000
    20  H   -0.000007  -0.000000  -0.000000  -0.000000  -0.000000   0.000000
    21  H   -0.000180   0.000000  -0.000000  -0.000000  -0.000000   0.000000
    22  H   -0.000045  -0.000000  -0.000000  -0.000000  -0.000000  -0.000000
    23  H   -0.027048  -0.000000   0.000000   0.000000  -0.000000   0.000000
    24  H   -0.029517  -0.000000  -0.000000  -0.000000  -0.000000  -0.000000
    25  H    0.556862   0.000000   0.000000   0.000000   0.000000  -0.000000
    26  H    0.000000   0.566696  -0.029355  -0.026648   0.004454   0.000175
    27  H    0.000000  -0.029355   0.510921  -0.025501  -0.000057   0.000008
    28  H    0.000000  -0.026648  -0.025501   0.565842   0.000083   0.001837
    29  H    0.000000   0.004454  -0.000057   0.000083   0.557103  -0.027012
    30  H   -0.000000   0.000175   0.000008   0.001837  -0.027012   0.560606
    31  H   -0.000000  -0.000040  -0.000180  -0.000003  -0.029551  -0.027300
    32  H   -0.000000  -0.000018   0.002385   0.000195  -0.000181   0.000014
    33  H   -0.000000  -0.000186  -0.000031  -0.000024  -0.000046   0.000161
    34  H   -0.000000  -0.000039   0.000176   0.001510  -0.000007   0.001764
              31         32         33         34
     1  C    0.000000   0.000000  -0.000000   0.000000
     2  C   -0.000000  -0.000000  -0.000000   0.000000
     3  C   -0.000000   0.000000   0.000000  -0.000000
     4  C    0.000000  -0.000000   0.000000  -0.000000
     5  O    0.000000   0.000000   0.000000   0.000000
     6  C   -0.000000  -0.000000  -0.000000   0.000000
     7  O    0.000000  -0.000000   0.000000  -0.000000
     8  N   -0.000000  -0.000008  -0.000007  -0.000000
     9  N    0.000003   0.000072   0.000000   0.000005
    10  C   -0.000036   0.002084   0.000377   0.000188
    11  O    0.000004   0.008728   0.000052   0.000126
    12  O    0.000337  -0.003208   0.000070   0.002687
    13  C   -0.025385  -0.024230  -0.027800  -0.023844
    14  C    0.005998  -0.005236   0.005527  -0.002062
    15  C    0.362262   0.005176  -0.006403  -0.002867
    16  C   -0.005914   0.367022   0.362322   0.362500
    17  H   -0.000000  -0.000000  -0.000000  -0.000000
    18  H   -0.000000   0.000000  -0.000000  -0.000000
    19  H   -0.000000  -0.000000  -0.000000  -0.000000
    20  H    0.000000   0.000000   0.000000   0.000000
    21  H    0.000000   0.000000   0.000000   0.000000
    22  H    0.000000   0.000000   0.000000   0.000000
    23  H   -0.000000   0.000000  -0.000000   0.000000
    24  H    0.000000   0.000000   0.000000   0.000000
    25  H   -0.000000  -0.000000  -0.000000  -0.000000
    26  H   -0.000040  -0.000018  -0.000186  -0.000039
    27  H   -0.000180   0.002385  -0.000031   0.000176
    28  H   -0.000003   0.000195  -0.000024   0.001510
    29  H   -0.029551  -0.000181  -0.000046  -0.000007
    30  H   -0.027300   0.000014   0.000161   0.001764
    31  H    0.560760  -0.000063   0.004461   0.000108
    32  H   -0.000063   0.521901  -0.030108  -0.026384
    33  H    0.004461  -0.030108   0.567695  -0.026682
    34  H    0.000108  -0.026384  -0.026682   0.562500
 Mulliken charges:
               1
     1  C   -0.474340
     2  C    0.318508
     3  C   -0.468940
     4  C   -0.452848
     5  O   -0.487201
     6  C    0.773745
     7  O   -0.438658
     8  N   -0.205322
     9  N   -0.206804
    10  C    0.772935
    11  O   -0.438415
    12  O   -0.485510
    13  C    0.318001
    14  C   -0.474122
    15  C   -0.452802
    16  C   -0.469133
    17  H    0.148001
    18  H    0.151101
    19  H    0.189839
    20  H    0.150393
    21  H    0.181808
    22  H    0.150669
    23  H    0.152035
    24  H    0.154549
    25  H    0.157106
    26  H    0.151157
    27  H    0.189624
    28  H    0.148346
    29  H    0.156941
    30  H    0.152001
    31  H    0.154538
    32  H    0.181858
    33  H    0.150621
    34  H    0.150320
 Sum of Mulliken charges =   0.00000
 Mulliken charges with hydrogens summed into heavy atoms:
               1
     1  C    0.014601
     2  C    0.318508
     3  C    0.013930
     4  C    0.010841
     5  O   -0.487201
     6  C    0.773745
     7  O   -0.438658
     8  N   -0.205322
     9  N   -0.206804
    10  C    0.772935
    11  O   -0.438415
    12  O   -0.485510
    13  C    0.318001
    14  C    0.015005
    15  C    0.010678
    16  C    0.013666
 APT charges:
               1
     1  C   -0.060381
     2  C    0.688564
     3  C   -0.042703
     4  C    0.018567
     5  O   -0.980046
     6  C    1.299154
     7  O   -0.669600
     8  N   -0.241286
     9  N   -0.240239
    10  C    1.299054
    11  O   -0.669650
    12  O   -0.978536
    13  C    0.686903
    14  C   -0.059158
    15  C    0.018940
    16  C   -0.043189
    17  H   -0.007851
    18  H   -0.013559
    19  H    0.040425
    20  H   -0.004968
    21  H    0.022477
    22  H   -0.015212
    23  H   -0.009646
    24  H   -0.013158
    25  H   -0.011421
    26  H   -0.013777
    27  H    0.039778
    28  H   -0.007709
    29  H   -0.011711
    30  H   -0.009670
    31  H   -0.013089
    32  H    0.022567
    33  H   -0.015119
    34  H   -0.004751
 Sum of APT charges =   0.00000
 APT charges with hydrogens summed into heavy atoms:
               1
     1  C   -0.041366
     2  C    0.688564
     3  C   -0.040407
     4  C   -0.015658
     5  O   -0.980046
     6  C    1.299154
     7  O   -0.669600
     8  N   -0.241286
     9  N   -0.240239
    10  C    1.299054
    11  O   -0.669650
    12  O   -0.978536
    13  C    0.686903
    14  C   -0.040866
    15  C   -0.015530
    16  C   -0.040492
 Electronic spatial extent (au):  <R**2>=           6390.2390
 Charge=              0.0000 electrons
 Dipole moment (field-independent basis, Debye):
    X=              0.0176    Y=              1.8494    Z=              0.1788  Tot=              1.8581
 Quadrupole moment (field-independent basis, Debye-Ang):
   XX=            -69.0871   YY=            -94.7665   ZZ=           -102.5435
   XY=              0.2487   XZ=             -2.8726   YZ=              0.7673
 Traceless Quadrupole moment (field-independent basis, Debye-Ang):
   XX=             19.7120   YY=             -5.9675   ZZ=            -13.7445
   XY=              0.2487   XZ=             -2.8726   YZ=              0.7673
 Octapole moment (field-independent basis, Debye-Ang**2):
  XXX=              0.1344  YYY=             -4.4452  ZZZ=              1.1903  XYY=             -1.7420
  XXY=             13.8319  XXZ=              1.4042  XZZ=              1.7989  YZZ=              3.9530
  YYZ=             -1.2717  XYZ=              9.2482
 Hexadecapole moment (field-independent basis, Debye-Ang**3):
 XXXX=          -6612.0918 YYYY=           -566.9369 ZZZZ=           -563.7323 XXXY=             -2.2783
 XXXZ=             18.4140 YYYX=              2.0062 YYYZ=              1.4335 ZZZX=             -6.4140
 ZZZY=             -1.5263 XXYY=          -1316.6758 XXZZ=          -1328.3061 YYZZ=           -193.2455
 XXYZ=              1.2150 YYXZ=             -7.9299 ZZXY=             -1.0662
 N-N= 1.139517024818D+03 E-N=-4.149514372970D+03  KE= 7.949273400089D+02
  Exact polarizability: 193.687   0.207 108.646  -2.326  -0.545 114.054
 Approx polarizability: 221.589   0.409 155.934  -3.489  -3.039 187.136
 Calling FoFJK, ICntrl=    100127 FMM=F ISym2X=0 I1Cent= 0 IOpClX= 0 NMat=1 NMatS=1 NMatT=0.
 ***** Axes restored to original set *****
 -------------------------------------------------------------------
 Center     Atomic                   Forces (Hartrees/Bohr)
 Number     Number              X              Y              Z
 -------------------------------------------------------------------
      1        6           0.006197013   -0.009423773    0.006262041
      2        6          -0.011540614   -0.006612300   -0.023496525
      3        6           0.012286208    0.001712236    0.002436638
      4        6          -0.001291218    0.007025057    0.012172324
      5        8           0.014878592   -0.000892003    0.021218595
      6        6          -0.008357710   -0.028788047   -0.077442518
      7        8          -0.009747938    0.012661983    0.018012434
      8        7           0.007388965    0.020805350    0.039877276
      9        7          -0.006554594   -0.011908141   -0.043453899
     10        6           0.006615040    0.031963900    0.075086665
     11        8           0.010831498   -0.003956921   -0.020710522
     12        8          -0.015082144   -0.015723188   -0.015488102
     13        6           0.011635960    0.012275520    0.022323641
     14        6          -0.006570779   -0.010510422    0.001624416
     15        6           0.001773504   -0.003339054   -0.013790577
     16        6          -0.012131384    0.000076211   -0.003270736
     17        1          -0.001324841    0.003612614    0.000102730
     18        1          -0.002312799    0.001828574   -0.001020894
     19        1           0.000336667    0.002551864   -0.001792087
     20        1          -0.002754969   -0.000009492    0.002179828
     21        1          -0.000866166   -0.002695770    0.001260692
     22        1          -0.002828161    0.000694956   -0.000298121
     23        1           0.003613816   -0.001404137    0.001290205
     24        1           0.001337580    0.000142391   -0.001253423
     25        1           0.000406678   -0.001756500   -0.000358729
     26        1           0.002405668    0.001810135   -0.000619109
     27        1          -0.000582005    0.002926103   -0.000579644
     28        1           0.001444118    0.002414415   -0.002741245
     29        1          -0.000569107   -0.000960251    0.001568076
     30        1          -0.003594566   -0.001686846    0.000114689
     31        1          -0.001272836    0.000876081    0.000982968
     32        1           0.000687485   -0.002739776    0.001157048
     33        1           0.002884779    0.000613270    0.000005622
     34        1           0.002658260   -0.001584039   -0.001359755
 -------------------------------------------------------------------
 Cartesian Forces:  Max     0.077442518 RMS     0.015019913
 FormGI is forming the generalized inverse of G from B-inverse, IUseBI=4.

 GradGradGradGradGradGradGradGradGradGradGradGradGradGradGradGradGradGrad
 Berny optimization.
 Internal  Forces:  Max     0.045376234 RMS     0.007257055
 Search for a local minimum.
 Step number   1 out of a maximum of  170
 All quantities printed in internal units (Hartrees-Bohrs-Radians)
 Mixed Optimization -- RFO/linear search
 Second derivative matrix not updated -- analytic derivatives used.
 ITU=  0
     Eigenvalues ---   -0.00294  -0.00113   0.00150   0.00151   0.00277
     Eigenvalues ---    0.00277   0.00328   0.00330   0.00768   0.00789
     Eigenvalues ---    0.02497   0.02563   0.04551   0.04554   0.04599
     Eigenvalues ---    0.04605   0.04665   0.04694   0.04716   0.04722
     Eigenvalues ---    0.04742   0.04748   0.04878   0.04882   0.04896
     Eigenvalues ---    0.04911   0.05758   0.05763   0.06801   0.06889
     Eigenvalues ---    0.07405   0.10079   0.11333   0.11375   0.11635
     Eigenvalues ---    0.12198   0.12206   0.12233   0.12243   0.12789
     Eigenvalues ---    0.12790   0.13998   0.14014   0.14340   0.14352
     Eigenvalues ---    0.14877   0.14888   0.15221   0.15308   0.15413
     Eigenvalues ---    0.15420   0.17880   0.17917   0.19753   0.19764
     Eigenvalues ---    0.20740   0.22279   0.22919   0.23343   0.26059
     Eigenvalues ---    0.26744   0.26944   0.27051   0.27868   0.27904
     Eigenvalues ---    0.29449   0.29628   0.31461   0.31659   0.33654
     Eigenvalues ---    0.33686   0.33837   0.33839   0.33857   0.33873
     Eigenvalues ---    0.33914   0.33931   0.34222   0.34232   0.34271
     Eigenvalues ---    0.34307   0.34562   0.34595   0.34919   0.35052
     Eigenvalues ---    0.35137   0.35154   0.35322   0.35587   0.47358
     Eigenvalues ---    0.51840   0.54510   0.54986   0.78436   0.79036
     Eigenvalues ---    0.79586
 RFO step:  Lambda=-2.90106504D-02 EMin=-2.93855353D-03
 Linear search not attempted -- first point.
 Maximum step size (   0.300) exceeded in Quadratic search.
    -- Step size scaled by   0.957
 Iteration  1 RMS(Cart)=  0.16382926 RMS(Int)=  0.04580289
 Iteration  2 RMS(Cart)=  0.15205123 RMS(Int)=  0.02325423
 Iteration  3 RMS(Cart)=  0.14652930 RMS(Int)=  0.00425543
 Iteration  4 RMS(Cart)=  0.01039872 RMS(Int)=  0.00057525
 Iteration  5 RMS(Cart)=  0.00005394 RMS(Int)=  0.00057489
 Iteration  6 RMS(Cart)=  0.00000004 RMS(Int)=  0.00057489
 Variable       Old X    -DE/DX   Delta X   Delta X   Delta X     New X
                                 (Linear)    (Quad)   (Total)
    R1        2.89887   0.00077   0.00000  -0.00181  -0.00181   2.89706
    R2        2.06949  -0.00050   0.00000  -0.00060  -0.00060   2.06889
    R3        2.07167   0.00016   0.00000  -0.00108  -0.00108   2.07059
    R4        2.06594  -0.00127   0.00000  -0.00307  -0.00307   2.06287
    R5        2.89896  -0.00049   0.00000  -0.00319  -0.00319   2.89577
    R6        2.90861  -0.00320   0.00000  -0.01477  -0.01477   2.89384
    R7        2.74755   0.00302   0.00000   0.02954   0.02954   2.77709
    R8        2.07018  -0.00098   0.00000  -0.00133  -0.00133   2.06885
    R9        2.06548   0.00043   0.00000  -0.00096  -0.00096   2.06452
   R10        2.07115   0.00026   0.00000  -0.00062  -0.00062   2.07053
   R11        2.07183  -0.00230   0.00000  -0.00385  -0.00385   2.06798
   R12        2.07111   0.00019   0.00000  -0.00142  -0.00142   2.06969
   R13        2.07128  -0.00004   0.00000  -0.00191  -0.00191   2.06936
   R14        2.58366  -0.02250   0.00000  -0.06791  -0.06791   2.51575
   R15        2.31655  -0.02272   0.00000  -0.03679  -0.03679   2.27976
   R16        2.60383   0.04538   0.00000   0.13048   0.13048   2.73430
   R17        2.37285  -0.00510   0.00000  -0.02080  -0.02080   2.35205
   R18        2.60520   0.04532   0.00000   0.09438   0.09438   2.69958
   R19        2.31627  -0.02249   0.00000  -0.03316  -0.03316   2.28311
   R20        2.58151  -0.02197   0.00000  -0.06931  -0.06931   2.51220
   R21        2.74271   0.00425   0.00000   0.03984   0.03984   2.78255
   R22        2.89965   0.00025   0.00000  -0.00383  -0.00383   2.89582
   R23        2.90791  -0.00289   0.00000  -0.01431  -0.01431   2.89360
   R24        2.89961  -0.00026   0.00000  -0.00527  -0.00527   2.89434
   R25        2.07139   0.00027   0.00000  -0.00094  -0.00094   2.07045
   R26        2.06502  -0.00087   0.00000  -0.00219  -0.00219   2.06283
   R27        2.07008  -0.00070   0.00000  -0.00088  -0.00088   2.06920
   R28        2.07165  -0.00014   0.00000  -0.00228  -0.00228   2.06938
   R29        2.07130  -0.00212   0.00000  -0.00325  -0.00325   2.06806
   R30        2.07190  -0.00009   0.00000  -0.00207  -0.00207   2.06983
   R31        2.06545   0.00044   0.00000  -0.00071  -0.00071   2.06474
   R32        2.07146   0.00014   0.00000  -0.00087  -0.00087   2.07059
   R33        2.06970  -0.00086   0.00000  -0.00112  -0.00112   2.06858
    A1        1.94369  -0.00472   0.00000  -0.03068  -0.03095   1.91274
    A2        1.92926  -0.00083   0.00000  -0.00069  -0.00079   1.92847
    A3        1.96133  -0.00128   0.00000  -0.01265  -0.01278   1.94856
    A4        1.89224   0.00135   0.00000   0.00044   0.00021   1.89245
    A5        1.87543   0.00294   0.00000   0.01792   0.01764   1.89307
    A6        1.85825   0.00305   0.00000   0.02900   0.02904   1.88729
    A7        1.95914  -0.00271   0.00000  -0.00520  -0.00658   1.95256
    A8        1.88232   0.00258   0.00000   0.03549   0.03502   1.91734
    A9        1.93741   0.00271   0.00000  -0.00523  -0.00495   1.93245
   A10        1.88342   0.00505   0.00000   0.03799   0.03747   1.92089
   A11        1.94459  -0.00095   0.00000  -0.01795  -0.01760   1.92699
   A12        1.85178  -0.00669   0.00000  -0.04380  -0.04335   1.80844
   A13        1.94232  -0.00410   0.00000  -0.02664  -0.02689   1.91543
   A14        1.96247  -0.00223   0.00000  -0.01590  -0.01602   1.94645
   A15        1.93102  -0.00070   0.00000  -0.00142  -0.00148   1.92953
   A16        1.87360   0.00304   0.00000   0.01775   0.01746   1.89106
   A17        1.89149   0.00134   0.00000   0.00096   0.00077   1.89226
   A18        1.85926   0.00316   0.00000   0.02848   0.02852   1.88779
   A19        1.94554  -0.00483   0.00000  -0.02285  -0.02299   1.92255
   A20        1.93974  -0.00025   0.00000  -0.00463  -0.00470   1.93504
   A21        1.93895  -0.00038   0.00000  -0.00470  -0.00476   1.93419
   A22        1.88878   0.00196   0.00000   0.00662   0.00648   1.89525
   A23        1.88828   0.00206   0.00000   0.00749   0.00735   1.89563
   A24        1.85936   0.00185   0.00000   0.02056   0.02057   1.87993
   A25        2.09781   0.00690   0.00000   0.01379   0.01379   2.11160
   A26        2.16791   0.01756   0.00000   0.06856   0.06849   2.23640
   A27        1.91647  -0.01786   0.00000  -0.05860  -0.05866   1.85780
   A28        2.19878   0.00028   0.00000  -0.01010  -0.01015   2.18863
   A29        1.95607   0.00267   0.00000  -0.01967  -0.01967   1.93640
   A30        1.95659   0.00234   0.00000   0.00337   0.00337   1.95996
   A31        2.19690   0.00120   0.00000  -0.05997  -0.06159   2.13532
   A32        1.91570  -0.01775   0.00000  -0.02305  -0.02485   1.89085
   A33        2.17057   0.01656   0.00000   0.08338   0.08134   2.25192
   A34        2.09852   0.00644   0.00000   0.01183   0.01183   2.11034
   A35        1.94443   0.00197   0.00000  -0.01452  -0.01421   1.93021
   A36        1.84988  -0.00642   0.00000  -0.04394  -0.04345   1.80643
   A37        1.93903  -0.00040   0.00000  -0.01148  -0.01112   1.92791
   A38        1.88350   0.00273   0.00000   0.03545   0.03484   1.91834
   A39        1.95944  -0.00269   0.00000  -0.00319  -0.00465   1.95479
   A40        1.88219   0.00482   0.00000   0.03900   0.03847   1.92066
   A41        1.93076  -0.00092   0.00000  -0.00188  -0.00196   1.92880
   A42        1.96247  -0.00149   0.00000  -0.01526  -0.01537   1.94710
   A43        1.94234  -0.00470   0.00000  -0.02897  -0.02923   1.91311
   A44        1.85889   0.00312   0.00000   0.02822   0.02826   1.88716
   A45        1.89120   0.00145   0.00000   0.00125   0.00102   1.89222
   A46        1.87449   0.00308   0.00000   0.02002   0.01974   1.89423
   A47        1.93972  -0.00046   0.00000  -0.00511  -0.00519   1.93453
   A48        1.94641  -0.00481   0.00000  -0.02396  -0.02412   1.92229
   A49        1.93855  -0.00020   0.00000  -0.00334  -0.00341   1.93514
   A50        1.88878   0.00205   0.00000   0.00717   0.00701   1.89580
   A51        1.85858   0.00189   0.00000   0.02152   0.02153   1.88011
   A52        1.88856   0.00195   0.00000   0.00630   0.00617   1.89472
   A53        1.96124  -0.00208   0.00000  -0.01466  -0.01478   1.94646
   A54        1.92846  -0.00053   0.00000   0.00067   0.00062   1.92908
   A55        1.94361  -0.00406   0.00000  -0.02629  -0.02651   1.91710
   A56        1.85880   0.00308   0.00000   0.02701   0.02705   1.88585
[...]
    30    C    2  dz2    Ryd( 3d)     0.00117
 
    31    C    3  S      Cor( 1S)     1.99932
    32    C    3  S      Val( 2S)     1.09990
    33    C    3  S      Ryd( 3S)     0.00050
    34    C    3  S      Ryd( 4S)     0.00002
    35    C    3  px     Val( 2p)     1.22338
    36    C    3  px     Ryd( 3p)     0.00130
    37    C    3  py     Val( 2p)     1.22455
    38    C    3  py     Ryd( 3p)     0.00217
    39    C    3  pz     Val( 2p)     1.14708
    40    C    3  pz     Ryd( 3p)     0.00185
    41    C    3  dxy    Ryd( 3d)     0.00029
    42    C    3  dxz    Ryd( 3d)     0.00063
    43    C    3  dyz    Ryd( 3d)     0.00048
    44    C    3  dx2y2  Ryd( 3d)     0.00106
    45    C    3  dz2    Ryd( 3d)     0.00082
 
    46    C    4  S      Cor( 1S)     1.99932
    47    C    4  S      Val( 2S)     1.09902
    48    C    4  S      Ryd( 3S)     0.00060
    49    C    4  S      Ryd( 4S)     0.00002
    50    C    4  px     Val( 2p)     1.24746
    51    C    4  px     Ryd( 3p)     0.00227
    52    C    4  py     Val( 2p)     1.07941
    53    C    4  py     Ryd( 3p)     0.00158
    54    C    4  pz     Val( 2p)     1.25113
    55    C    4  pz     Ryd( 3p)     0.00248
    56    C    4  dxy    Ryd( 3d)     0.00038
    57    C    4  dxz    Ryd( 3d)     0.00068
    58    C    4  dyz    Ryd( 3d)     0.00069
    59    C    4  dx2y2  Ryd( 3d)     0.00085
    60    C    4  dz2    Ryd( 3d)     0.00069
 
    61    O    5  S      Cor( 1S)     1.99970
    62    O    5  S      Val( 2S)     1.61523
    63    O    5  S      Ryd( 3S)     0.00231
    64    O    5  S      Ryd( 4S)     0.00015
    65    O    5  px     Val( 2p)     1.53913
    66    O    5  px     Ryd( 3p)     0.00143
    67    O    5  py     Val( 2p)     1.61310
    68    O    5  py     Ryd( 3p)     0.00165
    69    O    5  pz     Val( 2p)     1.76260
    70    O    5  pz     Ryd( 3p)     0.00198
    71    O    5  dxy    Ryd( 3d)     0.00137
    72    O    5  dxz    Ryd( 3d)     0.00041
    73    O    5  dyz    Ryd( 3d)     0.00162
    74    O    5  dx2y2  Ryd( 3d)     0.00136
    75    O    5  dz2    Ryd( 3d)     0.00082
 
    76    C    6  S      Cor( 1S)     1.99951
    77    C    6  S      Val( 2S)     0.72920
    78    C    6  S      Ryd( 3S)     0.00405
    79    C    6  S      Ryd( 4S)     0.00045
    80    C    6  px     Val( 2p)     0.80404
    81    C    6  px     Ryd( 3p)     0.00905
    82    C    6  py     Val( 2p)     0.70923
    83    C    6  py     Ryd( 3p)     0.02115
    84    C    6  pz     Val( 2p)     0.78061
    85    C    6  pz     Ryd( 3p)     0.00479
    86    C    6  dxy    Ryd( 3d)     0.00345
    87    C    6  dxz    Ryd( 3d)     0.00144
    88    C    6  dyz    Ryd( 3d)     0.00290
    89    C    6  dx2y2  Ryd( 3d)     0.00378
    90    C    6  dz2    Ryd( 3d)     0.00075
 
    91    O    7  S      Cor( 1S)     1.99976
    92    O    7  S      Val( 2S)     1.70717
    93    O    7  S      Ryd( 3S)     0.00085
    94    O    7  S      Ryd( 4S)     0.00013
    95    O    7  px     Val( 2p)     1.71232
    96    O    7  px     Ryd( 3p)     0.00112
    97    O    7  py     Val( 2p)     1.62161
    98    O    7  py     Ryd( 3p)     0.00071
    99    O    7  pz     Val( 2p)     1.48568
   100    O    7  pz     Ryd( 3p)     0.00070
   101    O    7  dxy    Ryd( 3d)     0.00500
   102    O    7  dxz    Ryd( 3d)     0.00133
   103    O    7  dyz    Ryd( 3d)     0.00407
   104    O    7  dx2y2  Ryd( 3d)     0.00490
   105    O    7  dz2    Ryd( 3d)     0.00161
 
   106    N    8  S      Cor( 1S)     1.99939
   107    N    8  S      Val( 2S)     1.39644
   108    N    8  S      Ryd( 3S)     0.00620
   109    N    8  S      Ryd( 4S)     0.00003
   110    N    8  px     Val( 2p)     1.12349
   111    N    8  px     Ryd( 3p)     0.00368
   112    N    8  py     Val( 2p)     1.45162
   113    N    8  py     Ryd( 3p)     0.00459
   114    N    8  pz     Val( 2p)     1.22906
   115    N    8  pz     Ryd( 3p)     0.00448
   116    N    8  dxy    Ryd( 3d)     0.00094
   117    N    8  dxz    Ryd( 3d)     0.00149
   118    N    8  dyz    Ryd( 3d)     0.00241
   119    N    8  dx2y2  Ryd( 3d)     0.00072
   120    N    8  dz2    Ryd( 3d)     0.00210
 
   121    N    9  S      Cor( 1S)     1.99939
   122    N    9  S      Val( 2S)     1.39644
   123    N    9  S      Ryd( 3S)     0.00620
   124    N    9  S      Ryd( 4S)     0.00003
   125    N    9  px     Val( 2p)     1.12349
   126    N    9  px     Ryd( 3p)     0.00368
   127    N    9  py     Val( 2p)     1.45161
   128    N    9  py     Ryd( 3p)     0.00459
   129    N    9  pz     Val( 2p)     1.22906
   130    N    9  pz     Ryd( 3p)     0.00448
   131    N    9  dxy    Ryd( 3d)     0.00094
   132    N    9  dxz    Ryd( 3d)     0.00149
   133    N    9  dyz    Ryd( 3d)     0.00241
   134    N    9  dx2y2  Ryd( 3d)     0.00072
   135    N    9  dz2    Ryd( 3d)     0.00210
 
   136    C   10  S      Cor( 1S)     1.99951
   137    C   10  S      Val( 2S)     0.72920
   138    C   10  S      Ryd( 3S)     0.00405
   139    C   10  S      Ryd( 4S)     0.00045
   140    C   10  px     Val( 2p)     0.80404
   141    C   10  px     Ryd( 3p)     0.00905
   142    C   10  py     Val( 2p)     0.70923
   143    C   10  py     Ryd( 3p)     0.02115
   144    C   10  pz     Val( 2p)     0.78061
   145    C   10  pz     Ryd( 3p)     0.00479
   146    C   10  dxy    Ryd( 3d)     0.00345
   147    C   10  dxz    Ryd( 3d)     0.00144
   148    C   10  dyz    Ryd( 3d)     0.00290
   149    C   10  dx2y2  Ryd( 3d)     0.00378
   150    C   10  dz2    Ryd( 3d)     0.00075
 
   151    O   11  S      Cor( 1S)     1.99976
   152    O   11  S      Val( 2S)     1.70717
   153    O   11  S      Ryd( 3S)     0.00085
   154    O   11  S      Ryd( 4S)     0.00013
   155    O   11  px     Val( 2p)     1.71232
   156    O   11  px     Ryd( 3p)     0.00112
   157    O   11  py     Val( 2p)     1.62161
   158    O   11  py     Ryd( 3p)     0.00071
   159    O   11  pz     Val( 2p)     1.48568
   160    O   11  pz     Ryd( 3p)     0.00070
   161    O   11  dxy    Ryd( 3d)     0.00500
   162    O   11  dxz    Ryd( 3d)     0.00133
   163    O   11  dyz    Ryd( 3d)     0.00407
   164    O   11  dx2y2  Ryd( 3d)     0.00490
   165    O   11  dz2    Ryd( 3d)     0.00161
 
   166    O   12  S      Cor( 1S)     1.99970
   167    O   12  S      Val( 2S)     1.61523
   168    O   12  S      Ryd( 3S)     0.00231
   169    O   12  S      Ryd( 4S)     0.00015
   170    O   12  px     Val( 2p)     1.53913
   171    O   12  px     Ryd( 3p)     0.00143
   172    O   12  py     Val( 2p)     1.61310
   173    O   12  py     Ryd( 3p)     0.00165
   174    O   12  pz     Val( 2p)     1.76260
   175    O   12  pz     Ryd( 3p)     0.00198
   176    O   12  dxy    Ryd( 3d)     0.00137
   177    O   12  dxz    Ryd( 3d)     0.00041
   178    O   12  dyz    Ryd( 3d)     0.00162
   179    O   12  dx2y2  Ryd( 3d)     0.00136
   180    O   12  dz2    Ryd( 3d)     0.00082
 
   181    C   13  S      Cor( 1S)     1.99900
   182    C   13  S      Val( 2S)     0.91191
   183    C   13  S      Ryd( 3S)     0.00081
   184    C   13  S      Ryd( 4S)     0.00004
   185    C   13  px     Val( 2p)     0.69329
   186    C   13  px     Ryd( 3p)     0.00422
   187    C   13  py     Val( 2p)     1.04230
   188    C   13  py     Ryd( 3p)     0.00475
   189    C   13  pz     Val( 2p)     1.05568
   190    C   13  pz     Ryd( 3p)     0.00286
   191    C   13  dxy    Ryd( 3d)     0.00101
   192    C   13  dxz    Ryd( 3d)     0.00121
   193    C   13  dyz    Ryd( 3d)     0.00083
   194    C   13  dx2y2  Ryd( 3d)     0.00179
   195    C   13  dz2    Ryd( 3d)     0.00117
 
   196    C   14  S      Cor( 1S)     1.99932
   197    C   14  S      Val( 2S)     1.09989
   198    C   14  S      Ryd( 3S)     0.00051
   199    C   14  S      Ryd( 4S)     0.00002
   200    C   14  px     Val( 2p)     1.20931
   201    C   14  px     Ryd( 3p)     0.00141
   202    C   14  py     Val( 2p)     1.26381
   203    C   14  py     Ryd( 3p)     0.00236
   204    C   14  pz     Val( 2p)     1.12275
   205    C   14  pz     Ryd( 3p)     0.00165
   206    C   14  dxy    Ryd( 3d)     0.00034
   207    C   14  dxz    Ryd( 3d)     0.00051
   208    C   14  dyz    Ryd( 3d)     0.00066
   209    C   14  dx2y2  Ryd( 3d)     0.00101
   210    C   14  dz2    Ryd( 3d)     0.00076
 
   211    C   15  S      Cor( 1S)     1.99932
   212    C   15  S      Val( 2S)     1.09902
   213    C   15  S      Ryd( 3S)     0.00060
   214    C   15  S      Ryd( 4S)     0.00002
   215    C   15  px     Val( 2p)     1.24746
   216    C   15  px     Ryd( 3p)     0.00227
   217    C   15  py     Val( 2p)     1.07941
   218    C   15  py     Ryd( 3p)     0.00158
   219    C   15  pz     Val( 2p)     1.25113
   220    C   15  pz     Ryd( 3p)     0.00248
   221    C   15  dxy    Ryd( 3d)     0.00038
   222    C   15  dxz    Ryd( 3d)     0.00068
   223    C   15  dyz    Ryd( 3d)     0.00069
   224    C   15  dx2y2  Ryd( 3d)     0.00085
   225    C   15  dz2    Ryd( 3d)     0.00069
 
   226    C   16  S      Cor( 1S)     1.99932
   227    C   16  S      Val( 2S)     1.09990
   228    C   16  S      Ryd( 3S)     0.00050
   229    C   16  S      Ryd( 4S)     0.00002
   230    C   16  px     Val( 2p)     1.22338
   231    C   16  px     Ryd( 3p)     0.00130
   232    C   16  py     Val( 2p)     1.22455
   233    C   16  py     Ryd( 3p)     0.00217
   234    C   16  pz     Val( 2p)     1.14708
   235    C   16  pz     Ryd( 3p)     0.00185
   236    C   16  dxy    Ryd( 3d)     0.00029
   237    C   16  dxz    Ryd( 3d)     0.00063
   238    C   16  dyz    Ryd( 3d)     0.00048
   239    C   16  dx2y2  Ryd( 3d)     0.00106
   240    C   16  dz2    Ryd( 3d)     0.00082
 
   241    H   17  S      Val( 1S)     0.75766
   242    H   17  S      Ryd( 2S)     0.00074
 
   243    H   18  S      Val( 1S)     0.75843
   244    H   18  S      Ryd( 2S)     0.00112
 
   245    H   19  S      Val( 1S)     0.74114
   246    H   19  S      Ryd( 2S)     0.00136
 
   247    H   20  S      Val( 1S)     0.75958
   248    H   20  S      Ryd( 2S)     0.00077
 
   249    H   21  S      Val( 1S)     0.74073
   250    H   21  S      Ryd( 2S)     0.00123
 
   251    H   22  S      Val( 1S)     0.75750
   252    H   22  S      Ryd( 2S)     0.00112
 
   253    H   23  S      Val( 1S)     0.76021
   254    H   23  S      Ryd( 2S)     0.00068
 
   255    H   24  S      Val( 1S)     0.75441
   256    H   24  S      Ryd( 2S)     0.00106
 
   257    H   25  S      Val( 1S)     0.75527
   258    H   25  S      Ryd( 2S)     0.00106
 
   259    H   26  S      Val( 1S)     0.75843
   260    H   26  S      Ryd( 2S)     0.00112
 
   261    H   27  S      Val( 1S)     0.74114
   262    H   27  S      Ryd( 2S)     0.00136
 
   263    H   28  S      Val( 1S)     0.75766
   264    H   28  S      Ryd( 2S)     0.00074
 
   265    H   29  S      Val( 1S)     0.75527
   266    H   29  S      Ryd( 2S)     0.00106
 
   267    H   30  S      Val( 1S)     0.76021
   268    H   30  S      Ryd( 2S)     0.00068
 
   269    H   31  S      Val( 1S)     0.75441
   270    H   31  S      Ryd( 2S)     0.00106
 
   271    H   32  S      Val( 1S)     0.74073
   272    H   32  S      Ryd( 2S)     0.00123
 
   273    H   33  S      Val( 1S)     0.75750
   274    H   33  S      Ryd( 2S)     0.00112
 
   275    H   34  S      Val( 1S)     0.75958
   276    H   34  S      Ryd( 2S)     0.00077

 WARNING:  1 low occupancy (<1.9990e) core orbital  found on  C    2
           1 low occupancy (<1.9990e) core orbital  found on  C   13


 Summary of Natural Population Analysis:                  
                                                          
                                       Natural Population 
                Natural  -----------------------------------------------
    Atom  No    Charge         Core      Valence    Rydberg      Total
 -----------------------------------------------------------------------
      C    1   -0.70429      1.99932     4.69575    0.00922     6.70429
      C    2    0.27912      1.99900     3.70318    0.01870     5.72088
      C    3   -0.70333      1.99932     4.69491    0.00911     6.70333
      C    4   -0.68657      1.99932     4.67703    0.01022     6.68657
      O    5   -0.54285      1.99970     6.53006    0.01309     8.54285
      C    6    0.92561      1.99951     3.02307    0.05180     5.07439
      O    7   -0.54696      1.99976     6.52679    0.02041     8.54696
      N    8   -0.22663      1.99939     5.20060    0.02664     7.22663
      N    9   -0.22663      1.99939     5.20060    0.02664     7.22663
      C   10    0.92561      1.99951     3.02307    0.05180     5.07439
      O   11   -0.54696      1.99976     6.52679    0.02041     8.54696
      O   12   -0.54285      1.99970     6.53006    0.01309     8.54285
      C   13    0.27912      1.99900     3.70318    0.01870     5.72088
      C   14   -0.70429      1.99932     4.69575    0.00922     6.70429
      C   15   -0.68657      1.99932     4.67703    0.01022     6.68657
      C   16   -0.70333      1.99932     4.69491    0.00911     6.70333
      H   17    0.24160      0.00000     0.75766    0.00074     0.75840
      H   18    0.24045      0.00000     0.75843    0.00112     0.75955
      H   19    0.25750      0.00000     0.74114    0.00136     0.74250
      H   20    0.23965      0.00000     0.75958    0.00077     0.76035
      H   21    0.25803      0.00000     0.74073    0.00123     0.74197
      H   22    0.24138      0.00000     0.75750    0.00112     0.75862
      H   23    0.23911      0.00000     0.76021    0.00068     0.76089
      H   24    0.24454      0.00000     0.75441    0.00106     0.75546
      H   25    0.24366      0.00000     0.75527    0.00106     0.75634
      H   26    0.24045      0.00000     0.75843    0.00112     0.75955
      H   27    0.25750      0.00000     0.74114    0.00136     0.74250
      H   28    0.24160      0.00000     0.75766    0.00074     0.75840
      H   29    0.24366      0.00000     0.75527    0.00106     0.75634
      H   30    0.23911      0.00000     0.76021    0.00068     0.76089
      H   31    0.24454      0.00000     0.75441    0.00106     0.75546
      H   32    0.25803      0.00000     0.74073    0.00123     0.74197
      H   33    0.24138      0.00000     0.75750    0.00112     0.75862
      H   34    0.23965      0.00000     0.75958    0.00077     0.76035
 =======================================================================
   * Total *    0.00000     31.99065    91.67264    0.33671   124.00000

                                 Natural Population      
 --------------------------------------------------------
   Core                      31.99065 ( 99.9708% of  32)
   Valence                   91.67264 ( 99.6442% of  92)
   Natural Minimal Basis    123.66329 ( 99.7285% of 124)
   Natural Rydberg Basis      0.33671 (  0.2715% of 124)
 --------------------------------------------------------

    Atom  No          Natural Electron Configuration
 ----------------------------------------------------------------------------
      C    1      [core]2S( 1.10)2p( 3.60)3p( 0.01)
      C    2      [core]2S( 0.91)2p( 2.79)3p( 0.01)3d( 0.01)
      C    3      [core]2S( 1.10)2p( 3.60)3p( 0.01)
      C    4      [core]2S( 1.10)2p( 3.58)3p( 0.01)
      O    5      [core]2S( 1.62)2p( 4.91)3p( 0.01)3d( 0.01)
      C    6      [core]2S( 0.73)2p( 2.29)3p( 0.03)3d( 0.01)
      O    7      [core]2S( 1.71)2p( 4.82)3d( 0.02)
      N    8      [core]2S( 1.40)2p( 3.80)3S( 0.01)3p( 0.01)3d( 0.01)
      N    9      [core]2S( 1.40)2p( 3.80)3S( 0.01)3p( 0.01)3d( 0.01)
      C   10      [core]2S( 0.73)2p( 2.29)3p( 0.03)3d( 0.01)
      O   11      [core]2S( 1.71)2p( 4.82)3d( 0.02)
      O   12      [core]2S( 1.62)2p( 4.91)3p( 0.01)3d( 0.01)
      C   13      [core]2S( 0.91)2p( 2.79)3p( 0.01)3d( 0.01)
      C   14      [core]2S( 1.10)2p( 3.60)3p( 0.01)
      C   15      [core]2S( 1.10)2p( 3.58)3p( 0.01)
      C   16      [core]2S( 1.10)2p( 3.60)3p( 0.01)
      H   17            1S( 0.76)
      H   18            1S( 0.76)
      H   19            1S( 0.74)
      H   20            1S( 0.76)
      H   21            1S( 0.74)
      H   22            1S( 0.76)
      H   23            1S( 0.76)
      H   24            1S( 0.75)
      H   25            1S( 0.76)
      H   26            1S( 0.76)
      H   27            1S( 0.74)
      H   28            1S( 0.76)
      H   29            1S( 0.76)
      H   30            1S( 0.76)
      H   31            1S( 0.75)
      H   32            1S( 0.74)
      H   33            1S( 0.76)
      H   34            1S( 0.76)


 NBO analysis skipped by request.
 1\1\GINC-DELLA-R2C2N8\SP\RB3LYP TD-FC\6-31G(d)\C10H18N2O4\BJS4\22-Aug-
 2020\0\\# TD(NStates=10, Root=1) B3LYP/6-31G* scf=qc volume pop=NPA de
 nsity=current Geom=AllCheck Guess=Read\\Title Card Required\\0,1\C,0,2
 .0242577542,0.7313404858,0.0576325779\C,0,3.5188298046,0.9147501273,-0
 .2155652578\C,0,4.13571084,-0.2770849307,-0.9511241951\C,0,3.791219704
 8,2.2245319484,-0.955318528\O,0,4.2361516746,1.1230289434,1.072758112\
 C,0,4.2329570595,0.194028099,2.0199894728\O,0,3.7133194391,-0.89459292
 42,2.0336755365\N,0,4.8896982347,0.7140843231,3.2085010705\N,0,6.13120
 83051,0.6468823659,3.1445171763\C,0,6.7842957701,1.0575523226,4.377056
 81\O,0,7.2401411856,0.2349647994,5.1326101033\O,0,6.8563050863,2.38174
 51087,4.4174046111\C,0,7.590057767,3.0823489323,5.5075743228\C,0,9.064
 9296625,2.6755261143,5.471940404\C,0,7.410450097,4.5523802091,5.128485
 1616\C,0,6.922944861,2.7692683833,6.8488426971\H,0,1.4845781458,0.6920
 801095,-0.8950097917\H,0,1.6336179932,1.5764593614,0.6344796555\H,0,1.
 829864353,-0.1924967871,0.6054440006\H,0,3.6917924022,-0.3558423953,-1
 .9497061058\H,0,3.9565111531,-1.210912003,-0.4152763516\H,0,5.21537019
 67,-0.136419771,-1.0684335334\H,0,3.311997674,2.2024070012,-1.93959038
 8\H,0,4.866399345,2.3734985922,-1.0955374879\H,0,3.3939319596,3.076513
 9184,-0.3946812203\H,0,9.4900011111,2.8619618487,4.4799051864\H,0,9.19
 32745543,1.6205095303,5.7205949198\H,0,9.6233270272,3.2756173783,6.198
 8556699\H,0,7.8429253699,4.7545916169,4.1435482557\H,0,7.9102194647,5.
 1901609111,5.8649637494\H,0,6.3491187006,4.818316939,5.1017085134\H,0,
 7.0358274023,1.7162154033,7.1126900652\H,0,5.8561368624,3.0136343219,6
 .8111802\H,0,7.3845590389,3.3782297164,7.634024588\\Version=ES64L-G16R
 evA.03\State=1-A\HF=-802.2806175\RMSD=2.851e-13\Dipole=0.0522317,1.565
 0387,-0.6299126\Quadrupole=0.44582,-7.6973231,7.2515031,2.4126246,6.89
 20554,6.8666346\PG=C01 [X(C10H18N2O4)]\\@


 A ROPE OVER THE TOP OF A FENCE HAS THE SAME LENGTH ON EACH SIDE.
 WEIGHS 1/3 POUND PER FOOT.  ON ONE END HANGS A MONKEY HOLDING A
 BANANA, AND ON THE OTHER END A WEIGHT EQUAL TO THE WEIGHT
 OF THE MONKEY.  THE BANANA WEIGHS TWO OUNCES PER INCH.
 THE ROPE IS AS LONG AS THE AGE OF THE MONKEY, 
 AND THE WEIGHT OF THE MONKEY (IN OUNCES) IS AS MUCH
 AS THE AGE OF THE MONKEY'S MOTHER.  THE COMBINED AGES OF MONKEY
 AND MOTHER ARE THIRTY YEARS.  HALF THE WEIGHT OF THE MONKEY,
  PLUS THE WEIGHT OF THE BANANA, IS ONE FOURTH AS MUCH AS THE WEIGHT
 OF THE WEIGHT AND THE ROPE.
 THE MONKEY'S MOTHER IS HALF AS OLD AS THE MONKEY WILL BE
 WHEN IT IS 3 TIMES AS OLD AS ITS MOTHER WAS WHEN
 SHE WAS HALF AS OLD AS THE MONKEY WILL BE WHEN IT IS
 AS OLD AS ITS MOTHER WILL BE WHEN SHE IS 4 TIMES AS
 OLD AS THE MONKEY WAS WHEN IT WAS TWICE AS OLD AS 
 ITS MOTHER WAS WHEN SHE WAS ONE THIRD AS OLD AS THE
 MONKEY WAS WHEN IT WAS AS OLD AS ITS MOTHER WAS WHEN 
 SHE WAS 3 TIMES AS OLD AS THE MONKEY WAS WHEN IT WAS AS OLD AS ITS
 MOTHER WAS WHEN SHE WAS 3 TIMES AS OLD AS THE MONKEY 
 WAS WHEN IT WAS ONE FOURTH WAS OLD AS IT IS NOW.

 HOW LONG IS THE BANANA?
 Job cpu time:       0 days  0 hours 31 minutes 22.4 seconds.
 Elapsed time:       0 days  0 hours  6 minutes 17.7 seconds.
 File lengths (MBytes):  RWF=    679 Int=      0 D2E=      0 Chk=    268 Scr=      1
 Normal termination of Gaussian 16 at Sat Aug 22 13:48:22 2020.
