 Entering Gaussian System, Link 0=g16
 Input=azadicarboxylate_3_conf7123.com
 Output=azadicarboxylate_3_conf7123.log
 Initial command:
 /opt/export//g16/l1.exe "/scratch/bjs4/job.168521/Gau-168523.inp" -scrdir="/scratch/bjs4/job.168521/"
 Entering Link 1 = /opt/export//g16/l1.exe PID=    168524.
  
 Copyright (c) 1988,1990,1992,1993,1995,1998,2003,2009,2016,
            Gaussian, Inc.  All Rights Reserved.
  
 This is part of the Gaussian(R) 16 program.  It is based on
 the Gaussian(R) 09 system (copyright 2009, Gaussian, Inc.),
 the Gaussian(R) 03 system (copyright 2003, Gaussian, Inc.),
 the Gaussian(R) 98 system (copyright 1998, Gaussian, Inc.),
 the Gaussian(R) 94 system (copyright 1995, Gaussian, Inc.),
 the Gaussian 92(TM) system (copyright 1992, Gaussian, Inc.),
 the Gaussian 90(TM) system (copyright 1990, Gaussian, Inc.),
 the Gaussian 88(TM) system (copyright 1988, Gaussian, Inc.),
 the Gaussian 86(TM) system (copyright 1986, Carnegie Mellon
 University), and the Gaussian 82(TM) system (copyright 1983,
 Carnegie Mellon University). Gaussian is a federally registered
 trademark of Gaussian, Inc.
  
 This software contains proprietary and confidential information,
 including trade secrets, belonging to Gaussian, Inc.
  
 This software is provided under written license and may be
 used, copied, transmitted, or stored only in accord with that
 written license.
  
 The following legend is applicable only to US Government
 contracts under FAR:
  
                    RESTRICTED RIGHTS LEGEND
  
 Use, reproduction and disclosure by the US Government is
 subject to restrictions as set forth in subparagraphs (a)
 and (c) of the Commercial Computer Software - Restricted
 Rights clause in FAR 52.227-19.
  
 Gaussian, Inc.
 340 Quinnipiac St., Bldg. 40, Wallingford CT 06492
  
  
 ---------------------------------------------------------------
 Warning -- This program may not be used in any manner that
 competes with the business of Gaussian, Inc. or will provide
 assistance to any competitor of Gaussian, Inc.  The licensee
 of this program is prohibited from giving any competitor of
 Gaussian, Inc. access to this program.  By using this program,
 the user acknowledges that Gaussian, Inc. is engaged in the
 business of creating and licensing software in the field of
 computational chemistry and represents and warrants to the
 licensee that it is not a competitor of Gaussian, Inc. and that
 it will not use this program in any manner prohibited above.
 ---------------------------------------------------------------
  

 Cite this work as:
 Gaussian 16, Revision A.03,
 M. J. Frisch, G. W. Trucks, H. B. Schlegel, G. E. Scuseria, 
 M. A. Robb, J. R. Cheeseman, G. Scalmani, V. Barone, 
 G. A. Petersson, H. Nakatsuji, X. Li, M. Caricato, A. V. Marenich, 
 J. Bloino, B. G. Janesko, R. Gomperts, B. Mennucci, H. P. Hratchian, 
 J. V. Ortiz, A. F. Izmaylov, J. L. Sonnenberg, D. Williams-Young, 
 F. Ding, F. Lipparini, F. Egidi, J. Goings, B. Peng, A. Petrone, 
 T. Henderson, D. Ranasinghe, V. G. Zakrzewski, J. Gao, N. Rega, 
 G. Zheng, W. Liang, M. Hada, M. Ehara, K. Toyota, R. Fukuda, 
 J. Hasegawa, M. Ishida, T. Nakajima, Y. Honda, O. Kitao, H. Nakai, 
 T. Vreven, K. Throssell, J. A. Montgomery, Jr., J. E. Peralta, 
 F. Ogliaro, M. J. Bearpark, J. J. Heyd, E. N. Brothers, K. N. Kudin, 
 V. N. Staroverov, T. A. Keith, R. Kobayashi, J. Normand, 
 K. Raghavachari, A. P. Rendell, J. C. Burant, S. S. Iyengar, 
 J. Tomasi, M. Cossi, J. M. Millam, M. Klene, C. Adamo, R. Cammi, 
 J. W. Ochterski, R. L. Martin, K. Morokuma, O. Farkas, 
 J. B. Foresman, and D. J. Fox, Gaussian, Inc., Wallingford CT, 2016.
 
 ******************************************
 Gaussian 16:  ES64L-G16RevA.03 25-Dec-2016
                22-Aug-2020 
 ******************************************
 %nprocshared=5
 Will use up to    5 processors via shared memory.
 %Mem=10GB
 %Chk=azadicarboxylate_3_conf71.chk
 ---------------------------------
 # opt=CalcAll B3LYP/6-31G* scf=qc
 ---------------------------------
 1/10=4,18=20,19=15,26=3,38=1/1,3;
 2/9=110,12=2,17=6,18=5,40=1/2;
 3/5=1,6=6,7=1,11=2,25=1,30=1,71=2,74=-5,140=1/1,2,3;
 4//1;
 5/5=2,8=3,38=5/8;
 8/6=4,10=90,11=11/1;
 11/6=1,8=1,9=11,15=111,16=1/1,2,10;
 10/6=1/2;
 6/7=2,8=2,9=2,10=2,18=1,28=1/1;
 7/10=1,25=1/1,2,3,16;
 1/10=4,18=20,19=15,26=3/3(3);
 2/9=110/2;
 7/8=1,9=1,25=1,44=-1/16;
 99//99;
 2/9=110/2;
 3/5=1,6=6,7=1,11=2,25=1,30=1,71=2,74=-5,140=1/1,2,3;
 4/5=5,16=3,69=1/1;
 5/5=2,8=3,38=5/8;
 8/6=4,10=90,11=11/1;
 11/6=1,8=1,9=11,15=111,16=1/1,2,10;
 10/6=1/2;
 7/10=1,25=1/1,2,3,16;
 1/10=4,18=20,19=15,26=3/3(-8);
 2/9=110/2;
 6/7=2,8=2,9=2,10=2,18=1,19=2,28=1/1;
 7/8=1,9=1,25=1,44=-1/16;
 99//99;
 -------------------
 Title Card Required
 -------------------
 Symbolic Z-matrix:
 Charge =  0 Multiplicity = 1
 C                    -4.53796  -0.93794  -2.31252 
 C                    -5.59763  -0.72112  -1.25458 
 O1                   -5.87348   0.67713  -1.09578 
 C2                   -5.0041    1.3932   -0.331 
 O3                   -4.01755   0.91641   0.22013 
 N4                   -5.404     2.7122   -0.3088 
 N5                   -6.6449    2.8402   -0.4308 
 C6                   -7.0458    4.1568   -0.3655 
 O7                   -8.19472   4.5779   -0.44139 
 O8                   -5.94972   4.95164  -0.22398 
 C                    -6.17888   6.3661   -0.16226 
 C                    -5.67385   6.92962   1.1476 
 C                    -5.07481   6.10971   2.11664 
 C                    -4.61511   6.64968   3.32109 
 C                    -4.73373   8.01669   3.55785 
 C                    -5.29196   8.85126   2.59312 
 C                    -5.7549    8.31038   1.39022 
 Cl                   -4.18944   8.67799   5.04993 
 C                    -3.17326  -0.97754  -1.98654 
 C                    -2.20959  -1.17945  -2.97884 
 C                    -2.60429  -1.36177  -4.3018 
 C                    -3.95541  -1.36167  -4.63828 
 C                    -4.91853  -1.1565   -3.64645 
 Cl                   -1.41742  -1.58686  -5.52682 
 H                    -5.21645  -1.09427  -0.29732 
 H                    -6.4938   -1.302    -1.49929 
 H                    -7.2338    6.62761  -0.29824 
 H                    -5.61745   6.82812  -0.98185 
 H                    -4.96917   5.03997   1.94489 
 H                    -4.16988   5.99834   4.06848 
 H                    -5.37383   9.92024   2.77145 
 H                    -6.18742   8.97722   0.6464 
 H                    -2.84825  -0.84249  -0.95647 
 H                    -1.15581  -1.1899   -2.71274 
 H                    -4.26569  -1.51623  -5.66844 
 H                    -5.97037  -1.16111  -3.92667 
 

 GradGradGradGradGradGradGradGradGradGradGradGradGradGradGradGradGradGrad
 Berny optimization.
 Initialization pass.
                           ----------------------------
                           !    Initial Parameters    !
                           ! (Angstroms and Degrees)  !
 --------------------------                            --------------------------
 ! Name  Definition              Value          Derivative Info.                !
 --------------------------------------------------------------------------------
 ! R1    R(1,2)                  1.513          calculate D2E/DX2 analytically  !
 ! R2    R(1,19)                 1.4037         calculate D2E/DX2 analytically  !
 ! R3    R(1,23)                 1.4043         calculate D2E/DX2 analytically  !
 ! R4    R(2,3)                  1.434          calculate D2E/DX2 analytically  !
 ! R5    R(2,25)                 1.0958         calculate D2E/DX2 analytically  !
 ! R6    R(2,26)                 1.0956         calculate D2E/DX2 analytically  !
 ! R7    R(3,4)                  1.3614         calculate D2E/DX2 analytically  !
 ! R8    R(4,5)                  1.2265         calculate D2E/DX2 analytically  !
 ! R9    R(4,6)                  1.3785         calculate D2E/DX2 analytically  !
 ! R10   R(6,7)                  1.2534         calculate D2E/DX2 analytically  !
 ! R11   R(7,8)                  1.3778         calculate D2E/DX2 analytically  !
 ! R12   R(8,9)                  1.226          calculate D2E/DX2 analytically  !
 ! R13   R(8,10)                 1.3613         calculate D2E/DX2 analytically  !
 ! R14   R(10,11)                1.4342         calculate D2E/DX2 analytically  !
 ! R15   R(11,12)                1.5127         calculate D2E/DX2 analytically  !
 ! R16   R(11,27)                1.0953         calculate D2E/DX2 analytically  !
 ! R17   R(11,28)                1.0956         calculate D2E/DX2 analytically  !
 ! R18   R(12,13)                1.4036         calculate D2E/DX2 analytically  !
 ! R19   R(12,17)                1.4043         calculate D2E/DX2 analytically  !
 ! R20   R(13,14)                1.3977         calculate D2E/DX2 analytically  !
 ! R21   R(13,29)                1.0886         calculate D2E/DX2 analytically  !
 ! R22   R(14,15)                1.3924         calculate D2E/DX2 analytically  !
 ! R23   R(14,30)                1.0868         calculate D2E/DX2 analytically  !
 ! R24   R(15,16)                1.3924         calculate D2E/DX2 analytically  !
 ! R25   R(15,18)                1.7204         calculate D2E/DX2 analytically  !
 ! R26   R(16,17)                1.3978         calculate D2E/DX2 analytically  !
 ! R27   R(16,31)                1.0868         calculate D2E/DX2 analytically  !
 ! R28   R(17,32)                1.0886         calculate D2E/DX2 analytically  !
 ! R29   R(19,20)                1.3979         calculate D2E/DX2 analytically  !
 ! R30   R(19,33)                1.0885         calculate D2E/DX2 analytically  !
 ! R31   R(20,21)                1.3926         calculate D2E/DX2 analytically  !
 ! R32   R(20,34)                1.0869         calculate D2E/DX2 analytically  !
 ! R33   R(21,22)                1.3924         calculate D2E/DX2 analytically  !
 ! R34   R(21,24)                1.7205         calculate D2E/DX2 analytically  !
 ! R35   R(22,23)                1.3976         calculate D2E/DX2 analytically  !
 ! R36   R(22,35)                1.0869         calculate D2E/DX2 analytically  !
 ! R37   R(23,36)                1.0885         calculate D2E/DX2 analytically  !
 ! A1    A(2,1,19)             121.5067         calculate D2E/DX2 analytically  !
 ! A2    A(2,1,23)             119.7824         calculate D2E/DX2 analytically  !
 ! A3    A(19,1,23)            118.666          calculate D2E/DX2 analytically  !
 ! A4    A(1,2,3)              110.6029         calculate D2E/DX2 analytically  !
 ! A5    A(1,2,25)             108.5655         calculate D2E/DX2 analytically  !
 ! A6    A(1,2,26)             109.9207         calculate D2E/DX2 analytically  !
 ! A7    A(3,2,25)             107.5896         calculate D2E/DX2 analytically  !
 ! A8    A(3,2,26)             112.6029         calculate D2E/DX2 analytically  !
 ! A9    A(25,2,26)            107.4026         calculate D2E/DX2 analytically  !
 ! A10   A(2,3,4)              116.8863         calculate D2E/DX2 analytically  !
 ! A11   A(3,4,5)              124.1665         calculate D2E/DX2 analytically  !
 ! A12   A(3,4,6)              109.0912         calculate D2E/DX2 analytically  !
 ! A13   A(5,4,6)              126.7319         calculate D2E/DX2 analytically  !
 ! A14   A(4,6,7)              112.5413         calculate D2E/DX2 analytically  !
 ! A15   A(6,7,8)              112.397          calculate D2E/DX2 analytically  !
 ! A16   A(7,8,9)              126.7227         calculate D2E/DX2 analytically  !
 ! A17   A(7,8,10)             109.1827         calculate D2E/DX2 analytically  !
 ! A18   A(9,8,10)             124.085          calculate D2E/DX2 analytically  !
 ! A19   A(8,10,11)            116.8497         calculate D2E/DX2 analytically  !
 ! A20   A(10,11,12)           110.5671         calculate D2E/DX2 analytically  !
 ! A21   A(10,11,27)           112.5818         calculate D2E/DX2 analytically  !
 ! A22   A(10,11,28)           107.5667         calculate D2E/DX2 analytically  !
 ! A23   A(12,11,27)           109.8828         calculate D2E/DX2 analytically  !
 ! A24   A(12,11,28)           108.637          calculate D2E/DX2 analytically  !
 ! A25   A(27,11,28)           107.4563         calculate D2E/DX2 analytically  !
 ! A26   A(11,12,13)           121.5123         calculate D2E/DX2 analytically  !
 ! A27   A(11,12,17)           119.7768         calculate D2E/DX2 analytically  !
 ! A28   A(13,12,17)           118.667          calculate D2E/DX2 analytically  !
 ! A29   A(12,13,14)           120.639          calculate D2E/DX2 analytically  !
 ! A30   A(12,13,29)           120.4325         calculate D2E/DX2 analytically  !
 ! A31   A(14,13,29)           118.9261         calculate D2E/DX2 analytically  !
 ! A32   A(13,14,15)           119.8532         calculate D2E/DX2 analytically  !
 ! A33   A(13,14,30)           119.7246         calculate D2E/DX2 analytically  !
 ! A34   A(15,14,30)           120.4219         calculate D2E/DX2 analytically  !
 ! A35   A(14,15,16)           120.3163         calculate D2E/DX2 analytically  !
 ! A36   A(14,15,18)           119.8599         calculate D2E/DX2 analytically  !
 ! A37   A(16,15,18)           119.8238         calculate D2E/DX2 analytically  !
 ! A38   A(15,16,17)           119.8078         calculate D2E/DX2 analytically  !
 ! A39   A(15,16,31)           120.4            calculate D2E/DX2 analytically  !
 ! A40   A(17,16,31)           119.7917         calculate D2E/DX2 analytically  !
 ! A41   A(12,17,16)           120.667          calculate D2E/DX2 analytically  !
 ! A42   A(12,17,32)           120.4777         calculate D2E/DX2 analytically  !
 ! A43   A(16,17,32)           118.8535         calculate D2E/DX2 analytically  !
 ! A44   A(1,19,20)            120.6283         calculate D2E/DX2 analytically  !
 ! A45   A(1,19,33)            120.4345         calculate D2E/DX2 analytically  !
 ! A46   A(20,19,33)           118.9351         calculate D2E/DX2 analytically  !
 ! A47   A(19,20,21)           119.8607         calculate D2E/DX2 analytically  !
 ! A48   A(19,20,34)           119.7333         calculate D2E/DX2 analytically  !
 ! A49   A(21,20,34)           120.4057         calculate D2E/DX2 analytically  !
 ! A50   A(20,21,22)           120.3048         calculate D2E/DX2 analytically  !
 ! A51   A(20,21,24)           119.8703         calculate D2E/DX2 analytically  !
 ! A52   A(22,21,24)           119.8249         calculate D2E/DX2 analytically  !
 ! A53   A(21,22,23)           119.8147         calculate D2E/DX2 analytically  !
 ! A54   A(21,22,35)           120.4            calculate D2E/DX2 analytically  !
 ! A55   A(23,22,35)           119.7848         calculate D2E/DX2 analytically  !
 ! A56   A(1,23,22)            120.6766         calculate D2E/DX2 analytically  !
 ! A57   A(1,23,36)            120.4686         calculate D2E/DX2 analytically  !
 ! A58   A(22,23,36)           118.8531         calculate D2E/DX2 analytically  !
 ! D1    D(19,1,2,3)            90.3531         calculate D2E/DX2 analytically  !
 ! D2    D(19,1,2,25)          -27.4757         calculate D2E/DX2 analytically  !
 ! D3    D(19,1,2,26)         -144.6889         calculate D2E/DX2 analytically  !
 ! D4    D(23,1,2,3)           -92.1185         calculate D2E/DX2 analytically  !
 ! D5    D(23,1,2,25)          150.0527         calculate D2E/DX2 analytically  !
 ! D6    D(23,1,2,26)           32.8395         calculate D2E/DX2 analytically  !
 ! D7    D(2,1,19,20)          179.979          calculate D2E/DX2 analytically  !
 ! D8    D(2,1,19,33)           -0.5615         calculate D2E/DX2 analytically  !
 ! D9    D(23,1,19,20)           2.4237         calculate D2E/DX2 analytically  !
 ! D10   D(23,1,19,33)        -178.1167         calculate D2E/DX2 analytically  !
 ! D11   D(2,1,23,22)         -179.8654         calculate D2E/DX2 analytically  !
 ! D12   D(2,1,23,36)            0.6174         calculate D2E/DX2 analytically  !
 ! D13   D(19,1,23,22)          -2.2669         calculate D2E/DX2 analytically  !
 ! D14   D(19,1,23,36)         178.2159         calculate D2E/DX2 analytically  !
 ! D15   D(1,2,3,4)            -80.4709         calculate D2E/DX2 analytically  !
 ! D16   D(25,2,3,4)            37.9539         calculate D2E/DX2 analytically  !
 ! D17   D(26,2,3,4)           156.1076         calculate D2E/DX2 analytically  !
 ! D18   D(2,3,4,5)             -0.0793         calculate D2E/DX2 analytically  !
 ! D19   D(2,3,4,6)            178.8171         calculate D2E/DX2 analytically  !
 ! D20   D(3,4,6,7)             29.6471         calculate D2E/DX2 analytically  !
 ! D21   D(5,4,6,7)           -151.4923         calculate D2E/DX2 analytically  !
 ! D22   D(4,6,7,8)            178.0638         calculate D2E/DX2 analytically  !
 ! D23   D(6,7,8,9)           -179.2939         calculate D2E/DX2 analytically  !
 ! D24   D(6,7,8,10)             1.8019         calculate D2E/DX2 analytically  !
 ! D25   D(7,8,10,11)          178.9397         calculate D2E/DX2 analytically  !
 ! D26   D(9,8,10,11)            0.0001         calculate D2E/DX2 analytically  !
 ! D27   D(8,10,11,12)         119.9997         calculate D2E/DX2 analytically  !
 ! D28   D(8,10,11,27)          -3.3303         calculate D2E/DX2 analytically  !
 ! D29   D(8,10,11,28)        -121.5231         calculate D2E/DX2 analytically  !
 ! D30   D(10,11,12,13)          0.0            calculate D2E/DX2 analytically  !
 ! D31   D(10,11,12,17)        177.5576         calculate D2E/DX2 analytically  !
 ! D32   D(27,11,12,13)        124.8788         calculate D2E/DX2 analytically  !
 ! D33   D(27,11,12,17)        -57.5635         calculate D2E/DX2 analytically  !
 ! D34   D(28,11,12,13)       -117.8233         calculate D2E/DX2 analytically  !
 ! D35   D(28,11,12,17)         59.7343         calculate D2E/DX2 analytically  !
 ! D36   D(11,12,13,14)       -179.9695         calculate D2E/DX2 analytically  !
 ! D37   D(11,12,13,29)         -0.5267         calculate D2E/DX2 analytically  !
 ! D38   D(17,12,13,14)          2.4465         calculate D2E/DX2 analytically  !
 ! D39   D(17,12,13,29)       -178.1107         calculate D2E/DX2 analytically  !
 ! D40   D(11,12,17,16)       -179.8986         calculate D2E/DX2 analytically  !
 ! D41   D(11,12,17,32)          0.595          calculate D2E/DX2 analytically  !
 ! D42   D(13,12,17,16)         -2.2716         calculate D2E/DX2 analytically  !
 ! D43   D(13,12,17,32)        178.222          calculate D2E/DX2 analytically  !
 ! D44   D(12,13,14,15)         -0.9086         calculate D2E/DX2 analytically  !
 ! D45   D(12,13,14,30)        178.8992         calculate D2E/DX2 analytically  !
 ! D46   D(29,13,14,15)        179.6403         calculate D2E/DX2 analytically  !
 ! D47   D(29,13,14,30)         -0.5518         calculate D2E/DX2 analytically  !
 ! D48   D(13,14,15,16)         -0.8573         calculate D2E/DX2 analytically  !
 ! D49   D(13,14,15,18)        179.0861         calculate D2E/DX2 analytically  !
 ! D50   D(30,14,15,16)        179.3362         calculate D2E/DX2 analytically  !
 ! D51   D(30,14,15,18)         -0.7205         calculate D2E/DX2 analytically  !
 ! D52   D(14,15,16,17)          1.0309         calculate D2E/DX2 analytically  !
 ! D53   D(14,15,16,31)       -179.2318         calculate D2E/DX2 analytically  !
 ! D54   D(18,15,16,17)       -178.9124         calculate D2E/DX2 analytically  !
 ! D55   D(18,15,16,31)          0.8249         calculate D2E/DX2 analytically  !
 ! D56   D(15,16,17,12)          0.5578         calculate D2E/DX2 analytically  !
 ! D57   D(15,16,17,32)       -179.9279         calculate D2E/DX2 analytically  !
 ! D58   D(31,16,17,12)       -179.1812         calculate D2E/DX2 analytically  !
 ! D59   D(31,16,17,32)          0.3332         calculate D2E/DX2 analytically  !
 ! D60   D(1,19,20,21)          -0.8882         calculate D2E/DX2 analytically  !
 ! D61   D(1,19,20,34)         178.9154         calculate D2E/DX2 analytically  !
 ! D62   D(33,19,20,21)        179.6443         calculate D2E/DX2 analytically  !
 ! D63   D(33,19,20,34)         -0.5522         calculate D2E/DX2 analytically  !
 ! D64   D(19,20,21,22)         -0.8574         calculate D2E/DX2 analytically  !
 ! D65   D(19,20,21,24)        179.089          calculate D2E/DX2 analytically  !
 ! D66   D(34,20,21,22)        179.3404         calculate D2E/DX2 analytically  !
 ! D67   D(34,20,21,24)         -0.7132         calculate D2E/DX2 analytically  !
 ! D68   D(20,21,22,23)          1.0137         calculate D2E/DX2 analytically  !
 ! D69   D(20,21,22,35)       -179.2327         calculate D2E/DX2 analytically  !
 ! D70   D(24,21,22,23)       -178.9328         calculate D2E/DX2 analytically  !
 ! D71   D(24,21,22,35)          0.8208         calculate D2E/DX2 analytically  !
 ! D72   D(21,22,23,1)           0.5726         calculate D2E/DX2 analytically  !
 ! D73   D(21,22,23,36)       -179.9026         calculate D2E/DX2 analytically  !
 ! D74   D(35,22,23,1)        -179.1825         calculate D2E/DX2 analytically  !
 ! D75   D(35,22,23,36)          0.3423         calculate D2E/DX2 analytically  !
 --------------------------------------------------------------------------------
 Trust Radius=3.00D-01 FncErr=1.00D-07 GrdErr=1.00D-06 EigMax=2.50D+02 EigMin=1.00D-04
 Number of steps in this run=    180 maximum allowed number of steps=    216.
 GradGradGradGradGradGradGradGradGradGradGradGradGradGradGradGradGradGrad

                          Input orientation:                          
 ---------------------------------------------------------------------
 Center     Atomic      Atomic             Coordinates (Angstroms)
 Number     Number       Type             X           Y           Z
 ---------------------------------------------------------------------
      1          6           0       -4.537960   -0.937940   -2.312520
      2          6           0       -5.597630   -0.721120   -1.254580
      3          8           0       -5.873480    0.677130   -1.095780
      4          6           0       -5.004100    1.393200   -0.331000
      5          8           0       -4.017550    0.916410    0.220130
      6          7           0       -5.404000    2.712200   -0.308800
      7          7           0       -6.644900    2.840200   -0.430800
      8          6           0       -7.045800    4.156800   -0.365500
      9          8           0       -8.194720    4.577900   -0.441390
     10          8           0       -5.949720    4.951640   -0.223980
     11          6           0       -6.178880    6.366100   -0.162260
     12          6           0       -5.673850    6.929620    1.147600
     13          6           0       -5.074810    6.109710    2.116640
     14          6           0       -4.615110    6.649680    3.321090
     15          6           0       -4.733730    8.016690    3.557850
     16          6           0       -5.291960    8.851260    2.593120
     17          6           0       -5.754900    8.310380    1.390220
     18         17           0       -4.189440    8.677990    5.049930
     19          6           0       -3.173260   -0.977540   -1.986540
     20          6           0       -2.209590   -1.179450   -2.978840
     21          6           0       -2.604290   -1.361770   -4.301800
     22          6           0       -3.955410   -1.361670   -4.638280
     23          6           0       -4.918530   -1.156500   -3.646450
     24         17           0       -1.417420   -1.586860   -5.526820
     25          1           0       -5.216450   -1.094270   -0.297320
     26          1           0       -6.493800   -1.302000   -1.499290
     27          1           0       -7.233800    6.627610   -0.298240
     28          1           0       -5.617450    6.828120   -0.981850
     29          1           0       -4.969170    5.039970    1.944890
     30          1           0       -4.169880    5.998340    4.068480
     31          1           0       -5.373830    9.920240    2.771450
     32          1           0       -6.187420    8.977220    0.646400
     33          1           0       -2.848250   -0.842490   -0.956470
     34          1           0       -1.155810   -1.189900   -2.712740
     35          1           0       -4.265690   -1.516230   -5.668440
     36          1           0       -5.970370   -1.161110   -3.926670
 ---------------------------------------------------------------------
                    Distance matrix (angstroms):
                    1          2          3          4          5
     1  C    0.000000
     2  C    1.512993   0.000000
     3  O    2.423328   1.434020   0.000000
     4  C    3.094822   2.382357   1.361421   0.000000
     5  O    3.181785   2.711628   2.287652   1.226521   0.000000
     6  N    4.253051   3.566466   2.231873   1.378468   2.329565
     7  N    4.717458   3.802419   2.390849   2.189976   3.320790
     8  C    6.003043   5.165439   3.743761   3.436163   4.473633
     9  O    6.877319   5.956993   4.586108   4.509385   5.594003
    10  O    6.406420   5.776358   4.363174   3.683496   4.495953
    11  C    7.788789   7.194422   5.773137   5.112564   5.875091
    12  C    8.669555   8.019358   6.645768   5.769469   6.305730
    13  C    8.341165   7.635359   6.361638   5.314265   5.628935
    14  C    9.450687   8.731025   7.534161   6.412461   6.545488
    15  C   10.709107  10.012748   8.764955   7.685498   7.878278
    16  C   10.975530  10.321274   8.986799   8.015984   8.379561
    17  C   10.036067   9.412104   8.028746   7.167543   7.684939
    18  Cl  12.115826  11.404960  10.228368   9.093198   9.143229
    19  C    1.403651   2.545405   3.289768   3.422455   3.028079
    20  C    2.433848   3.829093   4.518506   4.630213   4.230220
    21  C    2.806412   4.319267   5.012313   5.395943   5.256925
    22  C    2.434763   3.815313   4.514976   5.219360   5.366345
    23  C    1.404269   2.524237   3.283298   4.183360   4.478746
    24  Cl   4.526653   6.039511   6.679539   6.981517   6.786344
    25  H    2.132093   1.095849   2.051118   2.496745   2.397488
    26  H    2.149231   1.095639   2.112954   3.293662   3.742935
    27  H    8.280243   7.589168   6.155871   5.689612   6.575012
    28  H    7.952840   7.554191   6.157370   5.508009   6.241214
    29  H    7.351659   6.619798   5.394240   4.298817   4.569915
    30  H    9.432106   8.690488   7.608358   6.423291   6.376442
    31  H   12.018548  11.379699  10.031959   9.081427   9.456092
    32  H   10.477897   9.900474   8.486769   7.737759   8.358630
    33  H    2.168664   2.768157   3.388314   3.168156   2.417722
    34  H    3.415055   4.698484   5.325108   5.210991   4.607366
    35  H    3.416248   4.678507   5.320248   6.123585   6.376093
    36  H    2.169581   2.733604   3.376752   4.515199   5.032449
                    6          7          8          9         10
     6  N    0.000000
     7  N    1.253436   0.000000
     8  C    2.187599   1.377832   0.000000
     9  O    3.359544   2.328445   1.226010   0.000000
    10  O    2.306533   2.232539   1.361319   2.286258   0.000000
    11  C    3.738034   3.566687   2.381987   2.709093   1.434232
    12  C    4.469961   4.489726   3.443871   3.796085   2.422755
    13  C    4.187386   4.432192   3.722859   4.315530   2.754105
    14  C    5.413150   5.719166   5.070863   5.591255   4.151150
    15  C    6.598322   6.808667   5.969681   6.308538   5.017509
    16  C    6.791300   6.863482   5.819565   5.991316   4.855485
    17  C    5.860838   5.833617   4.690544   4.820677   3.731586
    18  Cl   8.110598   8.375409   7.610968   7.937733   6.693160
    19  C    4.626575   5.389596   6.632178   7.646271   6.780157
    20  C    5.698974   6.505541   7.661203   8.683750   7.692080
    21  C    6.354499   6.997694   8.104078   9.024154   8.226765
    22  C    6.118760   6.526251   7.632868   8.418083   7.957462
    23  C    5.132488   5.412427   6.597050   7.340925   7.077148
    24  Cl   7.848724   8.537847   9.555497  10.478438   9.561058
    25  H    3.811105   4.187880   5.561017   6.408148   6.090656
    26  H    4.326515   4.280458   5.602560   6.211723   6.405502
    27  H    4.321888   3.835212   2.478865   2.268297   2.112641
    28  H    4.176045   4.154854   3.091282   3.463800   2.050841
    29  H    3.269053   3.645677   3.229595   4.038813   2.381864
    30  H    5.610913   6.028523   5.596639   6.209341   4.763258
    31  H    7.838666   7.873817   6.771498   6.842540   5.830200
    32  H    6.385658   6.247613   4.999721   4.956466   4.125452
    33  H    4.425738   5.315363   6.554508   7.630903   6.612685
    34  H    6.249194   7.181857   8.293896   9.379382   8.178876
    35  H    6.921063   7.216093   8.248239   8.938554   8.620409
    36  H    5.330318   5.355985   6.489888   7.073270   7.146751
                   11         12         13         14         15
    11  C    0.000000
    12  C    1.512727   0.000000
    13  C    2.545210   1.403617   0.000000
    14  C    3.828775   2.433794   1.397709   0.000000
    15  C    4.318811   2.806217   2.414538   1.392423   0.000000
    16  C    3.815071   2.434762   2.791108   2.415579   1.392419
    17  C    2.523921   1.404255   2.415193   2.790216   2.414055
    18  Cl   6.039009   4.526417   3.998016   2.698912   1.720428
    19  C    8.141916   8.865606   8.407205   9.403422  10.680426
    20  C    8.979071   9.735791   9.343728  10.333002  11.561513
    21  C    9.467495  10.385822  10.154942  11.239892  12.420311
    22  C    9.203097  10.255483  10.134275  11.312316  12.479422
    23  C    8.385557   9.430735   9.275529  10.467814  11.665483
    24  Cl  10.709789  11.627360  11.447103  12.504052  13.629281
    25  H    7.523406   8.165771   7.598986   8.568737   9.904794
    26  H    7.790159   8.685500   8.367911   9.486557  10.747581
    27  H    1.095324   2.148280   3.280412   4.467390   4.800971
    28  H    1.095625   2.132614   3.226641   4.421744   4.775200
    29  H    2.768050   2.168645   1.088578   2.147196   3.393808
    30  H    4.697924   3.414784   2.154294   1.086768   2.156944
    31  H    4.678319   3.416242   3.877928   3.402106   2.156770
    32  H    2.733487   2.169705   3.409123   3.878604   3.392989
    33  H    7.980453   8.533277   7.920521   8.806357  10.120237
    34  H    9.424931  10.061884   9.589879  10.480118  11.699706
    35  H    9.803542  10.944117  10.927813  12.149726  13.274790
    36  H    8.418619   9.554897   9.496760  10.741285  11.907113
                   16         17         18         19         20
    16  C    0.000000
    17  C    1.397796   0.000000
    18  Cl   2.698423   3.997409   0.000000
    19  C   11.048415  10.214344  11.990571   0.000000
    20  C   11.881199  11.032442  12.866626   1.397887   0.000000
    21  C   12.612275  11.656583  13.811746   2.414910   1.392570
    22  C   12.585049  11.538177  13.953887   2.791243   2.415540
    23  C   11.799447  10.755900  13.148224   2.415222   2.790087
    24  Cl  13.780415  12.830220  14.997296   3.998478   2.699207
    25  H   10.357312   9.570014  11.186818   2.653623   4.029766
    26  H   11.012762  10.064447  12.157408   3.371746   4.534153
    27  H    4.132230   2.805309   6.486533   8.785024   9.663255
    28  H    4.120613   2.800483   6.468663   8.240861   8.928754
    29  H    3.879475   3.408902   4.846075   7.408904   8.398785
    30  H    3.402191   3.876970   2.853796   9.290825  10.248323
    31  H    1.086841   2.155147   2.852619  12.093080  12.895013
    32  H    2.146493   1.088585   4.844847  10.729156  11.494496
    33  H   10.608492   9.885879  11.336453   1.088538   2.147419
    34  H   12.086554  11.324364  12.916548   2.154662   1.086909
    35  H   13.296295  12.190352  14.792275   3.878141   3.402193
    36  H   11.967266  10.863925  13.437222   3.409051   3.878425
                   21         22         23         24         25
    21  C    0.000000
    22  C    1.392388   0.000000
    23  C    2.413986   1.397649   0.000000
    24  Cl   1.720465   2.698445   3.997346   0.000000
    25  H    4.788611   4.528317   3.362930   6.482511   0.000000
    26  H    4.794364   4.037356   2.667010   6.486276   1.766213
    27  H   10.064345   9.665008   8.784267  11.342215   7.981048
    28  H    9.336782   9.121651   8.446463  10.445520   7.962013
    29  H    9.251814   9.238335   8.346370  10.599823   6.535867
    30  H   11.255393  11.402781  10.548571  12.537188   8.394083
    31  H   13.600918  13.571938  12.809797  14.728470  11.435102
    32  H   12.009089  11.823805  11.078399  13.132453  10.162101
    33  H    3.394172   3.879572   3.408908   4.846593   2.471081
    34  H    2.157022   3.402201   3.876982   2.853956   4.725695
    35  H    2.156806   1.086919   2.155006   2.852663   5.470916
    36  H    3.392857   2.146317   1.088537   4.844698   3.707431
                   26         27         28         29         30
    26  H    0.000000
    27  H    8.054119   0.000000
    28  H    8.193570   1.766385   0.000000
    29  H    7.376141   3.561009   3.490495   0.000000
    30  H    9.470778   5.371390   5.318818   2.463122   0.000000
    31  H   12.059528   4.870718   4.869067   4.966285   4.302683
    32  H   10.505247   2.740059   2.755847   4.321128   4.965363
    33  H    3.714275   8.687273   8.155205   6.893441   8.590331
    34  H    5.475323  10.192411   9.337604   8.662939  10.331522
    35  H    4.732038  10.196610   9.665379  10.071814  12.299819
    36  H    2.487168   8.684810   8.521990   8.598314  10.882183
                   31         32         33         34         35
    31  H    0.000000
    32  H    2.463139   0.000000
    33  H   11.666718  10.495044   0.000000
    34  H   13.088286  11.830945   2.463642   0.000000
    35  H   14.256667  12.396884   4.966460   4.302791   0.000000
    36  H   12.962137  11.124110   4.321023   4.965324   2.462886
                   36
    36  H    0.000000
 Stoichiometry    C16H12Cl2N2O4
 Framework group  C1[X(C16H12Cl2N2O4)]
 Deg. of freedom   102
 Full point group                 C1      NOp   1
 Largest Abelian subgroup         C1      NOp   1
 Largest concise Abelian subgroup C1      NOp   1
                         Standard orientation:                         
 ---------------------------------------------------------------------
 Center     Atomic      Atomic             Coordinates (Angstroms)
 Number     Number       Type             X           Y           Z
 ---------------------------------------------------------------------
      1          6           0        4.316338    0.408883   -0.979334
      2          6           0        3.336063    1.176921   -1.838595
      3          8           0        2.092006    1.355660   -1.148097
      4          6           0        1.228216    0.303374   -1.153378
      5          8           0        1.451225   -0.768078   -1.707102
      6          7           0        0.105552    0.637979   -0.426852
      7          7           0       -0.140167    1.866627   -0.460729
      8          6           0       -1.286545    2.192008    0.230912
      9          8           0       -1.774435    3.309688    0.356828
     10          8           0       -1.805070    1.065535    0.792499
     11          6           0       -2.996467    1.221532    1.575608
     12          6           0       -4.125286    0.398360    0.995522
     13          6           0       -3.946101   -0.384204   -0.155836
     14          6           0       -5.002081   -1.137378   -0.676630
     15          6           0       -6.240042   -1.128678   -0.039277
     16          6           0       -6.426195   -0.387282    1.124558
     17          6           0       -5.370978    0.368700    1.643057
     18         17           0       -7.546593   -2.036993   -0.693313
     19          6           0        4.393651   -0.991796   -1.027879
     20          6           0        5.306670   -1.682876   -0.226073
     21          6           0        6.162016   -0.977571    0.616649
     22          6           0        6.124407    0.413878    0.651289
     23          6           0        5.209192    1.104417   -0.148060
     24         17           0        7.269617   -1.828887    1.620881
     25          1           0        3.131978    0.592269   -2.742706
     26          1           0        3.781749    2.126196   -2.155874
     27          1           0       -3.306682    2.268156    1.665491
     28          1           0       -2.778971    0.855349    2.585063
     29          1           0       -2.983088   -0.406674   -0.662889
     30          1           0       -4.851863   -1.723957   -1.579085
     31          1           0       -7.388339   -0.389421    1.630025
     32          1           0       -5.533300    0.941527    2.554396
     33          1           0        3.736205   -1.557871   -1.685327
     34          1           0        5.342013   -2.768606   -0.262291
     35          1           0        6.799858    0.966392    1.299275
     36          1           0        5.194389    2.192183   -0.109879
 ---------------------------------------------------------------------
 Rotational constants (GHZ):           0.4190891           0.0558567           0.0536722
 Standard basis: 6-31G(d) (6D, 7F)
 There are   392 symmetry adapted cartesian basis functions of A   symmetry.
 There are   392 symmetry adapted basis functions of A   symmetry.
   392 basis functions,   768 primitive gaussians,   392 cartesian basis functions
    94 alpha electrons       94 beta electrons
       nuclear repulsion energy      2045.3654455040 Hartrees.
 NAtoms=   36 NActive=   36 NUniq=   36 SFac= 1.00D+00 NAtFMM=   60 NAOKFM=F Big=F
 Integral buffers will be    131072 words long.
 Raffenetti 2 integral format.
 Two-electron integral symmetry is turned on.
 One-electron integrals computed using PRISM.
 NBasis=   392 RedAO= T EigKep=  4.53D-04  NBF=   392
 NBsUse=   392 1.00D-06 EigRej= -1.00D+00 NBFU=   392
 ExpMin= 1.43D-01 ExpMax= 2.52D+04 ExpMxC= 3.78D+03 IAcc=3 IRadAn=         5 AccDes= 0.00D+00
 Harris functional with IExCor=  402 and IRadAn=       5 diagonalized for initial guess.
 HarFok:  IExCor=  402 AccDes= 0.00D+00 IRadAn=         5 IDoV= 1 UseB2=F ITyADJ=14
 ICtDFT=  3500011 ScaDFX=  1.000000  1.000000  1.000000  1.000000
 FoFCou: FMM=F IPFlag=           0 FMFlag=      100000 FMFlg1=           0
         NFxFlg=           0 DoJE=T BraDBF=F KetDBF=T FulRan=T
         wScrn=  0.000000 ICntrl=       500 IOpCl=  0 I1Cent=   200000004 NGrid=           0
         NMat0=    1 NMatS0=      1 NMatT0=    0 NMatD0=    1 NMtDS0=    0 NMtDT0=    0
 Petite list used in FoFCou.
 Gradient too large for Newton-Raphson -- use scaled steepest descent instead.
 Gradient too large for Newton-Raphson -- use scaled steepest descent instead.
 Gradient too large for Newton-Raphson -- use scaled steepest descent instead.
     Minimum is close to point  2 DX=  2.09D-02 DF= -2.53D-05 DXR=  4.96D-02 DFR=  2.47D-03 which will be used.
 Gradient too large for Newton-Raphson -- use scaled steepest descent instead.
 Gradient too large for Newton-Raphson -- use scaled steepest descent instead.
     Minimum is close to point  2 DX= -7.51D-03 DF= -3.25D-07 DXR=  1.91D-02 DFR=  3.66D-04 which will be used.
 Gradient too large for Newton-Raphson -- use scaled steepest descent instead.
 Gradient too large for Newton-Raphson -- use scaled steepest descent instead.
     Minimum is close to point  2 DX=  1.50D-02 DF= -1.30D-07 DXR=  3.61D-02 DFR=  1.31D-03 which will be used.
 Gradient too large for Newton-Raphson -- use scaled steepest descent instead.
 Restarting incremental Fock formation.
 LinEq1:  Iter=  0 NonCon=     1 RMS=3.92D-05 Max=1.73D-03 NDo=     1
 AX will form     1 AO Fock derivatives at one time.
 LinEq1:  Iter=  1 NonCon=     1 RMS=5.38D-05 Max=3.08D-03 NDo=     1
 LinEq1:  Iter=  2 NonCon=     1 RMS=7.87D-06 Max=6.00D-04 NDo=     1
 LinEq1:  Iter=  3 NonCon=     1 RMS=8.32D-06 Max=7.05D-04 NDo=     1
 LinEq1:  Iter=  4 NonCon=     1 RMS=5.39D-06 Max=2.47D-04 NDo=     1
 LinEq1:  Iter=  5 NonCon=     1 RMS=4.97D-06 Max=4.06D-04 NDo=     1
 LinEq1:  Iter=  6 NonCon=     1 RMS=3.98D-06 Max=2.48D-04 NDo=     1
 LinEq1:  Iter=  7 NonCon=     1 RMS=2.27D-06 Max=7.41D-05 NDo=     1
 LinEq1:  Iter=  8 NonCon=     1 RMS=1.61D-06 Max=5.86D-05 NDo=     1
 LinEq1:  Iter=  9 NonCon=     1 RMS=1.22D-06 Max=7.35D-05 NDo=     1
 LinEq1:  Iter= 10 NonCon=     1 RMS=6.09D-07 Max=1.96D-05 NDo=     1
 LinEq1:  Iter= 11 NonCon=     1 RMS=3.93D-07 Max=1.43D-05 NDo=     1
 LinEq1:  Iter= 12 NonCon=     1 RMS=2.23D-07 Max=1.12D-05 NDo=     1
 LinEq1:  Iter= 13 NonCon=     1 RMS=1.41D-07 Max=5.81D-06 NDo=     1
 LinEq1:  Iter= 14 NonCon=     1 RMS=6.33D-08 Max=2.99D-06 NDo=     1
 LinEq1:  Iter= 15 NonCon=     1 RMS=3.74D-08 Max=1.74D-06 NDo=     1
 LinEq1:  Iter= 16 NonCon=     1 RMS=2.41D-08 Max=1.18D-06 NDo=     1
 LinEq1:  Iter= 17 NonCon=     1 RMS=1.21D-08 Max=4.96D-07 NDo=     1
 LinEq1:  Iter= 18 NonCon=     1 RMS=7.11D-09 Max=3.11D-07 NDo=     1
 LinEq1:  Iter= 19 NonCon=     1 RMS=5.33D-09 Max=2.60D-07 NDo=     1
 LinEq1:  Iter= 20 NonCon=     0 RMS=2.74D-09 Max=1.00D-07 NDo=     1
 Linear equations converged to 2.367D-08 2.367D-07 after    20 iterations.
     Accept linear search using points  1 and  2.
     Minimum is close to point  2 DX= -5.12D-05 DF=  0.00D+00 DXR=  5.12D-05 DFR=  0.00D+00 which will be used.
 LinEq1:  Iter=  0 NonCon=     1 RMS=5.03D-08 Max=2.89D-06 NDo=     1
 LinEq1:  Iter=  1 NonCon=     1 RMS=3.44D-08 Max=1.86D-06 NDo=     1
 LinEq1:  Iter=  2 NonCon=     1 RMS=2.14D-08 Max=1.13D-06 NDo=     1
 LinEq1:  Iter=  3 NonCon=     1 RMS=1.84D-08 Max=1.45D-06 NDo=     1
 LinEq1:  Iter=  4 NonCon=     1 RMS=1.68D-08 Max=1.29D-06 NDo=     1
 LinEq1:  Iter=  5 NonCon=     1 RMS=8.87D-09 Max=4.32D-07 NDo=     1
 LinEq1:  Iter=  6 NonCon=     1 RMS=6.94D-09 Max=3.72D-07 NDo=     1
 LinEq1:  Iter=  7 NonCon=     1 RMS=4.80D-09 Max=1.92D-07 NDo=     1
 LinEq1:  Iter=  8 NonCon=     1 RMS=3.22D-09 Max=1.34D-07 NDo=     1
 LinEq1:  Iter=  9 NonCon=     1 RMS=3.07D-09 Max=1.16D-07 NDo=     1
 LinEq1:  Iter= 10 NonCon=     1 RMS=1.57D-09 Max=7.01D-08 NDo=     1
 LinEq1:  Iter= 11 NonCon=     1 RMS=1.20D-09 Max=4.94D-08 NDo=     1
 LinEq1:  Iter= 12 NonCon=     1 RMS=8.09D-10 Max=3.78D-08 NDo=     1
 LinEq1:  Iter= 13 NonCon=     1 RMS=5.67D-10 Max=1.81D-08 NDo=     1
 LinEq1:  Iter= 14 NonCon=     1 RMS=3.57D-10 Max=1.47D-08 NDo=     1
 LinEq1:  Iter= 15 NonCon=     1 RMS=2.60D-10 Max=1.27D-08 NDo=     1
 LinEq1:  Iter= 16 NonCon=     1 RMS=1.27D-10 Max=4.10D-09 NDo=     1
 LinEq1:  Iter= 17 NonCon=     1 RMS=6.84D-11 Max=2.66D-09 NDo=     1
 LinEq1:  Iter= 18 NonCon=     1 RMS=3.33D-11 Max=1.05D-09 NDo=     1
 LinEq1:  Iter= 19 NonCon=     1 RMS=1.96D-11 Max=9.30D-10 NDo=     1
 LinEq1:  Iter= 20 NonCon=     1 RMS=1.12D-11 Max=5.31D-10 NDo=     1
 LinEq1:  Iter= 21 NonCon=     0 RMS=7.74D-12 Max=3.27D-10 NDo=     1
 Linear equations converged to 5.079D-11 5.079D-10 after    21 iterations.
 SCF Done:  E(RB3LYP) =  -1947.64054741     a.u. after   11 cycles
            Convg  =    0.2268D-09                    65 Fock formations.
              S**2 =  0.0000                  -V/T =  2.0062
 DoSCS=F DFT=T ScalE2(SS,OS)=  1.000000  1.000000
 Range of M.O.s used for correlation:     1   392
 NBasis=   392 NAE=    94 NBE=    94 NFC=     0 NFV=     0
 NROrb=    392 NOA=    94 NOB=    94 NVA=   298 NVB=   298

 **** Warning!!: The smallest alpha delta epsilon is  0.87868517D-01

 Symmetrizing basis deriv contribution to polar:
 IMax=3 JMax=2 DiffMx= 0.00D+00
 G2DrvN: will do    37 centers at a time, making    1 passes.
 Calling FoFCou, ICntrl=  3107 FMM=F I1Cent=   0 AccDes= 0.00D+00.
 End of G2Drv F.D. properties file   721 does not exist.
 End of G2Drv F.D. properties file   722 does not exist.
 End of G2Drv F.D. properties file   788 does not exist.
          IDoAtm=111111111111111111111111111111111111
          Differentiating once with respect to electric field.
                with respect to dipole field.
          Differentiating once with respect to nuclear coordinates.
 CalDSu exits because no D1Ps are significant.
          There are   111 degrees of freedom in the 1st order CPHF.  IDoFFX=6 NUNeed=     3.
    108 vectors produced by pass  0 Test12= 2.80D-14 1.00D-09 XBig12= 2.60D+02 6.23D+00.
 AX will form   108 AO Fock derivatives at one time.
    108 vectors produced by pass  1 Test12= 2.80D-14 1.00D-09 XBig12= 9.26D+01 1.92D+00.
    108 vectors produced by pass  2 Test12= 2.80D-14 1.00D-09 XBig12= 1.27D+00 1.95D-01.
    108 vectors produced by pass  3 Test12= 2.80D-14 1.00D-09 XBig12= 1.35D-02 1.90D-02.
    108 vectors produced by pass  4 Test12= 2.80D-14 1.00D-09 XBig12= 2.97D-05 4.84D-04.
    104 vectors produced by pass  5 Test12= 2.80D-14 1.00D-09 XBig12= 3.67D-08 1.22D-05.
     34 vectors produced by pass  6 Test12= 2.80D-14 1.00D-09 XBig12= 4.13D-11 5.10D-07.
      3 vectors produced by pass  7 Test12= 2.80D-14 1.00D-09 XBig12= 3.52D-14 1.42D-08.
 InvSVY:  IOpt=1 It=  1 EMax= 1.60D-14
 Solved reduced A of dimension   681 with   111 vectors.
 Isotropic polarizability for W=    0.000000      212.50 Bohr**3.
 End of Minotr F.D. properties file   721 does not exist.
 End of Minotr F.D. properties file   722 does not exist.
 End of Minotr F.D. properties file   788 does not exist.

 **********************************************************************

            Population analysis using the SCF density.

 **********************************************************************

 Orbital symmetries:
       Occupied  (A) (A) (A) (A) (A) (A) (A) (A) (A) (A) (A) (A)
                 (A) (A) (A) (A) (A) (A) (A) (A) (A) (A) (A) (A)
                 (A) (A) (A) (A) (A) (A) (A) (A) (A) (A) (A) (A)
                 (A) (A) (A) (A) (A) (A) (A) (A) (A) (A) (A) (A)
                 (A) (A) (A) (A) (A) (A) (A) (A) (A) (A) (A) (A)
                 (A) (A) (A) (A) (A) (A) (A) (A) (A) (A) (A) (A)
                 (A) (A) (A) (A) (A) (A) (A) (A) (A) (A) (A) (A)
                 (A) (A) (A) (A) (A) (A) (A) (A) (A) (A)
       Virtual   (A) (A) (A) (A) (A) (A) (A) (A) (A) (A) (A) (A)
                 (A) (A) (A) (A) (A) (A) (A) (A) (A) (A) (A) (A)
                 (A) (A) (A) (A) (A) (A) (A) (A) (A) (A) (A) (A)
                 (A) (A) (A) (A) (A) (A) (A) (A) (A) (A) (A) (A)
                 (A) (A) (A) (A) (A) (A) (A) (A) (A) (A) (A) (A)
                 (A) (A) (A) (A) (A) (A) (A) (A) (A) (A) (A) (A)
                 (A) (A) (A) (A) (A) (A) (A) (A) (A) (A) (A) (A)
                 (A) (A) (A) (A) (A) (A) (A) (A) (A) (A) (A) (A)
                 (A) (A) (A) (A) (A) (A) (A) (A) (A) (A) (A) (A)
                 (A) (A) (A) (A) (A) (A) (A) (A) (A) (A) (A) (A)
                 (A) (A) (A) (A) (A) (A) (A) (A) (A) (A) (A) (A)
                 (A) (A) (A) (A) (A) (A) (A) (A) (A) (A) (A) (A)
                 (A) (A) (A) (A) (A) (A) (A) (A) (A) (A) (A) (A)
                 (A) (A) (A) (A) (A) (A) (A) (A) (A) (A) (A) (A)
                 (A) (A) (A) (A) (A) (A) (A) (A) (A) (A) (A) (A)
                 (A) (A) (A) (A) (A) (A) (A) (A) (A) (A) (A) (A)
                 (A) (A) (A) (A) (A) (A) (A) (A) (A) (A) (A) (A)
                 (A) (A) (A) (A) (A) (A) (A) (A) (A) (A) (A) (A)
                 (A) (A) (A) (A) (A) (A) (A) (A) (A) (A) (A) (A)
                 (A) (A) (A) (A) (A) (A) (A) (A) (A) (A) (A) (A)
                 (A) (A) (A) (A) (A) (A) (A) (A) (A) (A) (A) (A)
                 (A) (A) (A) (A) (A) (A) (A) (A) (A) (A) (A) (A)
                 (A) (A) (A) (A) (A) (A) (A) (A) (A) (A) (A) (A)
                 (A) (A) (A) (A) (A) (A) (A) (A) (A) (A) (A) (A)
                 (A) (A) (A) (A) (A) (A) (A) (A) (A) (A)
 The electronic state is 1-A.
 Alpha  occ. eigenvalues -- -101.55501-101.55126 -19.21877 -19.21740 -19.18160
 Alpha  occ. eigenvalues --  -19.17891 -14.44248 -14.44010 -10.37018 -10.37000
 Alpha  occ. eigenvalues --  -10.26495 -10.26460 -10.25884 -10.25356 -10.21611
 Alpha  occ. eigenvalues --  -10.21426 -10.21184 -10.21053 -10.20953 -10.20925
 Alpha  occ. eigenvalues --  -10.20882 -10.20764 -10.20683 -10.20485  -9.47194
 Alpha  occ. eigenvalues --   -9.46820  -7.23581  -7.23206  -7.22623  -7.22581
 Alpha  occ. eigenvalues --   -7.22247  -7.22210  -1.16082  -1.13419  -1.07365
 Alpha  occ. eigenvalues --   -1.04785  -1.04626  -0.90290  -0.89947  -0.86139
 Alpha  occ. eigenvalues --   -0.85018  -0.84174  -0.77744  -0.76904  -0.76442
 Alpha  occ. eigenvalues --   -0.76188  -0.70801  -0.69865  -0.64163  -0.63076
 Alpha  occ. eigenvalues --   -0.62973  -0.60663  -0.59969  -0.57708  -0.57370
 Alpha  occ. eigenvalues --   -0.53583  -0.53347  -0.52449  -0.51269  -0.49923
 Alpha  occ. eigenvalues --   -0.49171  -0.48612  -0.47787  -0.47437  -0.47023
 Alpha  occ. eigenvalues --   -0.46640  -0.45137  -0.44761  -0.43677  -0.43555
 Alpha  occ. eigenvalues --   -0.43355  -0.42258  -0.40371  -0.39970  -0.39588
 Alpha  occ. eigenvalues --   -0.38621  -0.38221  -0.38005  -0.37153  -0.36366
 Alpha  occ. eigenvalues --   -0.36012  -0.33869  -0.33513  -0.32684  -0.32447
 Alpha  occ. eigenvalues --   -0.32277  -0.32046  -0.31702  -0.31450  -0.27990
 Alpha  occ. eigenvalues --   -0.26812  -0.26594  -0.25139  -0.24369
 Alpha virt. eigenvalues --   -0.15582  -0.02705  -0.02008  -0.01996  -0.01437
 Alpha virt. eigenvalues --   -0.00022   0.03473   0.03836   0.04056   0.10051
 Alpha virt. eigenvalues --    0.10455   0.10863   0.11056   0.11773   0.12091
 Alpha virt. eigenvalues --    0.12402   0.12731   0.13810   0.14564   0.16388
 Alpha virt. eigenvalues --    0.16919   0.17303   0.17696   0.18630   0.19580
 Alpha virt. eigenvalues --    0.20942   0.21564   0.21696   0.22647   0.24171
 Alpha virt. eigenvalues --    0.26930   0.27582   0.27649   0.27679   0.29263
 Alpha virt. eigenvalues --    0.31039   0.31776   0.32480   0.33224   0.34146
 Alpha virt. eigenvalues --    0.35154   0.39239   0.39962   0.40541   0.41462
 Alpha virt. eigenvalues --    0.41755   0.41840   0.43782   0.43965   0.44098
 Alpha virt. eigenvalues --    0.45541   0.46430   0.47616   0.47693   0.49044
 Alpha virt. eigenvalues --    0.50025   0.52048   0.52536   0.53526   0.53927
 Alpha virt. eigenvalues --    0.54450   0.54942   0.55768   0.55990   0.56657
 Alpha virt. eigenvalues --    0.56818   0.57445   0.57803   0.57845   0.57995
 Alpha virt. eigenvalues --    0.58449   0.58693   0.59038   0.59681   0.60103
 Alpha virt. eigenvalues --    0.60435   0.60906   0.62343   0.62730   0.62844
 Alpha virt. eigenvalues --    0.63404   0.65065   0.65390   0.66131   0.67397
 Alpha virt. eigenvalues --    0.68795   0.70269   0.71213   0.71614   0.72252
 Alpha virt. eigenvalues --    0.73889   0.74127   0.74902   0.75438   0.76204
 Alpha virt. eigenvalues --    0.77700   0.79648   0.79831   0.80403   0.80858
 Alpha virt. eigenvalues --    0.82064   0.83099   0.83586   0.84136   0.84491
 Alpha virt. eigenvalues --    0.84649   0.84986   0.86515   0.86736   0.86990
 Alpha virt. eigenvalues --    0.87416   0.88403   0.88947   0.90310   0.90948
 Alpha virt. eigenvalues --    0.91396   0.91721   0.92800   0.93073   0.93348
 Alpha virt. eigenvalues --    0.93768   0.95607   0.97151   0.98067   0.98452
 Alpha virt. eigenvalues --    0.99252   1.00831   1.02684   1.03508   1.04311
 Alpha virt. eigenvalues --    1.05315   1.05875   1.06718   1.09765   1.10897
 Alpha virt. eigenvalues --    1.11497   1.11855   1.13516   1.13735   1.14355
 Alpha virt. eigenvalues --    1.15766   1.16784   1.18580   1.19362   1.20280
 Alpha virt. eigenvalues --    1.21877   1.23007   1.23949   1.26835   1.29512
 Alpha virt. eigenvalues --    1.30908   1.34277   1.34891   1.35525   1.37278
 Alpha virt. eigenvalues --    1.38090   1.38292   1.40366   1.41380   1.42485
 Alpha virt. eigenvalues --    1.42986   1.43280   1.44939   1.45434   1.45656
 Alpha virt. eigenvalues --    1.46640   1.47447   1.48786   1.49446   1.49775
 Alpha virt. eigenvalues --    1.53135   1.55153   1.55433   1.59571   1.60650
 Alpha virt. eigenvalues --    1.61919   1.63810   1.65389   1.68502   1.70157
 Alpha virt. eigenvalues --    1.72362   1.73719   1.75377   1.77219   1.77583
 Alpha virt. eigenvalues --    1.77844   1.78482   1.79068   1.80143   1.80743
 Alpha virt. eigenvalues --    1.81654   1.83478   1.84278   1.84763   1.85572
 Alpha virt. eigenvalues --    1.88897   1.89891   1.91451   1.93959   1.94281
 Alpha virt. eigenvalues --    1.95481   1.96084   1.96448   1.97783   1.99973
 Alpha virt. eigenvalues --    2.00433   2.01487   2.03349   2.04899   2.05986
 Alpha virt. eigenvalues --    2.06405   2.06805   2.08342   2.09303   2.11178
 Alpha virt. eigenvalues --    2.12323   2.12477   2.13902   2.13921   2.14857
 Alpha virt. eigenvalues --    2.15593   2.20726   2.22493   2.23055   2.23665
 Alpha virt. eigenvalues --    2.23760   2.24648   2.28469   2.28961   2.29265
 Alpha virt. eigenvalues --    2.31815   2.32566   2.34656   2.35341   2.38515
 Alpha virt. eigenvalues --    2.40734   2.42530   2.46821   2.49260   2.52495
 Alpha virt. eigenvalues --    2.54903   2.56110   2.56913   2.58047   2.59383
 Alpha virt. eigenvalues --    2.62781   2.62880   2.65120   2.65893   2.66791
 Alpha virt. eigenvalues --    2.67620   2.69330   2.70661   2.71963   2.73665
 Alpha virt. eigenvalues --    2.74082   2.74155   2.75134   2.76007   2.78686
 Alpha virt. eigenvalues --    2.82076   2.85911   2.86552   2.88217   2.91720
 Alpha virt. eigenvalues --    2.95609   3.03768   3.04368   3.06051   3.10557
 Alpha virt. eigenvalues --    3.16558   3.22978   3.36086   3.36492   3.77549
 Alpha virt. eigenvalues --    3.91162   3.98825   4.04261   4.04955   4.05139
 Alpha virt. eigenvalues --    4.09678   4.09878   4.10930   4.11218   4.19172
 Alpha virt. eigenvalues --    4.21078   4.25366   4.27014   4.30650   4.31730
 Alpha virt. eigenvalues --    4.32327   4.35486   4.38797   4.42651   4.44722
 Alpha virt. eigenvalues --    4.49021   4.68426   4.69113
          Condensed to atoms (all electrons):
               1          2          3          4          5          6
     1  C    4.730139   0.345199  -0.043622  -0.006174  -0.004806  -0.000883
     2  C    0.345199   4.998906   0.188666  -0.012066  -0.001383   0.004534
     3  O   -0.043622   0.188666   8.249891   0.283570  -0.080113  -0.101144
     4  C   -0.006174  -0.012066   0.283570   4.224527   0.531643   0.237413
     5  O   -0.004806  -0.001383  -0.080113   0.531643   8.040208  -0.058727
     6  N   -0.000883   0.004534  -0.101144   0.237413  -0.058727   7.001850
     7  N    0.000073   0.000529  -0.010097  -0.047815   0.000670   0.184213
     8  C    0.000002   0.000011   0.000344   0.003385  -0.000107  -0.052648
     9  O   -0.000000  -0.000000   0.000005  -0.000108   0.000000   0.001766
    10  O   -0.000000   0.000000  -0.000024   0.000218   0.000006  -0.019539
    11  C    0.000000  -0.000000   0.000001  -0.000010  -0.000000   0.000661
    12  C   -0.000000  -0.000000   0.000000   0.000001   0.000000   0.000049
    13  C   -0.000000   0.000000  -0.000000  -0.000005  -0.000001  -0.001082
    14  C    0.000000   0.000000   0.000000   0.000000   0.000000   0.000004
    15  C    0.000000  -0.000000   0.000000   0.000000   0.000000   0.000000
    16  C   -0.000000   0.000000  -0.000000  -0.000000  -0.000000  -0.000000
    17  C   -0.000000   0.000000  -0.000000   0.000000   0.000000  -0.000000
    18  Cl   0.000000  -0.000000  -0.000000  -0.000000   0.000000   0.000000
    19  C    0.545580  -0.048454  -0.003550   0.003359  -0.002824  -0.000062
    20  C   -0.026449   0.006002  -0.000056  -0.000037   0.000214   0.000002
    21  C   -0.031043   0.000403   0.000004  -0.000005   0.000002   0.000000
    22  C   -0.023901   0.006015  -0.000020  -0.000017  -0.000002  -0.000000
    23  C    0.541155  -0.052909   0.001206   0.000067   0.000059  -0.000017
    24  Cl   0.000555   0.000007  -0.000000   0.000000   0.000000  -0.000000
    25  H   -0.035447   0.355275  -0.034509  -0.009513   0.013090   0.000219
    26  H   -0.036237   0.365429  -0.028231   0.003644   0.000268  -0.000112
    27  H   -0.000000   0.000000  -0.000000   0.000004  -0.000000  -0.000133
    28  H    0.000000   0.000000  -0.000000  -0.000001   0.000000   0.000067
    29  H    0.000000  -0.000000   0.000001   0.000020   0.000006   0.004004
    30  H    0.000000   0.000000  -0.000000  -0.000000  -0.000000  -0.000001
    31  H   -0.000000   0.000000  -0.000000  -0.000000  -0.000000  -0.000000
    32  H   -0.000000  -0.000000   0.000000   0.000000   0.000000   0.000000
    33  H   -0.036789  -0.008448   0.000035  -0.000504   0.009911   0.000077
    34  H    0.003667  -0.000152   0.000001   0.000004  -0.000010  -0.000000
    35  H    0.003809  -0.000163   0.000001   0.000000  -0.000000   0.000000
    36  H   -0.043513  -0.007753   0.000306   0.000026  -0.000000   0.000001
               7          8          9         10         11         12
     1  C    0.000073   0.000002  -0.000000  -0.000000   0.000000  -0.000000
     2  C    0.000529   0.000011  -0.000000   0.000000  -0.000000  -0.000000
     3  O   -0.010097   0.000344   0.000005  -0.000024   0.000001   0.000000
     4  C   -0.047815   0.003385  -0.000108   0.000218  -0.000010   0.000001
     5  O    0.000670  -0.000107   0.000000   0.000006  -0.000000   0.000000
     6  N    0.184213  -0.052648   0.001766  -0.019539   0.000661   0.000049
     7  N    7.026457   0.235080  -0.061562  -0.100537   0.004144  -0.000166
     8  C    0.235080   4.222272   0.552490   0.276782  -0.014733  -0.001357
     9  O   -0.061562   0.552490   8.007083  -0.078054  -0.009777  -0.000347
    10  O   -0.100537   0.276782  -0.078054   8.247497   0.193557  -0.031095
    11  C    0.004144  -0.014733  -0.009777   0.193557   5.019403   0.339888
    12  C   -0.000166  -0.001357  -0.000347  -0.031095   0.339888   4.742301
    13  C   -0.000046   0.001094   0.000117  -0.002766  -0.061736   0.553229
    14  C   -0.000001  -0.000011   0.000001   0.000370   0.006507  -0.021039
    15  C   -0.000000  -0.000002  -0.000000  -0.000005   0.000410  -0.032581
    16  C   -0.000000   0.000000   0.000000  -0.000063   0.005294  -0.013506
    17  C    0.000001   0.000036  -0.000035   0.002126  -0.061825   0.512326
    18  Cl  -0.000000  -0.000000  -0.000000   0.000000   0.000008   0.000685
    19  C   -0.000003   0.000000  -0.000000  -0.000000   0.000000  -0.000000
    20  C   -0.000000   0.000000  -0.000000  -0.000000   0.000000  -0.000000
    21  C   -0.000000  -0.000000   0.000000   0.000000  -0.000000   0.000000
    22  C    0.000000  -0.000000   0.000000   0.000000   0.000000  -0.000000
    23  C   -0.000003  -0.000000   0.000000  -0.000000   0.000000   0.000000
    24  Cl   0.000000   0.000000  -0.000000  -0.000000   0.000000  -0.000000
    25  H   -0.000163   0.000001   0.000000  -0.000000   0.000000   0.000000
    26  H    0.000074  -0.000002  -0.000000   0.000000   0.000000   0.000000
    27  H    0.000560  -0.009359   0.021781  -0.026871   0.349468  -0.034492
    28  H   -0.000160   0.002333   0.000534  -0.032533   0.364598  -0.040625
    29  H   -0.000408  -0.000478  -0.000093   0.009594  -0.014448  -0.039303
    30  H    0.000000   0.000001  -0.000000   0.000004  -0.000176   0.003697
    31  H    0.000000   0.000000   0.000000   0.000000  -0.000144   0.003389
    32  H   -0.000000  -0.000004  -0.000003   0.000052  -0.006963  -0.051892
    33  H   -0.000002   0.000000  -0.000000   0.000000   0.000000   0.000000
    34  H   -0.000000  -0.000000   0.000000   0.000000  -0.000000   0.000000
    35  H   -0.000000  -0.000000   0.000000   0.000000  -0.000000   0.000000
    36  H   -0.000001  -0.000000   0.000000   0.000000  -0.000000   0.000000
              13         14         15         16         17         18
     1  C   -0.000000   0.000000   0.000000  -0.000000  -0.000000   0.000000
     2  C    0.000000   0.000000  -0.000000   0.000000   0.000000  -0.000000
     3  O   -0.000000   0.000000   0.000000  -0.000000  -0.000000  -0.000000
     4  C   -0.000005   0.000000   0.000000  -0.000000   0.000000  -0.000000
     5  O   -0.000001   0.000000   0.000000  -0.000000   0.000000   0.000000
     6  N   -0.001082   0.000004   0.000000  -0.000000  -0.000000   0.000000
     7  N   -0.000046  -0.000001  -0.000000  -0.000000   0.000001  -0.000000
     8  C    0.001094  -0.000011  -0.000002   0.000000   0.000036  -0.000000
     9  O    0.000117   0.000001  -0.000000   0.000000  -0.000035  -0.000000
    10  O   -0.002766   0.000370  -0.000005  -0.000063   0.002126   0.000000
    11  C   -0.061736   0.006507   0.000410   0.005294  -0.061825   0.000008
    12  C    0.553229  -0.021039  -0.032581  -0.013506   0.512326   0.000685
    13  C    4.943438   0.498258  -0.028492  -0.043185  -0.030354   0.004447
    14  C    0.498258   4.948702   0.529798  -0.034205  -0.043687  -0.071724
    15  C   -0.028492   0.529798   4.934045   0.531803  -0.031389   0.236950
    16  C   -0.043185  -0.034205   0.531803   4.925500   0.510770  -0.071311
    17  C   -0.030354  -0.043687  -0.031389   0.510770   4.976936   0.004650
    18  Cl   0.004447  -0.071724   0.236950  -0.071311   0.004650  16.907589
    19  C   -0.000000   0.000000  -0.000000  -0.000000  -0.000000  -0.000000
    20  C    0.000000  -0.000000  -0.000000   0.000000   0.000000  -0.000000
    21  C    0.000000  -0.000000  -0.000000   0.000000   0.000000   0.000000
    22  C   -0.000000   0.000000   0.000000   0.000000   0.000000   0.000000
    23  C    0.000000  -0.000000  -0.000000  -0.000000  -0.000000  -0.000000
    24  Cl  -0.000000   0.000000   0.000000   0.000000  -0.000000   0.000000
    25  H    0.000000  -0.000000  -0.000000  -0.000000   0.000000   0.000000
    26  H   -0.000000   0.000000   0.000000  -0.000000  -0.000000   0.000000
    27  H    0.002206  -0.000037   0.000014  -0.000078  -0.002063  -0.000000
    28  H    0.000390  -0.000105   0.000028  -0.000148  -0.001072  -0.000000
    29  H    0.356220  -0.043775   0.004639   0.000301   0.005819  -0.000161
    30  H   -0.035267   0.360351  -0.044111   0.004244   0.000828  -0.000400
    31  H    0.000674   0.004412  -0.042932   0.360044  -0.035649  -0.000319
    32  H    0.005316   0.000467   0.004715  -0.041431   0.361839  -0.000175
    33  H    0.000000  -0.000000  -0.000000   0.000000  -0.000000   0.000000
    34  H    0.000000  -0.000000   0.000000   0.000000   0.000000  -0.000000
    35  H   -0.000000  -0.000000   0.000000   0.000000   0.000000   0.000000
    36  H    0.000000  -0.000000   0.000000   0.000000  -0.000000   0.000000
              19         20         21         22         23         24
     1  C    0.545580  -0.026449  -0.031043  -0.023901   0.541155   0.000555
     2  C   -0.048454   0.006002   0.000403   0.006015  -0.052909   0.000007
     3  O   -0.003550  -0.000056   0.000004  -0.000020   0.001206  -0.000000
     4  C    0.003359  -0.000037  -0.000005  -0.000017   0.000067   0.000000
     5  O   -0.002824   0.000214   0.000002  -0.000002   0.000059   0.000000
     6  N   -0.000062   0.000002   0.000000  -0.000000  -0.000017  -0.000000
     7  N   -0.000003  -0.000000  -0.000000   0.000000  -0.000003   0.000000
     8  C    0.000000   0.000000  -0.000000  -0.000000  -0.000000   0.000000
     9  O   -0.000000  -0.000000   0.000000   0.000000   0.000000  -0.000000
    10  O   -0.000000  -0.000000   0.000000   0.000000  -0.000000  -0.000000
    11  C    0.000000   0.000000  -0.000000   0.000000   0.000000   0.000000
    12  C   -0.000000  -0.000000   0.000000  -0.000000   0.000000  -0.000000
    13  C   -0.000000   0.000000   0.000000  -0.000000   0.000000  -0.000000
    14  C    0.000000  -0.000000  -0.000000   0.000000  -0.000000   0.000000
    15  C   -0.000000  -0.000000  -0.000000   0.000000  -0.000000   0.000000
    16  C   -0.000000   0.000000   0.000000   0.000000  -0.000000   0.000000
    17  C   -0.000000   0.000000   0.000000   0.000000  -0.000000  -0.000000
    18  Cl  -0.000000  -0.000000   0.000000   0.000000  -0.000000   0.000000
    19  C    4.951242   0.499008  -0.029511  -0.042148  -0.041491   0.004485
    20  C    0.499008   4.953627   0.528591  -0.035422  -0.042492  -0.071707
    21  C   -0.029511   0.528591   4.929086   0.532165  -0.030598   0.239678
    22  C   -0.042148  -0.035422   0.532165   4.935554   0.512063  -0.071872
    23  C   -0.041491  -0.042492  -0.030598   0.512063   4.943405   0.004645
    24  Cl   0.004485  -0.071707   0.239678  -0.071872   0.004645  16.900634
    25  H   -0.005507   0.000119  -0.000004  -0.000192   0.004478  -0.000000
    26  H    0.004436  -0.000202   0.000004   0.000078  -0.005991  -0.000000
    27  H    0.000000   0.000000   0.000000  -0.000000   0.000000  -0.000000
    28  H    0.000000   0.000000  -0.000000  -0.000000  -0.000000   0.000000
    29  H    0.000000  -0.000000  -0.000000   0.000000  -0.000000   0.000000
    30  H   -0.000000   0.000000   0.000000  -0.000000   0.000000  -0.000000
    31  H    0.000000   0.000000   0.000000   0.000000   0.000000   0.000000
    32  H    0.000000  -0.000000  -0.000000  -0.000000  -0.000000   0.000000
    33  H    0.356708  -0.040724   0.004344   0.000402   0.005044  -0.000154
    34  H   -0.034165   0.360322  -0.043887   0.004312   0.000703  -0.000484
    35  H    0.000648   0.004350  -0.043465   0.359500  -0.035226  -0.000447
    36  H    0.005279   0.000439   0.004587  -0.041526   0.357754  -0.000171
              25         26         27         28         29         30
     1  C   -0.035447  -0.036237  -0.000000   0.000000   0.000000   0.000000
     2  C    0.355275   0.365429   0.000000   0.000000  -0.000000   0.000000
     3  O   -0.034509  -0.028231  -0.000000  -0.000000   0.000001  -0.000000
     4  C   -0.009513   0.003644   0.000004  -0.000001   0.000020  -0.000000
     5  O    0.013090   0.000268  -0.000000   0.000000   0.000006  -0.000000
     6  N    0.000219  -0.000112  -0.000133   0.000067   0.004004  -0.000001
     7  N   -0.000163   0.000074   0.000560  -0.000160  -0.000408   0.000000
     8  C    0.000001  -0.000002  -0.009359   0.002333  -0.000478   0.000001
     9  O    0.000000  -0.000000   0.021781   0.000534  -0.000093  -0.000000
    10  O   -0.000000   0.000000  -0.026871  -0.032533   0.009594   0.000004
    11  C    0.000000   0.000000   0.349468   0.364598  -0.014448  -0.000176
    12  C    0.000000   0.000000  -0.034492  -0.040625  -0.039303   0.003697
    13  C    0.000000  -0.000000   0.002206   0.000390   0.356220  -0.035267
    14  C   -0.000000   0.000000  -0.000037  -0.000105  -0.043775   0.360351
    15  C   -0.000000   0.000000   0.000014   0.000028   0.004639  -0.044111
    16  C   -0.000000  -0.000000  -0.000078  -0.000148   0.000301   0.004244
    17  C    0.000000  -0.000000  -0.002063  -0.001072   0.005819   0.000828
    18  Cl   0.000000   0.000000  -0.000000  -0.000000  -0.000161  -0.000400
    19  C   -0.005507   0.004436   0.000000   0.000000   0.000000  -0.000000
    20  C    0.000119  -0.000202   0.000000   0.000000  -0.000000   0.000000
    21  C   -0.000004   0.000004   0.000000  -0.000000  -0.000000   0.000000
    22  C   -0.000192   0.000078  -0.000000  -0.000000   0.000000  -0.000000
    23  C    0.004478  -0.005991   0.000000  -0.000000  -0.000000   0.000000
    24  Cl  -0.000000  -0.000000  -0.000000   0.000000   0.000000  -0.000000
    25  H    0.568188  -0.035973   0.000000  -0.000000  -0.000000   0.000000
    26  H   -0.035973   0.552962  -0.000000   0.000000   0.000000  -0.000000
    27  H    0.000000  -0.000000   0.535428  -0.037763   0.000207   0.000002
    28  H   -0.000000   0.000000  -0.037763   0.564350   0.000338   0.000003
    29  H   -0.000000   0.000000   0.000207   0.000338   0.566875  -0.005407
    30  H    0.000000  -0.000000   0.000002   0.000003  -0.005407   0.559958
    31  H    0.000000  -0.000000   0.000001   0.000001   0.000014  -0.000173
    32  H    0.000000   0.000000   0.002100   0.002113  -0.000152   0.000016
    33  H    0.004166   0.000049   0.000000  -0.000000  -0.000000   0.000000
    34  H   -0.000003   0.000003   0.000000  -0.000000  -0.000000   0.000000
    35  H    0.000003  -0.000005  -0.000000  -0.000000   0.000000  -0.000000
    36  H    0.000082   0.004756   0.000000  -0.000000  -0.000000  -0.000000
              31         32         33         34         35         36
     1  C   -0.000000  -0.000000  -0.036789   0.003667   0.003809  -0.043513
     2  C    0.000000  -0.000000  -0.008448  -0.000152  -0.000163  -0.007753
     3  O   -0.000000   0.000000   0.000035   0.000001   0.000001   0.000306
     4  C   -0.000000   0.000000  -0.000504   0.000004   0.000000   0.000026
     5  O   -0.000000   0.000000   0.009911  -0.000010  -0.000000  -0.000000
     6  N   -0.000000   0.000000   0.000077  -0.000000   0.000000   0.000001
     7  N    0.000000  -0.000000  -0.000002  -0.000000  -0.000000  -0.000001
     8  C    0.000000  -0.000004   0.000000  -0.000000  -0.000000  -0.000000
     9  O    0.000000  -0.000003  -0.000000   0.000000   0.000000   0.000000
    10  O    0.000000   0.000052   0.000000   0.000000   0.000000   0.000000
    11  C   -0.000144  -0.006963   0.000000  -0.000000  -0.000000  -0.000000
    12  C    0.003389  -0.051892   0.000000   0.000000   0.000000   0.000000
    13  C    0.000674   0.005316   0.000000   0.000000  -0.000000   0.000000
    14  C    0.004412   0.000467  -0.000000  -0.000000  -0.000000  -0.000000
    15  C   -0.042932   0.004715  -0.000000   0.000000   0.000000   0.000000
    16  C    0.360044  -0.041431   0.000000   0.000000   0.000000   0.000000
    17  C   -0.035649   0.361839  -0.000000   0.000000   0.000000  -0.000000
    18  Cl  -0.000319  -0.000175   0.000000  -0.000000   0.000000   0.000000
    19  C    0.000000   0.000000   0.356708  -0.034165   0.000648   0.005279
    20  C    0.000000  -0.000000  -0.040724   0.360322   0.004350   0.000439
    21  C    0.000000  -0.000000   0.004344  -0.043887  -0.043465   0.004587
    22  C    0.000000  -0.000000   0.000402   0.004312   0.359500  -0.041526
    23  C    0.000000  -0.000000   0.005044   0.000703  -0.035226   0.357754
    24  Cl   0.000000   0.000000  -0.000154  -0.000484  -0.000447  -0.000171
    25  H    0.000000   0.000000   0.004166  -0.000003   0.000003   0.000082
    26  H   -0.000000   0.000000   0.000049   0.000003  -0.000005   0.004756
    27  H    0.000001   0.002100   0.000000   0.000000  -0.000000   0.000000
    28  H    0.000001   0.002113  -0.000000  -0.000000  -0.000000  -0.000000
    29  H    0.000014  -0.000152  -0.000000  -0.000000   0.000000  -0.000000
    30  H   -0.000173   0.000016   0.000000   0.000000  -0.000000  -0.000000
    31  H    0.561183  -0.005700  -0.000000  -0.000000   0.000000  -0.000000
    32  H   -0.005700   0.594230  -0.000000   0.000000   0.000000   0.000000
    33  H   -0.000000  -0.000000   0.538575  -0.005313   0.000014  -0.000162
    34  H   -0.000000   0.000000  -0.005313   0.556884  -0.000172   0.000015
    35  H    0.000000   0.000000   0.000014  -0.000172   0.561304  -0.005691
    36  H   -0.000000   0.000000  -0.000162   0.000015  -0.005691   0.583083
 Mulliken charges:
               1
     1  C    0.118685
     2  C   -0.139648
     3  O   -0.422663
     4  C    0.788372
     5  O   -0.448104
     6  N   -0.200512
     7  N   -0.230837
     8  C    0.784870
     9  O   -0.433798
    10  O   -0.438719
    11  C   -0.114128
    12  C    0.110839
    13  C   -0.162459
    14  C   -0.134288
    15  C   -0.062890
    16  C   -0.134029
    17  C   -0.169258
    18  Cl  -0.010239
    19  C   -0.163030
    20  C   -0.135585
    21  C   -0.060353
    22  C   -0.134990
    23  C   -0.161852
    24  Cl  -0.005168
    25  H    0.175692
    26  H    0.175049
    27  H    0.199025
    28  H    0.177652
    29  H    0.156189
    30  H    0.156432
    31  H    0.155199
    32  H    0.135472
    33  H    0.172771
    34  H    0.158273
    35  H    0.155540
    36  H    0.142489
 Sum of Mulliken charges =  -0.00000
 Mulliken charges with hydrogens summed into heavy atoms:
               1
     1  C    0.118685
     2  C    0.211093
     3  O   -0.422663
     4  C    0.788372
     5  O   -0.448104
     6  N   -0.200512
     7  N   -0.230837
     8  C    0.784870
     9  O   -0.433798
    10  O   -0.438719
    11  C    0.262550
    12  C    0.110839
    13  C   -0.006270
    14  C    0.022144
    15  C   -0.062890
    16  C    0.021170
    17  C   -0.033786
    18  Cl  -0.010239
    19  C    0.009742
    20  C    0.022688
    21  C   -0.060353
    22  C    0.020549
    23  C   -0.019363
    24  Cl  -0.005168
 APT charges:
               1
     1  C   -0.106215
     2  C    0.682775
     3  O   -0.920528
     4  C    1.192078
     5  O   -0.632880
     6  N   -0.201435
     7  N   -0.186018
     8  C    1.266368
     9  O   -0.619253
    10  O   -0.920061
    11  C    0.544531
    12  C    0.017733
    13  C   -0.038251
    14  C   -0.087612
    15  C    0.422624
    16  C   -0.104111
    17  C   -0.018501
    18  Cl  -0.361085
    19  C   -0.020170
    20  C   -0.117880
    21  C    0.464544
    22  C   -0.131674
    23  C    0.014548
    24  Cl  -0.364113
    25  H   -0.030331
    26  H   -0.030187
    27  H   -0.002368
    28  H   -0.064238
    29  H    0.052736
    30  H    0.044073
    31  H    0.041343
    32  H    0.022947
    33  H    0.076279
    34  H    0.045200
    35  H    0.042833
    36  H    0.026298
 Sum of APT charges =  -0.00000
 APT charges with hydrogens summed into heavy atoms:
               1
     1  C   -0.106215
     2  C    0.622256
     3  O   -0.920528
     4  C    1.192078
     5  O   -0.632880
     6  N   -0.201435
     7  N   -0.186018
     8  C    1.266368
     9  O   -0.619253
    10  O   -0.920061
    11  C    0.477925
    12  C    0.017733
    13  C    0.014485
    14  C   -0.043539
    15  C    0.422624
    16  C   -0.062767
    17  C    0.004446
    18  Cl  -0.361085
    19  C    0.056109
    20  C   -0.072680
    21  C    0.464544
    22  C   -0.088840
    23  C    0.040847
    24  Cl  -0.364113
 Electronic spatial extent (au):  <R**2>=          18302.1094
 Charge=             -0.0000 electrons
 Dipole moment (field-independent basis, Debye):
    X=              1.0156    Y=              1.3443    Z=              0.5591  Tot=              1.7752
 Quadrupole moment (field-independent basis, Debye-Ang):
   XX=           -156.4982   YY=           -157.0328   ZZ=           -140.8625
   XY=              4.5103   XZ=            -14.2855   YZ=              2.6877
 Traceless Quadrupole moment (field-independent basis, Debye-Ang):
   XX=             -5.0337   YY=             -5.5683   ZZ=             10.6020
   XY=              4.5103   XZ=            -14.2855   YZ=              2.6877
 Octapole moment (field-independent basis, Debye-Ang**2):
  XXX=             11.7726  YYY=            -31.6807  ZZZ=             -0.4455  XYY=             45.9755
  XXY=            100.6027  XXZ=             31.3285  XZZ=            -23.3325  YZZ=             18.3447
  YYZ=             -4.5506  XYZ=             -7.8051
 Hexadecapole moment (field-independent basis, Debye-Ang**3):
 XXXX=         -22319.6329 YYYY=          -2097.5499 ZZZZ=          -1140.4211 XXXY=             64.4299
 XXXZ=           -432.4120 YYYX=             22.2046 YYYZ=              7.3859 ZZZX=            -31.1967
 ZZZY=              5.5525 XXYY=          -3872.2748 XXZZ=          -3599.5352 YYZZ=           -507.9041
 XXYZ=            103.6810 YYXZ=              1.6735 ZZXY=              3.1814
 N-N= 2.045365445504D+03 E-N=-8.670265804349D+03  KE= 1.935582675215D+03
  Exact polarizability: 278.266   0.994 197.103  18.891  21.813 162.141
 Approx polarizability: 343.822  -2.490 360.766  32.522  53.177 266.675
 Calling FoFJK, ICntrl=    100127 FMM=F ISym2X=0 I1Cent= 0 IOpClX= 0 NMat=1 NMatS=1 NMatT=0.
 ***** Axes restored to original set *****
 -------------------------------------------------------------------
 Center     Atomic                   Forces (Hartrees/Bohr)
 Number     Number              X              Y              Z
 -------------------------------------------------------------------
      1        6          -0.002232775   -0.007252744   -0.004810223
      2        6           0.026210056   -0.015031068    0.006589790
      3        8          -0.001518391   -0.000636860    0.000680752
      4        6           0.008122200   -0.075039751   -0.008992010
      5        8          -0.021963847    0.027017627   -0.006043343
      6        7          -0.001915506    0.030125497    0.007748636
      7        7          -0.001542515   -0.042870038    0.004852855
      8        6          -0.010048476    0.076989917   -0.000262326
      9        8           0.024896640   -0.027042127    0.001063694
     10        8          -0.018567011    0.016874529   -0.003949743
     11        6           0.002873868    0.011534556    0.004279977
     12        6           0.006560362   -0.001510297    0.005319293
     13        6          -0.002438699    0.002507510    0.000924608
     14        6          -0.000292723   -0.004370508   -0.001878842
     15        6          -0.004198183   -0.007062262   -0.012312363
     16        6          -0.003592419    0.003042195   -0.006787672
     17        6           0.000527874   -0.003518286    0.003813370
     18       17           0.005858416    0.006961789    0.015075980
     19        6           0.001949909   -0.000195634   -0.002604987
     20        6           0.000537006    0.001217361    0.006544890
     21        6          -0.010068459    0.002343481    0.010655553
     22        6          -0.007938717    0.000573435   -0.001780454
     23        6           0.006038881    0.001890101    0.000200299
     24       17           0.011555945   -0.002650046   -0.011981293
     25        1          -0.002351197   -0.000389862   -0.000023269
     26        1          -0.005808866    0.014881280   -0.000117019
     27        1           0.000153870   -0.006902088   -0.001040661
     28        1           0.000585044   -0.004011961   -0.002881730
     29        1          -0.000647731    0.003302039   -0.000834762
     30        1          -0.000113840    0.001572111   -0.000186647
     31        1           0.000538803   -0.001258954    0.000705507
     32        1          -0.000244160   -0.000856149    0.000171164
     33        1          -0.002214091    0.000113685   -0.002843621
     34        1          -0.000938419   -0.000528508   -0.001278171
     35        1           0.001514920   -0.000196234    0.000755975
     36        1           0.000712230    0.000376266    0.001226794
 -------------------------------------------------------------------
 Cartesian Forces:  Max     0.076989917 RMS     0.013898013
 FormGI is forming the generalized inverse of G from B-inverse, IUseBI=4.

 GradGradGradGradGradGradGradGradGradGradGradGradGradGradGradGradGradGrad
 Berny optimization.
 Internal  Forces:  Max     0.062827899 RMS     0.010516117
 Search for a local minimum.
 Step number   1 out of a maximum of  180
 All quantities printed in internal units (Hartrees-Bohrs-Radians)
 Mixed Optimization -- RFO/linear search
 Second derivative matrix not updated -- analytic derivatives used.
 ITU=  0
     Eigenvalues ---   -0.02256  -0.00656  -0.00150  -0.00034   0.00043
     Eigenvalues ---    0.00883   0.01497   0.01593   0.01655   0.01727
     Eigenvalues ---    0.01740   0.01773   0.01781   0.02046   0.02076
     Eigenvalues ---    0.02268   0.02269   0.02496   0.02540   0.02563
     Eigenvalues ---    0.02667   0.02694   0.02753   0.02778   0.03040
     Eigenvalues ---    0.03120   0.05994   0.06149   0.06727   0.07159
     Eigenvalues ---    0.08674   0.10288   0.10454   0.10639   0.11386
     Eigenvalues ---    0.11414   0.11623   0.11707   0.11961   0.12004
     Eigenvalues ---    0.12183   0.12844   0.12895   0.13759   0.14108
     Eigenvalues ---    0.17418   0.17434   0.17985   0.18042   0.18906
     Eigenvalues ---    0.19204   0.19396   0.19424   0.20248   0.20584
[...]
   140    O   10  px     Val( 2p)     1.54066
   141    O   10  px     Ryd( 3p)     0.00115
   142    O   10  py     Val( 2p)     1.73413
   143    O   10  py     Ryd( 3p)     0.00179
   144    O   10  pz     Val( 2p)     1.60661
   145    O   10  pz     Ryd( 3p)     0.00132
   146    O   10  dxy    Ryd( 3d)     0.00075
   147    O   10  dxz    Ryd( 3d)     0.00128
   148    O   10  dyz    Ryd( 3d)     0.00118
   149    O   10  dx2y2  Ryd( 3d)     0.00110
   150    O   10  dz2    Ryd( 3d)     0.00158
 
   151    C   11  S      Cor( 1S)     1.99912
   152    C   11  S      Val( 2S)     1.03203
   153    C   11  S      Ryd( 3S)     0.00121
   154    C   11  S      Ryd( 4S)     0.00005
   155    C   11  px     Val( 2p)     0.73893
   156    C   11  px     Ryd( 3p)     0.00339
   157    C   11  py     Val( 2p)     1.12856
   158    C   11  py     Ryd( 3p)     0.00228
   159    C   11  pz     Val( 2p)     1.20665
   160    C   11  pz     Ryd( 3p)     0.00625
   161    C   11  dxy    Ryd( 3d)     0.00146
   162    C   11  dxz    Ryd( 3d)     0.00093
   163    C   11  dyz    Ryd( 3d)     0.00061
   164    C   11  dx2y2  Ryd( 3d)     0.00158
   165    C   11  dz2    Ryd( 3d)     0.00152
 
   166    C   12  S      Cor( 1S)     1.99901
   167    C   12  S      Val( 2S)     0.88840
   168    C   12  S      Ryd( 3S)     0.00069
   169    C   12  S      Ryd( 4S)     0.00006
   170    C   12  px     Val( 2p)     1.03892
   171    C   12  px     Ryd( 3p)     0.00230
   172    C   12  py     Val( 2p)     1.06926
   173    C   12  py     Ryd( 3p)     0.00440
   174    C   12  pz     Val( 2p)     1.08424
   175    C   12  pz     Ryd( 3p)     0.00410
   176    C   12  dxy    Ryd( 3d)     0.00046
   177    C   12  dxz    Ryd( 3d)     0.00048
   178    C   12  dyz    Ryd( 3d)     0.00068
   179    C   12  dx2y2  Ryd( 3d)     0.00055
   180    C   12  dz2    Ryd( 3d)     0.00063
 
   181    C   13  S      Cor( 1S)     1.99903
   182    C   13  S      Val( 2S)     0.95302
   183    C   13  S      Ryd( 3S)     0.00058
   184    C   13  S      Ryd( 4S)     0.00005
   185    C   13  px     Val( 2p)     1.01030
   186    C   13  px     Ryd( 3p)     0.00131
   187    C   13  py     Val( 2p)     1.05429
   188    C   13  py     Ryd( 3p)     0.00367
   189    C   13  pz     Val( 2p)     1.17049
   190    C   13  pz     Ryd( 3p)     0.00465
   191    C   13  dxy    Ryd( 3d)     0.00057
   192    C   13  dxz    Ryd( 3d)     0.00049
   193    C   13  dyz    Ryd( 3d)     0.00060
   194    C   13  dx2y2  Ryd( 3d)     0.00044
   195    C   13  dz2    Ryd( 3d)     0.00072
 
   196    C   14  S      Cor( 1S)     1.99893
   197    C   14  S      Val( 2S)     0.95891
   198    C   14  S      Ryd( 3S)     0.00097
   199    C   14  S      Ryd( 4S)     0.00005
   200    C   14  px     Val( 2p)     1.01043
   201    C   14  px     Ryd( 3p)     0.00143
   202    C   14  py     Val( 2p)     1.15868
   203    C   14  py     Ryd( 3p)     0.00552
   204    C   14  pz     Val( 2p)     1.10178
   205    C   14  pz     Ryd( 3p)     0.00423
   206    C   14  dxy    Ryd( 3d)     0.00042
   207    C   14  dxz    Ryd( 3d)     0.00043
   208    C   14  dyz    Ryd( 3d)     0.00069
   209    C   14  dx2y2  Ryd( 3d)     0.00060
   210    C   14  dz2    Ryd( 3d)     0.00056
 
   211    C   15  S      Cor( 1S)     1.99856
   212    C   15  S      Val( 2S)     0.93302
   213    C   15  S      Ryd( 3S)     0.00060
   214    C   15  S      Ryd( 4S)     0.00009
   215    C   15  px     Val( 2p)     1.04385
   216    C   15  px     Ryd( 3p)     0.00202
   217    C   15  py     Val( 2p)     0.96021
   218    C   15  py     Ryd( 3p)     0.00711
   219    C   15  pz     Val( 2p)     1.07865
   220    C   15  pz     Ryd( 3p)     0.00679
   221    C   15  dxy    Ryd( 3d)     0.00120
   222    C   15  dxz    Ryd( 3d)     0.00067
   223    C   15  dyz    Ryd( 3d)     0.00124
   224    C   15  dx2y2  Ryd( 3d)     0.00113
   225    C   15  dz2    Ryd( 3d)     0.00092
 
   226    C   16  S      Cor( 1S)     1.99894
   227    C   16  S      Val( 2S)     0.95992
   228    C   16  S      Ryd( 3S)     0.00098
   229    C   16  S      Ryd( 4S)     0.00005
   230    C   16  px     Val( 2p)     1.02963
   231    C   16  px     Ryd( 3p)     0.00157
   232    C   16  py     Val( 2p)     1.05734
   233    C   16  py     Ryd( 3p)     0.00496
   234    C   16  pz     Val( 2p)     1.18071
   235    C   16  pz     Ryd( 3p)     0.00467
   236    C   16  dxy    Ryd( 3d)     0.00047
   237    C   16  dxz    Ryd( 3d)     0.00054
   238    C   16  dyz    Ryd( 3d)     0.00065
   239    C   16  dx2y2  Ryd( 3d)     0.00040
   240    C   16  dz2    Ryd( 3d)     0.00063
 
   241    C   17  S      Cor( 1S)     1.99903
   242    C   17  S      Val( 2S)     0.95653
   243    C   17  S      Ryd( 3S)     0.00059
   244    C   17  S      Ryd( 4S)     0.00004
   245    C   17  px     Val( 2p)     0.98198
   246    C   17  px     Ryd( 3p)     0.00115
   247    C   17  py     Val( 2p)     1.15143
   248    C   17  py     Ryd( 3p)     0.00475
   249    C   17  pz     Val( 2p)     1.09674
   250    C   17  pz     Ryd( 3p)     0.00395
   251    C   17  dxy    Ryd( 3d)     0.00044
   252    C   17  dxz    Ryd( 3d)     0.00043
   253    C   17  dyz    Ryd( 3d)     0.00082
   254    C   17  dx2y2  Ryd( 3d)     0.00060
   255    C   17  dz2    Ryd( 3d)     0.00054
 
   256   Cl   18  S      Cor( 1S)     2.00000
   257   Cl   18  S      Cor( 2S)     1.99979
   258   Cl   18  S      Val( 3S)     1.83533
   259   Cl   18  S      Ryd( 4S)     0.00331
   260   Cl   18  S      Ryd( 5S)     0.00000
   261   Cl   18  px     Cor( 2p)     1.99998
   262   Cl   18  px     Val( 3p)     1.85550
   263   Cl   18  px     Ryd( 4p)     0.00187
   264   Cl   18  py     Cor( 2p)     1.99992
   265   Cl   18  py     Val( 3p)     1.40180
   266   Cl   18  py     Ryd( 4p)     0.00343
   267   Cl   18  pz     Cor( 2p)     1.99998
   268   Cl   18  pz     Val( 3p)     1.88614
   269   Cl   18  pz     Ryd( 4p)     0.00181
   270   Cl   18  dxy    Ryd( 3d)     0.00263
   271   Cl   18  dxz    Ryd( 3d)     0.00044
   272   Cl   18  dyz    Ryd( 3d)     0.00222
   273   Cl   18  dx2y2  Ryd( 3d)     0.00255
   274   Cl   18  dz2    Ryd( 3d)     0.00103
 
   275    C   19  S      Cor( 1S)     1.99903
   276    C   19  S      Val( 2S)     0.95672
   277    C   19  S      Ryd( 3S)     0.00059
   278    C   19  S      Ryd( 4S)     0.00004
   279    C   19  px     Val( 2p)     0.99050
   280    C   19  px     Ryd( 3p)     0.00136
   281    C   19  py     Val( 2p)     1.07888
   282    C   19  py     Ryd( 3p)     0.00366
   283    C   19  pz     Val( 2p)     1.16027
   284    C   19  pz     Ryd( 3p)     0.00486
   285    C   19  dxy    Ryd( 3d)     0.00047
   286    C   19  dxz    Ryd( 3d)     0.00047
   287    C   19  dyz    Ryd( 3d)     0.00077
   288    C   19  dx2y2  Ryd( 3d)     0.00049
   289    C   19  dz2    Ryd( 3d)     0.00064
 
   290    C   20  S      Cor( 1S)     1.99894
   291    C   20  S      Val( 2S)     0.96003
   292    C   20  S      Ryd( 3S)     0.00098
   293    C   20  S      Ryd( 4S)     0.00005
   294    C   20  px     Val( 2p)     1.01546
   295    C   20  px     Ryd( 3p)     0.00163
   296    C   20  py     Val( 2p)     1.07115
   297    C   20  py     Ryd( 3p)     0.00463
   298    C   20  pz     Val( 2p)     1.18114
   299    C   20  pz     Ryd( 3p)     0.00496
   300    C   20  dxy    Ryd( 3d)     0.00042
   301    C   20  dxz    Ryd( 3d)     0.00048
   302    C   20  dyz    Ryd( 3d)     0.00072
   303    C   20  dx2y2  Ryd( 3d)     0.00043
   304    C   20  dz2    Ryd( 3d)     0.00064
 
   305    C   21  S      Cor( 1S)     1.99856
   306    C   21  S      Val( 2S)     0.93328
   307    C   21  S      Ryd( 3S)     0.00060
   308    C   21  S      Ryd( 4S)     0.00009
   309    C   21  px     Val( 2p)     1.02871
   310    C   21  px     Ryd( 3p)     0.00213
   311    C   21  py     Val( 2p)     0.94824
   312    C   21  py     Ryd( 3p)     0.00611
   313    C   21  pz     Val( 2p)     1.10449
   314    C   21  pz     Ryd( 3p)     0.00771
   315    C   21  dxy    Ryd( 3d)     0.00129
   316    C   21  dxz    Ryd( 3d)     0.00073
   317    C   21  dyz    Ryd( 3d)     0.00095
   318    C   21  dx2y2  Ryd( 3d)     0.00120
   319    C   21  dz2    Ryd( 3d)     0.00099
 
   320    C   22  S      Cor( 1S)     1.99893
   321    C   22  S      Val( 2S)     0.95917
   322    C   22  S      Ryd( 3S)     0.00097
   323    C   22  S      Ryd( 4S)     0.00005
   324    C   22  px     Val( 2p)     1.01968
   325    C   22  px     Ryd( 3p)     0.00165
   326    C   22  py     Val( 2p)     1.09107
   327    C   22  py     Ryd( 3p)     0.00472
   328    C   22  pz     Val( 2p)     1.15957
   329    C   22  pz     Ryd( 3p)     0.00482
   330    C   22  dxy    Ryd( 3d)     0.00044
   331    C   22  dxz    Ryd( 3d)     0.00048
   332    C   22  dyz    Ryd( 3d)     0.00073
   333    C   22  dx2y2  Ryd( 3d)     0.00045
   334    C   22  dz2    Ryd( 3d)     0.00061
 
   335    C   23  S      Cor( 1S)     1.99903
   336    C   23  S      Val( 2S)     0.95329
   337    C   23  S      Ryd( 3S)     0.00058
   338    C   23  S      Ryd( 4S)     0.00005
   339    C   23  px     Val( 2p)     0.99842
   340    C   23  px     Ryd( 3p)     0.00124
   341    C   23  py     Val( 2p)     1.06127
   342    C   23  py     Ryd( 3p)     0.00341
   343    C   23  pz     Val( 2p)     1.17416
   344    C   23  pz     Ryd( 3p)     0.00499
   345    C   23  dxy    Ryd( 3d)     0.00047
   346    C   23  dxz    Ryd( 3d)     0.00043
   347    C   23  dyz    Ryd( 3d)     0.00069
   348    C   23  dx2y2  Ryd( 3d)     0.00049
   349    C   23  dz2    Ryd( 3d)     0.00074
 
   350   Cl   24  S      Cor( 1S)     2.00000
   351   Cl   24  S      Cor( 2S)     1.99979
   352   Cl   24  S      Val( 3S)     1.83543
   353   Cl   24  S      Ryd( 4S)     0.00331
   354   Cl   24  S      Ryd( 5S)     0.00000
   355   Cl   24  px     Cor( 2p)     1.99997
   356   Cl   24  px     Val( 3p)     1.79628
   357   Cl   24  px     Ryd( 4p)     0.00207
   358   Cl   24  py     Cor( 2p)     1.99992
   359   Cl   24  py     Val( 3p)     1.37780
   360   Cl   24  py     Ryd( 4p)     0.00350
   361   Cl   24  pz     Cor( 2p)     1.99999
   362   Cl   24  pz     Val( 3p)     1.96754
   363   Cl   24  pz     Ryd( 4p)     0.00154
   364   Cl   24  dxy    Ryd( 3d)     0.00329
   365   Cl   24  dxz    Ryd( 3d)     0.00026
   366   Cl   24  dyz    Ryd( 3d)     0.00102
   367   Cl   24  dx2y2  Ryd( 3d)     0.00293
   368   Cl   24  dz2    Ryd( 3d)     0.00138
 
   369    H   25  S      Val( 1S)     0.75330
   370    H   25  S      Ryd( 2S)     0.00210
 
   371    H   26  S      Val( 1S)     0.75599
   372    H   26  S      Ryd( 2S)     0.00115
 
   373    H   27  S      Val( 1S)     0.75414
   374    H   27  S      Ryd( 2S)     0.00217
 
   375    H   28  S      Val( 1S)     0.75642
   376    H   28  S      Ryd( 2S)     0.00112
 
   377    H   29  S      Val( 1S)     0.75630
   378    H   29  S      Ryd( 2S)     0.00101
 
   379    H   30  S      Val( 1S)     0.74290
   380    H   30  S      Ryd( 2S)     0.00102
 
   381    H   31  S      Val( 1S)     0.74150
   382    H   31  S      Ryd( 2S)     0.00100
 
   383    H   32  S      Val( 1S)     0.73970
   384    H   32  S      Ryd( 2S)     0.00132
 
   385    H   33  S      Val( 1S)     0.74006
   386    H   33  S      Ryd( 2S)     0.00137
 
   387    H   34  S      Val( 1S)     0.74097
   388    H   34  S      Ryd( 2S)     0.00100
 
   389    H   35  S      Val( 1S)     0.74243
   390    H   35  S      Ryd( 2S)     0.00102
 
   391    H   36  S      Val( 1S)     0.75547
   392    H   36  S      Ryd( 2S)     0.00101

 WARNING:  1 low occupancy (<1.9990e) core orbital  found on  C   14
           1 low occupancy (<1.9990e) core orbital  found on  C   15
           1 low occupancy (<1.9990e) core orbital  found on  C   16
           1 low occupancy (<1.9990e) core orbital  found on  C   20
           1 low occupancy (<1.9990e) core orbital  found on  C   21
           1 low occupancy (<1.9990e) core orbital  found on  C   22


 Summary of Natural Population Analysis:                  
                                                          
                                       Natural Population 
                Natural  -----------------------------------------------
    Atom  No    Charge         Core      Valence    Rydberg      Total
 -----------------------------------------------------------------------
      C    1   -0.09437      1.99901     4.08097    0.01439     6.09437
      C    2   -0.12670      1.99913     4.10841    0.01917     6.12670
      O    3   -0.52158      1.99973     6.50953    0.01232     8.52158
      C    4    0.92510      1.99951     3.02492    0.05048     5.07490
      O    5   -0.54384      1.99977     6.52332    0.02075     8.54384
      N    6   -0.21724      1.99938     5.19156    0.02630     7.21724
      N    7   -0.22082      1.99938     5.19491    0.02653     7.22082
      C    8    0.92089      1.99950     3.02932    0.05029     5.07911
      O    9   -0.55210      1.99977     6.53156    0.02077     8.55210
      O   10   -0.52390      1.99973     6.51192    0.01225     8.52390
      C   11   -0.12457      1.99912     4.10617    0.01928     6.12457
      C   12   -0.09418      1.99901     4.08082    0.01435     6.09418
      C   13   -0.20020      1.99903     4.18811    0.01307     6.20020
      C   14   -0.24365      1.99893     4.22980    0.01491     6.24365
      C   15   -0.03605      1.99856     4.01574    0.02176     6.03605
      C   16   -0.24146      1.99894     4.22760    0.01493     6.24146
      C   17   -0.19904      1.99903     4.18669    0.01331     6.19904
     Cl   18    0.00226      9.99967     6.97877    0.01930    16.99774
      C   19   -0.19875      1.99903     4.18637    0.01334     6.19875
      C   20   -0.24167      1.99894     4.22778    0.01495     6.24167
      C   21   -0.03506      1.99856     4.01471    0.02179     6.03506
      C   22   -0.24334      1.99893     4.22949    0.01492     6.24334
      C   23   -0.19926      1.99903     4.18714    0.01309     6.19926
     Cl   24    0.00397      9.99967     6.97706    0.01931    16.99603
      H   25    0.24460      0.00000     0.75330    0.00210     0.75540
      H   26    0.24286      0.00000     0.75599    0.00115     0.75714
      H   27    0.24369      0.00000     0.75414    0.00217     0.75631
      H   28    0.24247      0.00000     0.75642    0.00112     0.75753
      H   29    0.24270      0.00000     0.75630    0.00101     0.75730
      H   30    0.25608      0.00000     0.74290    0.00102     0.74392
      H   31    0.25750      0.00000     0.74150    0.00100     0.74250
      H   32    0.25897      0.00000     0.73970    0.00132     0.74103
      H   33    0.25858      0.00000     0.74006    0.00137     0.74142
      H   34    0.25804      0.00000     0.74097    0.00100     0.74196
      H   35    0.25655      0.00000     0.74243    0.00102     0.74345
      H   36    0.24353      0.00000     0.75547    0.00101     0.75647
 =======================================================================
   * Total *    0.00000     63.98135   123.52183    0.49681   188.00000

                                 Natural Population      
 --------------------------------------------------------
   Core                      63.98135 ( 99.9709% of  64)
   Valence                  123.52183 ( 99.6144% of 124)
   Natural Minimal Basis    187.50319 ( 99.7357% of 188)
   Natural Rydberg Basis      0.49681 (  0.2643% of 188)
 --------------------------------------------------------

    Atom  No          Natural Electron Configuration
 ----------------------------------------------------------------------------
      C    1      [core]2S( 0.89)2p( 3.19)3p( 0.01)
      C    2      [core]2S( 1.03)2p( 3.08)3p( 0.01)3d( 0.01)
      O    3      [core]2S( 1.63)2p( 4.88)3d( 0.01)
      C    4      [core]2S( 0.73)2p( 2.29)3p( 0.03)3d( 0.01)
      O    5      [core]2S( 1.71)2p( 4.82)3d( 0.02)
      N    6      [core]2S( 1.39)2p( 3.80)3S( 0.01)3p( 0.01)3d( 0.01)
      N    7      [core]2S( 1.39)2p( 3.80)3S( 0.01)3p( 0.01)3d( 0.01)
      C    8      [core]2S( 0.73)2p( 2.30)3p( 0.03)3d( 0.01)
      O    9      [core]2S( 1.71)2p( 4.82)3d( 0.02)
      O   10      [core]2S( 1.63)2p( 4.88)3d( 0.01)
      C   11      [core]2S( 1.03)2p( 3.07)3p( 0.01)3d( 0.01)
      C   12      [core]2S( 0.89)2p( 3.19)3p( 0.01)
      C   13      [core]2S( 0.95)2p( 3.24)3p( 0.01)
      C   14      [core]2S( 0.96)2p( 3.27)3p( 0.01)
      C   15      [core]2S( 0.93)2p( 3.08)3p( 0.02)3d( 0.01)
      C   16      [core]2S( 0.96)2p( 3.27)3p( 0.01)
      C   17      [core]2S( 0.96)2p( 3.23)3p( 0.01)
     Cl   18      [core]3S( 1.84)3p( 5.14)3d( 0.01)4p( 0.01)
      C   19      [core]2S( 0.96)2p( 3.23)3p( 0.01)
      C   20      [core]2S( 0.96)2p( 3.27)3p( 0.01)
      C   21      [core]2S( 0.93)2p( 3.08)3p( 0.02)3d( 0.01)
      C   22      [core]2S( 0.96)2p( 3.27)3p( 0.01)
      C   23      [core]2S( 0.95)2p( 3.23)3p( 0.01)
     Cl   24      [core]3S( 1.84)3p( 5.14)3d( 0.01)4p( 0.01)
      H   25            1S( 0.75)
      H   26            1S( 0.76)
      H   27            1S( 0.75)
      H   28            1S( 0.76)
      H   29            1S( 0.76)
      H   30            1S( 0.74)
      H   31            1S( 0.74)
      H   32            1S( 0.74)
      H   33            1S( 0.74)
      H   34            1S( 0.74)
      H   35            1S( 0.74)
      H   36            1S( 0.76)


 NBO analysis skipped by request.
 1\1\GINC-DELLA-R2C4N7\SP\RB3LYP TD-FC\6-31G(d)\C16H12Cl2N2O4\BJS4\22-A
 ug-2020\0\\# TD(NStates=10, Root=1) B3LYP/6-31G* scf=qc volume pop=NPA
  density=current Geom=AllCheck Guess=Read\\Title Card Required\\0,1\C,
 0,-4.4907558069,-0.7411474191,-2.4416124674\C,0,-5.9500779218,-0.44167
 13536,-2.2280102445\O,0,-6.1497755984,0.8816172869,-1.6260257661\C,0,-
 6.1470061689,0.9281822073,-0.2954814548\O,0,-6.0167332302,0.0183957904
 ,0.4844495034\N,0,-6.2073811242,2.3067791,0.145351835\N,0,-7.370747552
 9,2.74211829,0.2254939212\C,0,-7.4352532581,4.0843923015,0.7686320825\
 O,0,-7.8587309562,4.289239029,1.8787466426\O,0,-7.0863200153,4.9742525
 744,-0.1580274363\C,0,-7.2353361855,6.3857290733,0.21288207\C,0,-5.986
 7550951,6.9290183909,0.853946693\C,0,-4.9779058168,7.496448859,0.06635
 45399\C,0,-3.8130152911,7.9985429671,0.6437418737\C,0,-3.6620445473,7.
 9285028993,2.0282753151\C,0,-4.65094662,7.3670196054,2.8358450309\C,0,
 -5.8098138263,6.8692411278,2.2427439566\Cl,0,-2.2005068202,8.563546875
 9,2.7686290435\C,0,-3.7427135207,-1.4003040786,-1.4568311374\C,0,-2.38
 90130833,-1.6701205807,-1.6508225656\C,0,-1.7817096045,-1.2745328754,-
 2.8423883552\C,0,-2.5034271037,-0.6160537009,-3.8376393465\C,0,-3.8560
 904186,-0.3540173726,-3.6281670255\Cl,0,-0.076968693,-1.6155158564,-3.
 0973250563\H,0,-6.4286192614,-1.1822216001,-1.585292141\H,0,-6.4887925
 757,-0.3707992453,-3.1740517922\H,0,-8.1012290298,6.4712798361,0.87197
 88047\H,0,-7.4439677896,6.8767862047,-0.7388467172\H,0,-5.1012983155,7
 .5498477163,-1.0125813771\H,0,-3.0338366657,8.4402220199,0.0320176826\
 H,0,-4.5149759216,7.3218464124,3.910983554\H,0,-6.58025327,6.419831120
 8,2.8617911559\H,0,-4.2216417117,-1.6943337242,-0.5278536121\H,0,-1.81
 09176709,-2.1817616002,-0.8889210482\H,0,-2.0145402875,-0.3182397248,-
 4.7589086733\H,0,-4.4238592417,0.1574394435,-4.401637488\\Version=ES64
 L-G16RevA.03\State=1-A\HF=-1947.673414\RMSD=4.500e-13\Dipole=-0.512135
 ,0.320727,-1.4645216\Quadrupole=-6.9351796,5.2669939,1.6681856,-2.7916
 032,5.3389803,0.3990195\PG=C01 [X(C16H12Cl2N2O4)]\\@


 Any fool can criticize, condemn, and complain -- and most do.
 -- Dale Carnegie
 Job cpu time:       0 days  1 hours  2 minutes 48.8 seconds.
 Elapsed time:       0 days  0 hours 12 minutes 36.2 seconds.
 File lengths (MBytes):  RWF=   1224 Int=      0 D2E=      0 Chk=    268 Scr=      1
 Normal termination of Gaussian 16 at Sat Aug 22 18:14:09 2020.
