 Entering Gaussian System, Link 0=g16
 Input=azadicarboxylate_5_conf27123.com
 Output=azadicarboxylate_5_conf27123.log
 Initial command:
 /opt/export//g16/l1.exe "/scratch/bjs4/job.9291/Gau-9293.inp" -scrdir="/scratch/bjs4/job.9291/"
 Entering Link 1 = /opt/export//g16/l1.exe PID=      9294.
  
 Copyright (c) 1988,1990,1992,1993,1995,1998,2003,2009,2016,
            Gaussian, Inc.  All Rights Reserved.
  
 This is part of the Gaussian(R) 16 program.  It is based on
 the Gaussian(R) 09 system (copyright 2009, Gaussian, Inc.),
 the Gaussian(R) 03 system (copyright 2003, Gaussian, Inc.),
 the Gaussian(R) 98 system (copyright 1998, Gaussian, Inc.),
 the Gaussian(R) 94 system (copyright 1995, Gaussian, Inc.),
 the Gaussian 92(TM) system (copyright 1992, Gaussian, Inc.),
 the Gaussian 90(TM) system (copyright 1990, Gaussian, Inc.),
 the Gaussian 88(TM) system (copyright 1988, Gaussian, Inc.),
 the Gaussian 86(TM) system (copyright 1986, Carnegie Mellon
 University), and the Gaussian 82(TM) system (copyright 1983,
 Carnegie Mellon University). Gaussian is a federally registered
 trademark of Gaussian, Inc.
  
 This software contains proprietary and confidential information,
 including trade secrets, belonging to Gaussian, Inc.
  
 This software is provided under written license and may be
 used, copied, transmitted, or stored only in accord with that
 written license.
  
 The following legend is applicable only to US Government
 contracts under FAR:
  
                    RESTRICTED RIGHTS LEGEND
  
 Use, reproduction and disclosure by the US Government is
 subject to restrictions as set forth in subparagraphs (a)
 and (c) of the Commercial Computer Software - Restricted
 Rights clause in FAR 52.227-19.
  
 Gaussian, Inc.
 340 Quinnipiac St., Bldg. 40, Wallingford CT 06492
  
  
 ---------------------------------------------------------------
 Warning -- This program may not be used in any manner that
 competes with the business of Gaussian, Inc. or will provide
 assistance to any competitor of Gaussian, Inc.  The licensee
 of this program is prohibited from giving any competitor of
 Gaussian, Inc. access to this program.  By using this program,
 the user acknowledges that Gaussian, Inc. is engaged in the
 business of creating and licensing software in the field of
 computational chemistry and represents and warrants to the
 licensee that it is not a competitor of Gaussian, Inc. and that
 it will not use this program in any manner prohibited above.
 ---------------------------------------------------------------
  

 Cite this work as:
 Gaussian 16, Revision A.03,
 M. J. Frisch, G. W. Trucks, H. B. Schlegel, G. E. Scuseria, 
 M. A. Robb, J. R. Cheeseman, G. Scalmani, V. Barone, 
 G. A. Petersson, H. Nakatsuji, X. Li, M. Caricato, A. V. Marenich, 
 J. Bloino, B. G. Janesko, R. Gomperts, B. Mennucci, H. P. Hratchian, 
 J. V. Ortiz, A. F. Izmaylov, J. L. Sonnenberg, D. Williams-Young, 
 F. Ding, F. Lipparini, F. Egidi, J. Goings, B. Peng, A. Petrone, 
 T. Henderson, D. Ranasinghe, V. G. Zakrzewski, J. Gao, N. Rega, 
 G. Zheng, W. Liang, M. Hada, M. Ehara, K. Toyota, R. Fukuda, 
 J. Hasegawa, M. Ishida, T. Nakajima, Y. Honda, O. Kitao, H. Nakai, 
 T. Vreven, K. Throssell, J. A. Montgomery, Jr., J. E. Peralta, 
 F. Ogliaro, M. J. Bearpark, J. J. Heyd, E. N. Brothers, K. N. Kudin, 
 V. N. Staroverov, T. A. Keith, R. Kobayashi, J. Normand, 
 K. Raghavachari, A. P. Rendell, J. C. Burant, S. S. Iyengar, 
 J. Tomasi, M. Cossi, J. M. Millam, M. Klene, C. Adamo, R. Cammi, 
 J. W. Ochterski, R. L. Martin, K. Morokuma, O. Farkas, 
 J. B. Foresman, and D. J. Fox, Gaussian, Inc., Wallingford CT, 2016.
 
 ******************************************
 Gaussian 16:  ES64L-G16RevA.03 25-Dec-2016
                22-Aug-2020 
 ******************************************
 %nprocshared=5
 Will use up to    5 processors via shared memory.
 %Mem=10GB
 %Chk=azadicarboxylate_5_conf271.chk
 ---------------------------------
 # opt=CalcAll B3LYP/6-31G* scf=qc
 ---------------------------------
 1/10=4,18=20,19=15,26=3,38=1/1,3;
 2/9=110,12=2,17=6,18=5,40=1/2;
 3/5=1,6=6,7=1,11=2,25=1,30=1,71=2,74=-5,140=1/1,2,3;
 4//1;
 5/5=2,8=3,38=5/8;
 8/6=4,10=90,11=11/1;
 11/6=1,8=1,9=11,15=111,16=1/1,2,10;
 10/6=1/2;
 6/7=2,8=2,9=2,10=2,18=1,28=1/1;
 7/10=1,25=1/1,2,3,16;
 1/10=4,18=20,19=15,26=3/3(3);
 2/9=110/2;
 7/8=1,9=1,25=1,44=-1/16;
 99//99;
 2/9=110/2;
 3/5=1,6=6,7=1,11=2,25=1,30=1,71=2,74=-5,140=1/1,2,3;
 4/5=5,16=3,69=1/1;
 5/5=2,8=3,38=5/8;
 8/6=4,10=90,11=11/1;
 11/6=1,8=1,9=11,15=111,16=1/1,2,10;
 10/6=1/2;
 7/10=1,25=1/1,2,3,16;
 1/10=4,18=20,19=15,26=3/3(-8);
 2/9=110/2;
 6/7=2,8=2,9=2,10=2,18=1,19=2,28=1/1;
 7/8=1,9=1,25=1,44=-1/16;
 99//99;
 -------------------
 Title Card Required
 -------------------
 Symbolic Z-matrix:
 Charge =  0 Multiplicity = 1
 C2                    0.8141    0.1461    0.0473 
 O3                    0.32284  -0.85872  -0.47078 
 N4                    0.2028    1.3863    0.0651 
 N5                   -1.0496    1.3066    0.0658 
 C6                   -1.6625    2.5457    0.0392 
 O7                   -2.75879   2.78511   0.54932 
 N8                   -0.9467    3.55611  -0.60731 
 C                    -1.49584   4.90466  -0.68186 
 C                    -0.44078   5.9452   -0.31329 
 C                     0.82497   5.77397  -1.15089 
 C                     1.34653   4.3393   -1.06949 
 C                     0.25804   3.31912  -1.4041 
 N1                    2.07155   0.08743   0.65865 
 C                     2.80842  -1.1712    0.68427 
 C                     4.26337  -0.95929   0.27293 
 C                     4.92422   0.13357   1.1108 
 C                     4.10099   1.42136   1.08021 
 C                     2.6407    1.17086   1.45736 
 H                    -2.36415   5.01827  -0.02696 
 H                    -1.84073   5.0621   -1.71134 
 H                    -0.18467   5.84134   0.74854 
 H                    -0.84579   6.95408  -0.45116 
 H                     1.59682   6.46969  -0.80216 
 H                     0.61071   6.02934  -2.19568 
 H                     1.71515   4.15216  -0.05329 
 H                     2.19646   4.21537  -1.74986 
 H                     0.64629   2.30739  -1.26034 
 H                    -0.03      3.41032  -2.45889 
 H                     2.34908  -1.91675   0.02833 
 H                     2.75563  -1.56073   1.70836 
 H                     4.30277  -0.67213  -0.78542 
 H                     4.8214   -1.89655   0.37503 
 H                     5.93443   0.32975   0.73325 
 H                     5.02983  -0.21163   2.14643 
 H                     4.14406   1.84706   0.07009 
 H                     4.54168   2.15843   1.76078 
 H                     2.0696    2.09666   1.35074 
 H                     2.57237   0.86605   2.50909 
 

 GradGradGradGradGradGradGradGradGradGradGradGradGradGradGradGradGradGrad
 Berny optimization.
 Initialization pass.
                           ----------------------------
                           !    Initial Parameters    !
                           ! (Angstroms and Degrees)  !
 --------------------------                            --------------------------
 ! Name  Definition              Value          Derivative Info.                !
 --------------------------------------------------------------------------------
 ! R1    R(1,2)                  1.2326         calculate D2E/DX2 analytically  !
 ! R2    R(1,3)                  1.3828         calculate D2E/DX2 analytically  !
 ! R3    R(1,13)                 1.3994         calculate D2E/DX2 analytically  !
 ! R4    R(3,4)                  1.2549         calculate D2E/DX2 analytically  !
 ! R5    R(4,5)                  1.3827         calculate D2E/DX2 analytically  !
 ! R6    R(5,6)                  1.2326         calculate D2E/DX2 analytically  !
 ! R7    R(5,7)                  1.3969         calculate D2E/DX2 analytically  !
 ! R8    R(7,8)                  1.458          calculate D2E/DX2 analytically  !
 ! R9    R(7,12)                 1.4637         calculate D2E/DX2 analytically  !
 ! R10   R(8,9)                  1.527          calculate D2E/DX2 analytically  !
 ! R11   R(8,19)                 1.0935         calculate D2E/DX2 analytically  !
 ! R12   R(8,20)                 1.0971         calculate D2E/DX2 analytically  !
 ! R13   R(9,10)                 1.5274         calculate D2E/DX2 analytically  !
 ! R14   R(9,21)                 1.0972         calculate D2E/DX2 analytically  !
 ! R15   R(9,22)                 1.0958         calculate D2E/DX2 analytically  !
 ! R16   R(10,11)                1.5287         calculate D2E/DX2 analytically  !
 ! R17   R(10,23)                1.0961         calculate D2E/DX2 analytically  !
 ! R18   R(10,24)                1.0967         calculate D2E/DX2 analytically  !
 ! R19   R(11,12)                1.5289         calculate D2E/DX2 analytically  !
 ! R20   R(11,25)                1.0971         calculate D2E/DX2 analytically  !
 ! R21   R(11,26)                1.0957         calculate D2E/DX2 analytically  !
 ! R22   R(12,27)                1.0932         calculate D2E/DX2 analytically  !
 ! R23   R(12,28)                1.0972         calculate D2E/DX2 analytically  !
 ! R24   R(13,14)                1.4587         calculate D2E/DX2 analytically  !
 ! R25   R(13,18)                1.4614         calculate D2E/DX2 analytically  !
 ! R26   R(14,15)                1.5268         calculate D2E/DX2 analytically  !
 ! R27   R(14,29)                1.0941         calculate D2E/DX2 analytically  !
 ! R28   R(14,30)                1.0969         calculate D2E/DX2 analytically  !
 ! R29   R(15,16)                1.5274         calculate D2E/DX2 analytically  !
 ! R30   R(15,31)                1.0973         calculate D2E/DX2 analytically  !
 ! R31   R(15,32)                1.0956         calculate D2E/DX2 analytically  !
 ! R32   R(16,17)                1.5287         calculate D2E/DX2 analytically  !
 ! R33   R(16,33)                1.0962         calculate D2E/DX2 analytically  !
 ! R34   R(16,34)                1.0967         calculate D2E/DX2 analytically  !
 ! R35   R(17,18)                1.5289         calculate D2E/DX2 analytically  !
 ! R36   R(17,35)                1.097          calculate D2E/DX2 analytically  !
 ! R37   R(17,36)                1.0957         calculate D2E/DX2 analytically  !
 ! R38   R(18,37)                1.093          calculate D2E/DX2 analytically  !
 ! R39   R(18,38)                1.0971         calculate D2E/DX2 analytically  !
 ! A1    A(2,1,3)              124.0794         calculate D2E/DX2 analytically  !
 ! A2    A(2,1,13)             120.5006         calculate D2E/DX2 analytically  !
 ! A3    A(3,1,13)             115.4173         calculate D2E/DX2 analytically  !
 ! A4    A(1,3,4)              112.5961         calculate D2E/DX2 analytically  !
 ! A5    A(3,4,5)              112.6722         calculate D2E/DX2 analytically  !
 ! A6    A(4,5,6)              124.0797         calculate D2E/DX2 analytically  !
 ! A7    A(4,5,7)              115.467          calculate D2E/DX2 analytically  !
 ! A8    A(6,5,7)              120.4505         calculate D2E/DX2 analytically  !
 ! A9    A(5,7,8)              119.9806         calculate D2E/DX2 analytically  !
 ! A10   A(5,7,12)             123.8207         calculate D2E/DX2 analytically  !
 ! A11   A(8,7,12)             115.5902         calculate D2E/DX2 analytically  !
 ! A12   A(7,8,9)              110.9593         calculate D2E/DX2 analytically  !
 ! A13   A(7,8,19)             111.38           calculate D2E/DX2 analytically  !
 ! A14   A(7,8,20)             107.4052         calculate D2E/DX2 analytically  !
 ! A15   A(9,8,19)             109.4687         calculate D2E/DX2 analytically  !
 ! A16   A(9,8,20)             110.2379         calculate D2E/DX2 analytically  !
 ! A17   A(19,8,20)            107.305          calculate D2E/DX2 analytically  !
 ! A18   A(8,9,10)             111.3348         calculate D2E/DX2 analytically  !
 ! A19   A(8,9,21)             109.2908         calculate D2E/DX2 analytically  !
 ! A20   A(8,9,22)             109.9758         calculate D2E/DX2 analytically  !
 ! A21   A(10,9,21)            109.0656         calculate D2E/DX2 analytically  !
 ! A22   A(10,9,22)            109.9065         calculate D2E/DX2 analytically  !
 ! A23   A(21,9,22)            107.1677         calculate D2E/DX2 analytically  !
 ! A24   A(9,10,11)            111.0227         calculate D2E/DX2 analytically  !
 ! A25   A(9,10,23)            109.7505         calculate D2E/DX2 analytically  !
 ! A26   A(9,10,24)            109.5375         calculate D2E/DX2 analytically  !
 ! A27   A(11,10,23)           109.7852         calculate D2E/DX2 analytically  !
 ! A28   A(11,10,24)           109.6284         calculate D2E/DX2 analytically  !
 ! A29   A(23,10,24)           107.0307         calculate D2E/DX2 analytically  !
 ! A30   A(10,11,12)           111.8184         calculate D2E/DX2 analytically  !
 ! A31   A(10,11,25)           108.908          calculate D2E/DX2 analytically  !
 ! A32   A(10,11,26)           109.7382         calculate D2E/DX2 analytically  !
 ! A33   A(12,11,25)           109.1545         calculate D2E/DX2 analytically  !
 ! A34   A(12,11,26)           109.9299         calculate D2E/DX2 analytically  !
 ! A35   A(25,11,26)           107.1714         calculate D2E/DX2 analytically  !
 ! A36   A(7,12,11)            111.0269         calculate D2E/DX2 analytically  !
 ! A37   A(7,12,27)            111.7518         calculate D2E/DX2 analytically  !
 ! A38   A(7,12,28)            107.0848         calculate D2E/DX2 analytically  !
 ! A39   A(11,12,27)           109.6285         calculate D2E/DX2 analytically  !
 ! A40   A(11,12,28)           109.9885         calculate D2E/DX2 analytically  !
 ! A41   A(27,12,28)           107.2529         calculate D2E/DX2 analytically  !
 ! A42   A(1,13,14)            119.8518         calculate D2E/DX2 analytically  !
 ! A43   A(1,13,18)            123.8917         calculate D2E/DX2 analytically  !
 ! A44   A(14,13,18)           115.6803         calculate D2E/DX2 analytically  !
 ! A45   A(13,14,15)           110.9103         calculate D2E/DX2 analytically  !
 ! A46   A(13,14,29)           111.4291         calculate D2E/DX2 analytically  !
 ! A47   A(13,14,30)           107.3669         calculate D2E/DX2 analytically  !
 ! A48   A(15,14,29)           109.4594         calculate D2E/DX2 analytically  !
 ! A49   A(15,14,30)           110.2842         calculate D2E/DX2 analytically  !
 ! A50   A(29,14,30)           107.3087         calculate D2E/DX2 analytically  !
 ! A51   A(14,15,16)           111.335          calculate D2E/DX2 analytically  !
 ! A52   A(14,15,31)           109.2925         calculate D2E/DX2 analytically  !
 ! A53   A(14,15,32)           109.971          calculate D2E/DX2 analytically  !
 ! A54   A(16,15,31)           109.0438         calculate D2E/DX2 analytically  !
 ! A55   A(16,15,32)           109.9136         calculate D2E/DX2 analytically  !
 ! A56   A(31,15,32)           107.1858         calculate D2E/DX2 analytically  !
 ! A57   A(15,16,17)           111.0236         calculate D2E/DX2 analytically  !
 ! A58   A(15,16,33)           109.7455         calculate D2E/DX2 analytically  !
 ! A59   A(15,16,34)           109.5385         calculate D2E/DX2 analytically  !
 ! A60   A(17,16,33)           109.7932         calculate D2E/DX2 analytically  !
 ! A61   A(17,16,34)           109.6267         calculate D2E/DX2 analytically  !
 ! A62   A(33,16,34)           107.0272         calculate D2E/DX2 analytically  !
 ! A63   A(16,17,18)           111.8013         calculate D2E/DX2 analytically  !
 ! A64   A(16,17,35)           108.9157         calculate D2E/DX2 analytically  !
 ! A65   A(16,17,36)           109.7332         calculate D2E/DX2 analytically  !
 ! A66   A(18,17,35)           109.1614         calculate D2E/DX2 analytically  !
 ! A67   A(18,17,36)           109.9463         calculate D2E/DX2 analytically  !
 ! A68   A(35,17,36)           107.1628         calculate D2E/DX2 analytically  !
 ! A69   A(13,18,17)           111.0163         calculate D2E/DX2 analytically  !
 ! A70   A(13,18,37)           111.7867         calculate D2E/DX2 analytically  !
 ! A71   A(13,18,38)           107.0792         calculate D2E/DX2 analytically  !
 ! A72   A(17,18,37)           109.6471         calculate D2E/DX2 analytically  !
 ! A73   A(17,18,38)           109.9672         calculate D2E/DX2 analytically  !
 ! A74   A(37,18,38)           107.2352         calculate D2E/DX2 analytically  !
 ! D1    D(2,1,3,4)             29.6471         calculate D2E/DX2 analytically  !
 ! D2    D(13,1,3,4)          -150.9426         calculate D2E/DX2 analytically  !
 ! D3    D(2,1,13,14)            0.0001         calculate D2E/DX2 analytically  !
 ! D4    D(2,1,13,18)         -170.91           calculate D2E/DX2 analytically  !
 ! D5    D(3,1,13,14)         -179.433          calculate D2E/DX2 analytically  !
 ! D6    D(3,1,13,18)            9.6569         calculate D2E/DX2 analytically  !
 ! D7    D(1,3,4,5)           -178.0064         calculate D2E/DX2 analytically  !
 ! D8    D(3,4,5,6)           -149.6469         calculate D2E/DX2 analytically  !
 ! D9    D(3,4,5,7)             29.741          calculate D2E/DX2 analytically  !
 ! D10   D(4,5,7,8)           -179.4122         calculate D2E/DX2 analytically  !
 ! D11   D(4,5,7,12)             9.9351         calculate D2E/DX2 analytically  !
 ! D12   D(6,5,7,8)             -0.0002         calculate D2E/DX2 analytically  !
 ! D13   D(6,5,7,12)          -170.653          calculate D2E/DX2 analytically  !
 ! D14   D(5,7,8,9)            133.4706         calculate D2E/DX2 analytically  !
 ! D15   D(5,7,8,19)            11.2457         calculate D2E/DX2 analytically  !
 ! D16   D(5,7,8,20)          -105.9799         calculate D2E/DX2 analytically  !
 ! D17   D(12,7,8,9)           -55.1336         calculate D2E/DX2 analytically  !
 ! D18   D(12,7,8,19)         -177.3586         calculate D2E/DX2 analytically  !
 ! D19   D(12,7,8,20)           65.4158         calculate D2E/DX2 analytically  !
 ! D20   D(5,7,12,11)         -134.8055         calculate D2E/DX2 analytically  !
 ! D21   D(5,7,12,27)          -12.064          calculate D2E/DX2 analytically  !
 ! D22   D(5,7,12,28)          105.1104         calculate D2E/DX2 analytically  !
 ! D23   D(8,7,12,11)           54.1685         calculate D2E/DX2 analytically  !
 ! D24   D(8,7,12,27)          176.91           calculate D2E/DX2 analytically  !
 ! D25   D(8,7,12,28)          -65.9156         calculate D2E/DX2 analytically  !
 ! D26   D(7,8,9,10)            53.4583         calculate D2E/DX2 analytically  !
 ! D27   D(7,8,9,21)           -67.0893         calculate D2E/DX2 analytically  !
 ! D28   D(7,8,9,22)           175.5252         calculate D2E/DX2 analytically  !
 ! D29   D(19,8,9,10)          176.7886         calculate D2E/DX2 analytically  !
 ! D30   D(19,8,9,21)           56.241          calculate D2E/DX2 analytically  !
 ! D31   D(19,8,9,22)          -61.1445         calculate D2E/DX2 analytically  !
 ! D32   D(20,8,9,10)          -65.3984         calculate D2E/DX2 analytically  !
 ! D33   D(20,8,9,21)          174.054          calculate D2E/DX2 analytically  !
 ! D34   D(20,8,9,22)           56.6685         calculate D2E/DX2 analytically  !
 ! D35   D(8,9,10,11)          -53.1498         calculate D2E/DX2 analytically  !
 ! D36   D(8,9,10,23)         -174.7027         calculate D2E/DX2 analytically  !
 ! D37   D(8,9,10,24)           68.0642         calculate D2E/DX2 analytically  !
 ! D38   D(21,9,10,11)          67.5302         calculate D2E/DX2 analytically  !
 ! D39   D(21,9,10,23)         -54.0228         calculate D2E/DX2 analytically  !
 ! D40   D(21,9,10,24)        -171.2558         calculate D2E/DX2 analytically  !
 ! D41   D(22,9,10,11)        -175.2567         calculate D2E/DX2 analytically  !
 ! D42   D(22,9,10,23)          63.1903         calculate D2E/DX2 analytically  !
 ! D43   D(22,9,10,24)         -54.0427         calculate D2E/DX2 analytically  !
 ! D44   D(9,10,11,12)          52.4207         calculate D2E/DX2 analytically  !
 ! D45   D(9,10,11,25)         -68.2914         calculate D2E/DX2 analytically  !
 ! D46   D(9,10,11,26)         174.6789         calculate D2E/DX2 analytically  !
 ! D47   D(23,10,11,12)        173.9533         calculate D2E/DX2 analytically  !
 ! D48   D(23,10,11,25)         53.2413         calculate D2E/DX2 analytically  !
 ! D49   D(23,10,11,26)        -63.7885         calculate D2E/DX2 analytically  !
 ! D50   D(24,10,11,12)        -68.7399         calculate D2E/DX2 analytically  !
 ! D51   D(24,10,11,25)        170.5481         calculate D2E/DX2 analytically  !
 ! D52   D(24,10,11,26)         53.5184         calculate D2E/DX2 analytically  !
 ! D53   D(10,11,12,7)         -51.6942         calculate D2E/DX2 analytically  !
 ! D54   D(10,11,12,27)       -175.6542         calculate D2E/DX2 analytically  !
 ! D55   D(10,11,12,28)         66.6485         calculate D2E/DX2 analytically  !
 ! D56   D(25,11,12,7)          68.8743         calculate D2E/DX2 analytically  !
 ! D57   D(25,11,12,27)        -55.0857         calculate D2E/DX2 analytically  !
 ! D58   D(25,11,12,28)       -172.783          calculate D2E/DX2 analytically  !
 ! D59   D(26,11,12,7)        -173.8427         calculate D2E/DX2 analytically  !
 ! D60   D(26,11,12,27)         62.1973         calculate D2E/DX2 analytically  !
 ! D61   D(26,11,12,28)        -55.5            calculate D2E/DX2 analytically  !
 ! D62   D(1,13,14,15)         133.2489         calculate D2E/DX2 analytically  !
 ! D63   D(1,13,14,29)          11.0361         calculate D2E/DX2 analytically  !
 ! D64   D(1,13,14,30)        -106.1981         calculate D2E/DX2 analytically  !
 ! D65   D(18,13,14,15)        -55.1182         calculate D2E/DX2 analytically  !
 ! D66   D(18,13,14,29)       -177.331          calculate D2E/DX2 analytically  !
 ! D67   D(18,13,14,30)         65.4348         calculate D2E/DX2 analytically  !
 ! D68   D(1,13,18,17)        -134.553          calculate D2E/DX2 analytically  !
 ! D69   D(1,13,18,37)         -11.7704         calculate D2E/DX2 analytically  !
 ! D70   D(1,13,18,38)         105.3984         calculate D2E/DX2 analytically  !
 ! D71   D(14,13,18,17)         54.1921         calculate D2E/DX2 analytically  !
 ! D72   D(14,13,18,37)        176.9748         calculate D2E/DX2 analytically  !
 ! D73   D(14,13,18,38)        -65.8565         calculate D2E/DX2 analytically  !
 ! D74   D(13,14,15,16)         53.3818         calculate D2E/DX2 analytically  !
 ! D75   D(13,14,15,31)        -67.1398         calculate D2E/DX2 analytically  !
 ! D76   D(13,14,15,32)        175.4546         calculate D2E/DX2 analytically  !
 ! D77   D(29,14,15,16)        176.7348         calculate D2E/DX2 analytically  !
 ! D78   D(29,14,15,31)         56.2133         calculate D2E/DX2 analytically  !
 ! D79   D(29,14,15,32)        -61.1924         calculate D2E/DX2 analytically  !
 ! D80   D(30,14,15,16)        -65.4259         calculate D2E/DX2 analytically  !
 ! D81   D(30,14,15,31)        174.0526         calculate D2E/DX2 analytically  !
 ! D82   D(30,14,15,32)         56.6469         calculate D2E/DX2 analytically  !
 ! D83   D(14,15,16,17)        -53.1543         calculate D2E/DX2 analytically  !
 ! D84   D(14,15,16,33)       -174.7145         calculate D2E/DX2 analytically  !
 ! D85   D(14,15,16,34)         68.0589         calculate D2E/DX2 analytically  !
 ! D86   D(31,15,16,17)         67.5135         calculate D2E/DX2 analytically  !
 ! D87   D(31,15,16,33)        -54.0468         calculate D2E/DX2 analytically  !
 ! D88   D(31,15,16,34)       -171.2733         calculate D2E/DX2 analytically  !
 ! D89   D(32,15,16,17)       -175.2603         calculate D2E/DX2 analytically  !
 ! D90   D(32,15,16,33)         63.1794         calculate D2E/DX2 analytically  !
 ! D91   D(32,15,16,34)        -54.0472         calculate D2E/DX2 analytically  !
 ! D92   D(15,16,17,18)         52.4337         calculate D2E/DX2 analytically  !
 ! D93   D(15,16,17,35)        -68.2813         calculate D2E/DX2 analytically  !
 ! D94   D(15,16,17,36)        174.6977         calculate D2E/DX2 analytically  !
 ! D95   D(33,16,17,18)        173.966          calculate D2E/DX2 analytically  !
 ! D96   D(33,16,17,35)         53.251          calculate D2E/DX2 analytically  !
 ! D97   D(33,16,17,36)        -63.7699         calculate D2E/DX2 analytically  !
 ! D98   D(34,16,17,18)        -68.7277         calculate D2E/DX2 analytically  !
 ! D99   D(34,16,17,35)        170.5574         calculate D2E/DX2 analytically  !
 ! D100  D(34,16,17,36)         53.5364         calculate D2E/DX2 analytically  !
 ! D101  D(16,17,18,13)        -51.7103         calculate D2E/DX2 analytically  !
 ! D102  D(16,17,18,37)       -175.7204         calculate D2E/DX2 analytically  !
 ! D103  D(16,17,18,38)         66.6055         calculate D2E/DX2 analytically  !
 ! D104  D(35,17,18,13)         68.8616         calculate D2E/DX2 analytically  !
 ! D105  D(35,17,18,37)        -55.1486         calculate D2E/DX2 analytically  !
 ! D106  D(35,17,18,38)       -172.8227         calculate D2E/DX2 analytically  !
 ! D107  D(36,17,18,13)       -173.8522         calculate D2E/DX2 analytically  !
 ! D108  D(36,17,18,37)         62.1376         calculate D2E/DX2 analytically  !
 ! D109  D(36,17,18,38)        -55.5365         calculate D2E/DX2 analytically  !
 --------------------------------------------------------------------------------
 Trust Radius=3.00D-01 FncErr=1.00D-07 GrdErr=1.00D-06 EigMax=2.50D+02 EigMin=1.00D-04
 Number of steps in this run=    228 maximum allowed number of steps=    228.
 GradGradGradGradGradGradGradGradGradGradGradGradGradGradGradGradGradGrad

                          Input orientation:                          
 ---------------------------------------------------------------------
 Center     Atomic      Atomic             Coordinates (Angstroms)
 Number     Number       Type             X           Y           Z
 ---------------------------------------------------------------------
      1          6           0        0.814100    0.146100    0.047300
      2          8           0        0.322840   -0.858720   -0.470780
      3          7           0        0.202800    1.386300    0.065100
      4          7           0       -1.049600    1.306600    0.065800
      5          6           0       -1.662500    2.545700    0.039200
      6          8           0       -2.758790    2.785110    0.549320
      7          7           0       -0.946700    3.556110   -0.607310
      8          6           0       -1.495840    4.904660   -0.681860
      9          6           0       -0.440780    5.945200   -0.313290
     10          6           0        0.824970    5.773970   -1.150890
     11          6           0        1.346530    4.339300   -1.069490
     12          6           0        0.258040    3.319120   -1.404100
     13          7           0        2.071550    0.087430    0.658650
     14          6           0        2.808420   -1.171200    0.684270
     15          6           0        4.263370   -0.959290    0.272930
     16          6           0        4.924220    0.133570    1.110800
     17          6           0        4.100990    1.421360    1.080210
     18          6           0        2.640700    1.170860    1.457360
     19          1           0       -2.364150    5.018270   -0.026960
     20          1           0       -1.840730    5.062100   -1.711340
     21          1           0       -0.184670    5.841340    0.748540
     22          1           0       -0.845790    6.954080   -0.451160
     23          1           0        1.596820    6.469690   -0.802160
     24          1           0        0.610710    6.029340   -2.195680
     25          1           0        1.715150    4.152160   -0.053290
     26          1           0        2.196460    4.215370   -1.749860
     27          1           0        0.646290    2.307390   -1.260340
     28          1           0       -0.030000    3.410320   -2.458890
     29          1           0        2.349080   -1.916750    0.028330
     30          1           0        2.755630   -1.560730    1.708360
     31          1           0        4.302770   -0.672130   -0.785420
     32          1           0        4.821400   -1.896550    0.375030
     33          1           0        5.934430    0.329750    0.733250
     34          1           0        5.029830   -0.211630    2.146430
     35          1           0        4.144060    1.847060    0.070090
     36          1           0        4.541680    2.158430    1.760780
     37          1           0        2.069600    2.096660    1.350740
     38          1           0        2.572370    0.866050    2.509090
 ---------------------------------------------------------------------
                    Distance matrix (angstroms):
                    1          2          3          4          5
     1  C    0.000000
     2  O    1.232642   0.000000
     3  N    1.382787   2.311210   0.000000
     4  N    2.195559   2.619183   1.254934   0.000000
     5  C    3.448433   3.973881   2.196411   1.382651   0.000000
     6  O    4.470116   4.880015   3.310914   2.311085   1.232636
     7  N    3.893212   4.595769   2.545891   2.350311   1.396880
     8  C    5.339606   6.047206   3.977711   3.701913   2.472326
     9  C    5.944267   6.848448   4.619626   4.693717   3.629525
    10  C    5.754016   6.686349   4.595365   4.995172   4.245651
    11  C    4.371914   5.331586   3.363870   4.028349   3.674297
    12  C    3.533245   4.281312   2.428455   2.814385   2.523840
    13  N    1.399418   2.286657   2.351934   3.402855   4.513307
    14  C    2.473524   2.758603   3.703165   4.626696   5.849836
    15  C    3.629085   4.011358   4.693955   5.779689   6.888797
    16  C    4.245501   4.965756   4.995461   6.176937   7.095885
    17  C    3.673804   4.677473   4.028345   5.250788   5.963695
    18  C    2.524850   3.634473   2.815699   3.946287   4.734859
    19  H    5.817631   6.477338   4.448473   3.938672   2.571049
    20  H    5.857303   6.424650   4.565442   4.229408   3.070574
    21  H    5.824520   6.828991   4.523782   4.666702   3.680813
    22  H    7.025118   7.899742   5.689133   5.674753   4.510131
    23  H    6.428221   7.445699   5.341936   5.866378   5.169986
    24  H    6.299590   7.106583   5.180284   5.493195   4.722067
    25  H    4.107375   5.217446   3.154552   3.969287   3.741362
    26  H    4.658290   5.558137   3.907991   4.721702   4.569475
    27  H    2.531651   3.279067   1.673882   2.374083   2.660095
    28  H    4.201027   4.722476   3.243667   3.440826   3.106940
    29  H    2.571356   2.339698   3.939290   4.684273   6.000529
    30  H    3.072772   3.340649   4.231103   5.039778   6.258493
    31  H    3.678823   3.996706   4.665862   5.769559   6.827802
    32  H    4.509798   4.693562   5.674912   6.695105   7.866850
    33  H    5.169336   5.861066   5.866371   7.083530   7.943896
    34  H    4.722997   5.424414   5.494136   6.602538   7.538605
    35  H    3.739307   4.713333   3.968105   5.221707   5.848520
    36  H    4.569501   5.646385   4.722012   5.904319   6.450245
    37  H    2.660812   3.886306   2.375379   3.464776   3.981249
    38  H    3.109703   4.112766   3.443633   4.391175   5.182249
                    6          7          8          9         10
     6  O    0.000000
     7  N    2.283835   0.000000
     8  C    2.757415   1.457978   0.000000
     9  C    4.012909   2.459706   1.526997   0.000000
    10  C    4.966622   2.890190   2.522270   1.527422   0.000000
    11  C    4.678643   2.466962   2.923860   2.518974   1.528702
    12  C    3.633494   1.463707   2.472178   2.928227   2.532156
    13  N    5.533680   4.769091   6.142389   6.447475   6.096321
    14  C    6.831137   6.173861   7.570273   7.886417   7.452333
    15  C    7.962892   6.950431   8.274420   8.375241   7.693286
    16  C    8.147059   7.009521   8.197201   8.036560   7.330294
    17  C    7.014146   5.734462   6.823692   6.560080   5.886878
    18  C    5.708313   4.777208   5.968960   5.951894   5.593609
    19  H    2.339838   2.117518   1.093510   2.154190   3.464793
    20  H    3.337379   2.070309   1.097071   2.166626   2.815461
    21  H    4.000790   2.764289   2.154665   1.097207   2.152149
    22  H    4.694767   3.403052   2.162385   1.095847   2.161879
    23  H    5.862932   3.872520   3.468189   2.160069   1.096080
    24  H    5.423429   3.326456   2.827386   2.157800   1.096680
    25  H    4.716790   2.783462   3.357352   2.816137   2.151142
    26  H    5.646802   3.408739   3.904974   3.465701   2.160783
    27  H    3.885570   2.126821   3.416017   3.913092   3.472907
    28  H    4.109320   2.071218   2.745829   3.346335   2.833492
    29  H    6.961986   6.420156   7.862532   8.349268   7.928471
    30  H    7.116075   6.726933   8.098729   8.404944   8.105590
    31  H    7.974940   6.742898   8.045818   8.155564   7.333544
    32  H    8.911094   7.997967   9.342430   9.468757   8.782754
    33  H    9.035192   7.717283   8.839754   8.559896   7.700396
    34  H    8.496694   7.582734   8.761279   8.595601   8.023751
    35  H    6.982760   5.412537   6.459320   6.161371   5.284673
    36  H    7.426791   6.138703   7.068233   6.592898   5.946754
    37  H    4.942630   3.880982   4.972795   4.886948   4.618427
    38  H    5.995395   5.415923   6.560706   6.545431   6.366831
                   11         12         13         14         15
    11  C    0.000000
    12  C    1.528902   0.000000
    13  N    4.646560   4.241176   0.000000
    14  C    5.964764   5.570341   1.458692   0.000000
    15  C    6.195571   6.095891   2.459365   1.526757   0.000000
    16  C    5.936472   6.184310   2.888649   2.522095   1.527446
    17  C    4.552212   4.953943   2.464895   2.923846   2.519040
    18  C    4.254275   4.298842   1.461400   2.472052   2.928049
    19  H    3.913696   3.414602   6.667734   8.097584   8.930016
    20  H    3.330621   2.745398   6.757968   8.136804   8.800824
    21  H    2.811749   3.345362   6.181107   7.624856   8.140014
    22  H    3.467805   3.916563   7.542774   8.981238   9.447182
    23  H    2.161636   3.475738   6.564494   7.877858   7.965931
    24  H    2.160086   2.845394   6.751855   8.060510   8.262984
    25  H    1.097071   2.154487   4.141969   5.484286   5.720731
    26  H    1.095739   2.163397   4.780838   5.942611   5.927976
    27  H    2.157642   1.093162   3.262225   4.533972   5.109343
    28  H    2.165242   1.097208   5.017685   6.239103   6.707411
    29  H    6.430278   5.817099   2.119213   1.094119   2.154313
    30  H    6.671759   6.303832   2.070335   1.096942   2.166903
    31  H    5.825331   5.716002   2.764166   2.154563   1.097323
    32  H    7.283350   7.154912   3.402689   2.161909   1.095572
    33  H    6.354147   6.762100   3.871192   3.468024   2.160083
    34  H    6.679806   6.916823   3.324808   2.827251   2.157883
    35  H    3.916130   4.409234   2.781726   3.357238   2.816199
    36  H    4.793288   5.450985   3.406651   3.905061   3.465737
    37  H    3.377836   3.516433   2.125088   3.415984   3.913200
    38  H    5.135405   5.165920   2.069106   2.745191   3.345409
                   16         17         18         19         20
    16  C    0.000000
    17  C    1.528740   0.000000
    18  C    2.531904   1.528869   0.000000
    19  H    8.847323   7.480750   6.484928   0.000000
    20  H    8.832861   7.506782   6.727973   1.764377   0.000000
    21  H    7.668809   6.165477   5.504410   2.455398   3.066066
    22  H    9.069294   7.578042   7.017385   2.496542   2.481441
    23  H    7.407930   5.941365   5.854290   4.289154   3.824221
    24  H    8.018683   6.644320   6.408618   3.817774   2.679496
    25  H    5.272789   3.799253   3.467976   4.170315   4.027580
    26  H    5.682002   4.409424   4.444395   4.940870   4.125208
    27  H    5.352428   4.265932   3.557424   4.234719   3.738596
    28  H    6.929940   5.791914   5.242598   3.734708   2.562411
    29  H    3.465097   3.913901   3.414748   8.385231   8.323780
    30  H    2.816117   3.331280   2.745504   8.515088   8.756869
    31  H    2.151977   2.811404   3.345019   8.797939   8.454662
    32  H    2.161786   3.467679   3.916107   9.980404   9.856963
    33  H    1.096155   2.161827   3.475695   9.561724   9.424663
    34  H    1.096743   2.160145   2.845002   9.313776   9.481520
    35  H    2.151226   1.097004   2.154497   7.240358   7.023367
    36  H    2.160757   1.095744   2.163581   7.685388   7.824454
    37  H    3.472773   2.157721   1.092991   5.485618   5.784535
    38  H    2.832480   2.164889   1.097139   6.931213   7.409070
                   21         22         23         24         25
    21  H    0.000000
    22  H    1.764809   0.000000
    23  H    2.444013   2.514792   0.000000
    24  H    3.055553   2.453546   1.763014   0.000000
    25  H    2.665629   3.816736   2.438392   3.055066   0.000000
    26  H    3.815175   4.294466   2.517869   2.450275   1.764654
    27  H    4.149084   4.946999   4.293970   3.837843   2.450022
    28  H    4.027578   4.153881   3.840709   2.709069   3.063133
    29  H    8.193080   9.440801   8.460968   8.432585   6.102475
    30  H    8.022298   9.493985   8.493126   8.800646   6.068206
    31  H    8.057012   9.207523   7.637280   7.780093   5.523184
    32  H    9.223621  10.541977   9.043100   9.335855   6.813159
    33  H    8.235365   9.552798   7.672757   8.331023   5.747329
    34  H    8.110706   9.623813   8.069683   8.793876   5.904958
    35  H    5.928952   7.159047   5.349576   5.925347   3.350867
    36  H    6.076746   7.544254   5.816169   6.788965   3.905775
    37  H    4.412143   5.944819   4.897131   5.492852   2.514362
    38  H    5.954353   7.583601   6.581554   7.255518   4.254308
                   26         27         28         29         30
    26  H    0.000000
    27  H    2.506600   0.000000
    28  H    2.471427   1.763617   0.000000
    29  H    6.386560   4.733236   6.342236   0.000000
    30  H    6.755390   5.312706   7.059536   1.764804   0.000000
    31  H    5.408728   4.740563   6.183833   2.455234   3.066299
    32  H    6.982910   6.146470   7.728522   2.496593   2.481522
    33  H    5.936017   5.987477   7.433310   4.289337   3.824856
    34  H    6.542736   6.096472   7.741406   3.818403   2.680291
    35  H    3.565706   3.770457   5.124675   4.170127   4.027989
    36  H    4.696345   4.931878   6.346109   4.941252   4.126121
    37  H    3.757492   2.981268   4.543930   4.234895   3.738319
    38  H    5.431198   4.471672   6.158447   3.734703   2.562033
                   31         32         33         34         35
    31  H    0.000000
    32  H    1.764887   0.000000
    33  H    2.443857   2.514671   0.000000
    34  H    3.055556   2.453621   1.763086   0.000000
    35  H    2.665221   3.816595   2.438736   3.055156   0.000000
    36  H    3.814745   4.294346   2.517864   2.450347   1.764507
    37  H    4.149268   4.946730   4.294203   3.837224   2.450663
    38  H    4.026671   4.152626   3.839879   2.707771   3.062893
                   36         37         38
    36  H    0.000000
    37  H    2.506617   0.000000
    38  H    2.471517   1.763222   0.000000
 Stoichiometry    C12H20N4O2
 Framework group  C1[X(C12H20N4O2)]
 Deg. of freedom   108
 Full point group                 C1      NOp   1
 Largest Abelian subgroup         C1      NOp   1
 Largest concise Abelian subgroup C1      NOp   1
                         Standard orientation:                         
 ---------------------------------------------------------------------
 Center     Atomic      Atomic             Coordinates (Angstroms)
 Number     Number       Type             X           Y           Z
 ---------------------------------------------------------------------
      1          6           0       -1.263567   -1.370978    0.298543
      2          8           0       -1.566715   -2.376080    0.944514
      3          7           0        0.035900   -1.004941   -0.000629
      4          7           0        0.804132   -1.992221   -0.100406
      5          6           0        2.112573   -1.625686   -0.356054
      6          8           0        2.909302   -2.312506   -0.998622
      7          7           0        2.500301   -0.385839    0.157483
      8          6           0        3.855495    0.103517   -0.065405
      9          6           0        3.841981    1.561099   -0.520366
     10          6           0        3.047219    2.437454    0.445746
     11          6           0        1.646399    1.869994    0.675139
     12          6           0        1.690069    0.399131    1.090105
     13          7           0       -2.255677   -0.505143   -0.175184
     14          6           0       -3.659875   -0.792098    0.096235
     15          6           0       -4.385192    0.456433    0.592292
     16          6           0       -4.192837    1.629042   -0.367436
     17          6           0       -2.709539    1.871193   -0.647145
     18          6           0       -2.001982    0.594932   -1.103173
     19          1           0        4.382143   -0.504604   -0.806077
     20          1           0        4.399351    0.006848    0.882456
     21          1           0        3.389210    1.625329   -1.517730
     22          1           0        4.868115    1.936012   -0.606212
     23          1           0        2.974281    3.455989    0.047427
     24          1           0        3.578949    2.504068    1.402582
     25          1           0        1.067951    1.965380   -0.252149
     26          1           0        1.129390    2.458943    1.440962
     27          1           0        0.671767    0.009502    1.169183
     28          1           0        2.153337    0.302295    2.079989
     29          1           0       -3.768927   -1.593801    0.832765
     30          1           0       -4.108698   -1.145851   -0.840086
     31          1           0       -3.995073    0.734126    1.579617
     32          1           0       -5.453291    0.245162    0.713973
     33          1           0       -4.642811    2.533494    0.058057
     34          1           0       -4.716260    1.422254   -1.308772
     35          1           0       -2.230808    2.240937    0.268018
     36          1           0       -2.599171    2.652010   -1.407933
     37          1           0       -0.932686    0.789094   -1.219524
     38          1           0       -2.384520    0.284303   -2.083422
 ---------------------------------------------------------------------
 Rotational constants (GHZ):           0.7118353           0.2472434           0.1998774
 Standard basis: 6-31G(d) (6D, 7F)
 There are   310 symmetry adapted cartesian basis functions of A   symmetry.
 There are   310 symmetry adapted basis functions of A   symmetry.
   310 basis functions,   584 primitive gaussians,   310 cartesian basis functions
    68 alpha electrons       68 beta electrons
       nuclear repulsion energy      1404.1381573209 Hartrees.
 NAtoms=   38 NActive=   38 NUniq=   38 SFac= 1.00D+00 NAtFMM=   60 NAOKFM=F Big=F
 Integral buffers will be    131072 words long.
 Raffenetti 2 integral format.
 Two-electron integral symmetry is turned on.
 One-electron integrals computed using PRISM.
 NBasis=   310 RedAO= T EigKep=  1.87D-03  NBF=   310
 NBsUse=   310 1.00D-06 EigRej= -1.00D+00 NBFU=   310
 ExpMin= 1.61D-01 ExpMax= 5.48D+03 ExpMxC= 8.25D+02 IAcc=3 IRadAn=         5 AccDes= 0.00D+00
 Harris functional with IExCor=  402 and IRadAn=       5 diagonalized for initial guess.
 HarFok:  IExCor=  402 AccDes= 0.00D+00 IRadAn=         5 IDoV= 1 UseB2=F ITyADJ=14
 ICtDFT=  3500011 ScaDFX=  1.000000  1.000000  1.000000  1.000000
 FoFCou: FMM=F IPFlag=           0 FMFlag=      100000 FMFlg1=           0
         NFxFlg=           0 DoJE=T BraDBF=F KetDBF=T FulRan=T
         wScrn=  0.000000 ICntrl=       500 IOpCl=  0 I1Cent=   200000004 NGrid=           0
         NMat0=    1 NMatS0=      1 NMatT0=    0 NMatD0=    1 NMtDS0=    0 NMtDT0=    0
 Petite list used in FoFCou.
 Gradient too large for Newton-Raphson -- use scaled steepest descent instead.
     Minimum is close to point  2 DX=  2.99D-02 DF= -3.73D-03 DXR=  9.07D-02 DFR=  8.29D-03 which will be used.
 Gradient too large for Newton-Raphson -- use scaled steepest descent instead.
     Minimum is close to point  3 DX= -4.05D-03 DF= -3.89D-06 DXR=  8.17D-03 DFR=  6.65D-05 which will be used.
 Gradient too large for Newton-Raphson -- use scaled steepest descent instead.
     Accept linear search using points  1 and  2.
 Gradient too large for Newton-Raphson -- use scaled steepest descent instead.
 Gradient too large for Newton-Raphson -- use scaled steepest descent instead.
     Accept linear search using points  1 and  2.
 Gradient too large for Newton-Raphson -- use scaled steepest descent instead.
     Accept linear search using points  1 and  2.
 Gradient too large for Newton-Raphson -- use scaled steepest descent instead.
 LinEq1:  Iter=  0 NonCon=     1 RMS=4.77D-05 Max=1.90D-03 NDo=     1
 AX will form     1 AO Fock derivatives at one time.
 LinEq1:  Iter=  1 NonCon=     1 RMS=8.67D-05 Max=5.45D-03 NDo=     1
 LinEq1:  Iter=  2 NonCon=     1 RMS=1.27D-05 Max=7.62D-04 NDo=     1
 LinEq1:  Iter=  3 NonCon=     1 RMS=1.23D-05 Max=4.61D-04 NDo=     1
 LinEq1:  Iter=  4 NonCon=     1 RMS=6.80D-06 Max=2.80D-04 NDo=     1
 LinEq1:  Iter=  5 NonCon=     1 RMS=6.13D-06 Max=2.61D-04 NDo=     1
 LinEq1:  Iter=  6 NonCon=     1 RMS=4.06D-06 Max=1.98D-04 NDo=     1
 LinEq1:  Iter=  7 NonCon=     1 RMS=2.52D-06 Max=1.12D-04 NDo=     1
 LinEq1:  Iter=  8 NonCon=     1 RMS=2.69D-06 Max=1.84D-04 NDo=     1
 LinEq1:  Iter=  9 NonCon=     1 RMS=1.61D-06 Max=8.09D-05 NDo=     1
 LinEq1:  Iter= 10 NonCon=     1 RMS=6.66D-07 Max=2.10D-05 NDo=     1
 LinEq1:  Iter= 11 NonCon=     1 RMS=3.03D-07 Max=9.77D-06 NDo=     1
 LinEq1:  Iter= 12 NonCon=     1 RMS=1.93D-07 Max=5.75D-06 NDo=     1
 LinEq1:  Iter= 13 NonCon=     1 RMS=8.51D-08 Max=1.91D-06 NDo=     1
 LinEq1:  Iter= 14 NonCon=     1 RMS=4.76D-08 Max=1.30D-06 NDo=     1
 LinEq1:  Iter= 15 NonCon=     1 RMS=2.25D-08 Max=5.90D-07 NDo=     1
 LinEq1:  Iter= 16 NonCon=     0 RMS=5.61D-09 Max=1.34D-07 NDo=     1
 Linear equations converged to 1.814D-08 1.814D-07 after    16 iterations.
     Minimum is close to point  2 DX=  9.96D-04 DF= -2.46D-11 DXR=  9.95D-04 DFR=  9.93D-07 which will be used.
 LinEq1:  Iter=  0 NonCon=     1 RMS=1.60D-07 Max=1.33D-05 NDo=     1
 LinEq1:  Iter=  1 NonCon=     1 RMS=1.81D-07 Max=1.45D-05 NDo=     1
 LinEq1:  Iter=  2 NonCon=     1 RMS=1.24D-07 Max=8.19D-06 NDo=     1
 LinEq1:  Iter=  3 NonCon=     1 RMS=5.96D-08 Max=1.79D-06 NDo=     1
 LinEq1:  Iter=  4 NonCon=     1 RMS=5.39D-08 Max=1.74D-06 NDo=     1
 LinEq1:  Iter=  5 NonCon=     1 RMS=3.72D-08 Max=1.22D-06 NDo=     1
 LinEq1:  Iter=  6 NonCon=     1 RMS=2.60D-08 Max=1.24D-06 NDo=     1
 LinEq1:  Iter=  7 NonCon=     1 RMS=1.42D-08 Max=8.58D-07 NDo=     1
 LinEq1:  Iter=  8 NonCon=     1 RMS=1.33D-08 Max=9.55D-07 NDo=     1
 LinEq1:  Iter=  9 NonCon=     1 RMS=9.98D-09 Max=4.09D-07 NDo=     1
 LinEq1:  Iter= 10 NonCon=     1 RMS=4.68D-09 Max=1.21D-07 NDo=     1
 LinEq1:  Iter= 11 NonCon=     1 RMS=2.50D-09 Max=9.00D-08 NDo=     1
 LinEq1:  Iter= 12 NonCon=     1 RMS=1.15D-09 Max=3.48D-08 NDo=     1
 LinEq1:  Iter= 13 NonCon=     1 RMS=6.13D-10 Max=1.36D-08 NDo=     1
 LinEq1:  Iter= 14 NonCon=     1 RMS=3.29D-10 Max=1.44D-08 NDo=     1
 LinEq1:  Iter= 15 NonCon=     1 RMS=1.39D-10 Max=6.81D-09 NDo=     1
 LinEq1:  Iter= 16 NonCon=     1 RMS=6.44D-11 Max=2.87D-09 NDo=     1
 LinEq1:  Iter= 17 NonCon=     0 RMS=2.55D-11 Max=9.07D-10 NDo=     1
 Linear equations converged to 1.225D-10 1.225D-09 after    17 iterations.
 Restarting incremental Fock formation.
 SCF Done:  E(RB3LYP) =  -838.714017964     a.u. after   10 cycles
            Convg  =    0.4203D-09                    54 Fock formations.
              S**2 =  0.0000                  -V/T =  2.0090
 DoSCS=F DFT=T ScalE2(SS,OS)=  1.000000  1.000000
 Range of M.O.s used for correlation:     1   310
 NBasis=   310 NAE=    68 NBE=    68 NFC=     0 NFV=     0
 NROrb=    310 NOA=    68 NOB=    68 NVA=   242 NVB=   242
 Symmetrizing basis deriv contribution to polar:
 IMax=3 JMax=2 DiffMx= 0.00D+00
 G2DrvN: will do    39 centers at a time, making    1 passes.
 Calling FoFCou, ICntrl=  3107 FMM=F I1Cent=   0 AccDes= 0.00D+00.
 End of G2Drv F.D. properties file   721 does not exist.
 End of G2Drv F.D. properties file   722 does not exist.
 End of G2Drv F.D. properties file   788 does not exist.
          IDoAtm=11111111111111111111111111111111111111
          Differentiating once with respect to electric field.
                with respect to dipole field.
          Differentiating once with respect to nuclear coordinates.
 Keep R1 ints in memory in canonical form, NReq=1176942791.
          There are   117 degrees of freedom in the 1st order CPHF.  IDoFFX=6 NUNeed=     3.
    114 vectors produced by pass  0 Test12= 1.65D-14 1.00D-09 XBig12= 1.70D+02 5.38D+00.
 AX will form   114 AO Fock derivatives at one time.
    114 vectors produced by pass  1 Test12= 1.65D-14 1.00D-09 XBig12= 3.31D+01 1.01D+00.
    114 vectors produced by pass  2 Test12= 1.65D-14 1.00D-09 XBig12= 3.99D-01 1.28D-01.
    114 vectors produced by pass  3 Test12= 1.65D-14 1.00D-09 XBig12= 2.14D-03 4.07D-03.
    114 vectors produced by pass  4 Test12= 1.65D-14 1.00D-09 XBig12= 3.37D-06 1.36D-04.
     68 vectors produced by pass  5 Test12= 1.65D-14 1.00D-09 XBig12= 2.63D-09 4.68D-06.
     11 vectors produced by pass  6 Test12= 1.65D-14 1.00D-09 XBig12= 1.87D-12 1.17D-07.
      3 vectors produced by pass  7 Test12= 1.65D-14 1.00D-09 XBig12= 1.39D-15 3.27D-09.
 InvSVY:  IOpt=1 It=  1 EMax= 8.88D-15
 Solved reduced A of dimension   652 with   117 vectors.
 Isotropic polarizability for W=    0.000000      163.89 Bohr**3.
 End of Minotr F.D. properties file   721 does not exist.
 End of Minotr F.D. properties file   722 does not exist.
 End of Minotr F.D. properties file   788 does not exist.

 **********************************************************************

            Population analysis using the SCF density.

 **********************************************************************

 Orbital symmetries:
       Occupied  (A) (A) (A) (A) (A) (A) (A) (A) (A) (A) (A) (A)
                 (A) (A) (A) (A) (A) (A) (A) (A) (A) (A) (A) (A)
                 (A) (A) (A) (A) (A) (A) (A) (A) (A) (A) (A) (A)
                 (A) (A) (A) (A) (A) (A) (A) (A) (A) (A) (A) (A)
                 (A) (A) (A) (A) (A) (A) (A) (A) (A) (A) (A) (A)
                 (A) (A) (A) (A) (A) (A) (A) (A)
       Virtual   (A) (A) (A) (A) (A) (A) (A) (A) (A) (A) (A) (A)
                 (A) (A) (A) (A) (A) (A) (A) (A) (A) (A) (A) (A)
                 (A) (A) (A) (A) (A) (A) (A) (A) (A) (A) (A) (A)
                 (A) (A) (A) (A) (A) (A) (A) (A) (A) (A) (A) (A)
                 (A) (A) (A) (A) (A) (A) (A) (A) (A) (A) (A) (A)
                 (A) (A) (A) (A) (A) (A) (A) (A) (A) (A) (A) (A)
                 (A) (A) (A) (A) (A) (A) (A) (A) (A) (A) (A) (A)
                 (A) (A) (A) (A) (A) (A) (A) (A) (A) (A) (A) (A)
                 (A) (A) (A) (A) (A) (A) (A) (A) (A) (A) (A) (A)
                 (A) (A) (A) (A) (A) (A) (A) (A) (A) (A) (A) (A)
                 (A) (A) (A) (A) (A) (A) (A) (A) (A) (A) (A) (A)
                 (A) (A) (A) (A) (A) (A) (A) (A) (A) (A) (A) (A)
                 (A) (A) (A) (A) (A) (A) (A) (A) (A) (A) (A) (A)
                 (A) (A) (A) (A) (A) (A) (A) (A) (A) (A) (A) (A)
                 (A) (A) (A) (A) (A) (A) (A) (A) (A) (A) (A) (A)
                 (A) (A) (A) (A) (A) (A) (A) (A) (A) (A) (A) (A)
                 (A) (A) (A) (A) (A) (A) (A) (A) (A) (A) (A) (A)
                 (A) (A) (A) (A) (A) (A) (A) (A) (A) (A) (A) (A)
                 (A) (A) (A) (A) (A) (A) (A) (A) (A) (A) (A) (A)
                 (A) (A) (A) (A) (A) (A) (A) (A) (A) (A) (A) (A)
                 (A) (A)
 The electronic state is 1-A.
 Alpha  occ. eigenvalues --  -19.12169 -19.12128 -14.41144 -14.40840 -14.37995
 Alpha  occ. eigenvalues --  -14.36791 -10.31449 -10.31068 -10.23359 -10.22590
 Alpha  occ. eigenvalues --  -10.21993 -10.21893 -10.19868 -10.19581 -10.19484
 Alpha  occ. eigenvalues --  -10.19465 -10.19135 -10.19087  -1.10090  -1.04381
 Alpha  occ. eigenvalues --   -1.01150  -0.94807  -0.93804  -0.82820  -0.80906
 Alpha  occ. eigenvalues --   -0.79210  -0.77366  -0.76953  -0.69218  -0.66840
 Alpha  occ. eigenvalues --   -0.64764  -0.64302  -0.61356  -0.59008  -0.57159
 Alpha  occ. eigenvalues --   -0.55440  -0.54348  -0.50624  -0.48607  -0.47567
 Alpha  occ. eigenvalues --   -0.47142  -0.46830  -0.46288  -0.45540  -0.44753
 Alpha  occ. eigenvalues --   -0.44090  -0.43548  -0.43337  -0.42902  -0.41493
 Alpha  occ. eigenvalues --   -0.40872  -0.40138  -0.39245  -0.37968  -0.36844
 Alpha  occ. eigenvalues --   -0.36051  -0.35275  -0.34515  -0.34102  -0.33850
 Alpha  occ. eigenvalues --   -0.33476  -0.33282  -0.32753  -0.28023  -0.26953
 Alpha  occ. eigenvalues --   -0.24898  -0.24108  -0.23312
 Alpha virt. eigenvalues --   -0.11790   0.03633   0.05753   0.06449   0.09009
 Alpha virt. eigenvalues --    0.10183   0.10283   0.11425   0.12490   0.13107
 Alpha virt. eigenvalues --    0.13478   0.14226   0.14905   0.15085   0.15479
 Alpha virt. eigenvalues --    0.15759   0.16148   0.16322   0.16491   0.16985
 Alpha virt. eigenvalues --    0.17368   0.17752   0.18845   0.19062   0.20372
 Alpha virt. eigenvalues --    0.22093   0.22452   0.22626   0.23338   0.23406
 Alpha virt. eigenvalues --    0.24853   0.25001   0.25740   0.26583   0.27174
 Alpha virt. eigenvalues --    0.27442   0.28380   0.31300   0.34673   0.37630
 Alpha virt. eigenvalues --    0.40711   0.42793   0.48354   0.49341   0.50080
 Alpha virt. eigenvalues --    0.50322   0.51442   0.52244   0.52506   0.53451
 Alpha virt. eigenvalues --    0.53976   0.55402   0.55957   0.56224   0.57962
 Alpha virt. eigenvalues --    0.58270   0.60204   0.60487   0.61478   0.62427
 Alpha virt. eigenvalues --    0.63053   0.63583   0.64126   0.64745   0.65111
 Alpha virt. eigenvalues --    0.65707   0.68815   0.69719   0.70594   0.71142
 Alpha virt. eigenvalues --    0.72311   0.74609   0.75767   0.76053   0.77279
 Alpha virt. eigenvalues --    0.77826   0.79666   0.80552   0.81056   0.82198
 Alpha virt. eigenvalues --    0.82685   0.83231   0.83689   0.85208   0.86004
 Alpha virt. eigenvalues --    0.86253   0.86614   0.86795   0.87609   0.88047
 Alpha virt. eigenvalues --    0.88726   0.89347   0.89736   0.91321   0.91816
 Alpha virt. eigenvalues --    0.92335   0.92795   0.93533   0.94875   0.95244
 Alpha virt. eigenvalues --    0.96043   0.96349   0.98187   0.99511   1.00621
 Alpha virt. eigenvalues --    1.01786   1.04030   1.06326   1.07790   1.09815
 Alpha virt. eigenvalues --    1.12136   1.13145   1.15930   1.16602   1.18396
 Alpha virt. eigenvalues --    1.19548   1.21288   1.26542   1.27591   1.29993
 Alpha virt. eigenvalues --    1.32222   1.34673   1.34900   1.36583   1.37645
 Alpha virt. eigenvalues --    1.38834   1.39701   1.40386   1.40967   1.44071
 Alpha virt. eigenvalues --    1.46771   1.51719   1.54237   1.55183   1.56841
 Alpha virt. eigenvalues --    1.57826   1.59003   1.59754   1.63926   1.64928
 Alpha virt. eigenvalues --    1.66353   1.69897   1.70732   1.71216   1.74039
 Alpha virt. eigenvalues --    1.75999   1.77396   1.78673   1.80905   1.81351
 Alpha virt. eigenvalues --    1.83334   1.84445   1.85921   1.87096   1.87417
 Alpha virt. eigenvalues --    1.88132   1.90375   1.90633   1.91614   1.92249
 Alpha virt. eigenvalues --    1.92666   1.95164   1.96105   1.97559   1.98548
 Alpha virt. eigenvalues --    1.98970   1.99703   1.99857   2.00678   2.01977
 Alpha virt. eigenvalues --    2.03898   2.05474   2.07573   2.08047   2.09663
 Alpha virt. eigenvalues --    2.12233   2.14703   2.15525   2.16310   2.17136
 Alpha virt. eigenvalues --    2.20533   2.26339   2.27234   2.27969   2.29453
 Alpha virt. eigenvalues --    2.30503   2.32999   2.34148   2.34377   2.35227
 Alpha virt. eigenvalues --    2.35782   2.36607   2.38568   2.40028   2.40385
 Alpha virt. eigenvalues --    2.40489   2.42195   2.45479   2.46596   2.53035
 Alpha virt. eigenvalues --    2.55508   2.57083   2.59145   2.60159   2.61198
 Alpha virt. eigenvalues --    2.62658   2.63576   2.65136   2.67470   2.70063
 Alpha virt. eigenvalues --    2.71015   2.71437   2.73016   2.74229   2.74576
 Alpha virt. eigenvalues --    2.78955   2.82787   2.86397   2.94421   2.95324
 Alpha virt. eigenvalues --    3.08513   3.13479   3.22037   3.25484   3.84200
 Alpha virt. eigenvalues --    3.99322   4.01640   4.07501   4.14269   4.16662
 Alpha virt. eigenvalues --    4.17294   4.17755   4.25219   4.25767   4.39288
 Alpha virt. eigenvalues --    4.42442   4.49558   4.54162   4.54653   4.56560
 Alpha virt. eigenvalues --    4.57255   4.60501
          Condensed to atoms (all electrons):
               1          2          3          4          5          6
     1  C    4.318021   0.578419   0.179161  -0.053533   0.003740  -0.000204
     2  O    0.578419   8.071797  -0.085417   0.000566   0.000700   0.000000
     3  N    0.179161  -0.085417   7.271877   0.187271  -0.038594   0.001681
     4  N   -0.053533   0.000566   0.187271   6.989382   0.235468  -0.068171
     5  C    0.003740   0.000700  -0.038594   0.235468   4.276606   0.587820
     6  O   -0.000204   0.000000   0.001681  -0.068171   0.587820   8.066135
     7  N    0.000497  -0.000006  -0.003636  -0.114544   0.280087  -0.110603
     8  C    0.000010   0.000000  -0.000581   0.004740  -0.021243  -0.003889
     9  C    0.000000   0.000000  -0.000053  -0.000092   0.001718   0.000382
    10  C   -0.000002  -0.000000  -0.000060  -0.000027  -0.000111  -0.000014
    11  C   -0.000197   0.000002  -0.000019   0.000740   0.000993  -0.000071
    12  C    0.002273  -0.000179  -0.082819  -0.003905  -0.024515   0.002412
    13  N    0.305297  -0.102026  -0.106938   0.002377  -0.000217   0.000001
    14  C   -0.026922  -0.004683   0.003843  -0.000110   0.000002  -0.000000
    15  C    0.001699   0.000358  -0.000079  -0.000001  -0.000000   0.000000
    16  C   -0.000244  -0.000016  -0.000020   0.000000  -0.000000   0.000000
    17  C    0.000674  -0.000062   0.000076  -0.000022  -0.000001   0.000000
    18  C   -0.027723   0.002404  -0.003938   0.000449  -0.000039   0.000000
    19  H    0.000001   0.000000  -0.000042   0.000613  -0.003137   0.017006
    20  H    0.000002  -0.000000   0.000060  -0.000208   0.000224   0.000869
    21  H    0.000000  -0.000000   0.000021  -0.000030   0.000665   0.000028
    22  H    0.000000  -0.000000  -0.000000   0.000002  -0.000036  -0.000009
    23  H   -0.000000   0.000000   0.000003   0.000000   0.000012   0.000000
    24  H    0.000000  -0.000000   0.000001  -0.000000  -0.000022   0.000000
    25  H   -0.000107   0.000001   0.003240  -0.000291   0.000205  -0.000011
    26  H    0.000028  -0.000000   0.000146  -0.000013  -0.000048   0.000001
    27  H    0.004320   0.000049  -0.020406  -0.006232  -0.010005  -0.000109
    28  H    0.000068   0.000001   0.004851  -0.000739  -0.000565  -0.000027
    29  H   -0.002545   0.017215   0.000669  -0.000017  -0.000000  -0.000000
    30  H    0.001185   0.000997  -0.000175   0.000022  -0.000000  -0.000000
    31  H    0.000795   0.000033  -0.000017   0.000000  -0.000000  -0.000000
    32  H   -0.000048  -0.000008   0.000001   0.000000   0.000000  -0.000000
    33  H    0.000011   0.000000   0.000000  -0.000000  -0.000000   0.000000
    34  H   -0.000009   0.000000  -0.000000   0.000000  -0.000000  -0.000000
    35  H    0.000545  -0.000013   0.000037   0.000000  -0.000000  -0.000000
    36  H   -0.000030   0.000001  -0.000001   0.000000   0.000000  -0.000000
    37  H   -0.009829   0.000123   0.013560  -0.000587   0.000025  -0.000000
    38  H    0.001749   0.000020  -0.000311   0.000123   0.000004  -0.000000
               7          8          9         10         11         12
     1  C    0.000497   0.000010   0.000000  -0.000002  -0.000197   0.002273
     2  O   -0.000006   0.000000   0.000000  -0.000000   0.000002  -0.000179
     3  N   -0.003636  -0.000581  -0.000053  -0.000060  -0.000019  -0.082819
     4  N   -0.114544   0.004740  -0.000092  -0.000027   0.000740  -0.003905
     5  C    0.280087  -0.021243   0.001718  -0.000111   0.000993  -0.024515
     6  O   -0.110603  -0.003889   0.000382  -0.000014  -0.000071   0.002412
     7  N    7.092437   0.283878  -0.047075  -0.014585  -0.047699   0.280323
     8  C    0.283878   4.921519   0.371911  -0.040310  -0.012292  -0.042333
     9  C   -0.047075   0.371911   5.030474   0.380542  -0.046392  -0.013902
    10  C   -0.014585  -0.040310   0.380542   5.010818   0.387080  -0.040345
    11  C   -0.047699  -0.012292  -0.046392   0.387080   5.037159   0.370487
    12  C    0.280323  -0.042333  -0.013902  -0.040345   0.370487   5.006461
    13  N    0.000007  -0.000000  -0.000000   0.000000   0.000040  -0.000367
    14  C    0.000000   0.000000   0.000000   0.000000  -0.000001   0.000001
    15  C   -0.000000   0.000000  -0.000000  -0.000000  -0.000000   0.000000
    16  C    0.000000   0.000000   0.000000  -0.000000   0.000001   0.000000
    17  C   -0.000000   0.000000  -0.000000   0.000001  -0.000061   0.000001
    18  C   -0.000029   0.000001   0.000000   0.000012  -0.000519   0.000262
    19  H   -0.032432   0.373845  -0.028712   0.004090   0.000059   0.003871
    20  H   -0.054664   0.372682  -0.047899  -0.007245  -0.001501  -0.001761
    21  H   -0.000046  -0.038529   0.370957  -0.043582  -0.004327  -0.000394
    22  H    0.004201  -0.031832   0.366672  -0.033774   0.005226   0.000049
    23  H   -0.000096   0.005023  -0.033435   0.373519  -0.034611   0.004983
    24  H   -0.000867  -0.003537  -0.041441   0.370962  -0.041616  -0.003138
    25  H   -0.000397  -0.000811  -0.003987  -0.042806   0.365072  -0.040077
    26  H    0.004242  -0.000009   0.005277  -0.034162   0.362242  -0.030378
    27  H   -0.028917   0.003520   0.000171   0.004038  -0.025340   0.377531
    28  H   -0.058546  -0.004704  -0.000990  -0.007694  -0.048739   0.357881
    29  H    0.000000   0.000000  -0.000000  -0.000000  -0.000000   0.000001
    30  H    0.000000  -0.000000   0.000000   0.000000   0.000000  -0.000000
    31  H    0.000000  -0.000000   0.000000   0.000000   0.000000  -0.000001
    32  H    0.000000   0.000000   0.000000   0.000000   0.000000  -0.000000
    33  H   -0.000000   0.000000  -0.000000  -0.000000  -0.000000   0.000000
    34  H    0.000000  -0.000000  -0.000000   0.000000   0.000000  -0.000000
    35  H    0.000000  -0.000000   0.000000  -0.000001   0.000329  -0.000090
    36  H    0.000000  -0.000000   0.000000  -0.000000  -0.000002   0.000001
    37  H    0.000219  -0.000009  -0.000002  -0.000042   0.000355  -0.000532
    38  H   -0.000001  -0.000000   0.000000  -0.000000   0.000014  -0.000012
              13         14         15         16         17         18
     1  C    0.305297  -0.026922   0.001699  -0.000244   0.000674  -0.027723
     2  O   -0.102026  -0.004683   0.000358  -0.000016  -0.000062   0.002404
     3  N   -0.106938   0.003843  -0.000079  -0.000020   0.000076  -0.003938
     4  N    0.002377  -0.000110  -0.000001   0.000000  -0.000022   0.000449
     5  C   -0.000217   0.000002  -0.000000  -0.000000  -0.000001  -0.000039
     6  O    0.000001  -0.000000   0.000000   0.000000   0.000000   0.000000
     7  N    0.000007   0.000000  -0.000000   0.000000  -0.000000  -0.000029
     8  C   -0.000000   0.000000   0.000000   0.000000   0.000000   0.000001
     9  C   -0.000000   0.000000  -0.000000   0.000000  -0.000000   0.000000
    10  C    0.000000   0.000000  -0.000000  -0.000000   0.000001   0.000012
    11  C    0.000040  -0.000001  -0.000000   0.000001  -0.000061  -0.000519
    12  C   -0.000367   0.000001   0.000000   0.000000   0.000001   0.000262
    13  N    7.042174   0.284751  -0.047015  -0.014023  -0.053200   0.287766
    14  C    0.284751   4.928392   0.373182  -0.039663  -0.012765  -0.042354
    15  C   -0.047015   0.373182   5.026999   0.378885  -0.045834  -0.013135
    16  C   -0.014023  -0.039663   0.378885   5.010148   0.386917  -0.041626
    17  C   -0.053200  -0.012765  -0.045834   0.386917   5.047786   0.366716
    18  C    0.287766  -0.042354  -0.013135  -0.041626   0.366716   4.951311
    19  H   -0.000000   0.000000  -0.000000   0.000000  -0.000000   0.000000
    20  H    0.000000   0.000000   0.000000   0.000000   0.000000  -0.000000
    21  H    0.000000   0.000000   0.000000   0.000000   0.000000  -0.000002
    22  H    0.000000   0.000000   0.000000  -0.000000   0.000000   0.000000
    23  H   -0.000000  -0.000000   0.000000  -0.000000  -0.000000  -0.000000
    24  H    0.000000  -0.000000   0.000000   0.000000   0.000000  -0.000000
    25  H   -0.000015   0.000000   0.000000   0.000002   0.000254  -0.000893
    26  H   -0.000005   0.000000  -0.000000   0.000000  -0.000026   0.000027
    27  H    0.000339   0.000000  -0.000006  -0.000002   0.000009   0.000196
    28  H    0.000003   0.000000   0.000000   0.000000   0.000000  -0.000010
    29  H   -0.031397   0.372359  -0.028089   0.003999   0.000056   0.003716
    30  H   -0.054376   0.374289  -0.047218  -0.006634  -0.001816  -0.002755
    31  H   -0.000521  -0.038807   0.371871  -0.043191  -0.004532  -0.000323
    32  H    0.004246  -0.032106   0.367761  -0.033697   0.005105   0.000047
    33  H   -0.000109   0.004971  -0.033212   0.374539  -0.033407   0.004873
    34  H   -0.000845  -0.003593  -0.041693   0.371835  -0.042482  -0.003260
    35  H    0.000752  -0.000876  -0.003795  -0.042381   0.367160  -0.037844
    36  H    0.004179  -0.000005   0.005212  -0.033607   0.363263  -0.029867
    37  H   -0.028355   0.003662   0.000045   0.004224  -0.027774   0.370458
    38  H   -0.055641  -0.003686  -0.000952  -0.006566  -0.052715   0.370575
              19         20         21         22         23         24
     1  C    0.000001   0.000002   0.000000   0.000000  -0.000000   0.000000
     2  O    0.000000  -0.000000  -0.000000  -0.000000   0.000000  -0.000000
     3  N   -0.000042   0.000060   0.000021  -0.000000   0.000003   0.000001
     4  N    0.000613  -0.000208  -0.000030   0.000002   0.000000  -0.000000
     5  C   -0.003137   0.000224   0.000665  -0.000036   0.000012  -0.000022
     6  O    0.017006   0.000869   0.000028  -0.000009   0.000000   0.000000
     7  N   -0.032432  -0.054664  -0.000046   0.004201  -0.000096  -0.000867
     8  C    0.373845   0.372682  -0.038529  -0.031832   0.005023  -0.003537
     9  C   -0.028712  -0.047899   0.370957   0.366672  -0.033435  -0.041441
    10  C    0.004090  -0.007245  -0.043582  -0.033774   0.373519   0.370962
    11  C    0.000059  -0.001501  -0.004327   0.005226  -0.034611  -0.041616
    12  C    0.003871  -0.001761  -0.000394   0.000049   0.004983  -0.003138
    13  N   -0.000000   0.000000   0.000000   0.000000  -0.000000   0.000000
    14  C    0.000000   0.000000   0.000000   0.000000  -0.000000  -0.000000
    15  C   -0.000000   0.000000   0.000000   0.000000   0.000000   0.000000
    16  C    0.000000   0.000000   0.000000  -0.000000  -0.000000   0.000000
    17  C   -0.000000   0.000000   0.000000   0.000000  -0.000000   0.000000
    18  C    0.000000  -0.000000  -0.000002   0.000000  -0.000000  -0.000000
    19  H    0.508911  -0.032156  -0.004434  -0.001401  -0.000141  -0.000049
    20  H   -0.032156   0.610553   0.006155  -0.001626  -0.000074   0.005329
    21  H   -0.004434   0.006155   0.596112  -0.032523  -0.004946   0.006142
    22  H   -0.001401  -0.001626  -0.032523   0.589053  -0.002421  -0.004325
    23  H   -0.000141  -0.000074  -0.004946  -0.002421   0.596457  -0.035665
    24  H   -0.000049   0.005329   0.006142  -0.004325  -0.035665   0.606971
    25  H   -0.000027   0.000231   0.005070  -0.000021  -0.004895   0.006067
    26  H    0.000009   0.000055   0.000002  -0.000150  -0.002300  -0.004456
    27  H   -0.000147  -0.000130  -0.000034   0.000008  -0.000142  -0.000048
    28  H   -0.000170   0.008277   0.000235   0.000036  -0.000051   0.005024
    29  H    0.000000   0.000000   0.000000   0.000000  -0.000000   0.000000
    30  H   -0.000000  -0.000000  -0.000000  -0.000000   0.000000  -0.000000
    31  H   -0.000000  -0.000000  -0.000000  -0.000000  -0.000000  -0.000000
    32  H    0.000000  -0.000000  -0.000000  -0.000000   0.000000  -0.000000
    33  H   -0.000000   0.000000   0.000000   0.000000   0.000000   0.000000
    34  H   -0.000000  -0.000000  -0.000000   0.000000   0.000000  -0.000000
    35  H    0.000000  -0.000000  -0.000000  -0.000000   0.000000   0.000000
    36  H    0.000000  -0.000000  -0.000000  -0.000000  -0.000000   0.000000
    37  H   -0.000000   0.000000   0.000016  -0.000000   0.000000   0.000001
    38  H   -0.000000  -0.000000  -0.000000  -0.000000   0.000000   0.000000
              25         26         27         28         29         30
     1  C   -0.000107   0.000028   0.004320   0.000068  -0.002545   0.001185
     2  O    0.000001  -0.000000   0.000049   0.000001   0.017215   0.000997
     3  N    0.003240   0.000146  -0.020406   0.004851   0.000669  -0.000175
     4  N   -0.000291  -0.000013  -0.006232  -0.000739  -0.000017   0.000022
     5  C    0.000205  -0.000048  -0.010005  -0.000565  -0.000000  -0.000000
     6  O   -0.000011   0.000001  -0.000109  -0.000027  -0.000000  -0.000000
     7  N   -0.000397   0.004242  -0.028917  -0.058546   0.000000   0.000000
     8  C   -0.000811  -0.000009   0.003520  -0.004704   0.000000  -0.000000
     9  C   -0.003987   0.005277   0.000171  -0.000990  -0.000000   0.000000
    10  C   -0.042806  -0.034162   0.004038  -0.007694  -0.000000   0.000000
    11  C    0.365072   0.362242  -0.025340  -0.048739  -0.000000   0.000000
    12  C   -0.040077  -0.030378   0.377531   0.357881   0.000001  -0.000000
    13  N   -0.000015  -0.000005   0.000339   0.000003  -0.031397  -0.054376
    14  C    0.000000   0.000000   0.000000   0.000000   0.372359   0.374289
    15  C    0.000000  -0.000000  -0.000006   0.000000  -0.028089  -0.047218
    16  C    0.000002   0.000000  -0.000002   0.000000   0.003999  -0.006634
    17  C    0.000254  -0.000026   0.000009   0.000000   0.000056  -0.001816
    18  C   -0.000893   0.000027   0.000196  -0.000010   0.003716  -0.002755
    19  H   -0.000027   0.000009  -0.000147  -0.000170   0.000000  -0.000000
    20  H    0.000231   0.000055  -0.000130   0.008277   0.000000  -0.000000
    21  H    0.005070   0.000002  -0.000034   0.000235   0.000000  -0.000000
    22  H   -0.000021  -0.000150   0.000008   0.000036   0.000000  -0.000000
    23  H   -0.004895  -0.002300  -0.000142  -0.000051  -0.000000   0.000000
    24  H    0.006067  -0.004456  -0.000048   0.005024   0.000000  -0.000000
    25  H    0.600242  -0.033133  -0.005410   0.006728  -0.000000  -0.000000
    26  H   -0.033133   0.597576  -0.001959  -0.001246   0.000000  -0.000000
    27  H   -0.005410  -0.001959   0.532381  -0.034469  -0.000001   0.000002
    28  H    0.006728  -0.001246  -0.034469   0.640910  -0.000000  -0.000000
    29  H   -0.000000   0.000000  -0.000001  -0.000000   0.503016  -0.031215
    30  H   -0.000000  -0.000000   0.000002  -0.000000  -0.031215   0.602829
    31  H   -0.000000   0.000000   0.000010  -0.000000  -0.004332   0.006034
    32  H   -0.000000  -0.000000   0.000000  -0.000000  -0.001454  -0.001556
    33  H    0.000000  -0.000000  -0.000000   0.000000  -0.000139  -0.000094
    34  H    0.000000   0.000000   0.000000  -0.000000  -0.000047   0.005239
    35  H    0.000159   0.000256   0.000153   0.000000  -0.000032   0.000233
    36  H    0.000018  -0.000002  -0.000001  -0.000000   0.000009   0.000045
    37  H    0.004798  -0.000035  -0.000652   0.000038  -0.000139  -0.000149
    38  H   -0.000009   0.000000   0.000026   0.000000  -0.000187   0.008055
              31         32         33         34         35         36
     1  C    0.000795  -0.000048   0.000011  -0.000009   0.000545  -0.000030
     2  O    0.000033  -0.000008   0.000000   0.000000  -0.000013   0.000001
     3  N   -0.000017   0.000001   0.000000  -0.000000   0.000037  -0.000001
     4  N    0.000000   0.000000  -0.000000   0.000000   0.000000   0.000000
     5  C   -0.000000   0.000000  -0.000000  -0.000000  -0.000000   0.000000
     6  O   -0.000000  -0.000000   0.000000  -0.000000  -0.000000  -0.000000
     7  N    0.000000   0.000000  -0.000000   0.000000   0.000000   0.000000
     8  C   -0.000000   0.000000   0.000000  -0.000000  -0.000000  -0.000000
     9  C    0.000000   0.000000  -0.000000  -0.000000   0.000000   0.000000
    10  C    0.000000   0.000000  -0.000000   0.000000  -0.000001  -0.000000
    11  C    0.000000   0.000000  -0.000000   0.000000   0.000329  -0.000002
    12  C   -0.000001  -0.000000   0.000000  -0.000000  -0.000090   0.000001
    13  N   -0.000521   0.004246  -0.000109  -0.000845   0.000752   0.004179
    14  C   -0.038807  -0.032106   0.004971  -0.003593  -0.000876  -0.000005
    15  C    0.371871   0.367761  -0.033212  -0.041693  -0.003795   0.005212
    16  C   -0.043191  -0.033697   0.374539   0.371835  -0.042381  -0.033607
    17  C   -0.004532   0.005105  -0.033407  -0.042482   0.367160   0.363263
    18  C   -0.000323   0.000047   0.004873  -0.003260  -0.037844  -0.029867
    19  H   -0.000000   0.000000  -0.000000  -0.000000   0.000000   0.000000
    20  H   -0.000000  -0.000000   0.000000  -0.000000  -0.000000  -0.000000
    21  H   -0.000000  -0.000000   0.000000  -0.000000  -0.000000  -0.000000
    22  H   -0.000000  -0.000000   0.000000   0.000000  -0.000000  -0.000000
    23  H   -0.000000   0.000000   0.000000   0.000000   0.000000  -0.000000
    24  H   -0.000000  -0.000000   0.000000  -0.000000   0.000000   0.000000
    25  H   -0.000000  -0.000000   0.000000   0.000000   0.000159   0.000018
    26  H    0.000000  -0.000000  -0.000000   0.000000   0.000256  -0.000002
    27  H    0.000010   0.000000  -0.000000   0.000000   0.000153  -0.000001
    28  H   -0.000000  -0.000000   0.000000  -0.000000   0.000000  -0.000000
    29  H   -0.004332  -0.001454  -0.000139  -0.000047  -0.000032   0.000009
    30  H    0.006034  -0.001556  -0.000094   0.005239   0.000233   0.000045
    31  H    0.593599  -0.031974  -0.005021   0.006110   0.005087  -0.000005
    32  H   -0.031974   0.585592  -0.002559  -0.004355  -0.000009  -0.000147
    33  H   -0.005021  -0.002559   0.591528  -0.035223  -0.005325  -0.002422
    34  H    0.006110  -0.004355  -0.035223   0.606632   0.006137  -0.004397
    35  H    0.005087  -0.000009  -0.005325   0.006137   0.599240  -0.032184
    36  H   -0.000005  -0.000147  -0.002422  -0.004397  -0.032184   0.590485
    37  H   -0.000037   0.000009  -0.000138  -0.000070  -0.005096  -0.001593
    38  H    0.000231   0.000049  -0.000112   0.005078   0.006325  -0.001356
              37         38
     1  C   -0.009829   0.001749
     2  O    0.000123   0.000020
     3  N    0.013560  -0.000311
     4  N   -0.000587   0.000123
     5  C    0.000025   0.000004
     6  O   -0.000000  -0.000000
     7  N    0.000219  -0.000001
     8  C   -0.000009  -0.000000
     9  C   -0.000002   0.000000
    10  C   -0.000042  -0.000000
    11  C    0.000355   0.000014
    12  C   -0.000532  -0.000012
    13  N   -0.028355  -0.055641
    14  C    0.003662  -0.003686
    15  C    0.000045  -0.000952
    16  C    0.004224  -0.006566
    17  C   -0.027774  -0.052715
    18  C    0.370458   0.370575
    19  H   -0.000000  -0.000000
    20  H    0.000000  -0.000000
    21  H    0.000016  -0.000000
    22  H   -0.000000  -0.000000
    23  H    0.000000   0.000000
    24  H    0.000001   0.000000
    25  H    0.004798  -0.000009
    26  H   -0.000035   0.000000
    27  H   -0.000652   0.000026
    28  H    0.000038   0.000000
    29  H   -0.000139  -0.000187
    30  H   -0.000149   0.008055
    31  H   -0.000037   0.000231
    32  H    0.000009   0.000049
    33  H   -0.000138  -0.000112
    34  H   -0.000070   0.005078
    35  H   -0.005096   0.006325
    36  H   -0.001593  -0.001356
    37  H    0.524136  -0.033814
    38  H   -0.033814   0.614616
 Mulliken charges:
               1
     1  C    0.722898
     2  O   -0.480276
     3  N   -0.323394
     4  N   -0.173234
     5  C    0.710264
     6  O   -0.493226
     7  N   -0.431748
     8  C   -0.137051
     9  C   -0.264128
    10  C   -0.266304
    11  C   -0.266411
    12  C   -0.121790
    13  N   -0.436884
    14  C   -0.139881
    15  C   -0.264984
    16  C   -0.268881
    17  C   -0.263323
    18  C   -0.154496
    19  H    0.194440
    20  H    0.142826
    21  H    0.143443
    22  H    0.142871
    23  H    0.138780
    24  H    0.134668
    25  H    0.140804
    26  H    0.138062
    27  H    0.211254
    28  H    0.133897
    29  H    0.198552
    30  H    0.147057
    31  H    0.144990
    32  H    0.145102
    33  H    0.141840
    34  H    0.134945
    35  H    0.141232
    36  H    0.142403
    37  H    0.187183
    38  H    0.148500
 Sum of Mulliken charges =  -0.00000
 Mulliken charges with hydrogens summed into heavy atoms:
               1
     1  C    0.722898
     2  O   -0.480276
     3  N   -0.323394
     4  N   -0.173234
     5  C    0.710264
     6  O   -0.493226
     7  N   -0.431748
     8  C    0.200215
     9  C    0.022186
    10  C    0.007144
    11  C    0.012455
    12  C    0.223361
    13  N   -0.436884
    14  C    0.205728
    15  C    0.025108
    16  C    0.007904
    17  C    0.020313
    18  C    0.181186
 APT charges:
               1
     1  C    1.067508
     2  O   -0.730812
     3  N   -0.086711
     4  N   -0.183266
     5  C    0.986693
     6  O   -0.700044
     7  N   -0.717195
     8  C    0.333384
     9  C    0.089033
    10  C    0.121489
    11  C    0.086275
    12  C    0.280370
    13  N   -0.714492
    14  C    0.312731
    15  C    0.103912
    16  C    0.122539
    17  C    0.098855
    18  C    0.323460
    19  H    0.027324
    20  H   -0.070318
    21  H   -0.035285
    22  H   -0.049935
    23  H   -0.055086
    24  H   -0.050409
    25  H   -0.042226
    26  H   -0.047171
    27  H    0.011933
    28  H   -0.078914
    29  H    0.033440
    30  H   -0.073264
    31  H   -0.035178
    32  H   -0.055072
    33  H   -0.052558
    34  H   -0.047134
    35  H   -0.040022
    36  H   -0.049466
    37  H   -0.003617
    38  H   -0.080770
 Sum of APT charges =  -0.00000
 APT charges with hydrogens summed into heavy atoms:
               1
     1  C    1.067508
     2  O   -0.730812
     3  N   -0.086711
     4  N   -0.183266
     5  C    0.986693
     6  O   -0.700044
     7  N   -0.717195
     8  C    0.290391
     9  C    0.003813
    10  C    0.015994
    11  C   -0.003122
    12  C    0.213390
    13  N   -0.714492
    14  C    0.272906
    15  C    0.013661
    16  C    0.022846
    17  C    0.009367
    18  C    0.239073
 Electronic spatial extent (au):  <R**2>=           5548.0919
 Charge=             -0.0000 electrons
 Dipole moment (field-independent basis, Debye):
    X=             -2.1377    Y=              6.6164    Z=              0.0421  Tot=              6.9533
 Quadrupole moment (field-independent basis, Debye-Ang):
   XX=            -97.1153   YY=           -123.0208   ZZ=           -107.2401
   XY=              5.7910   XZ=              7.1762   YZ=             -0.3381
 Traceless Quadrupole moment (field-independent basis, Debye-Ang):
   XX=             12.0101   YY=            -13.8954   ZZ=              1.8853
   XY=              5.7910   XZ=              7.1762   YZ=             -0.3381
[...]
    54    N    4  pz     Val( 2p)     1.26126
    55    N    4  pz     Ryd( 3p)     0.00445
    56    N    4  dxy    Ryd( 3d)     0.00098
    57    N    4  dxz    Ryd( 3d)     0.00150
    58    N    4  dyz    Ryd( 3d)     0.00203
    59    N    4  dx2y2  Ryd( 3d)     0.00075
    60    N    4  dz2    Ryd( 3d)     0.00225
 
    61    C    5  S      Cor( 1S)     1.99934
    62    C    5  S      Val( 2S)     0.73358
    63    C    5  S      Ryd( 3S)     0.00455
    64    C    5  S      Ryd( 4S)     0.00039
    65    C    5  px     Val( 2p)     0.83231
    66    C    5  px     Ryd( 3p)     0.00838
    67    C    5  py     Val( 2p)     0.77062
    68    C    5  py     Ryd( 3p)     0.01961
    69    C    5  pz     Val( 2p)     0.82197
    70    C    5  pz     Ryd( 3p)     0.00395
    71    C    5  dxy    Ryd( 3d)     0.00317
    72    C    5  dxz    Ryd( 3d)     0.00193
    73    C    5  dyz    Ryd( 3d)     0.00231
    74    C    5  dx2y2  Ryd( 3d)     0.00214
    75    C    5  dz2    Ryd( 3d)     0.00041
 
    76    O    6  S      Cor( 1S)     1.99979
    77    O    6  S      Val( 2S)     1.70350
    78    O    6  S      Ryd( 3S)     0.00078
    79    O    6  S      Ryd( 4S)     0.00009
    80    O    6  px     Val( 2p)     1.73644
    81    O    6  px     Ryd( 3p)     0.00147
    82    O    6  py     Val( 2p)     1.57332
    83    O    6  py     Ryd( 3p)     0.00037
    84    O    6  pz     Val( 2p)     1.53978
    85    O    6  pz     Ryd( 3p)     0.00093
    86    O    6  dxy    Ryd( 3d)     0.00436
    87    O    6  dxz    Ryd( 3d)     0.00023
    88    O    6  dyz    Ryd( 3d)     0.00459
    89    O    6  dx2y2  Ryd( 3d)     0.00436
    90    O    6  dz2    Ryd( 3d)     0.00136
 
    91    N    7  S      Cor( 1S)     1.99928
    92    N    7  S      Val( 2S)     1.20571
    93    N    7  S      Ryd( 3S)     0.00173
    94    N    7  S      Ryd( 4S)     0.00006
    95    N    7  px     Val( 2p)     1.29908
    96    N    7  px     Ryd( 3p)     0.00149
    97    N    7  py     Val( 2p)     1.30279
    98    N    7  py     Ryd( 3p)     0.00159
    99    N    7  pz     Val( 2p)     1.65036
   100    N    7  pz     Ryd( 3p)     0.00491
   101    N    7  dxy    Ryd( 3d)     0.00072
   102    N    7  dxz    Ryd( 3d)     0.00073
   103    N    7  dyz    Ryd( 3d)     0.00045
   104    N    7  dx2y2  Ryd( 3d)     0.00068
   105    N    7  dz2    Ryd( 3d)     0.00053
 
   106    C    8  S      Cor( 1S)     1.99932
   107    C    8  S      Val( 2S)     1.01813
   108    C    8  S      Ryd( 3S)     0.00118
   109    C    8  S      Ryd( 4S)     0.00003
   110    C    8  px     Val( 2p)     0.95038
   111    C    8  px     Ryd( 3p)     0.00385
   112    C    8  py     Val( 2p)     1.15032
   113    C    8  py     Ryd( 3p)     0.00461
   114    C    8  pz     Val( 2p)     1.12506
   115    C    8  pz     Ryd( 3p)     0.00162
   116    C    8  dxy    Ryd( 3d)     0.00105
   117    C    8  dxz    Ryd( 3d)     0.00147
   118    C    8  dyz    Ryd( 3d)     0.00046
   119    C    8  dx2y2  Ryd( 3d)     0.00090
   120    C    8  dz2    Ryd( 3d)     0.00098
 
   121    C    9  S      Cor( 1S)     1.99932
   122    C    9  S      Val( 2S)     1.04114
   123    C    9  S      Ryd( 3S)     0.00063
   124    C    9  S      Ryd( 4S)     0.00002
   125    C    9  px     Val( 2p)     1.21096
   126    C    9  px     Ryd( 3p)     0.00384
   127    C    9  py     Val( 2p)     1.08325
   128    C    9  py     Ryd( 3p)     0.00176
   129    C    9  pz     Val( 2p)     1.12582
   130    C    9  pz     Ryd( 3p)     0.00158
   131    C    9  dxy    Ryd( 3d)     0.00084
   132    C    9  dxz    Ryd( 3d)     0.00086
   133    C    9  dyz    Ryd( 3d)     0.00044
   134    C    9  dx2y2  Ryd( 3d)     0.00059
   135    C    9  dz2    Ryd( 3d)     0.00074
 
   136    C   10  S      Cor( 1S)     1.99933
   137    C   10  S      Val( 2S)     1.03668
   138    C   10  S      Ryd( 3S)     0.00060
   139    C   10  S      Ryd( 4S)     0.00002
   140    C   10  px     Val( 2p)     1.12459
   141    C   10  px     Ryd( 3p)     0.00154
   142    C   10  py     Val( 2p)     1.05030
   143    C   10  py     Ryd( 3p)     0.00168
   144    C   10  pz     Val( 2p)     1.24310
   145    C   10  pz     Ryd( 3p)     0.00416
   146    C   10  dxy    Ryd( 3d)     0.00059
   147    C   10  dxz    Ryd( 3d)     0.00114
   148    C   10  dyz    Ryd( 3d)     0.00049
   149    C   10  dx2y2  Ryd( 3d)     0.00068
   150    C   10  dz2    Ryd( 3d)     0.00065
 
   151    C   11  S      Cor( 1S)     1.99932
   152    C   11  S      Val( 2S)     1.04166
   153    C   11  S      Ryd( 3S)     0.00066
   154    C   11  S      Ryd( 4S)     0.00002
   155    C   11  px     Val( 2p)     1.10247
   156    C   11  px     Ryd( 3p)     0.00212
   157    C   11  py     Val( 2p)     1.19310
   158    C   11  py     Ryd( 3p)     0.00333
   159    C   11  pz     Val( 2p)     1.12397
   160    C   11  pz     Ryd( 3p)     0.00185
   161    C   11  dxy    Ryd( 3d)     0.00045
   162    C   11  dxz    Ryd( 3d)     0.00109
   163    C   11  dyz    Ryd( 3d)     0.00029
   164    C   11  dx2y2  Ryd( 3d)     0.00095
   165    C   11  dz2    Ryd( 3d)     0.00070
 
   166    C   12  S      Cor( 1S)     1.99930
   167    C   12  S      Val( 2S)     1.01834
   168    C   12  S      Ryd( 3S)     0.00128
   169    C   12  S      Ryd( 4S)     0.00003
   170    C   12  px     Val( 2p)     1.24311
   171    C   12  px     Ryd( 3p)     0.00630
   172    C   12  py     Val( 2p)     0.85071
   173    C   12  py     Ryd( 3p)     0.00263
   174    C   12  pz     Val( 2p)     1.13376
   175    C   12  pz     Ryd( 3p)     0.00126
   176    C   12  dxy    Ryd( 3d)     0.00068
   177    C   12  dxz    Ryd( 3d)     0.00102
   178    C   12  dyz    Ryd( 3d)     0.00092
   179    C   12  dx2y2  Ryd( 3d)     0.00127
   180    C   12  dz2    Ryd( 3d)     0.00094
 
   181    N   13  S      Cor( 1S)     1.99927
   182    N   13  S      Val( 2S)     1.20578
   183    N   13  S      Ryd( 3S)     0.00169
   184    N   13  S      Ryd( 4S)     0.00006
   185    N   13  px     Val( 2p)     1.29915
   186    N   13  px     Ryd( 3p)     0.00168
   187    N   13  py     Val( 2p)     1.30122
   188    N   13  py     Ryd( 3p)     0.00155
   189    N   13  pz     Val( 2p)     1.65277
   190    N   13  pz     Ryd( 3p)     0.00484
   191    N   13  dxy    Ryd( 3d)     0.00073
   192    N   13  dxz    Ryd( 3d)     0.00068
   193    N   13  dyz    Ryd( 3d)     0.00044
   194    N   13  dx2y2  Ryd( 3d)     0.00068
   195    N   13  dz2    Ryd( 3d)     0.00055
 
   196    C   14  S      Cor( 1S)     1.99932
   197    C   14  S      Val( 2S)     1.01799
   198    C   14  S      Ryd( 3S)     0.00122
   199    C   14  S      Ryd( 4S)     0.00003
   200    C   14  px     Val( 2p)     0.91713
   201    C   14  px     Ryd( 3p)     0.00372
   202    C   14  py     Val( 2p)     1.15389
   203    C   14  py     Ryd( 3p)     0.00478
   204    C   14  pz     Val( 2p)     1.15474
   205    C   14  pz     Ryd( 3p)     0.00157
   206    C   14  dxy    Ryd( 3d)     0.00114
   207    C   14  dxz    Ryd( 3d)     0.00119
   208    C   14  dyz    Ryd( 3d)     0.00046
   209    C   14  dx2y2  Ryd( 3d)     0.00088
   210    C   14  dz2    Ryd( 3d)     0.00120
 
   211    C   15  S      Cor( 1S)     1.99932
   212    C   15  S      Val( 2S)     1.04092
   213    C   15  S      Ryd( 3S)     0.00063
   214    C   15  S      Ryd( 4S)     0.00002
   215    C   15  px     Val( 2p)     1.16693
   216    C   15  px     Ryd( 3p)     0.00345
   217    C   15  py     Val( 2p)     1.09316
   218    C   15  py     Ryd( 3p)     0.00170
   219    C   15  pz     Val( 2p)     1.15973
   220    C   15  pz     Ryd( 3p)     0.00212
   221    C   15  dxy    Ryd( 3d)     0.00083
   222    C   15  dxz    Ryd( 3d)     0.00075
   223    C   15  dyz    Ryd( 3d)     0.00052
   224    C   15  dx2y2  Ryd( 3d)     0.00056
   225    C   15  dz2    Ryd( 3d)     0.00083
 
   226    C   16  S      Cor( 1S)     1.99933
   227    C   16  S      Val( 2S)     1.03646
   228    C   16  S      Ryd( 3S)     0.00060
   229    C   16  S      Ryd( 4S)     0.00002
   230    C   16  px     Val( 2p)     1.12660
   231    C   16  px     Ryd( 3p)     0.00200
   232    C   16  py     Val( 2p)     1.04848
   233    C   16  py     Ryd( 3p)     0.00157
   234    C   16  pz     Val( 2p)     1.24283
   235    C   16  pz     Ryd( 3p)     0.00381
   236    C   16  dxy    Ryd( 3d)     0.00060
   237    C   16  dxz    Ryd( 3d)     0.00113
   238    C   16  dyz    Ryd( 3d)     0.00047
   239    C   16  dx2y2  Ryd( 3d)     0.00066
   240    C   16  dz2    Ryd( 3d)     0.00067
 
   241    C   17  S      Cor( 1S)     1.99932
   242    C   17  S      Val( 2S)     1.04084
   243    C   17  S      Ryd( 3S)     0.00066
   244    C   17  S      Ryd( 4S)     0.00002
   245    C   17  px     Val( 2p)     1.05965
   246    C   17  px     Ryd( 3p)     0.00189
   247    C   17  py     Val( 2p)     1.20368
   248    C   17  py     Ryd( 3p)     0.00363
   249    C   17  pz     Val( 2p)     1.15573
   250    C   17  pz     Ryd( 3p)     0.00180
   251    C   17  dxy    Ryd( 3d)     0.00048
   252    C   17  dxz    Ryd( 3d)     0.00089
   253    C   17  dyz    Ryd( 3d)     0.00025
   254    C   17  dx2y2  Ryd( 3d)     0.00095
   255    C   17  dz2    Ryd( 3d)     0.00092
 
   256    C   18  S      Cor( 1S)     1.99930
   257    C   18  S      Val( 2S)     1.01820
   258    C   18  S      Ryd( 3S)     0.00132
   259    C   18  S      Ryd( 4S)     0.00003
   260    C   18  px     Val( 2p)     1.20703
   261    C   18  px     Ryd( 3p)     0.00563
   262    C   18  py     Val( 2p)     0.85790
   263    C   18  py     Ryd( 3p)     0.00246
   264    C   18  pz     Val( 2p)     1.16295
   265    C   18  pz     Ryd( 3p)     0.00186
   266    C   18  dxy    Ryd( 3d)     0.00070
   267    C   18  dxz    Ryd( 3d)     0.00071
   268    C   18  dyz    Ryd( 3d)     0.00100
   269    C   18  dx2y2  Ryd( 3d)     0.00126
   270    C   18  dz2    Ryd( 3d)     0.00115
 
   271    H   19  S      Val( 1S)     0.73035
   272    H   19  S      Ryd( 2S)     0.00205
 
   273    H   20  S      Val( 1S)     0.77220
   274    H   20  S      Ryd( 2S)     0.00205
 
   275    H   21  S      Val( 1S)     0.76125
   276    H   21  S      Ryd( 2S)     0.00189
 
   277    H   22  S      Val( 1S)     0.75449
   278    H   22  S      Ryd( 2S)     0.00113
 
   279    H   23  S      Val( 1S)     0.75454
   280    H   23  S      Ryd( 2S)     0.00111
 
   281    H   24  S      Val( 1S)     0.77227
   282    H   24  S      Ryd( 2S)     0.00194
 
   283    H   25  S      Val( 1S)     0.76007
   284    H   25  S      Ryd( 2S)     0.00199
 
   285    H   26  S      Val( 1S)     0.75295
   286    H   26  S      Ryd( 2S)     0.00112
 
   287    H   27  S      Val( 1S)     0.72415
   288    H   27  S      Ryd( 2S)     0.00243
 
   289    H   28  S      Val( 1S)     0.77258
   290    H   28  S      Ryd( 2S)     0.00217
 
   291    H   29  S      Val( 1S)     0.73017
   292    H   29  S      Ryd( 2S)     0.00203
 
   293    H   30  S      Val( 1S)     0.77304
   294    H   30  S      Ryd( 2S)     0.00201
 
   295    H   31  S      Val( 1S)     0.76181
   296    H   31  S      Ryd( 2S)     0.00188
 
   297    H   32  S      Val( 1S)     0.75326
   298    H   32  S      Ryd( 2S)     0.00113
 
   299    H   33  S      Val( 1S)     0.75453
   300    H   33  S      Ryd( 2S)     0.00111
 
   301    H   34  S      Val( 1S)     0.77136
   302    H   34  S      Ryd( 2S)     0.00194
 
   303    H   35  S      Val( 1S)     0.76214
   304    H   35  S      Ryd( 2S)     0.00207
 
   305    H   36  S      Val( 1S)     0.75245
   306    H   36  S      Ryd( 2S)     0.00110
 
   307    H   37  S      Val( 1S)     0.72412
   308    H   37  S      Ryd( 2S)     0.00243
 
   309    H   38  S      Val( 1S)     0.77351
   310    H   38  S      Ryd( 2S)     0.00227


 Summary of Natural Population Analysis:                  
                                                          
                                       Natural Population 
                Natural  -----------------------------------------------
    Atom  No    Charge         Core      Valence    Rydberg      Total
 -----------------------------------------------------------------------
      C    1    0.79711      1.99934     3.15683    0.04672     5.20289
      O    2   -0.57264      1.99979     6.55431    0.01854     8.57264
      N    3   -0.25252      1.99941     5.22708    0.02603     7.25252
      N    4   -0.24921      1.99941     5.22367    0.02613     7.24921
      C    5    0.79534      1.99934     3.15848    0.04684     5.20466
      O    6   -0.57138      1.99979     6.55304    0.01855     8.57138
      N    7   -0.47010      1.99928     5.45794    0.01289     7.47010
      C    8   -0.25936      1.99932     4.24388    0.01616     6.25936
      C    9   -0.47181      1.99932     4.46117    0.01132     6.47181
      C   10   -0.46554      1.99933     4.45466    0.01155     6.46554
      C   11   -0.47197      1.99932     4.46120    0.01145     6.47197
      C   12   -0.26153      1.99930     4.24592    0.01631     6.26153
      N   13   -0.47109      1.99927     5.45892    0.01290     7.47109
      C   14   -0.25927      1.99932     4.24375    0.01620     6.25927
      C   15   -0.47146      1.99932     4.46074    0.01140     6.47146
      C   16   -0.46524      1.99933     4.45437    0.01154     6.46524
      C   17   -0.47070      1.99932     4.45990    0.01148     6.47070
      C   18   -0.26150      1.99930     4.24608    0.01613     6.26150
      H   19    0.26759      0.00000     0.73035    0.00205     0.73241
      H   20    0.22575      0.00000     0.77220    0.00205     0.77425
      H   21    0.23686      0.00000     0.76125    0.00189     0.76314
      H   22    0.24438      0.00000     0.75449    0.00113     0.75562
      H   23    0.24435      0.00000     0.75454    0.00111     0.75565
      H   24    0.22579      0.00000     0.77227    0.00194     0.77421
      H   25    0.23794      0.00000     0.76007    0.00199     0.76206
      H   26    0.24593      0.00000     0.75295    0.00112     0.75407
      H   27    0.27342      0.00000     0.72415    0.00243     0.72658
      H   28    0.22525      0.00000     0.77258    0.00217     0.77475
      H   29    0.26780      0.00000     0.73017    0.00203     0.73220
      H   30    0.22495      0.00000     0.77304    0.00201     0.77505
      H   31    0.23631      0.00000     0.76181    0.00188     0.76369
      H   32    0.24561      0.00000     0.75326    0.00113     0.75439
      H   33    0.24436      0.00000     0.75453    0.00111     0.75564
      H   34    0.22670      0.00000     0.77136    0.00194     0.77330
      H   35    0.23579      0.00000     0.76214    0.00207     0.76421
      H   36    0.24646      0.00000     0.75245    0.00110     0.75354
      H   37    0.27345      0.00000     0.72412    0.00243     0.72655
      H   38    0.22422      0.00000     0.77351    0.00227     0.77578
 =======================================================================
   * Total *   -0.00000     35.98882    99.63317    0.37801   136.00000

                                 Natural Population      
 --------------------------------------------------------
   Core                      35.98882 ( 99.9690% of  36)
   Valence                   99.63317 ( 99.6332% of 100)
   Natural Minimal Basis    135.62199 ( 99.7221% of 136)
   Natural Rydberg Basis      0.37801 (  0.2779% of 136)
 --------------------------------------------------------

    Atom  No          Natural Electron Configuration
 ----------------------------------------------------------------------------
      C    1      [core]2S( 0.73)2p( 2.42)3p( 0.03)3d( 0.01)
      O    2      [core]2S( 1.70)2p( 4.85)3d( 0.01)
      N    3      [core]2S( 1.40)2p( 3.83)3S( 0.01)3p( 0.01)3d( 0.01)
      N    4      [core]2S( 1.40)2p( 3.82)3S( 0.01)3p( 0.01)3d( 0.01)
      C    5      [core]2S( 0.73)2p( 2.42)3p( 0.03)3d( 0.01)
      O    6      [core]2S( 1.70)2p( 4.85)3d( 0.01)
      N    7      [core]2S( 1.21)2p( 4.25)3p( 0.01)
      C    8      [core]2S( 1.02)2p( 3.23)3p( 0.01)
      C    9      [core]2S( 1.04)2p( 3.42)3p( 0.01)
      C   10      [core]2S( 1.04)2p( 3.42)3p( 0.01)
      C   11      [core]2S( 1.04)2p( 3.42)3p( 0.01)
      C   12      [core]2S( 1.02)2p( 3.23)3p( 0.01)
      N   13      [core]2S( 1.21)2p( 4.25)3p( 0.01)
      C   14      [core]2S( 1.02)2p( 3.23)3p( 0.01)
      C   15      [core]2S( 1.04)2p( 3.42)3p( 0.01)
      C   16      [core]2S( 1.04)2p( 3.42)3p( 0.01)
      C   17      [core]2S( 1.04)2p( 3.42)3p( 0.01)
      C   18      [core]2S( 1.02)2p( 3.23)3p( 0.01)
      H   19            1S( 0.73)
      H   20            1S( 0.77)
      H   21            1S( 0.76)
      H   22            1S( 0.75)
      H   23            1S( 0.75)
      H   24            1S( 0.77)
      H   25            1S( 0.76)
      H   26            1S( 0.75)
      H   27            1S( 0.72)
      H   28            1S( 0.77)
      H   29            1S( 0.73)
      H   30            1S( 0.77)
      H   31            1S( 0.76)
      H   32            1S( 0.75)
      H   33            1S( 0.75)
      H   34            1S( 0.77)
      H   35            1S( 0.76)
      H   36            1S( 0.75)
      H   37            1S( 0.72)
      H   38            1S( 0.77)


 NBO analysis skipped by request.
 1\1\GINC-DELLA-R1C4N16\SP\RB3LYP TD-FC\6-31G(d)\C12H20N4O2\BJS4\22-Aug
 -2020\0\\# TD(NStates=10, Root=1) B3LYP/6-31G* scf=qc volume pop=NPA d
 ensity=current Geom=AllCheck Guess=Read\\Title Card Required\\0,1\C,0,
 2.1554323538,0.7323990407,-0.442973209\O,0,2.1929783043,0.5458723729,-
 1.6490531599\N,0,1.5933980553,1.9866543365,0.0566655847\N,0,0.35046079
 25,2.0051754743,-0.0015150152\C,0,-0.2053864973,3.2646487761,0.4944920
 772\O,0,-0.2217812569,3.4688766548,1.6980240339\N,0,-0.7559687032,4.03
 89404864,-0.4708196699\C,0,-1.4067007798,5.2997334265,-0.1057861629\C,
 0,-0.7078770747,6.4838699295,-0.7869690842\C,0,-0.6034179812,6.2669007
 651,-2.304994001\C,0,0.0630364595,4.9195124878,-2.6251707541\C,0,-0.65
 39497368,3.7665471773,-1.9092678472\N,0,2.6932153609,-0.0537716198,0.5
 199336938\C,0,3.3978052531,-1.2816487742,0.1409238373\C,0,4.7996239473
 ,-1.3135087944,0.7623325743\C,0,4.7368593427,-1.0900437311,2.281212740
 3\C,0,3.9762242707,0.2029698299,2.6121524425\C,0,2.5877220071,0.213414
 4759,1.9592932219\H,0,-1.3816772603,5.3799975994,0.981612318\H,0,-2.45
 90928587,5.2502167038,-0.4235948192\H,0,0.2964817735,6.5957776433,-0.3
 576387275\H,0,-1.2593999428,7.405705102,-0.5644532909\H,0,-0.044725917
 ,7.0878102476,-2.7700537275\H,0,-1.612097754,6.2849164723,-2.744128412
 1\H,0,1.1128143414,4.9358560119,-2.303899454\H,0,0.0574632175,4.730013
 3926,-3.7054780175\H,0,-0.1337040681,2.8201191632,-2.0625210685\H,0,-1
 .672652635,3.6539650627,-2.3097064248\H,0,3.431382297,-1.316462713,-0.
 9486921994\H,0,2.8118402326,-2.1446264083,0.4921811154\H,0,5.412377600
 4,-0.530128641,0.2970203172\H,0,5.2736446911,-2.2753223727,0.530716299
 4\H,0,5.7476431647,-1.0565071929,2.704873421\H,0,4.2260936613,-1.94270
 92261,2.7529799683\H,0,4.5430115516,1.0708323064,2.2500983583\H,0,3.86
 1504298,0.3201158482,3.6966015662\H,0,2.0880290427,1.1710125552,2.1118
 381743\H,0,1.9546504467,-0.5647238686,2.412523301\\Version=ES64L-G16Re
 vA.03\State=1-A\HF=-838.7633152\RMSD=8.579e-09\Dipole=0.2451121,0.1164
 463,-0.0066069\Quadrupole=1.1686243,6.2178274,-7.3864517,-8.3609354,7.
 3359071,-9.0159077\PG=C01 [X(C12H20N4O2)]\\@


 I am not a vegetarian because I love animals;
 I am a vegetarian because I hate plants.
                               -- A. Whitney Brown
 Job cpu time:       0 days  0 hours 54 minutes  7.4 seconds.
 Elapsed time:       0 days  0 hours 10 minutes 49.9 seconds.
 File lengths (MBytes):  RWF=    821 Int=      0 D2E=      0 Chk=    268 Scr=      1
 Normal termination of Gaussian 16 at Sat Aug 22 17:59:34 2020.
