 Entering Gaussian System, Link 0=g16
 Input=science_base_2123.com
 Output=science_base_2123.log
 Initial command:
 /opt/export/g16/l1.exe "/scratch/bjs4/job.134751/Gau-134753.inp" -scrdir="/scratch/bjs4/job.134751/"
 Entering Link 1 = /opt/export/g16/l1.exe PID=    134754.
  
 Copyright (c) 1988,1990,1992,1993,1995,1998,2003,2009,2016,
            Gaussian, Inc.  All Rights Reserved.
  
 This is part of the Gaussian(R) 16 program.  It is based on
 the Gaussian(R) 09 system (copyright 2009, Gaussian, Inc.),
 the Gaussian(R) 03 system (copyright 2003, Gaussian, Inc.),
 the Gaussian(R) 98 system (copyright 1998, Gaussian, Inc.),
 the Gaussian(R) 94 system (copyright 1995, Gaussian, Inc.),
 the Gaussian 92(TM) system (copyright 1992, Gaussian, Inc.),
 the Gaussian 90(TM) system (copyright 1990, Gaussian, Inc.),
 the Gaussian 88(TM) system (copyright 1988, Gaussian, Inc.),
 the Gaussian 86(TM) system (copyright 1986, Carnegie Mellon
 University), and the Gaussian 82(TM) system (copyright 1983,
 Carnegie Mellon University). Gaussian is a federally registered
 trademark of Gaussian, Inc.
  
 This software contains proprietary and confidential information,
 including trade secrets, belonging to Gaussian, Inc.
  
 This software is provided under written license and may be
 used, copied, transmitted, or stored only in accord with that
 written license.
  
 The following legend is applicable only to US Government
 contracts under FAR:
  
                    RESTRICTED RIGHTS LEGEND
  
 Use, reproduction and disclosure by the US Government is
 subject to restrictions as set forth in subparagraphs (a)
 and (c) of the Commercial Computer Software - Restricted
 Rights clause in FAR 52.227-19.
  
 Gaussian, Inc.
 340 Quinnipiac St., Bldg. 40, Wallingford CT 06492
  
  
 ---------------------------------------------------------------
 Warning -- This program may not be used in any manner that
 competes with the business of Gaussian, Inc. or will provide
 assistance to any competitor of Gaussian, Inc.  The licensee
 of this program is prohibited from giving any competitor of
 Gaussian, Inc. access to this program.  By using this program,
 the user acknowledges that Gaussian, Inc. is engaged in the
 business of creating and licensing software in the field of
 computational chemistry and represents and warrants to the
 licensee that it is not a competitor of Gaussian, Inc. and that
 it will not use this program in any manner prohibited above.
 ---------------------------------------------------------------
  

 Cite this work as:
 Gaussian 16, Revision A.03,
 M. J. Frisch, G. W. Trucks, H. B. Schlegel, G. E. Scuseria, 
 M. A. Robb, J. R. Cheeseman, G. Scalmani, V. Barone, 
 G. A. Petersson, H. Nakatsuji, X. Li, M. Caricato, A. V. Marenich, 
 J. Bloino, B. G. Janesko, R. Gomperts, B. Mennucci, H. P. Hratchian, 
 J. V. Ortiz, A. F. Izmaylov, J. L. Sonnenberg, D. Williams-Young, 
 F. Ding, F. Lipparini, F. Egidi, J. Goings, B. Peng, A. Petrone, 
 T. Henderson, D. Ranasinghe, V. G. Zakrzewski, J. Gao, N. Rega, 
 G. Zheng, W. Liang, M. Hada, M. Ehara, K. Toyota, R. Fukuda, 
 J. Hasegawa, M. Ishida, T. Nakajima, Y. Honda, O. Kitao, H. Nakai, 
 T. Vreven, K. Throssell, J. A. Montgomery, Jr., J. E. Peralta, 
 F. Ogliaro, M. J. Bearpark, J. J. Heyd, E. N. Brothers, K. N. Kudin, 
 V. N. Staroverov, T. A. Keith, R. Kobayashi, J. Normand, 
 K. Raghavachari, A. P. Rendell, J. C. Burant, S. S. Iyengar, 
 J. Tomasi, M. Cossi, J. M. Millam, M. Klene, C. Adamo, R. Cammi, 
 J. W. Ochterski, R. L. Martin, K. Morokuma, O. Farkas, 
 J. B. Foresman, and D. J. Fox, Gaussian, Inc., Wallingford CT, 2016.
 
 ******************************************
 Gaussian 16:  ES64L-G16RevA.03 25-Dec-2016
                27-Aug-2018 
 ******************************************
 %nprocshared=6
 Will use up to    6 processors via shared memory.
 %Mem=12GB
 %Chk=science_base_21.chk
 -------------------------
 # opt b3lyp/6-31G* scf=qc
 -------------------------
 1/18=20,19=15,26=3,38=1/1,3;
 2/9=110,12=2,17=6,18=5,40=1/2;
 3/5=1,6=6,7=1,11=2,25=1,30=1,71=1,74=-5/1,2,3;
 4//1;
 5/5=2,8=3,38=5/8;
 6/7=2,8=2,9=2,10=2,28=1/1;
 7//1,2,3,16;
 1/18=20,19=15,26=3/3(2);
 2/9=110/2;
 99//99;
 2/9=110/2;
 3/5=1,6=6,7=1,11=2,25=1,30=1,71=1,74=-5/1,2,3;
 4/5=5,16=3,69=1/1;
 5/5=2,8=3,38=5/8;
 7//1,2,3,16;
 1/18=20,19=15,26=3/3(-5);
 2/9=110/2;
 6/7=2,8=2,9=2,10=2,19=2,28=1/1;
 99/9=1/99;
 -------------------
 Title Card Required
 -------------------
 Symbolic Z-matrix:
 Charge =  0 Multiplicity = 1
 C                     1.44339  -0.13712   0.14725 
 N1                    0.81806   0.92666  -0.22161 
 C                     1.09338   2.22902  -0.78169 
 C                     1.61203   2.11803  -2.22406 
 C                    -0.28611   2.93212  -0.90174 
 C                     1.91021   3.10002   0.1824 
 N                     0.59644  -1.13049   0.66971 
 C                     0.65835  -2.54624   0.30669 
 C                    -0.76252  -0.76331   1.10204 
 N                     2.80913  -0.43447   0.15119 
 C                     3.42549  -1.57989   0.824 
 C                     3.86964   0.45738  -0.29372 
 H                     1.01836   1.38773  -2.78818 
 H                     2.6486    1.80547  -2.32856 
 H                     1.5404    3.07856  -2.74667 
 H                    -1.02004   2.29393  -1.40568 
 H                    -0.20167   3.86682  -1.47022 
 H                    -0.69831   3.18713   0.08137 
 H                     2.8232    2.6377    0.55448 
 H                     1.32985   3.32441   1.08711 
 H                     2.18127   4.05438  -0.27962 
 H                     1.50974  -2.80482  -0.32584 
 H                    -0.23832  -2.86145  -0.23899 
 H                     0.70209  -3.14693   1.22451 
 H                    -0.90163   0.30984   1.26495 
 H                    -0.98528  -1.25701   2.05402 
 H                    -1.50873  -1.08803   0.36593 
 H                     2.75926  -2.1966    1.41904 
 H                     4.19149  -1.23711   1.52787 
 H                     3.92525  -2.21256   0.08026 
 H                     3.54867   1.35804  -0.77859 
 H                     4.52724  -0.05714  -1.00641 
 H                     4.47776   0.7767    0.56138 
 

 GradGradGradGradGradGradGradGradGradGradGradGradGradGradGradGradGradGrad
 Berny optimization.
 Initialization pass.
                           ----------------------------
                           !    Initial Parameters    !
                           ! (Angstroms and Degrees)  !
 --------------------------                            --------------------------
 ! Name  Definition              Value          Derivative Info.                !
 --------------------------------------------------------------------------------
 ! R1    R(1,2)                  1.2879         estimate D2E/DX2                !
 ! R2    R(1,7)                  1.4061         estimate D2E/DX2                !
 ! R3    R(1,10)                 1.3977         estimate D2E/DX2                !
 ! R4    R(2,3)                  1.4442         estimate D2E/DX2                !
 ! R5    R(3,4)                  1.5368         estimate D2E/DX2                !
 ! R6    R(3,5)                  1.553          estimate D2E/DX2                !
 ! R7    R(3,6)                  1.5347         estimate D2E/DX2                !
 ! R8    R(4,13)                 1.0973         estimate D2E/DX2                !
 ! R9    R(4,14)                 1.0877         estimate D2E/DX2                !
 ! R10   R(4,15)                 1.0958         estimate D2E/DX2                !
 ! R11   R(5,16)                 1.0954         estimate D2E/DX2                !
 ! R12   R(5,17)                 1.0973         estimate D2E/DX2                !
 ! R13   R(5,18)                 1.0961         estimate D2E/DX2                !
 ! R14   R(6,19)                 1.0889         estimate D2E/DX2                !
 ! R15   R(6,20)                 1.098          estimate D2E/DX2                !
 ! R16   R(6,21)                 1.0944         estimate D2E/DX2                !
 ! R17   R(7,8)                  1.4629         estimate D2E/DX2                !
 ! R18   R(7,9)                  1.4726         estimate D2E/DX2                !
 ! R19   R(8,22)                 1.0917         estimate D2E/DX2                !
 ! R20   R(8,23)                 1.096          estimate D2E/DX2                !
 ! R21   R(8,24)                 1.0978         estimate D2E/DX2                !
 ! R22   R(9,25)                 1.0943         estimate D2E/DX2                !
 ! R23   R(9,26)                 1.0953         estimate D2E/DX2                !
 ! R24   R(9,27)                 1.0973         estimate D2E/DX2                !
 ! R25   R(10,11)                1.4644         estimate D2E/DX2                !
 ! R26   R(10,12)                1.4553         estimate D2E/DX2                !
 ! R27   R(11,28)                1.0855         estimate D2E/DX2                !
 ! R28   R(11,29)                1.0953         estimate D2E/DX2                !
 ! R29   R(11,30)                1.0969         estimate D2E/DX2                !
 ! R30   R(12,31)                1.0721         estimate D2E/DX2                !
 ! R31   R(12,32)                1.0978         estimate D2E/DX2                !
 ! R32   R(12,33)                1.0968         estimate D2E/DX2                !
 ! A1    A(2,1,7)              113.4213         estimate D2E/DX2                !
 ! A2    A(2,1,10)             130.6127         estimate D2E/DX2                !
 ! A3    A(7,1,10)             115.9263         estimate D2E/DX2                !
 ! A4    A(1,2,3)              139.7624         estimate D2E/DX2                !
 ! A5    A(2,3,4)              111.2969         estimate D2E/DX2                !
 ! A6    A(2,3,5)              105.6            estimate D2E/DX2                !
 ! A7    A(2,3,6)              111.6938         estimate D2E/DX2                !
 ! A8    A(4,3,5)              105.0659         estimate D2E/DX2                !
 ! A9    A(4,3,6)              116.8051         estimate D2E/DX2                !
 ! A10   A(5,3,6)              105.3309         estimate D2E/DX2                !
 ! A11   A(3,4,13)             110.3647         estimate D2E/DX2                !
 ! A12   A(3,4,14)             115.6293         estimate D2E/DX2                !
 ! A13   A(3,4,15)             111.2376         estimate D2E/DX2                !
 ! A14   A(13,4,14)            105.9597         estimate D2E/DX2                !
 ! A15   A(13,4,15)            107.6277         estimate D2E/DX2                !
 ! A16   A(14,4,15)            105.5662         estimate D2E/DX2                !
 ! A17   A(3,5,16)             111.5278         estimate D2E/DX2                !
 ! A18   A(3,5,17)             110.9383         estimate D2E/DX2                !
 ! A19   A(3,5,18)             111.7184         estimate D2E/DX2                !
 ! A20   A(16,5,17)            108.0297         estimate D2E/DX2                !
 ! A21   A(16,5,18)            107.23           estimate D2E/DX2                !
 ! A22   A(17,5,18)            107.1839         estimate D2E/DX2                !
 ! A23   A(3,6,19)             114.8311         estimate D2E/DX2                !
 ! A24   A(3,6,20)             110.6256         estimate D2E/DX2                !
 ! A25   A(3,6,21)             111.1943         estimate D2E/DX2                !
 ! A26   A(19,6,20)            104.3817         estimate D2E/DX2                !
 ! A27   A(19,6,21)            107.8682         estimate D2E/DX2                !
 ! A28   A(20,6,21)            107.49           estimate D2E/DX2                !
 ! A29   A(1,7,8)              124.4737         estimate D2E/DX2                !
 ! A30   A(1,7,9)              119.2618         estimate D2E/DX2                !
 ! A31   A(8,7,9)              110.6847         estimate D2E/DX2                !
 ! A32   A(7,8,22)             113.9549         estimate D2E/DX2                !
 ! A33   A(7,8,23)             111.5479         estimate D2E/DX2                !
 ! A34   A(7,8,24)             108.8912         estimate D2E/DX2                !
 ! A35   A(22,8,23)            106.3469         estimate D2E/DX2                !
 ! A36   A(22,8,24)            108.8889         estimate D2E/DX2                !
 ! A37   A(23,8,24)            106.9477         estimate D2E/DX2                !
 ! A38   A(7,9,25)             113.9248         estimate D2E/DX2                !
 ! A39   A(7,9,26)             109.2975         estimate D2E/DX2                !
 ! A40   A(7,9,27)             110.9053         estimate D2E/DX2                !
 ! A41   A(25,9,26)            106.6657         estimate D2E/DX2                !
 ! A42   A(25,9,27)            107.6747         estimate D2E/DX2                !
 ! A43   A(26,9,27)            108.1415         estimate D2E/DX2                !
 ! A44   A(1,10,11)            125.376          estimate D2E/DX2                !
 ! A45   A(1,10,12)            125.5061         estimate D2E/DX2                !
 ! A46   A(11,10,12)           108.2442         estimate D2E/DX2                !
 ! A47   A(10,11,28)           115.9705         estimate D2E/DX2                !
 ! A48   A(10,11,29)           110.1703         estimate D2E/DX2                !
 ! A49   A(10,11,30)           109.3527         estimate D2E/DX2                !
 ! A50   A(28,11,29)           104.7597         estimate D2E/DX2                !
 ! A51   A(28,11,30)           108.8828         estimate D2E/DX2                !
 ! A52   A(29,11,30)           107.3135         estimate D2E/DX2                !
 ! A53   A(10,12,31)           115.7809         estimate D2E/DX2                !
 ! A54   A(10,12,32)           110.3507         estimate D2E/DX2                !
 ! A55   A(10,12,33)           110.1269         estimate D2E/DX2                !
 ! A56   A(31,12,32)           106.2293         estimate D2E/DX2                !
 ! A57   A(31,12,33)           105.9036         estimate D2E/DX2                !
 ! A58   A(32,12,33)           108.0877         estimate D2E/DX2                !
 ! D1    D(7,1,2,3)            178.8183         estimate D2E/DX2                !
 ! D2    D(10,1,2,3)             1.2427         estimate D2E/DX2                !
 ! D3    D(2,1,7,8)            133.829          estimate D2E/DX2                !
 ! D4    D(2,1,7,9)            -17.3162         estimate D2E/DX2                !
 ! D5    D(10,1,7,8)           -48.2172         estimate D2E/DX2                !
 ! D6    D(10,1,7,9)           160.6376         estimate D2E/DX2                !
 ! D7    D(2,1,10,11)          167.8584         estimate D2E/DX2                !
 ! D8    D(2,1,10,12)           -0.1663         estimate D2E/DX2                !
 ! D9    D(7,1,10,11)           -9.668          estimate D2E/DX2                !
 ! D10   D(7,1,10,12)         -177.6927         estimate D2E/DX2                !
 ! D11   D(1,2,3,4)             67.3295         estimate D2E/DX2                !
 ! D12   D(1,2,3,5)           -179.1866         estimate D2E/DX2                !
 ! D13   D(1,2,3,6)            -65.2012         estimate D2E/DX2                !
 ! D14   D(2,3,4,13)            43.8079         estimate D2E/DX2                !
 ! D15   D(2,3,4,14)           -76.4159         estimate D2E/DX2                !
 ! D16   D(2,3,4,15)           163.2019         estimate D2E/DX2                !
 ! D17   D(5,3,4,13)           -70.0104         estimate D2E/DX2                !
 ! D18   D(5,3,4,14)           169.7659         estimate D2E/DX2                !
 ! D19   D(5,3,4,15)            49.3837         estimate D2E/DX2                !
 ! D20   D(6,3,4,13)           173.7087         estimate D2E/DX2                !
 ! D21   D(6,3,4,14)            53.485          estimate D2E/DX2                !
 ! D22   D(6,3,4,15)           -66.8972         estimate D2E/DX2                !
 ! D23   D(2,3,5,16)           -50.2103         estimate D2E/DX2                !
 ! D24   D(2,3,5,17)          -170.6866         estimate D2E/DX2                !
 ! D25   D(2,3,5,18)            69.7815         estimate D2E/DX2                !
 ! D26   D(4,3,5,16)            67.5434         estimate D2E/DX2                !
 ! D27   D(4,3,5,17)           -52.9329         estimate D2E/DX2                !
 ! D28   D(4,3,5,18)          -172.4648         estimate D2E/DX2                !
 ! D29   D(6,3,5,16)          -168.5364         estimate D2E/DX2                !
 ! D30   D(6,3,5,17)            70.9873         estimate D2E/DX2                !
 ! D31   D(6,3,5,18)           -48.5446         estimate D2E/DX2                !
 ! D32   D(2,3,6,19)            52.7193         estimate D2E/DX2                !
 ! D33   D(2,3,6,20)           -65.0937         estimate D2E/DX2                !
 ! D34   D(2,3,6,21)           175.5417         estimate D2E/DX2                !
 ! D35   D(4,3,6,19)           -76.9939         estimate D2E/DX2                !
 ! D36   D(4,3,6,20)           165.193          estimate D2E/DX2                !
 ! D37   D(4,3,6,21)            45.8284         estimate D2E/DX2                !
 ! D38   D(5,3,6,19)           166.8715         estimate D2E/DX2                !
 ! D39   D(5,3,6,20)            49.0584         estimate D2E/DX2                !
 ! D40   D(5,3,6,21)           -70.3062         estimate D2E/DX2                !
 ! D41   D(1,7,8,22)             7.1499         estimate D2E/DX2                !
 ! D42   D(1,7,8,23)          -113.285          estimate D2E/DX2                !
 ! D43   D(1,7,8,24)           128.9159         estimate D2E/DX2                !
 ! D44   D(9,7,8,22)           160.405          estimate D2E/DX2                !
 ! D45   D(9,7,8,23)            39.9701         estimate D2E/DX2                !
 ! D46   D(9,7,8,24)           -77.829          estimate D2E/DX2                !
 ! D47   D(1,7,9,25)           -17.8262         estimate D2E/DX2                !
 ! D48   D(1,7,9,26)          -137.02           estimate D2E/DX2                !
 ! D49   D(1,7,9,27)           103.8435         estimate D2E/DX2                !
 ! D50   D(8,7,9,25)          -172.6594         estimate D2E/DX2                !
 ! D51   D(8,7,9,26)            68.1467         estimate D2E/DX2                !
 ! D52   D(8,7,9,27)           -50.9898         estimate D2E/DX2                !
 ! D53   D(1,10,11,28)          -4.4485         estimate D2E/DX2                !
 ! D54   D(1,10,11,29)        -123.1877         estimate D2E/DX2                !
 ! D55   D(1,10,11,30)         119.0988         estimate D2E/DX2                !
 ! D56   D(12,10,11,28)        165.307          estimate D2E/DX2                !
 ! D57   D(12,10,11,29)         46.5678         estimate D2E/DX2                !
 ! D58   D(12,10,11,30)        -71.1457         estimate D2E/DX2                !
 ! D59   D(1,10,12,31)          -8.4097         estimate D2E/DX2                !
 ! D60   D(1,10,12,32)        -129.0866         estimate D2E/DX2                !
 ! D61   D(1,10,12,33)         111.6641         estimate D2E/DX2                !
 ! D62   D(11,10,12,31)       -178.1485         estimate D2E/DX2                !
 ! D63   D(11,10,12,32)         61.1747         estimate D2E/DX2                !
 ! D64   D(11,10,12,33)        -58.0747         estimate D2E/DX2                !
 --------------------------------------------------------------------------------
 Trust Radius=3.00D-01 FncErr=1.00D-07 GrdErr=1.00D-06 EigMax=2.50D+02 EigMin=1.00D-04
 Number of steps in this run=    164 maximum allowed number of steps=    198.
 GradGradGradGradGradGradGradGradGradGradGradGradGradGradGradGradGradGrad

                          Input orientation:                          
 ---------------------------------------------------------------------
 Center     Atomic      Atomic             Coordinates (Angstroms)
 Number     Number       Type             X           Y           Z
 ---------------------------------------------------------------------
      1          6           0        1.443390   -0.137120    0.147250
      2          7           0        0.818060    0.926660   -0.221610
      3          6           0        1.093380    2.229020   -0.781690
      4          6           0        1.612030    2.118030   -2.224060
      5          6           0       -0.286110    2.932120   -0.901740
      6          6           0        1.910210    3.100020    0.182400
      7          7           0        0.596440   -1.130490    0.669710
      8          6           0        0.658350   -2.546240    0.306690
      9          6           0       -0.762520   -0.763310    1.102040
     10          7           0        2.809130   -0.434470    0.151190
     11          6           0        3.425490   -1.579890    0.824000
     12          6           0        3.869640    0.457380   -0.293720
     13          1           0        1.018360    1.387730   -2.788180
     14          1           0        2.648600    1.805470   -2.328560
     15          1           0        1.540400    3.078560   -2.746670
     16          1           0       -1.020040    2.293930   -1.405680
     17          1           0       -0.201670    3.866820   -1.470220
     18          1           0       -0.698310    3.187130    0.081370
     19          1           0        2.823200    2.637700    0.554480
     20          1           0        1.329850    3.324410    1.087110
     21          1           0        2.181270    4.054380   -0.279620
     22          1           0        1.509740   -2.804820   -0.325840
     23          1           0       -0.238320   -2.861450   -0.238990
     24          1           0        0.702090   -3.146930    1.224510
     25          1           0       -0.901630    0.309840    1.264950
     26          1           0       -0.985280   -1.257010    2.054020
     27          1           0       -1.508730   -1.088030    0.365930
     28          1           0        2.759260   -2.196600    1.419040
     29          1           0        4.191490   -1.237110    1.527870
     30          1           0        3.925250   -2.212560    0.080260
     31          1           0        3.548670    1.358040   -0.778590
     32          1           0        4.527240   -0.057140   -1.006410
     33          1           0        4.477760    0.776700    0.561380
 ---------------------------------------------------------------------
                    Distance matrix (angstroms):
                    1          2          3          4          5
     1  C    0.000000
     2  N    1.287914   0.000000
     3  C    2.565941   1.444172   0.000000
     4  C    3.276775   2.461617   1.536798   0.000000
     5  C    3.675838   2.388229   1.552982   2.452388   0.000000
     6  C    3.270815   2.465666   1.534706   2.616155   2.455071
     7  N    1.406084   2.252872   3.693213   4.467461   4.444452
     8  C    2.538812   3.516482   4.917004   5.391625   5.689001
     9  C    2.483904   2.665761   3.993350   5.000355   4.230639
    10  N    1.397740   2.440495   3.302763   3.686478   4.692878
    11  C    2.543285   3.764941   4.746027   5.123858   6.091994
    12  C    2.536646   3.088295   3.329331   3.403054   4.874863
    13  H    3.335051   2.615337   2.177016   1.097276   2.765039
    14  H    3.369840   2.926162   2.234035   1.087700   3.452199
    15  H    4.327214   3.395346   2.186937   1.095842   2.600260
    16  H    3.793426   2.578771   2.204568   2.761970   1.095397
    17  H    4.621035   3.353120   2.198549   2.629838   1.097253
    18  H    3.954979   2.738777   2.207487   3.434480   1.096104
    19  H    3.125594   2.747828   2.223656   3.075268   3.446022
    20  H    3.588651   2.779187   2.179039   3.535368   2.592439
    21  H    4.277307   3.412380   2.183465   2.802558   2.781091
    22  H    2.710136   3.796476   5.071558   5.277135   6.038975
    23  H    3.224795   3.932686   5.289691   5.670936   5.831550
    24  H    3.281611   4.324216   5.751416   6.359279   6.515545
    25  H    2.635933   2.355347   3.442681   4.664893   3.456843
    26  H    3.284564   3.633035   4.951210   6.036463   5.174376
    27  H    3.109190   3.133390   4.369305   5.169721   4.389008
    28  H    2.755072   4.026753   5.215792   5.762321   6.400318
    29  H    3.266212   4.372941   5.190993   5.655754   6.582886
    30  H    3.235980   4.427240   5.337610   5.423549   6.720685
    31  H    2.743153   2.820026   2.605200   2.533287   4.147099
    32  H    3.293548   3.916860   4.131395   3.835686   5.667007
    33  H    3.195931   3.745526   3.920089   4.215478   5.429642
                    6          7          8          9         10
     6  C    0.000000
     7  N    4.456532   0.000000
     8  C    5.784709   1.462862   0.000000
     9  C    4.786914   1.472584   2.414600   0.000000
    10  N    3.647143   2.376826   3.018213   3.710652   0.000000
    11  C    4.960774   2.868674   2.976324   4.275925   1.464432
    12  C    3.324094   3.763425   4.437861   4.989503   1.455343
    13  H    3.542835   4.298424   5.018361   4.788770   3.894505
    14  H    2.919931   4.671279   5.462876   5.477535   3.345484
    15  H    2.952401   5.502619   6.460603   5.905588   4.727436
    16  H    3.429015   4.318206   5.401523   3.962536   4.952833
    17  H    2.789117   5.494487   6.710021   5.326272   5.494996
    18  H    2.611929   4.545807   5.896001   4.080670   5.042122
    19  H    1.088914   4.378469   5.623274   4.972331   3.098559
    20  H    1.098030   4.534120   5.960243   4.592133   4.146492
    21  H    1.094413   5.504161   6.799355   5.812488   4.552975
    22  H    5.940187   2.151422   1.091706   3.371909   2.744910
    23  H    6.350817   2.125743   1.095966   2.544669   3.915281
    24  H    6.447475   2.094038   1.097787   2.800308   3.598482
    25  H    4.106515   2.161730   3.392491   1.094323   3.945149
    26  H    5.556126   2.105744   2.723379   1.095275   4.323758
    27  H    5.409491   2.127399   2.612685   1.097329   4.372318
    28  H    5.504938   2.525050   2.402789   3.815461   2.171413
    29  H    5.081852   3.697593   3.960831   4.994801   2.109597
    30  H    5.682810   3.549550   3.291694   5.011940   2.100562
    31  H    2.577314   4.123835   4.977468   5.159773   2.150466
    32  H    4.269634   4.405979   4.784157   5.738101   2.105782
    33  H    3.483354   4.325940   5.068993   5.488577   2.102264
                   11         12         13         14         15
    11  C    0.000000
    12  C    2.365806   0.000000
    13  H    5.258221   3.900984   0.000000
    14  H    4.690720   2.729260   1.744546   0.000000
    15  H    6.164771   4.279358   1.770072   1.738874   0.000000
    16  H    6.304022   5.340257   2.624420   3.814344   2.994954
    17  H    6.934435   5.439117   3.061271   3.620767   2.299019
    18  H    6.346787   5.334641   3.797251   4.349546   3.608520
    19  H    4.268894   2.562865   3.999156   3.005830   3.568967
    20  H    5.339765   4.071497   4.343458   3.963973   3.847420
    21  H    5.874611   3.973563   3.841387   3.078011   2.729336
    22  H    2.548074   4.026426   4.886926   5.153898   6.362037
    23  H    4.024406   5.281379   5.112059   5.872031   6.688499
    24  H    3.167480   5.032837   6.063402   6.398396   7.431673
    25  H    4.742308   5.021577   4.612599   5.268240   5.451827
    26  H    4.590435   5.658733   5.869934   6.464586   6.944268
    27  H    4.979787   5.634740   4.739618   5.737248   6.028760
    28  H    1.085480   3.348149   5.794726   5.483914   6.831257
    29  H    1.095302   2.508600   5.965470   5.148772   6.627592
    30  H    1.096896   2.696578   5.444267   4.855596   6.455617
    31  H    3.348866   1.072058   3.231378   1.847357   3.296464
    32  H    2.623551   1.097768   4.192206   2.957479   4.667155
    33  H    2.594178   1.096800   4.853901   3.571547   4.986967
                   16         17         18         19         20
    16  H    0.000000
    17  H    1.774226   0.000000
    18  H    1.764266   1.765237   0.000000
    19  H    4.327921   3.841873   3.595377   0.000000
    20  H    3.577412   3.029802   2.267993   1.727819   0.000000
    21  H    3.823033   2.670414   3.028930   1.764874   1.767971
    22  H    5.793366   6.982071   6.398810   5.667554   6.292555
    23  H    5.343238   6.840094   6.074499   6.343749   6.517865
    24  H    6.283836   7.567763   6.586972   6.197580   6.503169
    25  H    3.329099   4.541278   3.117852   4.449501   3.754832
    26  H    4.957813   6.268010   4.870737   5.649947   5.223423
    27  H    3.849035   5.443380   4.360590   5.716838   5.295967
    28  H    6.513602   7.340299   6.536719   4.911416   5.712700
    29  H    6.945070   7.371465   6.751030   4.223015   5.402843
    30  H    6.853639   7.509615   7.108724   4.996441   6.197410
    31  H    4.705554   4.564798   4.703397   1.985173   3.502943
    32  H    6.038151   6.162400   6.246193   3.549971   5.103039
    33  H    6.033002   5.964336   5.729946   2.490168   4.083694
                   21         22         23         24         25
    21  H    0.000000
    22  H    6.892149   0.000000
    23  H    7.326989   1.751132   0.000000
    24  H    7.503949   1.781270   1.762868   0.000000
    25  H    5.090339   4.248108   3.571960   3.810881   0.000000
    26  H    6.609370   3.779494   2.896562   2.665915   1.756317
    27  H    6.362171   3.540773   2.263822   3.140693   1.769420
    28  H    6.503404   2.230659   3.489495   2.274405   4.439381
    29  H    5.942043   3.617422   5.038203   3.989405   5.329358
    30  H    6.515022   2.519996   4.225907   3.545577   5.573577
    31  H    3.064148   4.657426   5.695310   5.692994   5.007989
    32  H    4.789196   4.137418   5.582441   5.399591   5.896302
    33  H    4.089540   4.735355   6.009837   5.485462   5.445255
                   26         27         28         29         30
    26  H    0.000000
    27  H    1.775444   0.000000
    28  H    3.912494   4.533620   0.000000
    29  H    5.203477   5.819350   1.727353   0.000000
    30  H    5.377928   5.556466   1.775421   1.765775   0.000000
    31  H    5.951375   5.733278   4.253024   3.530974   3.691696
    32  H    6.418239   6.275268   3.685899   2.815605   2.487786
    33  H    6.017371   6.273235   3.539680   2.251996   3.077730
                   31         32         33
    31  H    0.000000
    32  H    1.735579   0.000000
    33  H    1.731093   1.776430   0.000000
 Stoichiometry    C9H21N3
 Framework group  C1[X(C9H21N3)]
 Deg. of freedom    93
 Full point group                 C1      NOp   1
 Largest Abelian subgroup         C1      NOp   1
 Largest concise Abelian subgroup C1      NOp   1
                         Standard orientation:                         
 ---------------------------------------------------------------------
 Center     Atomic      Atomic             Coordinates (Angstroms)
 Number     Number       Type             X           Y           Z
 ---------------------------------------------------------------------
      1          6           0       -0.613877   -0.070824   -0.026755
      2          7           0        0.570985   -0.574965   -0.000928
      3          6           0        1.949608   -0.148385    0.054396
      4          6           0        2.276248    0.510630    1.403748
      5          6           0        2.791804   -1.452899    0.027899
      6          6           0        2.355984    0.622681   -1.208789
      7          7           0       -1.631072   -1.037973   -0.110480
      8          6           0       -2.840852   -1.040599    0.711950
      9          6           0       -1.291041   -2.404906   -0.539867
     10          7           0       -1.035811    1.261707   -0.030221
     11          6           0       -2.398273    1.718871   -0.311747
     12          6           0       -0.161946    2.425097   -0.000103
     13          1           0        1.843967   -0.071274    2.227479
     14          1           0        1.910794    1.527086    1.531622
     15          1           0        3.358434    0.564421    1.567606
     16          1           0        2.440139   -2.173611    0.774091
     17          1           0        3.848964   -1.241340    0.231907
     18          1           0        2.743181   -1.947307   -0.949158
     19          1           0        1.703106    1.455293   -1.466164
     20          1           0        2.322552   -0.032416   -2.089357
     21          1           0        3.376344    1.009473   -1.125140
     22          1           0       -2.959095   -0.147995    1.329282
     23          1           0       -2.859201   -1.894916    1.398206
     24          1           0       -3.716057   -1.137844    0.056438
     25          1           0       -0.326702   -2.482453   -1.051314
     26          1           0       -2.049809   -2.762324   -1.244248
     27          1           0       -1.269990   -3.090536    0.316637
     28          1           0       -3.106084    0.950525   -0.606561
     29          1           0       -2.393649    2.428846   -1.145773
     30          1           0       -2.792715    2.247448    0.564724
     31          1           0        0.877489    2.223279    0.167686
     32          1           0       -0.472660    3.115475    0.794838
     33          1           0       -0.213644    2.960791   -0.955786
 ---------------------------------------------------------------------
 Rotational constants (GHZ):           1.1880410           0.6969041           0.5117832
 Standard basis: 6-31G(d) (6D, 7F)
 There are   222 symmetry adapted cartesian basis functions of A   symmetry.
 There are   222 symmetry adapted basis functions of A   symmetry.
   222 basis functions,   420 primitive gaussians,   222 cartesian basis functions
    48 alpha electrons       48 beta electrons
       nuclear repulsion energy       801.1118612443 Hartrees.
 NAtoms=   33 NActive=   33 NUniq=   33 SFac= 1.00D+00 NAtFMM=   60 NAOKFM=F Big=F
 Integral buffers will be    131072 words long.
 Raffenetti 2 integral format.
 Two-electron integral symmetry is turned on.
 One-electron integrals computed using PRISM.
 NBasis=   222 RedAO= T EigKep=  1.77D-03  NBF=   222
 NBsUse=   222 1.00D-06 EigRej= -1.00D+00 NBFU=   222
 ExpMin= 1.61D-01 ExpMax= 4.17D+03 ExpMxC= 6.27D+02 IAcc=3 IRadAn=         5 AccDes= 0.00D+00
 Harris functional with IExCor=  402 and IRadAn=       5 diagonalized for initial guess.
 HarFok:  IExCor=  402 AccDes= 0.00D+00 IRadAn=         5 IDoV= 1 UseB2=F ITyADJ=14
 ICtDFT=  3500011 ScaDFX=  1.000000  1.000000  1.000000  1.000000
 FoFCou: FMM=F IPFlag=           0 FMFlag=      100000 FMFlg1=           0
         NFxFlg=           0 DoJE=T BraDBF=F KetDBF=T FulRan=T
         wScrn=  0.000000 ICntrl=       500 IOpCl=  0 I1Cent=   200000004 NGrid=           0
         NMat0=    1 NMatS0=      1 NMatT0=    0 NMatD0=    1 NMtDS0=    0 NMtDT0=    0
 Petite list used in FoFCou.
 Gradient too large for Newton-Raphson -- use scaled steepest descent instead.
     Minimum is close to point  3 DX=  9.14D-04 DF= -2.07D-06 DXR=  2.28D-03 DFR=  5.23D-06 which will be used.
 Gradient too large for Newton-Raphson -- use scaled steepest descent instead.
 Gradient too large for Newton-Raphson -- use scaled steepest descent instead.
 Gradient too large for Newton-Raphson -- use scaled steepest descent instead.
     Minimum is close to point  2 DX=  4.04D-02 DF= -1.16D-05 DXR=  9.17D-02 DFR=  8.49D-03 which will be used.
 Gradient too large for Newton-Raphson -- use scaled steepest descent instead.
 Gradient too large for Newton-Raphson -- use scaled steepest descent instead.
     Accept linear search using points  1 and  2.
 LinEq1:  Iter=  0 NonCon=     1 RMS=6.03D-05 Max=3.00D-03 NDo=     1
 AX will form     1 AO Fock derivatives at one time.
 LinEq1:  Iter=  1 NonCon=     1 RMS=1.50D-05 Max=8.28D-04 NDo=     1
 LinEq1:  Iter=  2 NonCon=     1 RMS=1.39D-05 Max=6.88D-04 NDo=     1
 LinEq1:  Iter=  3 NonCon=     1 RMS=7.19D-06 Max=1.95D-04 NDo=     1
 LinEq1:  Iter=  4 NonCon=     1 RMS=2.62D-06 Max=6.49D-05 NDo=     1
 LinEq1:  Iter=  5 NonCon=     1 RMS=1.57D-06 Max=3.95D-05 NDo=     1
 LinEq1:  Iter=  6 NonCon=     1 RMS=6.98D-07 Max=1.48D-05 NDo=     1
 LinEq1:  Iter=  7 NonCon=     1 RMS=3.76D-07 Max=9.99D-06 NDo=     1
 LinEq1:  Iter=  8 NonCon=     1 RMS=1.29D-07 Max=4.38D-06 NDo=     1
 LinEq1:  Iter=  9 NonCon=     1 RMS=5.45D-08 Max=9.77D-07 NDo=     1
 LinEq1:  Iter= 10 NonCon=     1 RMS=2.17D-08 Max=3.11D-07 NDo=     1
 LinEq1:  Iter= 11 NonCon=     0 RMS=6.75D-09 Max=1.10D-07 NDo=     1
 Linear equations converged to 1.292D-08 1.292D-07 after    11 iterations.
     Accept linear search using points  1 and  2.
     Minimum is close to point  2 DX= -1.72D-04 DF= -1.36D-12 DXR=  1.73D-04 DFR=  2.96D-08 which will be used.
 LinEq1:  Iter=  0 NonCon=     1 RMS=1.83D-07 Max=9.25D-06 NDo=     1
 LinEq1:  Iter=  1 NonCon=     1 RMS=7.72D-08 Max=1.70D-06 NDo=     1
 LinEq1:  Iter=  2 NonCon=     1 RMS=5.23D-08 Max=2.30D-06 NDo=     1
 LinEq1:  Iter=  3 NonCon=     1 RMS=1.99D-08 Max=3.62D-07 NDo=     1
 LinEq1:  Iter=  4 NonCon=     1 RMS=8.18D-09 Max=2.13D-07 NDo=     1
 LinEq1:  Iter=  5 NonCon=     1 RMS=3.75D-09 Max=6.63D-08 NDo=     1
 LinEq1:  Iter=  6 NonCon=     1 RMS=1.65D-09 Max=4.15D-08 NDo=     1
 LinEq1:  Iter=  7 NonCon=     1 RMS=1.08D-09 Max=2.88D-08 NDo=     1
 LinEq1:  Iter=  8 NonCon=     1 RMS=3.67D-10 Max=7.84D-09 NDo=     1
 LinEq1:  Iter=  9 NonCon=     1 RMS=1.74D-10 Max=4.44D-09 NDo=     1
 LinEq1:  Iter= 10 NonCon=     1 RMS=6.70D-11 Max=2.40D-09 NDo=     1
 LinEq1:  Iter= 11 NonCon=     0 RMS=2.08D-11 Max=6.32D-10 NDo=     1
 Linear equations converged to 1.295D-10 1.295D-09 after    11 iterations.
 SCF Done:  E(RB3LYP) =  -519.799630606     a.u. after    9 cycles
            Convg  =    0.3795D-10                    41 Fock formations.
              S**2 =  0.0000                  -V/T =  2.0098

 **********************************************************************

            Population analysis using the SCF density.

 **********************************************************************

 Orbital symmetries:
       Occupied  (A) (A) (A) (A) (A) (A) (A) (A) (A) (A) (A) (A)
                 (A) (A) (A) (A) (A) (A) (A) (A) (A) (A) (A) (A)
                 (A) (A) (A) (A) (A) (A) (A) (A) (A) (A) (A) (A)
                 (A) (A) (A) (A) (A) (A) (A) (A) (A) (A) (A) (A)
       Virtual   (A) (A) (A) (A) (A) (A) (A) (A) (A) (A) (A) (A)
                 (A) (A) (A) (A) (A) (A) (A) (A) (A) (A) (A) (A)
                 (A) (A) (A) (A) (A) (A) (A) (A) (A) (A) (A) (A)
                 (A) (A) (A) (A) (A) (A) (A) (A) (A) (A) (A) (A)
                 (A) (A) (A) (A) (A) (A) (A) (A) (A) (A) (A) (A)
                 (A) (A) (A) (A) (A) (A) (A) (A) (A) (A) (A) (A)
                 (A) (A) (A) (A) (A) (A) (A) (A) (A) (A) (A) (A)
                 (A) (A) (A) (A) (A) (A) (A) (A) (A) (A) (A) (A)
                 (A) (A) (A) (A) (A) (A) (A) (A) (A) (A) (A) (A)
                 (A) (A) (A) (A) (A) (A) (A) (A) (A) (A) (A) (A)
                 (A) (A) (A) (A) (A) (A) (A) (A) (A) (A) (A) (A)
                 (A) (A) (A) (A) (A) (A) (A) (A) (A) (A) (A) (A)
                 (A) (A) (A) (A) (A) (A) (A) (A) (A) (A) (A) (A)
                 (A) (A) (A) (A) (A) (A) (A) (A) (A) (A) (A) (A)
                 (A) (A) (A) (A) (A) (A)
 The electronic state is 1-A.
 Alpha  occ. eigenvalues --  -14.35108 -14.32857 -14.25897 -10.27182 -10.21282
 Alpha  occ. eigenvalues --  -10.20953 -10.20925 -10.20742 -10.19039 -10.15966
 Alpha  occ. eigenvalues --  -10.15833 -10.14871  -0.96376  -0.89857  -0.85764
 Alpha  occ. eigenvalues --   -0.77156  -0.71600  -0.69624  -0.68895  -0.67837
 Alpha  occ. eigenvalues --   -0.66023  -0.64079  -0.57285  -0.53282  -0.49985
 Alpha  occ. eigenvalues --   -0.47122  -0.46955  -0.44834  -0.43846  -0.43068
 Alpha  occ. eigenvalues --   -0.42629  -0.42434  -0.40789  -0.40036  -0.38654
 Alpha  occ. eigenvalues --   -0.38099  -0.37510  -0.37326  -0.36410  -0.35466
 Alpha  occ. eigenvalues --   -0.35103  -0.34383  -0.33641  -0.31719  -0.30832
 Alpha  occ. eigenvalues --   -0.21412  -0.19971  -0.18112
 Alpha virt. eigenvalues --    0.06066   0.08237   0.10258   0.10604   0.12779
 Alpha virt. eigenvalues --    0.13218   0.14340   0.14623   0.15241   0.15980
 Alpha virt. eigenvalues --    0.16182   0.16442   0.17195   0.17692   0.17759
 Alpha virt. eigenvalues --    0.18702   0.18836   0.19216   0.19755   0.20427
 Alpha virt. eigenvalues --    0.20966   0.22164   0.22532   0.23555   0.24383
 Alpha virt. eigenvalues --    0.25691   0.27120   0.27626   0.29219   0.31186
 Alpha virt. eigenvalues --    0.33524   0.36248   0.44868   0.47473   0.50013
 Alpha virt. eigenvalues --    0.50858   0.52011   0.53374   0.53952   0.54950
 Alpha virt. eigenvalues --    0.56456   0.57359   0.57551   0.59735   0.61197
 Alpha virt. eigenvalues --    0.64083   0.66701   0.67299   0.67586   0.71389
 Alpha virt. eigenvalues --    0.72282   0.73093   0.74089   0.74879   0.76416
 Alpha virt. eigenvalues --    0.77556   0.78520   0.78759   0.81251   0.82100
 Alpha virt. eigenvalues --    0.83950   0.84449   0.86263   0.86760   0.87794
 Alpha virt. eigenvalues --    0.88993   0.89419   0.89860   0.91274   0.91802
 Alpha virt. eigenvalues --    0.92791   0.93305   0.94092   0.94555   0.95048
 Alpha virt. eigenvalues --    0.96176   0.97185   0.97630   0.97978   0.98610
 Alpha virt. eigenvalues --    1.00354   1.01673   1.02523   1.04173   1.04661
 Alpha virt. eigenvalues --    1.05559   1.06252   1.10925   1.12151   1.13114
 Alpha virt. eigenvalues --    1.14948   1.26199   1.30273   1.34123   1.35108
 Alpha virt. eigenvalues --    1.37485   1.41397   1.42943   1.45621   1.45975
 Alpha virt. eigenvalues --    1.48665   1.50730   1.53653   1.55505   1.60507
 Alpha virt. eigenvalues --    1.64816   1.68281   1.75265   1.77520   1.78846
 Alpha virt. eigenvalues --    1.79327   1.81436   1.86421   1.88212   1.89049
 Alpha virt. eigenvalues --    1.90003   1.91705   1.92756   1.93227   1.94875
 Alpha virt. eigenvalues --    1.97131   1.99210   2.02815   2.05000   2.06493
 Alpha virt. eigenvalues --    2.07420   2.07557   2.09584   2.10565   2.14372
 Alpha virt. eigenvalues --    2.14599   2.19740   2.22171   2.23086   2.24515
 Alpha virt. eigenvalues --    2.26376   2.27975   2.28781   2.29328   2.29709
 Alpha virt. eigenvalues --    2.30854   2.31689   2.35375   2.38389   2.39932
 Alpha virt. eigenvalues --    2.42144   2.43176   2.47522   2.50770   2.56131
 Alpha virt. eigenvalues --    2.58351   2.58896   2.62272   2.65251   2.75003
 Alpha virt. eigenvalues --    2.77154   2.80130   2.83147   2.85816   2.99099
 Alpha virt. eigenvalues --    3.21977   3.34051   3.98498   4.08893   4.11552
 Alpha virt. eigenvalues --    4.24171   4.26502   4.29340   4.32738   4.33260
 Alpha virt. eigenvalues --    4.33845   4.36986   4.52259   4.74914
          Condensed to atoms (all electrons):
               1          2          3          4          5          6
     1  C    4.340628   0.610191  -0.052269  -0.002195   0.001907  -0.001379
     2  N    0.610191   6.982137   0.300465  -0.062225  -0.093283  -0.059445
     3  C   -0.052269   0.300465   4.658613   0.362266   0.407239   0.342888
     4  C   -0.002195  -0.062225   0.362266   5.225542  -0.078637  -0.049974
     5  C    0.001907  -0.093283   0.407239  -0.078637   5.221968  -0.079850
     6  C   -0.001379  -0.059445   0.342888  -0.049974  -0.079850   5.234108
     7  N    0.296157  -0.122695   0.008950  -0.000274   0.000046  -0.000558
     8  C   -0.024890   0.003386  -0.000202   0.000025   0.000002   0.000001
     9  C   -0.031296  -0.013162  -0.000275  -0.000024  -0.000088   0.000056
    10  N    0.269276  -0.089401  -0.010742   0.002640  -0.000141   0.003082
    11  C   -0.016730   0.004080   0.000071  -0.000070   0.000004  -0.000076
    12  C   -0.025401  -0.004205   0.002086  -0.008894   0.000020  -0.006690
    13  H    0.001190   0.001419  -0.028187   0.365624  -0.007181   0.005773
    14  H    0.001097  -0.000401  -0.028721   0.354516   0.006642  -0.006057
    15  H   -0.000010   0.004367  -0.025933   0.351031  -0.004908  -0.000258
    16  H    0.000526   0.003579  -0.026098  -0.003153   0.357471   0.006524
    17  H   -0.000061   0.006544  -0.029886  -0.004349   0.340764   0.000739
    18  H   -0.000037   0.000041  -0.024363   0.006049   0.360088  -0.007995
    19  H    0.001756  -0.003350  -0.027429  -0.002625   0.006322   0.361590
    20  H    0.000409   0.000597  -0.026014   0.005388  -0.012244   0.367781
    21  H   -0.000015   0.004400  -0.024607  -0.002848  -0.000712   0.347594
    22  H   -0.001557  -0.000002  -0.000012   0.000001  -0.000000   0.000000
    23  H    0.001456   0.000353  -0.000003  -0.000001  -0.000000   0.000000
    24  H    0.000951  -0.000162   0.000006  -0.000000  -0.000000  -0.000000
    25  H   -0.002211   0.018404  -0.001279   0.000104   0.000084   0.000063
    26  H    0.004425   0.001769  -0.000002   0.000001  -0.000010   0.000003
    27  H   -0.000504   0.002301  -0.000110  -0.000005   0.000001   0.000005
    28  H   -0.004006   0.000007   0.000001   0.000000   0.000000   0.000000
    29  H    0.000839  -0.000009  -0.000011   0.000004  -0.000000  -0.000001
    30  H   -0.000262  -0.000110  -0.000002  -0.000004  -0.000000   0.000004
    31  H   -0.002557   0.000715   0.003134   0.000916   0.000009  -0.001357
    32  H    0.001390   0.000068  -0.000001  -0.000282  -0.000000   0.000443
    33  H    0.000996   0.000697  -0.000215   0.000488  -0.000001  -0.000895
               7          8          9         10         11         12
     1  C    0.296157  -0.024890  -0.031296   0.269276  -0.016730  -0.025401
     2  N   -0.122695   0.003386  -0.013162  -0.089401   0.004080  -0.004205
     3  C    0.008950  -0.000202  -0.000275  -0.010742   0.000071   0.002086
     4  C   -0.000274   0.000025  -0.000024   0.002640  -0.000070  -0.008894
     5  C    0.000046   0.000002  -0.000088  -0.000141   0.000004   0.000020
     6  C   -0.000558   0.000001   0.000056   0.003082  -0.000076  -0.006690
     7  N    6.990700   0.300424   0.314773  -0.109699  -0.002756   0.003743
     8  C    0.300424   4.985037  -0.057332  -0.003201  -0.003687  -0.000080
     9  C    0.314773  -0.057332   4.958771   0.004639   0.000024  -0.000104
    10  N   -0.109699  -0.003201   0.004639   7.000517   0.289390   0.324156
    11  C   -0.002756  -0.003687   0.000024   0.289390   5.001534  -0.064929
    12  C    0.003743  -0.000080  -0.000104   0.324156  -0.064929   4.991006
    13  H   -0.000225   0.000002   0.000022   0.000062  -0.000002   0.000536
    14  H    0.000003  -0.000000  -0.000001  -0.000644   0.000015  -0.005248
    15  H    0.000002  -0.000000   0.000001  -0.000033   0.000001   0.000236
    16  H   -0.000185  -0.000000   0.000127   0.000013  -0.000000   0.000002
    17  H   -0.000003   0.000000   0.000004   0.000005  -0.000000   0.000001
    18  H   -0.000012   0.000001  -0.000200   0.000001  -0.000000   0.000000
    19  H   -0.000025   0.000000  -0.000000  -0.000941   0.000019  -0.001972
    20  H   -0.000034   0.000001  -0.000036  -0.000031  -0.000003   0.000291
    21  H    0.000005   0.000000  -0.000001  -0.000048  -0.000000   0.000053
    22  H   -0.030140   0.375124   0.004857   0.002672  -0.001087  -0.000092
    23  H   -0.042613   0.368346  -0.007889  -0.000025   0.000451   0.000013
    24  H   -0.057517   0.380739   0.001539   0.000386  -0.001594  -0.000009
    25  H   -0.026029   0.004732   0.370863   0.000322  -0.000021  -0.000007
    26  H   -0.054570   0.000881   0.369956   0.000141  -0.000037   0.000001
    27  H   -0.047351  -0.006547   0.371137  -0.000116  -0.000001   0.000004
    28  H    0.004286  -0.000389  -0.000056  -0.024119   0.375103   0.004777
    29  H    0.000194   0.000460   0.000019  -0.044545   0.369061  -0.005062
    30  H    0.000417  -0.000834  -0.000006  -0.052747   0.376507  -0.000677
    31  H    0.000046  -0.000002  -0.000002  -0.025026   0.005158   0.369719
    32  H   -0.000097   0.000010   0.000001  -0.048100  -0.001512   0.374131
    33  H   -0.000056   0.000001   0.000005  -0.050308  -0.006417   0.370865
              13         14         15         16         17         18
     1  C    0.001190   0.001097  -0.000010   0.000526  -0.000061  -0.000037
     2  N    0.001419  -0.000401   0.004367   0.003579   0.006544   0.000041
     3  C   -0.028187  -0.028721  -0.025933  -0.026098  -0.029886  -0.024363
     4  C    0.365624   0.354516   0.351031  -0.003153  -0.004349   0.006049
     5  C   -0.007181   0.006642  -0.004908   0.357471   0.340764   0.360088
     6  C    0.005773  -0.006057  -0.000258   0.006524   0.000739  -0.007995
     7  N   -0.000225   0.000003   0.000002  -0.000185  -0.000003  -0.000012
     8  C    0.000002  -0.000000  -0.000000  -0.000000   0.000000   0.000001
     9  C    0.000022  -0.000001   0.000001   0.000127   0.000004  -0.000200
    10  N    0.000062  -0.000644  -0.000033   0.000013   0.000005   0.000001
    11  C   -0.000002   0.000015   0.000001  -0.000000  -0.000000  -0.000000
    12  C    0.000536  -0.005248   0.000236   0.000002   0.000001   0.000000
    13  H    0.565916  -0.032187  -0.028203   0.003551   0.000659  -0.000038
    14  H   -0.032187   0.596354  -0.032625  -0.000118  -0.000022  -0.000233
    15  H   -0.028203  -0.032625   0.598280   0.000229   0.002772   0.000074
    16  H    0.003551  -0.000118   0.000229   0.573162  -0.028263  -0.028713
    17  H    0.000659  -0.000022   0.002772  -0.028263   0.621493  -0.031553
    18  H   -0.000038  -0.000233   0.000074  -0.028713  -0.031553   0.587642
    19  H   -0.000098   0.000867  -0.000027  -0.000229  -0.000135   0.000082
    20  H   -0.000145  -0.000049  -0.000105   0.000204   0.000388   0.006744
    21  H   -0.000124   0.000303   0.001393  -0.000189   0.000853   0.000077
    22  H    0.000003  -0.000000  -0.000000   0.000000   0.000000  -0.000000
    23  H    0.000002  -0.000000   0.000000   0.000001  -0.000000  -0.000000
    24  H   -0.000000  -0.000000  -0.000000  -0.000000  -0.000000   0.000000
    25  H    0.000001  -0.000002  -0.000002   0.000157   0.000012   0.001033
    26  H    0.000000  -0.000000  -0.000000   0.000001   0.000000   0.000004
    27  H    0.000008  -0.000000   0.000000   0.000133  -0.000000  -0.000009
    28  H   -0.000000   0.000000   0.000000  -0.000000  -0.000000  -0.000000
    29  H   -0.000000  -0.000002  -0.000000  -0.000000   0.000000   0.000000
    30  H    0.000002   0.000001   0.000000   0.000000   0.000000  -0.000000
    31  H   -0.000408   0.008833  -0.000033   0.000005  -0.000005   0.000006
    32  H    0.000014   0.001056   0.000005   0.000000   0.000000  -0.000000
    33  H   -0.000009   0.000003  -0.000014  -0.000000   0.000000   0.000000
              19         20         21         22         23         24
     1  C    0.001756   0.000409  -0.000015  -0.001557   0.001456   0.000951
     2  N   -0.003350   0.000597   0.004400  -0.000002   0.000353  -0.000162
     3  C   -0.027429  -0.026014  -0.024607  -0.000012  -0.000003   0.000006
     4  C   -0.002625   0.005388  -0.002848   0.000001  -0.000001  -0.000000
     5  C    0.006322  -0.012244  -0.000712  -0.000000  -0.000000  -0.000000
     6  C    0.361590   0.367781   0.347594   0.000000   0.000000  -0.000000
     7  N   -0.000025  -0.000034   0.000005  -0.030140  -0.042613  -0.057517
     8  C    0.000000   0.000001   0.000000   0.375124   0.368346   0.380739
     9  C   -0.000000  -0.000036  -0.000001   0.004857  -0.007889   0.001539
    10  N   -0.000941  -0.000031  -0.000048   0.002672  -0.000025   0.000386
    11  C    0.000019  -0.000003  -0.000000  -0.001087   0.000451  -0.001594
    12  C   -0.001972   0.000291   0.000053  -0.000092   0.000013  -0.000009
    13  H   -0.000098  -0.000145  -0.000124   0.000003   0.000002  -0.000000
    14  H    0.000867  -0.000049   0.000303  -0.000000  -0.000000  -0.000000
    15  H   -0.000027  -0.000105   0.001393  -0.000000   0.000000  -0.000000
    16  H   -0.000229   0.000204  -0.000189   0.000000   0.000001  -0.000000
    17  H   -0.000135   0.000388   0.000853   0.000000  -0.000000  -0.000000
    18  H    0.000082   0.006744   0.000077  -0.000000  -0.000000   0.000000
    19  H    0.587305  -0.034493  -0.030035   0.000000   0.000000  -0.000000
    20  H   -0.034493   0.577454  -0.029820   0.000000  -0.000000  -0.000000
    21  H   -0.030035  -0.029820   0.601588  -0.000000  -0.000000   0.000000
    22  H    0.000000   0.000000  -0.000000   0.547706  -0.027307  -0.033344
    23  H    0.000000  -0.000000  -0.000000  -0.027307   0.599770  -0.051282
    24  H   -0.000000  -0.000000   0.000000  -0.033344  -0.051282   0.611033
    25  H   -0.000009   0.000172  -0.000001  -0.000192   0.000137  -0.000132
    26  H   -0.000000   0.000002   0.000000  -0.000036  -0.002738   0.004820
    27  H    0.000000  -0.000000  -0.000000   0.000267   0.014035  -0.002464
    28  H    0.000003  -0.000000  -0.000000  -0.004214   0.000646   0.001469
    29  H   -0.000026   0.000002   0.000000   0.000484  -0.000010  -0.000035
    30  H   -0.000000  -0.000000  -0.000000   0.000842  -0.000004  -0.000124
    31  H    0.001578  -0.000041   0.000229   0.000000  -0.000000   0.000000
    32  H    0.000207  -0.000008  -0.000017  -0.000034  -0.000002   0.000001
    33  H    0.002239   0.000045   0.000053   0.000014   0.000000  -0.000001
              25         26         27         28         29         30
     1  C   -0.002211   0.004425  -0.000504  -0.004006   0.000839  -0.000262
     2  N    0.018404   0.001769   0.002301   0.000007  -0.000009  -0.000110
     3  C   -0.001279  -0.000002  -0.000110   0.000001  -0.000011  -0.000002
     4  C    0.000104   0.000001  -0.000005   0.000000   0.000004  -0.000004
     5  C    0.000084  -0.000010   0.000001   0.000000  -0.000000  -0.000000
     6  C    0.000063   0.000003   0.000005   0.000000  -0.000001   0.000004
     7  N   -0.026029  -0.054570  -0.047351   0.004286   0.000194   0.000417
     8  C    0.004732   0.000881  -0.006547  -0.000389   0.000460  -0.000834
     9  C    0.370863   0.369956   0.371137  -0.000056   0.000019  -0.000006
    10  N    0.000322   0.000141  -0.000116  -0.024119  -0.044545  -0.052747
    11  C   -0.000021  -0.000037  -0.000001   0.375103   0.369061   0.376507
    12  C   -0.000007   0.000001   0.000004   0.004777  -0.005062  -0.000677
    13  H    0.000001   0.000000   0.000008  -0.000000  -0.000000   0.000002
    14  H   -0.000002  -0.000000  -0.000000   0.000000  -0.000002   0.000001
    15  H   -0.000002  -0.000000   0.000000   0.000000  -0.000000   0.000000
    16  H    0.000157   0.000001   0.000133  -0.000000  -0.000000   0.000000
    17  H    0.000012   0.000000  -0.000000  -0.000000   0.000000   0.000000
    18  H    0.001033   0.000004  -0.000009  -0.000000   0.000000  -0.000000
    19  H   -0.000009  -0.000000   0.000000   0.000003  -0.000026  -0.000000
    20  H    0.000172   0.000002  -0.000000  -0.000000   0.000002  -0.000000
    21  H   -0.000001   0.000000  -0.000000  -0.000000   0.000000  -0.000000
    22  H   -0.000192  -0.000036   0.000267  -0.004214   0.000484   0.000842
    23  H    0.000137  -0.002738   0.014035   0.000646  -0.000010  -0.000004
    24  H   -0.000132   0.004820  -0.002464   0.001469  -0.000035  -0.000124
    25  H    0.503970  -0.028204  -0.026541  -0.000006   0.000002  -0.000000
    26  H   -0.028204   0.621018  -0.050146  -0.000086  -0.000002   0.000001
    27  H   -0.026541  -0.050146   0.612547   0.000024   0.000001   0.000000
    28  H   -0.000006  -0.000086   0.000024   0.520293  -0.028659  -0.030906
    29  H    0.000002  -0.000002   0.000001  -0.028659   0.599485  -0.048930
    30  H   -0.000000   0.000001   0.000000  -0.030906  -0.048930   0.604422
    31  H   -0.000001   0.000000   0.000000  -0.000219   0.000312  -0.000082
    32  H   -0.000000   0.000000  -0.000000   0.000003  -0.003787   0.008131
    33  H    0.000001  -0.000000   0.000000   0.000235   0.012533  -0.002541
              31         32         33
     1  C   -0.002557   0.001390   0.000996
     2  N    0.000715   0.000068   0.000697
     3  C    0.003134  -0.000001  -0.000215
     4  C    0.000916  -0.000282   0.000488
     5  C    0.000009  -0.000000  -0.000001
     6  C   -0.001357   0.000443  -0.000895
     7  N    0.000046  -0.000097  -0.000056
     8  C   -0.000002   0.000010   0.000001
     9  C   -0.000002   0.000001   0.000005
    10  N   -0.025026  -0.048100  -0.050308
    11  C    0.005158  -0.001512  -0.006417
    12  C    0.369719   0.374131   0.370865
    13  H   -0.000408   0.000014  -0.000009
    14  H    0.008833   0.001056   0.000003
    15  H   -0.000033   0.000005  -0.000014
    16  H    0.000005   0.000000  -0.000000
    17  H   -0.000005   0.000000   0.000000
    18  H    0.000006  -0.000000   0.000000
    19  H    0.001578   0.000207   0.002239
    20  H   -0.000041  -0.000008   0.000045
    21  H    0.000229  -0.000017   0.000053
    22  H    0.000000  -0.000034   0.000014
    23  H   -0.000000  -0.000002   0.000000
    24  H    0.000000   0.000001  -0.000001
    25  H   -0.000001  -0.000000   0.000001
    26  H    0.000000   0.000000  -0.000000
    27  H    0.000000  -0.000000   0.000000
    28  H   -0.000219   0.000003   0.000235
    29  H    0.000312  -0.003787   0.012533
    30  H   -0.000082   0.008131  -0.002541
    31  H    0.515042  -0.031484  -0.030578
    32  H   -0.031484   0.604373  -0.049485
    33  H   -0.030578  -0.049485   0.606490
 Mulliken charges:
               1
     1  C    0.632188
     2  N   -0.497070
     3  C    0.220644
     4  C   -0.459039
     5  C   -0.425513
     6  C   -0.456119
     7  N   -0.424905
     8  C   -0.322008
     9  C   -0.286319
    10  N   -0.437435
    11  C   -0.322495
    12  C   -0.318268
    13  H    0.152023
    14  H    0.136619
    15  H    0.133760
    16  H    0.141264
    17  H    0.120044
    18  H    0.131309
    19  H    0.139427
    20  H    0.143548
    21  H    0.131868
    22  H    0.166047
    23  H    0.146663
    24  H    0.145721
    25  H    0.184581
    26  H    0.132809
    27  H    0.133332
    28  H    0.185809
    29  H    0.147684
    30  H    0.146905
    31  H    0.186095
    32  H    0.144976
    33  H    0.145855
 Sum of Mulliken charges =   0.00000
 Mulliken charges with hydrogens summed into heavy atoms:
               1
     1  C    0.632188
     2  N   -0.497070
     3  C    0.220644
     4  C   -0.036637
     5  C   -0.032897
     6  C   -0.041277
     7  N   -0.424905
     8  C    0.136423
     9  C    0.164404
    10  N   -0.437435
    11  C    0.157904
    12  C    0.158658
 Electronic spatial extent (au):  <R**2>=           2493.3898
 Charge=              0.0000 electrons
 Dipole moment (field-independent basis, Debye):
    X=             -1.8369    Y=              1.6539    Z=              0.1159  Tot=              2.4745
 Quadrupole moment (field-independent basis, Debye-Ang):
   XX=            -73.1337   YY=            -73.8263   ZZ=            -77.6320
   XY=              0.5828   XZ=             -0.7404   YZ=              0.0980
 Traceless Quadrupole moment (field-independent basis, Debye-Ang):
   XX=              1.7303   YY=              1.0377   ZZ=             -2.7680
   XY=              0.5828   XZ=             -0.7404   YZ=              0.0980
 Octapole moment (field-independent basis, Debye-Ang**2):
  XXX=            -22.7100  YYY=              4.8630  ZZZ=             -0.2331  XYY=             -9.1716
  XXY=              3.1574  XXZ=              2.4630  XZZ=             -4.2514  YZZ=             -1.2953
  YYZ=             -1.5948  XYZ=              1.8679
 Hexadecapole moment (field-independent basis, Debye-Ang**3):
 XXXX=          -1929.2245 YYYY=          -1080.2684 ZZZZ=           -346.3764 XXXY=              4.4492
 XXXZ=              2.4053 YYYX=              4.2381 YYYZ=              2.3522 ZZZX=             -3.5241
 ZZZY=             -0.0810 XXYY=           -510.6383 XXZZ=           -385.8722 YYZZ=           -234.4896
 XXYZ=             -0.7374 YYXZ=             -0.0070 ZZXY=             -3.9747
 N-N= 8.011118612443D+02 E-N=-2.806927121692D+03  KE= 5.147469300302D+02
 Calling FoFJK, ICntrl=      2127 FMM=F ISym2X=0 I1Cent= 0 IOpClX= 0 NMat=1 NMatS=1 NMatT=0.
 ***** Axes restored to original set *****
 -------------------------------------------------------------------
 Center     Atomic                   Forces (Hartrees/Bohr)
 Number     Number              X              Y              Z
 -------------------------------------------------------------------
      1        6          -0.010894899    0.023121780   -0.008448716
      2        7          -0.001519412   -0.010169809   -0.002907677
      3        6          -0.008271037   -0.003172517    0.007981654
      4        6           0.006006523    0.003129289   -0.009506067
      5        6          -0.005615147    0.002924248   -0.001009480
      6        6           0.007794276    0.008380019    0.004162203
      7        7          -0.005362722   -0.011045896    0.009835010
      8        6           0.002001175    0.002049862    0.003880878
      9        6           0.004712564    0.002492494    0.001008627
     10        7           0.003901196   -0.006549136    0.004635676
     11        6           0.000683752    0.000344554    0.002133881
     12        6           0.002201192   -0.003210720   -0.001112858
     13        1          -0.002185972    0.001504663    0.003058917
     14        1           0.004121483   -0.002103646    0.002287390
     15        1          -0.001242929    0.001356614    0.000579363
     16        1           0.002530956   -0.001356593   -0.001094904
     17        1           0.000402110    0.000697169    0.000523281
     18        1           0.000977782   -0.002472241    0.000844363
     19        1           0.003171186   -0.001448065   -0.003412486
     20        1          -0.002552300   -0.000789376   -0.003344264
     21        1           0.000525046    0.002789422   -0.000368017
     22        1           0.001122420    0.004063279    0.001165034
     23        1          -0.003631315    0.002163954   -0.002056127
     24        1           0.000789963   -0.005211704   -0.001162632
     25        1           0.008377905   -0.003596215   -0.004595749
     26        1           0.000128794   -0.005752954    0.000762317
     27        1          -0.001450680    0.000540853   -0.001542793
     28        1          -0.006596881    0.003205064   -0.002842243
     29        1           0.003412419    0.003705457   -0.000108081
     30        1           0.001314518   -0.003236965    0.000550995
     31        1          -0.009367879    0.001930011   -0.002957752
     32        1           0.001741712   -0.002763338    0.000946953
     33        1           0.002774199   -0.001519558    0.002113306
 -------------------------------------------------------------------
 Cartesian Forces:  Max     0.023121780 RMS     0.004780402

 GradGradGradGradGradGradGradGradGradGradGradGradGradGradGradGradGradGrad
 Berny optimization.
 FormGI is forming the generalized inverse of G from B-inverse, IUseBI=4.
 Internal  Forces:  Max     0.022061043 RMS     0.004430498
 Search for a local minimum.
 Step number   1 out of a maximum of  164
 All quantities printed in internal units (Hartrees-Bohrs-Radians)
 Mixed Optimization -- RFO/linear search
 Second derivative matrix not updated -- first step.
 ITU=  0
     Eigenvalues ---    0.00230   0.00279   0.00307   0.00732   0.00839
     Eigenvalues ---    0.00860   0.00960   0.01107   0.01210   0.01399
     Eigenvalues ---    0.01611   0.01722   0.02013   0.03174   0.04054
     Eigenvalues ---    0.04964   0.05028   0.05328   0.05390   0.05434
     Eigenvalues ---    0.05478   0.05663   0.06714   0.06834   0.06894
     Eigenvalues ---    0.06930   0.07315   0.07372   0.07412   0.07446
     Eigenvalues ---    0.07469   0.15252   0.16000   0.16000   0.16000
     Eigenvalues ---    0.16000   0.16000   0.16000   0.16000   0.16000
     Eigenvalues ---    0.16000   0.16000   0.16000   0.16000   0.16000
     Eigenvalues ---    0.16000   0.16000   0.16000   0.16000   0.16000
     Eigenvalues ---    0.16000   0.16000   0.16000   0.16407   0.22042
     Eigenvalues ---    0.23534   0.24415   0.24775   0.24984   0.24994
     Eigenvalues ---    0.25000   0.27399   0.28804   0.28993   0.33901
     Eigenvalues ---    0.33928   0.33930   0.33979   0.33985   0.33988
     Eigenvalues ---    0.34028   0.34038   0.34117   0.34132   0.34146
     Eigenvalues ---    0.34196   0.34207   0.34210   0.34308   0.34318
     Eigenvalues ---    0.34616   0.34938   0.35080   0.35340   0.35433
     Eigenvalues ---    0.36415   0.36608   0.36971   0.37553   0.39019
     Eigenvalues ---    0.44627   0.45997   0.70665
 RFO step:  Lambda=-1.94640479D-02 EMin= 2.30000000D-03
 Linear search not attempted -- first point.
 Iteration  1 RMS(Cart)=  0.17809273 RMS(Int)=  0.01007057
 Iteration  2 RMS(Cart)=  0.01754972 RMS(Int)=  0.00026927
 Iteration  3 RMS(Cart)=  0.00018206 RMS(Int)=  0.00025707
 Iteration  4 RMS(Cart)=  0.00000006 RMS(Int)=  0.00025707
 Variable       Old X    -DE/DX   Delta X   Delta X   Delta X     New X
                                 (Linear)    (Quad)   (Total)
    R1        2.43381  -0.00198   0.00000  -0.00273  -0.00273   2.43107
    R2        2.65711   0.00878   0.00000   0.01886   0.01886   2.67597
    R3        2.64135   0.00179   0.00000   0.00374   0.00374   2.64509
    R4        2.72909   0.00932   0.00000   0.02275   0.02275   2.75184
    R5        2.90413   0.00534   0.00000   0.01736   0.01736   2.92149
    R6        2.93471   0.00148   0.00000   0.00503   0.00503   2.93974
    R7        2.90017   0.00797   0.00000   0.02575   0.02575   2.92592
    R8        2.07355  -0.00139   0.00000  -0.00387  -0.00387   2.06968
    R9        2.05546   0.00431   0.00000   0.01165   0.01165   2.06710
   R10        2.07084   0.00099   0.00000   0.00275   0.00275   2.07360
   R11        2.07000  -0.00040   0.00000  -0.00111  -0.00111   2.06889
   R12        2.07351   0.00035   0.00000   0.00098   0.00098   2.07449
   R13        2.07134  -0.00018   0.00000  -0.00051  -0.00051   2.07082
   R14        2.05775   0.00211   0.00000   0.00572   0.00572   2.06347
   R15        2.07498  -0.00157   0.00000  -0.00437  -0.00437   2.07060
   R16        2.06814   0.00272   0.00000   0.00750   0.00750   2.07564
   R17        2.76441  -0.00341   0.00000  -0.00884  -0.00884   2.75557
   R18        2.78278  -0.01372   0.00000  -0.03670  -0.03670   2.74608
   R19        2.06303  -0.00076   0.00000  -0.00209  -0.00209   2.06094
   R20        2.07108   0.00337   0.00000   0.00935   0.00935   2.08042
   R21        2.07452   0.00191   0.00000   0.00533   0.00533   2.07984
   R22        2.06797  -0.00528   0.00000  -0.01455  -0.01455   2.05342
   R23        2.06977   0.00323   0.00000   0.00893   0.00893   2.07870
   R24        2.07365   0.00186   0.00000   0.00518   0.00518   2.07883
   R25        2.76737  -0.00376   0.00000  -0.00981  -0.00981   2.75756
   R26        2.75020  -0.00503   0.00000  -0.01274  -0.01274   2.73746
   R27        2.05126   0.00067   0.00000   0.00180   0.00180   2.05306
   R28        2.06982   0.00348   0.00000   0.00961   0.00961   2.07944
   R29        2.07283   0.00209   0.00000   0.00582   0.00582   2.07865
   R30        2.02590   0.00576   0.00000   0.01481   0.01481   2.04071
   R31        2.07448   0.00172   0.00000   0.00481   0.00481   2.07929
   R32        2.07265   0.00274   0.00000   0.00762   0.00762   2.08027
    A1        1.97957   0.01479   0.00000   0.05518   0.05505   2.03463
    A2        2.27962   0.00731   0.00000   0.02746   0.02733   2.30695
    A3        2.02330  -0.02206   0.00000  -0.08161  -0.08174   1.94156
    A4        2.43931   0.00233   0.00000   0.00864   0.00864   2.44795
    A5        1.94250   0.00240   0.00000   0.01485   0.01512   1.95762
    A6        1.84307  -0.00433   0.00000  -0.02081  -0.02104   1.82203
    A7        1.94943   0.00440   0.00000   0.03313   0.03330   1.98273
    A8        1.83375   0.00256   0.00000   0.00741   0.00748   1.84122
    A9        2.03863  -0.00774   0.00000  -0.04870  -0.04863   1.99000
   A10        1.83837   0.00275   0.00000   0.01398   0.01390   1.85227
   A11        1.92623  -0.00410   0.00000  -0.02567  -0.02584   1.90039
   A12        2.01811  -0.00233   0.00000  -0.01070  -0.01076   2.00735
   A13        1.94146  -0.00075   0.00000  -0.00364  -0.00370   1.93776
   A14        1.84935   0.00357   0.00000   0.01919   0.01904   1.86838
   A15        1.87846   0.00182   0.00000   0.00562   0.00546   1.88391
   A16        1.84248   0.00249   0.00000   0.01877   0.01879   1.86127
   A17        1.94653  -0.00372   0.00000  -0.02311  -0.02323   1.92330
   A18        1.93624   0.00106   0.00000   0.00853   0.00858   1.94482
   A19        1.94985  -0.00235   0.00000  -0.01336  -0.01348   1.93637
   A20        1.88547   0.00147   0.00000   0.00860   0.00865   1.89412
   A21        1.87152   0.00250   0.00000   0.00913   0.00885   1.88036
   A22        1.87071   0.00138   0.00000   0.01218   0.01222   1.88293
   A23        2.00418  -0.00249   0.00000  -0.01218  -0.01219   1.99199
   A24        1.93078  -0.00440   0.00000  -0.02297  -0.02299   1.90779
   A25        1.94071   0.00182   0.00000   0.00693   0.00693   1.94764
   A26        1.82180   0.00469   0.00000   0.03209   0.03206   1.85386
   A27        1.88265  -0.00004   0.00000  -0.00268  -0.00267   1.87999
   A28        1.87605   0.00079   0.00000   0.00097   0.00097   1.87702
   A29        2.17248  -0.00672   0.00000  -0.03422  -0.03439   2.13808
   A30        2.08151   0.00069   0.00000  -0.00297  -0.00354   2.07797
   A31        1.93181   0.00524   0.00000   0.01448   0.01383   1.94564
   A32        1.98889  -0.00714   0.00000  -0.04432  -0.04462   1.94427
   A33        1.94688  -0.00463   0.00000  -0.02779  -0.02834   1.91854
   A34        1.90051   0.00956   0.00000   0.05962   0.05999   1.96050
   A35        1.85610   0.00390   0.00000   0.01059   0.00938   1.86549
   A36        1.90047  -0.00107   0.00000  -0.00289  -0.00235   1.89812
   A37        1.86659  -0.00046   0.00000   0.00641   0.00654   1.87313
   A38        1.98836  -0.01205   0.00000  -0.06925  -0.06947   1.91889
   A39        1.90760  -0.00104   0.00000  -0.00166  -0.00176   1.90584
   A40        1.93566   0.00278   0.00000   0.01341   0.01323   1.94889
   A41        1.86167   0.00752   0.00000   0.04553   0.04539   1.90706
   A42        1.87928   0.00335   0.00000   0.01148   0.01119   1.89047
   A43        1.88743   0.00011   0.00000   0.00475   0.00469   1.89212
   A44        2.18822  -0.00741   0.00000  -0.02849  -0.02848   2.15974
   A45        2.19049   0.00103   0.00000   0.00350   0.00347   2.19397
   A46        1.88922   0.00631   0.00000   0.02311   0.02308   1.91230
   A47        2.02407  -0.01134   0.00000  -0.06624  -0.06634   1.95773
   A48        1.92283  -0.00239   0.00000  -0.01186  -0.01223   1.91061
   A49        1.90856   0.00654   0.00000   0.03790   0.03809   1.94666
   A50        1.82840   0.00661   0.00000   0.03399   0.03335   1.86175
   A51        1.90036   0.00161   0.00000   0.00614   0.00654   1.90690
   A52        1.87297  -0.00051   0.00000   0.00361   0.00355   1.87653
   A53        2.02076  -0.01053   0.00000  -0.05831  -0.05843   1.96233
   A54        1.92598  -0.00032   0.00000  -0.00409  -0.00431   1.92167
   A55        1.92208   0.00171   0.00000   0.01148   0.01158   1.93366
   A56        1.85405   0.00515   0.00000   0.02539   0.02499   1.87904
   A57        1.84837   0.00557   0.00000   0.03504   0.03522   1.88359
   A58        1.88649  -0.00089   0.00000  -0.00573  -0.00572   1.88077
    D1        3.12097  -0.00362   0.00000  -0.06263  -0.06186   3.05911
    D2        0.02169  -0.00429   0.00000  -0.09190  -0.09267  -0.07098
    D3        2.33576  -0.00397   0.00000  -0.12852  -0.12798   2.20778
    D4       -0.30222  -0.00359   0.00000  -0.07792  -0.07807  -0.38030
    D5       -0.84155  -0.00279   0.00000  -0.10156  -0.10141  -0.94296
    D6        2.80366  -0.00242   0.00000  -0.05096  -0.05151   2.75215
    D7        2.92968  -0.00541   0.00000  -0.15887  -0.15903   2.77065
    D8       -0.00290  -0.00565   0.00000  -0.14865  -0.14897  -0.15187
    D9       -0.16874  -0.00683   0.00000  -0.19148  -0.19116  -0.35990
   D10       -3.10132  -0.00707   0.00000  -0.18126  -0.18110   3.00076
   D11        1.17512  -0.00238   0.00000  -0.01678  -0.01655   1.15857
   D12       -3.12740  -0.00060   0.00000  -0.01242  -0.01234  -3.13973
   D13       -1.13797   0.00235   0.00000   0.00841   0.00811  -1.12987
   D14        0.76459  -0.00075   0.00000   0.00927   0.00924   0.77383
   D15       -1.33371  -0.00064   0.00000   0.01140   0.01133  -1.32238
   D16        2.84841  -0.00165   0.00000  -0.00286  -0.00284   2.84557
   D17       -1.22191   0.00179   0.00000   0.02265   0.02270  -1.19921
   D18        2.96297   0.00191   0.00000   0.02478   0.02479   2.98777
   D19        0.86191   0.00090   0.00000   0.01052   0.01063   0.87253
   D20        3.03179   0.00082   0.00000   0.02682   0.02679   3.05858
   D21        0.93349   0.00094   0.00000   0.02895   0.02888   0.96237
   D22       -1.16758  -0.00007   0.00000   0.01469   0.01471  -1.15287
   D23       -0.87634   0.00032   0.00000  -0.02448  -0.02465  -0.90099
   D24       -2.97904   0.00024   0.00000  -0.02560  -0.02568  -3.00472
   D25        1.21792  -0.00065   0.00000  -0.03788  -0.03787   1.18005
   D26        1.17885   0.00226   0.00000  -0.01367  -0.01372   1.16513
   D27       -0.92385   0.00218   0.00000  -0.01479  -0.01475  -0.93860
   D28       -3.01008   0.00129   0.00000  -0.02707  -0.02694  -3.03702
   D29       -2.94152  -0.00396   0.00000  -0.05902  -0.05907  -3.00059
   D30        1.23896  -0.00404   0.00000  -0.06014  -0.06010   1.17886
   D31       -0.84726  -0.00494   0.00000  -0.07241  -0.07229  -0.91955
   D32        0.92013   0.00176   0.00000   0.03401   0.03378   0.95390
   D33       -1.13610   0.00056   0.00000   0.01736   0.01712  -1.11898
   D34        3.06378   0.00127   0.00000   0.02672   0.02648   3.09026
   D35       -1.34380   0.00116   0.00000   0.02523   0.02534  -1.31846
   D36        2.88316  -0.00004   0.00000   0.00859   0.00868   2.89184
   D37        0.79986   0.00066   0.00000   0.01794   0.01804   0.81789
   D38        2.91246   0.00032   0.00000   0.03317   0.03332   2.94578
   D39        0.85623  -0.00089   0.00000   0.01653   0.01667   0.87290
   D40       -1.22707  -0.00018   0.00000   0.02589   0.02602  -1.20105
   D41        0.12479  -0.00056   0.00000   0.01923   0.01982   0.14461
   D42       -1.97720   0.00292   0.00000   0.05799   0.05735  -1.91985
   D43        2.25001   0.00025   0.00000   0.02927   0.02901   2.27902
   D44        2.79960  -0.00171   0.00000  -0.03064  -0.02985   2.76975
   D45        0.69761   0.00178   0.00000   0.00812   0.00769   0.70530
   D46       -1.35837  -0.00090   0.00000  -0.02060  -0.02065  -1.37902
   D47       -0.31113  -0.00178   0.00000  -0.05907  -0.05941  -0.37054
   D48       -2.39145  -0.00280   0.00000  -0.07087  -0.07119  -2.46264
   D49        1.81241  -0.00399   0.00000  -0.08390  -0.08410   1.72831
   D50       -3.01348   0.00164   0.00000  -0.00231  -0.00207  -3.01555
   D51        1.18938   0.00062   0.00000  -0.01411  -0.01386   1.17553
   D52       -0.88994  -0.00057   0.00000  -0.02714  -0.02676  -0.91670
   D53       -0.07764  -0.00036   0.00000  -0.00866  -0.00827  -0.08591
   D54       -2.15003   0.00059   0.00000   0.00133   0.00109  -2.14895
   D55        2.07867  -0.00130   0.00000  -0.01879  -0.01898   2.05969
   D56        2.88515  -0.00040   0.00000  -0.01829  -0.01787   2.86728
   D57        0.81276   0.00055   0.00000  -0.00829  -0.00852   0.80424
   D58       -1.24173  -0.00134   0.00000  -0.02842  -0.02858  -1.27031
   D59       -0.14678  -0.00176   0.00000  -0.03093  -0.03077  -0.17755
   D60       -2.25299  -0.00076   0.00000  -0.01946  -0.01968  -2.27267
   D61        1.94891  -0.00053   0.00000  -0.01703  -0.01717   1.93174
   D62       -3.10928  -0.00063   0.00000  -0.01718  -0.01688  -3.12616
   D63        1.06770   0.00037   0.00000  -0.00570  -0.00579   1.06190
   D64       -1.01359   0.00060   0.00000  -0.00328  -0.00328  -1.01687
         Item               Value     Threshold  Converged?
 Maximum Force            0.022061     0.000450     NO 
 RMS     Force            0.004430     0.000300     NO 
 Maximum Displacement     0.649756     0.001800     NO 
 RMS     Displacement     0.185174     0.001200     NO 
 Predicted change in Energy=-1.233785D-02
 GradGradGradGradGradGradGradGradGradGradGradGradGradGradGradGradGradGrad

                          Input orientation:                          
 ---------------------------------------------------------------------
 Center     Atomic      Atomic             Coordinates (Angstroms)
 Number     Number       Type             X           Y           Z
 ---------------------------------------------------------------------
      1          6           0        1.427708   -0.123196    0.142722
      2          7           0        0.810382    0.938350   -0.240724
      3          6           0        1.089111    2.268243   -0.764408
      4          6           0        1.712987    2.219432   -2.178080
      5          6           0       -0.314572    2.912177   -0.951635
      6          6           0        1.850888    3.178785    0.229546
      7          7           0        0.629438   -1.158800    0.686344
      8          6           0        0.677234   -2.528472    0.188335
      9          6           0       -0.681820   -0.832521    1.220974
     10          7           0        2.782756   -0.473998    0.143171
     11          6           0        3.351988   -1.508395    1.000711
     12          6           0        3.850309    0.275564   -0.486854
     13          1           0        1.162756    1.491195   -2.783419
     14          1           0        2.767516    1.930334   -2.208517
     15          1           0        1.640209    3.195342   -2.674438
     16          1           0       -0.961801    2.245949   -1.531152
     17          1           0       -0.247600    3.875098   -1.474515
     18          1           0       -0.797303    3.087737    0.016352
     19          1           0        2.781674    2.748977    0.605358
     20          1           0        1.221979    3.362273    1.107838
     21          1           0        2.089161    4.153774   -0.216615
     22          1           0        1.488811   -2.663472   -0.527578
     23          1           0       -0.258369   -2.768454   -0.339930
     24          1           0        0.794067   -3.264146    0.998562
     25          1           0       -0.729308    0.224907    1.466626
     26          1           0       -0.859082   -1.424821    2.130789
     27          1           0       -1.481637   -1.056096    0.499544
     28          1           0        2.621370   -1.912505    1.695854
     29          1           0        4.161032   -1.076478    1.608784
     30          1           0        3.783975   -2.329788    0.410249
     31          1           0        3.479460    1.065939   -1.122426
     32          1           0        4.465262   -0.392088   -1.108756
     33          1           0        4.508110    0.729923    0.269909
 ---------------------------------------------------------------------
                    Distance matrix (angstroms):
                    1          2          3          4          5
     1  C    0.000000
     2  N    1.286468   0.000000
     3  C    2.580022   1.456211   0.000000
     4  C    3.309896   2.491830   1.545986   0.000000
     5  C    3.666966   2.380527   1.555645   2.468817   0.000000
[...]
   XY=             -0.2928   XZ=             -0.3602   YZ=              0.3635
 Traceless Quadrupole moment (field-independent basis, Debye-Ang):
   XX=              1.0013   YY=              0.9987   ZZ=             -1.9999
   XY=             -0.2928   XZ=             -0.3602   YZ=              0.3635
 Octapole moment (field-independent basis, Debye-Ang**2):
  XXX=             -7.6258  YYY=              0.7673  ZZZ=             -3.6744  XYY=             -5.3588
  XXY=              2.4543  XXZ=             -3.6747  XZZ=             -1.3712  YZZ=              1.1006
  YYZ=             -0.5917  XYZ=             -1.0856
 Hexadecapole moment (field-independent basis, Debye-Ang**3):
 XXXX=          -1823.7900 YYYY=          -1017.7231 ZZZZ=           -419.7381 XXXY=              5.8729
 XXXZ=             -2.5497 YYYX=              4.1864 YYYZ=              2.4359 ZZZX=              3.4110
 ZZZY=              0.3430 XXYY=           -473.5583 XXZZ=           -386.9531 YYZZ=           -239.5688
 XXYZ=             -3.1644 YYXZ=              5.5517 ZZXY=             -4.1173
 N-N= 8.082576898160D+02 E-N=-2.821110446545D+03  KE= 5.149011377463D+02
 Evaluate density.
 Using the total density.
 Monte-Carlo method of calculating molar volume:
 based on  0.001 e/bohr**3 density envelope.
 Number of points per bohr**3 =   20 CutOff= 1.00D-04
 Using the CI density.
 There are       417 points.  Will hold       417 in memory.
 LenV=  1610468988 MDV=  1610612736.
 Box volume = 9074.742 fraction occupied=0.189
 Integrated density= 1.1452302727055786D+02 error= 1.8523027270557861D+01
 Molar volume = 1719.196 bohr**3/mol (153.419 cm**3/mol)
 Recommended a0 for SCRF calculation =  4.83 angstrom (  9.12 bohr)
 ******************************Gaussian NBO Version 3.1******************************
             N A T U R A L   A T O M I C   O R B I T A L   A N D
          N A T U R A L   B O N D   O R B I T A L   A N A L Y S I S
 ******************************Gaussian NBO Version 3.1******************************
       /RESON  / : Allow strongly delocalized NBO set

 Analyzing the CI density

 Job title: Title Card Required                                             

 Storage needed:    151374 in NPA (1610606961 available)


 NATURAL POPULATIONS:  Natural atomic orbital occupancies 
                                                          
   NAO  Atom  No  lang   Type(AO)    Occupancy
 --------------------------------------------
     1    C    1  S      Cor( 1S)     1.99913
     2    C    1  S      Val( 2S)     0.69984
     3    C    1  S      Ryd( 3S)     0.00224
     4    C    1  S      Ryd( 4S)     0.00022
     5    C    1  px     Val( 2p)     0.85257
     6    C    1  px     Ryd( 3p)     0.00600
     7    C    1  py     Val( 2p)     0.81678
     8    C    1  py     Ryd( 3p)     0.00573
     9    C    1  pz     Val( 2p)     1.21916
    10    C    1  pz     Ryd( 3p)     0.01203
    11    C    1  dxy    Ryd( 3d)     0.00245
    12    C    1  dxz    Ryd( 3d)     0.00238
    13    C    1  dyz    Ryd( 3d)     0.00102
    14    C    1  dx2y2  Ryd( 3d)     0.00160
    15    C    1  dz2    Ryd( 3d)     0.00060
 
    16    N    2  S      Cor( 1S)     1.99898
    17    N    2  S      Val( 2S)     1.27311
    18    N    2  S      Ryd( 3S)     0.00214
    19    N    2  S      Ryd( 4S)     0.00003
    20    N    2  px     Val( 2p)     1.23446
    21    N    2  px     Ryd( 3p)     0.00200
    22    N    2  py     Val( 2p)     1.13577
    23    N    2  py     Ryd( 3p)     0.00431
    24    N    2  pz     Val( 2p)     1.67183
    25    N    2  pz     Ryd( 3p)     0.00715
    26    N    2  dxy    Ryd( 3d)     0.00082
    27    N    2  dxz    Ryd( 3d)     0.00112
    28    N    2  dyz    Ryd( 3d)     0.00072
    29    N    2  dx2y2  Ryd( 3d)     0.00031
    30    N    2  dz2    Ryd( 3d)     0.00055
 
    31    C    3  S      Cor( 1S)     1.99908
    32    C    3  S      Val( 2S)     0.90539
    33    C    3  S      Ryd( 3S)     0.00068
    34    C    3  S      Ryd( 4S)     0.00003
    35    C    3  px     Val( 2p)     0.90369
    36    C    3  px     Ryd( 3p)     0.00291
    37    C    3  py     Val( 2p)     1.02534
    38    C    3  py     Ryd( 3p)     0.00462
    39    C    3  pz     Val( 2p)     1.04963
    40    C    3  pz     Ryd( 3p)     0.00487
    41    C    3  dxy    Ryd( 3d)     0.00125
    42    C    3  dxz    Ryd( 3d)     0.00169
    43    C    3  dyz    Ryd( 3d)     0.00102
    44    C    3  dx2y2  Ryd( 3d)     0.00101
    45    C    3  dz2    Ryd( 3d)     0.00093
 
    46    C    4  S      Cor( 1S)     1.99935
    47    C    4  S      Val( 2S)     1.10195
    48    C    4  S      Ryd( 3S)     0.00084
    49    C    4  S      Ryd( 4S)     0.00002
    50    C    4  px     Val( 2p)     1.20300
    51    C    4  px     Ryd( 3p)     0.00165
    52    C    4  py     Val( 2p)     1.23347
    53    C    4  py     Ryd( 3p)     0.00216
    54    C    4  pz     Val( 2p)     1.12815
    55    C    4  pz     Ryd( 3p)     0.00242
    56    C    4  dxy    Ryd( 3d)     0.00043
    57    C    4  dxz    Ryd( 3d)     0.00035
    58    C    4  dyz    Ryd( 3d)     0.00106
    59    C    4  dx2y2  Ryd( 3d)     0.00092
    60    C    4  dz2    Ryd( 3d)     0.00063
 
    61    C    5  S      Cor( 1S)     1.99935
    62    C    5  S      Val( 2S)     1.10074
    63    C    5  S      Ryd( 3S)     0.00078
    64    C    5  S      Ryd( 4S)     0.00001
    65    C    5  px     Val( 2p)     1.19104
    66    C    5  px     Ryd( 3p)     0.00181
    67    C    5  py     Val( 2p)     1.14016
    68    C    5  py     Ryd( 3p)     0.00216
    69    C    5  pz     Val( 2p)     1.22369
    70    C    5  pz     Ryd( 3p)     0.00212
    71    C    5  dxy    Ryd( 3d)     0.00041
    72    C    5  dxz    Ryd( 3d)     0.00040
    73    C    5  dyz    Ryd( 3d)     0.00100
    74    C    5  dx2y2  Ryd( 3d)     0.00096
    75    C    5  dz2    Ryd( 3d)     0.00066
 
    76    C    6  S      Cor( 1S)     1.99931
    77    C    6  S      Val( 2S)     1.09802
    78    C    6  S      Ryd( 3S)     0.00065
    79    C    6  S      Ryd( 4S)     0.00002
    80    C    6  px     Val( 2p)     1.24345
    81    C    6  px     Ryd( 3p)     0.00148
    82    C    6  py     Val( 2p)     1.14360
    83    C    6  py     Ryd( 3p)     0.00207
    84    C    6  pz     Val( 2p)     1.16726
    85    C    6  pz     Ryd( 3p)     0.00184
    86    C    6  dxy    Ryd( 3d)     0.00043
    87    C    6  dxz    Ryd( 3d)     0.00056
    88    C    6  dyz    Ryd( 3d)     0.00068
    89    C    6  dx2y2  Ryd( 3d)     0.00097
    90    C    6  dz2    Ryd( 3d)     0.00076
 
    91    N    7  S      Cor( 1S)     1.99939
    92    N    7  S      Val( 2S)     1.23287
    93    N    7  S      Ryd( 3S)     0.00145
    94    N    7  S      Ryd( 4S)     0.00003
    95    N    7  px     Val( 2p)     1.31486
    96    N    7  px     Ryd( 3p)     0.00213
    97    N    7  py     Val( 2p)     1.28293
    98    N    7  py     Ryd( 3p)     0.00207
    99    N    7  pz     Val( 2p)     1.65311
   100    N    7  pz     Ryd( 3p)     0.00431
   101    N    7  dxy    Ryd( 3d)     0.00058
   102    N    7  dxz    Ryd( 3d)     0.00118
   103    N    7  dyz    Ryd( 3d)     0.00076
   104    N    7  dx2y2  Ryd( 3d)     0.00059
   105    N    7  dz2    Ryd( 3d)     0.00077
 
   106    C    8  S      Cor( 1S)     1.99946
   107    C    8  S      Val( 2S)     1.08353
   108    C    8  S      Ryd( 3S)     0.00103
   109    C    8  S      Ryd( 4S)     0.00003
   110    C    8  px     Val( 2p)     1.00858
   111    C    8  px     Ryd( 3p)     0.00141
   112    C    8  py     Val( 2p)     1.22745
   113    C    8  py     Ryd( 3p)     0.00296
   114    C    8  pz     Val( 2p)     1.12924
   115    C    8  pz     Ryd( 3p)     0.00178
   116    C    8  dxy    Ryd( 3d)     0.00060
   117    C    8  dxz    Ryd( 3d)     0.00122
   118    C    8  dyz    Ryd( 3d)     0.00052
   119    C    8  dx2y2  Ryd( 3d)     0.00127
   120    C    8  dz2    Ryd( 3d)     0.00140
 
   121    C    9  S      Cor( 1S)     1.99949
   122    C    9  S      Val( 2S)     1.07933
   123    C    9  S      Ryd( 3S)     0.00111
   124    C    9  S      Ryd( 4S)     0.00003
   125    C    9  px     Val( 2p)     1.23707
   126    C    9  px     Ryd( 3p)     0.00296
   127    C    9  py     Val( 2p)     0.90599
   128    C    9  py     Ryd( 3p)     0.00201
   129    C    9  pz     Val( 2p)     1.23289
   130    C    9  pz     Ryd( 3p)     0.00151
   131    C    9  dxy    Ryd( 3d)     0.00084
   132    C    9  dxz    Ryd( 3d)     0.00092
   133    C    9  dyz    Ryd( 3d)     0.00140
   134    C    9  dx2y2  Ryd( 3d)     0.00116
   135    C    9  dz2    Ryd( 3d)     0.00071
 
   136    N   10  S      Cor( 1S)     1.99935
   137    N   10  S      Val( 2S)     1.18673
   138    N   10  S      Ryd( 3S)     0.00085
   139    N   10  S      Ryd( 4S)     0.00002
   140    N   10  px     Val( 2p)     1.55856
   141    N   10  px     Ryd( 3p)     0.00570
   142    N   10  py     Val( 2p)     1.30471
   143    N   10  py     Ryd( 3p)     0.00109
   144    N   10  pz     Val( 2p)     1.39470
   145    N   10  pz     Ryd( 3p)     0.00173
   146    N   10  dxy    Ryd( 3d)     0.00037
   147    N   10  dxz    Ryd( 3d)     0.00058
   148    N   10  dyz    Ryd( 3d)     0.00129
   149    N   10  dx2y2  Ryd( 3d)     0.00053
   150    N   10  dz2    Ryd( 3d)     0.00041
 
   151    C   11  S      Cor( 1S)     1.99946
   152    C   11  S      Val( 2S)     1.08278
   153    C   11  S      Ryd( 3S)     0.00117
   154    C   11  S      Ryd( 4S)     0.00002
   155    C   11  px     Val( 2p)     1.09026
   156    C   11  px     Ryd( 3p)     0.00137
   157    C   11  py     Val( 2p)     1.21661
   158    C   11  py     Ryd( 3p)     0.00298
   159    C   11  pz     Val( 2p)     1.06777
   160    C   11  pz     Ryd( 3p)     0.00227
   161    C   11  dxy    Ryd( 3d)     0.00079
   162    C   11  dxz    Ryd( 3d)     0.00109
   163    C   11  dyz    Ryd( 3d)     0.00135
   164    C   11  dx2y2  Ryd( 3d)     0.00101
   165    C   11  dz2    Ryd( 3d)     0.00070
 
   166    C   12  S      Cor( 1S)     1.99946
   167    C   12  S      Val( 2S)     1.08114
   168    C   12  S      Ryd( 3S)     0.00112
   169    C   12  S      Ryd( 4S)     0.00002
   170    C   12  px     Val( 2p)     1.21652
   171    C   12  px     Ryd( 3p)     0.00147
   172    C   12  py     Val( 2p)     1.09135
   173    C   12  py     Ryd( 3p)     0.00217
   174    C   12  pz     Val( 2p)     1.06504
   175    C   12  pz     Ryd( 3p)     0.00255
   176    C   12  dxy    Ryd( 3d)     0.00140
   177    C   12  dxz    Ryd( 3d)     0.00107
   178    C   12  dyz    Ryd( 3d)     0.00131
   179    C   12  dx2y2  Ryd( 3d)     0.00047
   180    C   12  dz2    Ryd( 3d)     0.00072
 
   181    H   13  S      Val( 1S)     0.76112
   182    H   13  S      Ryd( 2S)     0.00143
 
   183    H   14  S      Val( 1S)     0.77711
   184    H   14  S      Ryd( 2S)     0.00092
 
   185    H   15  S      Val( 1S)     0.77710
   186    H   15  S      Ryd( 2S)     0.00177
 
   187    H   16  S      Val( 1S)     0.76368
   188    H   16  S      Ryd( 2S)     0.00121
 
   189    H   17  S      Val( 1S)     0.77655
   190    H   17  S      Ryd( 2S)     0.00158
 
   191    H   18  S      Val( 1S)     0.76518
   192    H   18  S      Ryd( 2S)     0.00120
 
   193    H   19  S      Val( 1S)     0.76319
   194    H   19  S      Ryd( 2S)     0.00107
 
   195    H   20  S      Val( 1S)     0.75708
   196    H   20  S      Ryd( 2S)     0.00105
 
   197    H   21  S      Val( 1S)     0.76151
   198    H   21  S      Ryd( 2S)     0.00137
 
   199    H   22  S      Val( 1S)     0.77624
   200    H   22  S      Ryd( 2S)     0.00090
 
   201    H   23  S      Val( 1S)     0.80648
   202    H   23  S      Ryd( 2S)     0.00651
 
   203    H   24  S      Val( 1S)     0.78373
   204    H   24  S      Ryd( 2S)     0.00226
 
   205    H   25  S      Val( 1S)     0.76446
   206    H   25  S      Ryd( 2S)     0.00088
 
   207    H   26  S      Val( 1S)     0.77751
   208    H   26  S      Ryd( 2S)     0.00097
 
   209    H   27  S      Val( 1S)     0.80293
   210    H   27  S      Ryd( 2S)     0.00469
 
   211    H   28  S      Val( 1S)     0.74821
   212    H   28  S      Ryd( 2S)     0.00102
 
   213    H   29  S      Val( 1S)     0.78806
   214    H   29  S      Ryd( 2S)     0.00255
 
   215    H   30  S      Val( 1S)     0.78738
   216    H   30  S      Ryd( 2S)     0.00203
 
   217    H   31  S      Val( 1S)     0.76343
   218    H   31  S      Ryd( 2S)     0.00090
 
   219    H   32  S      Val( 1S)     0.79020
   220    H   32  S      Ryd( 2S)     0.00378
 
   221    H   33  S      Val( 1S)     0.79193
   222    H   33  S      Ryd( 2S)     0.00186

 WARNING:  1 low occupancy (<1.9990e) core orbital  found on  N    2


 Summary of Natural Population Analysis:                  
                                                          
                                       Natural Population 
                Natural  -----------------------------------------------
    Atom  No    Charge         Core      Valence    Rydberg      Total
 -----------------------------------------------------------------------
      C    1    0.37824      1.99913     3.58835    0.03427     5.62176
      N    2   -0.33329      1.99898     5.31516    0.01914     7.33329
      C    3    0.09787      1.99908     3.88405    0.01901     5.90213
      C    4   -0.67640      1.99935     4.66657    0.01047     6.67640
      C    5   -0.66530      1.99935     4.65563    0.01032     6.66530
      C    6   -0.66111      1.99931     4.65233    0.00947     6.66111
      N    7   -0.49702      1.99939     5.48377    0.01386     7.49702
      C    8   -0.46049      1.99946     4.44880    0.01223     6.46049
      C    9   -0.46741      1.99949     4.45528    0.01265     6.46741
      N   10   -0.45663      1.99935     5.44470    0.01258     7.45663
      C   11   -0.46964      1.99946     4.45743    0.01275     6.46964
      C   12   -0.46580      1.99946     4.45405    0.01230     6.46580
      H   13    0.23745      0.00000     0.76112    0.00143     0.76255
      H   14    0.22197      0.00000     0.77711    0.00092     0.77803
      H   15    0.22113      0.00000     0.77710    0.00177     0.77887
      H   16    0.23511      0.00000     0.76368    0.00121     0.76489
      H   17    0.22188      0.00000     0.77655    0.00158     0.77812
      H   18    0.23363      0.00000     0.76518    0.00120     0.76637
      H   19    0.23574      0.00000     0.76319    0.00107     0.76426
      H   20    0.24187      0.00000     0.75708    0.00105     0.75813
      H   21    0.23711      0.00000     0.76151    0.00137     0.76289
      H   22    0.22287      0.00000     0.77624    0.00090     0.77713
      H   23    0.18701      0.00000     0.80648    0.00651     0.81299
      H   24    0.21400      0.00000     0.78373    0.00226     0.78600
      H   25    0.23466      0.00000     0.76446    0.00088     0.76534
      H   26    0.22152      0.00000     0.77751    0.00097     0.77848
      H   27    0.19238      0.00000     0.80293    0.00469     0.80762
      H   28    0.25077      0.00000     0.74821    0.00102     0.74923
      H   29    0.20939      0.00000     0.78806    0.00255     0.79061
      H   30    0.21060      0.00000     0.78738    0.00203     0.78940
      H   31    0.23567      0.00000     0.76343    0.00090     0.76433
      H   32    0.20603      0.00000     0.79020    0.00378     0.79397
      H   33    0.20622      0.00000     0.79193    0.00186     0.79378
 =======================================================================
   * Total *   -0.00000     23.99182    71.78919    0.21899    96.00000

                                 Natural Population      
 --------------------------------------------------------
   Core                      23.99182 ( 99.9659% of  24)
   Valence                   71.78919 ( 99.7072% of  72)
   Natural Minimal Basis     95.78101 ( 99.7719% of  96)
   Natural Rydberg Basis      0.21899 (  0.2281% of  96)
 --------------------------------------------------------

    Atom  No          Natural Electron Configuration
 ----------------------------------------------------------------------------
      C    1      [core]2S( 0.70)2p( 2.89)3p( 0.02)3d( 0.01)
      N    2      [core]2S( 1.27)2p( 4.04)3p( 0.01)
      C    3      [core]2S( 0.91)2p( 2.98)3p( 0.01)3d( 0.01)
      C    4      [core]2S( 1.10)2p( 3.56)3p( 0.01)
      C    5      [core]2S( 1.10)2p( 3.55)3p( 0.01)
      C    6      [core]2S( 1.10)2p( 3.55)3p( 0.01)
      N    7      [core]2S( 1.23)2p( 4.25)3p( 0.01)
      C    8      [core]2S( 1.08)2p( 3.37)3p( 0.01)3d( 0.01)
      C    9      [core]2S( 1.08)2p( 3.38)3p( 0.01)3d( 0.01)
      N   10      [core]2S( 1.19)2p( 4.26)3p( 0.01)
      C   11      [core]2S( 1.08)2p( 3.37)3p( 0.01)
      C   12      [core]2S( 1.08)2p( 3.37)3p( 0.01)
      H   13            1S( 0.76)
      H   14            1S( 0.78)
      H   15            1S( 0.78)
      H   16            1S( 0.76)
      H   17            1S( 0.78)
      H   18            1S( 0.77)
      H   19            1S( 0.76)
      H   20            1S( 0.76)
      H   21            1S( 0.76)
      H   22            1S( 0.78)
      H   23            1S( 0.81)2S( 0.01)
      H   24            1S( 0.78)
      H   25            1S( 0.76)
      H   26            1S( 0.78)
      H   27            1S( 0.80)
      H   28            1S( 0.75)
      H   29            1S( 0.79)
      H   30            1S( 0.79)
      H   31            1S( 0.76)
      H   32            1S( 0.79)
      H   33            1S( 0.79)


 NBO analysis skipped by request.
 1\1\GINC-DELLA-R1C4N6\SP\RB3LYP TD-FC\6-31G(d)\C9H21N3\BJS4\27-Aug-201
 8\0\\# TD(NStates=10, Root=1) b3lyp/6-31G* volume pop=NPA density=curr
 ent Geom=AllCheck Guess=Read\\Title Card Required\\0,1\C,0,1.314426425
 8,-0.119269055,0.0607530544\N,0,0.6596712894,0.8283731546,-0.501341980
 8\C,0,1.0705019398,2.2188151233,-0.7292013151\C,0,1.4296904318,2.41439
 0421,-2.2176295903\C,0,-0.2025216645,3.0482798823,-0.4353460256\C,0,2.
 2023437773,2.7562631522,0.1734449147\N,0,0.5920362452,-1.2127783184,0.
 5732867677\C,0,1.0143351506,-2.5614177841,0.2098288865\C,0,-0.85435326
 44,-1.0705963999,0.6561145898\N,0,2.7045269633,-0.2155061561,0.2801680
 919\C,0,3.2478122432,-0.7025941416,1.5336621038\C,0,3.6450333845,-0.14
 00317479,-0.8182047807\H,0,0.6368338646,2.0055975439,-2.852847418\H,0,
 2.3683890017,1.9163776307,-2.4807588049\H,0,1.5431334123,3.4801881748,
 -2.4499509082\H,0,-1.0346224961,2.6912255551,-1.0502129762\H,0,-0.0400
 630641,4.1130555561,-0.643173768\H,0,-0.4920342788,2.9433584325,0.6165
 597115\H,0,3.1770602083,2.3211892463,-0.0556378766\H,0,1.9814010871,2.
 5606241897,1.2288286113\H,0,2.286696081,3.8423707305,0.0449391174\H,0,
 2.0988971934,-2.6080968202,0.1071082054\H,0,0.5649632597,-2.8853644258
 ,-0.7442625786\H,0,0.7090065292,-3.2727316879,0.986313391\H,0,-1.10311
 24632,-0.0893634674,1.0612653195\H,0,-1.2455156232,-1.8519049394,1.318
 5907917\H,0,-1.3430438402,-1.1607913566,-0.325935788\H,0,2.4556468526,
 -0.7508766379,2.2819788654\H,0,4.0324344949,-0.0207874066,1.8937843978
 \H,0,3.6992852867,-1.7053448045,1.4422453743\H,0,3.1161080171,0.090269
 2321,-1.7433712424\H,0,4.1677445277,-1.1024685401,-0.9529375505\H,0,4.
 4139790275,0.6303156644,-0.6554395902\\Version=ES64L-G16RevA.03\State=
 1-A\HF=-519.8294523\RMSD=1.224e-09\Dipole=0.4449245,0.0984853,0.118978
 1\Quadrupole=0.7807456,0.6189684,-1.399714,-0.2967998,-0.1916394,-0.49
 95366\PG=C01 [X(C9H21N3)]\\@


 THERE IS NO CURE FOR BIRTH AND DEATH SAVE TO ENJOY THE INTERVAL.

                               -- GEORGE SANTAYANA
 Job cpu time:       0 days  0 hours 35 minutes 11.7 seconds.
 Elapsed time:       0 days  0 hours  5 minutes 53.2 seconds.
 File lengths (MBytes):  RWF=    458 Int=      0 D2E=      0 Chk=     67 Scr=      1
 Normal termination of Gaussian 16 at Mon Aug 27 13:30:26 2018.
