 Entering Gaussian System, Link 0=g16
 Input=science_add_17123.com
 Output=science_add_17123.log
 Initial command:
 /opt/export/g16/l1.exe "/scratch/bjs4/job.38462/Gau-38464.inp" -scrdir="/scratch/bjs4/job.38462/"
 Entering Link 1 = /opt/export/g16/l1.exe PID=     38466.
  
 Copyright (c) 1988,1990,1992,1993,1995,1998,2003,2009,2016,
            Gaussian, Inc.  All Rights Reserved.
  
 This is part of the Gaussian(R) 16 program.  It is based on
 the Gaussian(R) 09 system (copyright 2009, Gaussian, Inc.),
 the Gaussian(R) 03 system (copyright 2003, Gaussian, Inc.),
 the Gaussian(R) 98 system (copyright 1998, Gaussian, Inc.),
 the Gaussian(R) 94 system (copyright 1995, Gaussian, Inc.),
 the Gaussian 92(TM) system (copyright 1992, Gaussian, Inc.),
 the Gaussian 90(TM) system (copyright 1990, Gaussian, Inc.),
 the Gaussian 88(TM) system (copyright 1988, Gaussian, Inc.),
 the Gaussian 86(TM) system (copyright 1986, Carnegie Mellon
 University), and the Gaussian 82(TM) system (copyright 1983,
 Carnegie Mellon University). Gaussian is a federally registered
 trademark of Gaussian, Inc.
  
 This software contains proprietary and confidential information,
 including trade secrets, belonging to Gaussian, Inc.
  
 This software is provided under written license and may be
 used, copied, transmitted, or stored only in accord with that
 written license.
  
 The following legend is applicable only to US Government
 contracts under FAR:
  
                    RESTRICTED RIGHTS LEGEND
  
 Use, reproduction and disclosure by the US Government is
 subject to restrictions as set forth in subparagraphs (a)
 and (c) of the Commercial Computer Software - Restricted
 Rights clause in FAR 52.227-19.
  
 Gaussian, Inc.
 340 Quinnipiac St., Bldg. 40, Wallingford CT 06492
  
  
 ---------------------------------------------------------------
 Warning -- This program may not be used in any manner that
 competes with the business of Gaussian, Inc. or will provide
 assistance to any competitor of Gaussian, Inc.  The licensee
 of this program is prohibited from giving any competitor of
 Gaussian, Inc. access to this program.  By using this program,
 the user acknowledges that Gaussian, Inc. is engaged in the
 business of creating and licensing software in the field of
 computational chemistry and represents and warrants to the
 licensee that it is not a competitor of Gaussian, Inc. and that
 it will not use this program in any manner prohibited above.
 ---------------------------------------------------------------
  

 Cite this work as:
 Gaussian 16, Revision A.03,
 M. J. Frisch, G. W. Trucks, H. B. Schlegel, G. E. Scuseria, 
 M. A. Robb, J. R. Cheeseman, G. Scalmani, V. Barone, 
 G. A. Petersson, H. Nakatsuji, X. Li, M. Caricato, A. V. Marenich, 
 J. Bloino, B. G. Janesko, R. Gomperts, B. Mennucci, H. P. Hratchian, 
 J. V. Ortiz, A. F. Izmaylov, J. L. Sonnenberg, D. Williams-Young, 
 F. Ding, F. Lipparini, F. Egidi, J. Goings, B. Peng, A. Petrone, 
 T. Henderson, D. Ranasinghe, V. G. Zakrzewski, J. Gao, N. Rega, 
 G. Zheng, W. Liang, M. Hada, M. Ehara, K. Toyota, R. Fukuda, 
 J. Hasegawa, M. Ishida, T. Nakajima, Y. Honda, O. Kitao, H. Nakai, 
 T. Vreven, K. Throssell, J. A. Montgomery, Jr., J. E. Peralta, 
 F. Ogliaro, M. J. Bearpark, J. J. Heyd, E. N. Brothers, K. N. Kudin, 
 V. N. Staroverov, T. A. Keith, R. Kobayashi, J. Normand, 
 K. Raghavachari, A. P. Rendell, J. C. Burant, S. S. Iyengar, 
 J. Tomasi, M. Cossi, J. M. Millam, M. Klene, C. Adamo, R. Cammi, 
 J. W. Ochterski, R. L. Martin, K. Morokuma, O. Farkas, 
 J. B. Foresman, and D. J. Fox, Gaussian, Inc., Wallingford CT, 2016.
 
 ******************************************
 Gaussian 16:  ES64L-G16RevA.03 25-Dec-2016
                27-Aug-2018 
 ******************************************
 %nprocshared=4
 Will use up to    4 processors via shared memory.
 %Mem=8GB
 %Chk=science_add_171.chk
 -------------------------
 # opt b3lyp/6-31G* scf=qc
 -------------------------
 1/18=20,19=15,26=3,38=1/1,3;
 2/9=110,12=2,17=6,18=5,40=1/2;
 3/5=1,6=6,7=1,11=2,25=1,30=1,71=1,74=-5/1,2,3;
 4//1;
 5/5=2,8=3,38=5/8;
 6/7=2,8=2,9=2,10=2,28=1/1;
 7//1,2,3,16;
 1/18=20,19=15,26=3/3(2);
 2/9=110/2;
 99//99;
 2/9=110/2;
 3/5=1,6=6,7=1,11=2,25=1,30=1,71=1,74=-5/1,2,3;
 4/5=5,16=3,69=1/1;
 5/5=2,8=3,38=5/8;
 7//1,2,3,16;
 1/18=20,19=15,26=3/3(-5);
 2/9=110/2;
 6/7=2,8=2,9=2,10=2,19=2,28=1/1;
 99/9=1/99;
 -------------------
 Title Card Required
 -------------------
 Symbolic Z-matrix:
 Charge =  0 Multiplicity = 1
 C5                   -0.47924  -1.10402   0.093 
 C4                    0.63972  -0.38822   0.45467 
 H                     1.597    -0.7805    0.7608 
 C3                    0.25132   0.96636   0.3501 
 N2                   -1.01612   1.07698  -0.06181 
 O1                   -1.47062  -0.21958  -0.22235 
 C                     1.04859   2.1782    0.63832 
 C                    -0.80966  -2.52236  -0.00723 
 C                     0.13831  -3.50027   0.3324 
 C                    -0.17247  -4.86145   0.25257 
 C                    -1.43608  -5.26538  -0.1696 
 C                    -2.38861  -4.31022  -0.51371 
 C                    -2.0772   -2.94967  -0.43343 
 H                     2.06649   1.91719   0.94522 
 H                     0.58977   2.75513   1.44786 
 H                     1.11573   2.81718  -0.24791 
 H                     1.13277  -3.21776   0.66818 
 H                     0.57301  -5.60516   0.52265 
 H                    -1.67921  -6.32306  -0.22962 
 H                    -3.37676  -4.62047  -0.84369 
 H                    -2.84267  -2.22591  -0.70718 
 

 GradGradGradGradGradGradGradGradGradGradGradGradGradGradGradGradGradGrad
 Berny optimization.
 Initialization pass.
                           ----------------------------
                           !    Initial Parameters    !
                           ! (Angstroms and Degrees)  !
 --------------------------                            --------------------------
 ! Name  Definition              Value          Derivative Info.                !
 --------------------------------------------------------------------------------
 ! R1    R(1,2)                  1.3767         estimate D2E/DX2                !
 ! R2    R(1,6)                  1.3655         estimate D2E/DX2                !
 ! R3    R(1,8)                  1.4598         estimate D2E/DX2                !
 ! R4    R(2,3)                  1.0789         estimate D2E/DX2                !
 ! R5    R(2,4)                  1.413          estimate D2E/DX2                !
 ! R6    R(4,5)                  1.3373         estimate D2E/DX2                !
 ! R7    R(4,7)                  1.4789         estimate D2E/DX2                !
 ! R8    R(5,6)                  1.3833         estimate D2E/DX2                !
 ! R9    R(7,14)                 1.0947         estimate D2E/DX2                !
 ! R10   R(7,15)                 1.0949         estimate D2E/DX2                !
 ! R11   R(7,16)                 1.0946         estimate D2E/DX2                !
 ! R12   R(8,9)                  1.4037         estimate D2E/DX2                !
 ! R13   R(8,13)                 1.4039         estimate D2E/DX2                !
 ! R14   R(9,10)                 1.3985         estimate D2E/DX2                !
 ! R15   R(9,17)                 1.087          estimate D2E/DX2                !
 ! R16   R(10,11)                1.3922         estimate D2E/DX2                !
 ! R17   R(10,18)                1.0871         estimate D2E/DX2                !
 ! R18   R(11,12)                1.3921         estimate D2E/DX2                !
 ! R19   R(11,19)                1.0869         estimate D2E/DX2                !
 ! R20   R(12,13)                1.398          estimate D2E/DX2                !
 ! R21   R(12,20)                1.087          estimate D2E/DX2                !
 ! R22   R(13,21)                1.0884         estimate D2E/DX2                !
 ! A1    A(2,1,6)              108.3012         estimate D2E/DX2                !
 ! A2    A(2,1,8)              135.0082         estimate D2E/DX2                !
 ! A3    A(6,1,8)              116.6886         estimate D2E/DX2                !
 ! A4    A(1,2,3)              127.3497         estimate D2E/DX2                !
 ! A5    A(1,2,4)              104.8081         estimate D2E/DX2                !
 ! A6    A(3,2,4)              127.8389         estimate D2E/DX2                !
 ! A7    A(2,4,5)              111.2604         estimate D2E/DX2                !
 ! A8    A(2,4,7)              128.5282         estimate D2E/DX2                !
 ! A9    A(5,4,7)              120.2104         estimate D2E/DX2                !
 ! A10   A(4,5,6)              105.642          estimate D2E/DX2                !
 ! A11   A(1,6,5)              109.9842         estimate D2E/DX2                !
 ! A12   A(4,7,14)             111.132          estimate D2E/DX2                !
 ! A13   A(4,7,15)             110.4849         estimate D2E/DX2                !
 ! A14   A(4,7,16)             110.7078         estimate D2E/DX2                !
 ! A15   A(14,7,15)            107.9391         estimate D2E/DX2                !
 ! A16   A(14,7,16)            108.0061         estimate D2E/DX2                !
 ! A17   A(15,7,16)            108.4657         estimate D2E/DX2                !
 ! A18   A(1,8,9)              120.4927         estimate D2E/DX2                !
 ! A19   A(1,8,13)             121.3961         estimate D2E/DX2                !
 ! A20   A(9,8,13)             118.1097         estimate D2E/DX2                !
 ! A21   A(8,9,10)             120.9441         estimate D2E/DX2                !
 ! A22   A(8,9,17)             120.7666         estimate D2E/DX2                !
 ! A23   A(10,9,17)            118.2889         estimate D2E/DX2                !
 ! A24   A(9,10,11)            120.0942         estimate D2E/DX2                !
 ! A25   A(9,10,18)            119.9536         estimate D2E/DX2                !
 ! A26   A(11,10,18)           119.952          estimate D2E/DX2                !
 ! A27   A(10,11,12)           119.7969         estimate D2E/DX2                !
 ! A28   A(10,11,19)           120.1403         estimate D2E/DX2                !
 ! A29   A(12,11,19)           120.0628         estimate D2E/DX2                !
 ! A30   A(11,12,13)           120.0733         estimate D2E/DX2                !
 ! A31   A(11,12,20)           120.0796         estimate D2E/DX2                !
 ! A32   A(13,12,20)           119.847          estimate D2E/DX2                !
 ! A33   A(8,13,12)            120.9815         estimate D2E/DX2                !
 ! A34   A(8,13,21)            120.5923         estimate D2E/DX2                !
 ! A35   A(12,13,21)           118.426          estimate D2E/DX2                !
 ! D1    D(6,1,2,3)            179.9948         estimate D2E/DX2                !
 ! D2    D(6,1,2,4)              0.6231         estimate D2E/DX2                !
 ! D3    D(8,1,2,3)              0.5556         estimate D2E/DX2                !
 ! D4    D(8,1,2,4)           -178.8162         estimate D2E/DX2                !
 ! D5    D(2,1,6,5)             -0.431          estimate D2E/DX2                !
 ! D6    D(8,1,6,5)            179.1253         estimate D2E/DX2                !
 ! D7    D(2,1,8,9)              1.108          estimate D2E/DX2                !
 ! D8    D(2,1,8,13)          -179.3447         estimate D2E/DX2                !
 ! D9    D(6,1,8,9)           -178.2961         estimate D2E/DX2                !
 ! D10   D(6,1,8,13)             1.2512         estimate D2E/DX2                !
 ! D11   D(1,2,4,5)             -0.6271         estimate D2E/DX2                !
 ! D12   D(1,2,4,7)            178.9917         estimate D2E/DX2                !
 ! D13   D(3,2,4,5)           -179.9947         estimate D2E/DX2                !
 ! D14   D(3,2,4,7)             -0.3759         estimate D2E/DX2                !
 ! D15   D(2,4,5,6)              0.3713         estimate D2E/DX2                !
 ! D16   D(7,4,5,6)           -179.2836         estimate D2E/DX2                !
 ! D17   D(2,4,7,14)             1.4775         estimate D2E/DX2                !
 ! D18   D(2,4,7,15)          -118.3174         estimate D2E/DX2                !
 ! D19   D(2,4,7,16)           121.5042         estimate D2E/DX2                !
 ! D20   D(5,4,7,14)          -178.9336         estimate D2E/DX2                !
 ! D21   D(5,4,7,15)            61.2715         estimate D2E/DX2                !
 ! D22   D(5,4,7,16)           -58.9069         estimate D2E/DX2                !
 ! D23   D(4,5,6,1)              0.0348         estimate D2E/DX2                !
 ! D24   D(1,8,9,10)           179.361          estimate D2E/DX2                !
 ! D25   D(1,8,9,17)            -0.406          estimate D2E/DX2                !
 ! D26   D(13,8,9,10)           -0.2009         estimate D2E/DX2                !
 ! D27   D(13,8,9,17)         -179.968          estimate D2E/DX2                !
 ! D28   D(1,8,13,12)         -179.3669         estimate D2E/DX2                !
 ! D29   D(1,8,13,21)            0.4749         estimate D2E/DX2                !
 ! D30   D(9,8,13,12)            0.1909         estimate D2E/DX2                !
 ! D31   D(9,8,13,21)         -179.9673         estimate D2E/DX2                !
 ! D32   D(8,9,10,11)            0.0653         estimate D2E/DX2                !
 ! D33   D(8,9,10,18)         -179.8001         estimate D2E/DX2                !
 ! D34   D(17,9,10,11)         179.838          estimate D2E/DX2                !
 ! D35   D(17,9,10,18)          -0.0274         estimate D2E/DX2                !
 ! D36   D(9,10,11,12)           0.0858         estimate D2E/DX2                !
 ! D37   D(9,10,11,19)        -179.8517         estimate D2E/DX2                !
 ! D38   D(18,10,11,12)        179.9512         estimate D2E/DX2                !
 ! D39   D(18,10,11,19)          0.0137         estimate D2E/DX2                !
 ! D40   D(10,11,12,13)         -0.0958         estimate D2E/DX2                !
 ! D41   D(10,11,12,20)       -179.9842         estimate D2E/DX2                !
 ! D42   D(19,11,12,13)        179.8418         estimate D2E/DX2                !
 ! D43   D(19,11,12,20)         -0.0466         estimate D2E/DX2                !
 ! D44   D(11,12,13,8)          -0.0451         estimate D2E/DX2                !
 ! D45   D(11,12,13,21)       -179.8902         estimate D2E/DX2                !
 ! D46   D(20,12,13,8)         179.8435         estimate D2E/DX2                !
 ! D47   D(20,12,13,21)         -0.0016         estimate D2E/DX2                !
 --------------------------------------------------------------------------------
 Trust Radius=3.00D-01 FncErr=1.00D-07 GrdErr=1.00D-06 EigMax=2.50D+02 EigMin=1.00D-04
 Number of steps in this run=    114 maximum allowed number of steps=    126.
 GradGradGradGradGradGradGradGradGradGradGradGradGradGradGradGradGradGrad

                          Input orientation:                          
 ---------------------------------------------------------------------
 Center     Atomic      Atomic             Coordinates (Angstroms)
 Number     Number       Type             X           Y           Z
 ---------------------------------------------------------------------
      1          6           0       -0.479240   -1.104020    0.093000
      2          6           0        0.639720   -0.388220    0.454670
      3          1           0        1.597000   -0.780500    0.760800
      4          6           0        0.251320    0.966360    0.350100
      5          7           0       -1.016120    1.076980   -0.061810
      6          8           0       -1.470620   -0.219580   -0.222350
      7          6           0        1.048590    2.178200    0.638320
      8          6           0       -0.809660   -2.522360   -0.007230
      9          6           0        0.138310   -3.500270    0.332400
     10          6           0       -0.172470   -4.861450    0.252570
     11          6           0       -1.436080   -5.265380   -0.169600
     12          6           0       -2.388610   -4.310220   -0.513710
     13          6           0       -2.077200   -2.949670   -0.433430
     14          1           0        2.066490    1.917190    0.945220
     15          1           0        0.589770    2.755130    1.447860
     16          1           0        1.115730    2.817180   -0.247910
     17          1           0        1.132770   -3.217760    0.668180
     18          1           0        0.573010   -5.605160    0.522650
     19          1           0       -1.679210   -6.323060   -0.229620
     20          1           0       -3.376760   -4.620470   -0.843690
     21          1           0       -2.842670   -2.225910   -0.707180
 ---------------------------------------------------------------------
                    Distance matrix (angstroms):
                    1          2          3          4          5
     1  C    0.000000
     2  C    1.376679   0.000000
     3  H    2.204857   1.078881   0.000000
     4  C    2.210496   1.413038   2.243000   0.000000
     5  N    2.251437   2.270544   3.309881   1.337277   0.000000
     6  O    1.365472   2.222685   3.269787   2.167771   1.383261
     7  C    3.661230   2.605267   3.011588   1.478941   2.442518
     8  C    1.459764   2.620803   3.068543   3.663950   3.605670
     9  C    2.486100   3.154555   3.115839   4.468094   4.737017
    10  C    3.773308   4.550855   4.476994   5.844012   6.006291
    11  C    4.278016   5.337167   5.493575   6.477036   6.357163
    12  C    3.780676   5.048824   5.474339   5.963027   5.577622
    13  C    2.497404   3.838151   4.430714   4.622901   4.180658
    14  H    4.041625   2.755218   2.744442   2.133797   3.350007
    15  H    4.227466   3.296903   3.739952   2.125870   2.770230
    16  H    4.246876   3.315840   3.767283   2.128463   2.758208
    17  H    2.719799   2.880101   2.482806   4.287772   4.857510
    18  H    4.642423   5.217809   4.937876   6.581651   6.893324
    19  H    5.364922   6.408433   6.514173   7.562980   7.431584
    20  H    4.651713   5.977440   6.485218   6.767627   6.216502
    21  H    2.735823   4.105367   4.894369   4.569595   3.829082
                    6          7          8          9         10
     6  O    0.000000
     7  C    3.582809   0.000000
     8  C    2.405398   5.095595   0.000000
     9  C    3.695853   5.759099   1.403675   0.000000
    10  C    4.843315   7.155170   2.438206   1.398488   0.000000
    11  C    5.046194   7.888802   2.818319   2.417917   1.392156
    12  C    4.202491   7.432436   2.438452   2.785183   2.408800
    13  C    2.804619   6.100349   1.403887   2.407933   2.784510
    14  H    4.294200   1.094730   5.374849   5.782932   7.172354
    15  H    3.985437   1.094860   5.650451   6.370094   7.747388
    16  H    3.988956   1.094626   5.681174   6.418901   7.802006
    17  H    4.069369   5.396699   2.170897   1.086973   2.139649
    18  H    5.808263   7.798734   3.419971   2.157712   1.087101
    19  H    6.107048   8.970264   3.905239   3.404025   2.153852
    20  H    4.836038   8.246332   3.419318   3.872177   3.395192
    21  H    2.478496   6.028968   2.170471   3.404550   3.872617
                   11         12         13         14         15
    11  C    0.000000
    12  C    1.392141   0.000000
    13  C    2.417262   1.398041   0.000000
    14  H    8.068465   7.794679   6.538897   0.000000
    15  H    8.429047   7.914397   6.572421   1.770732   0.000000
    16  H    8.476181   7.946753   6.594375   1.771295   1.776547
    17  H    3.390223   3.871750   3.404310   5.226499   6.047988
    18  H    2.152000   3.394423   3.871606   7.680807   8.411346
    19  H    1.086923   2.153017   3.402895   9.127554   9.506616
    20  H    2.153264   1.087006   2.156094   8.693110   8.682398
    21  H    3.392030   2.141950   1.088445   6.632915   6.421573
                   16         17         18         19         20
    16  H    0.000000
    17  H    6.104098   0.000000
    18  H    8.474911   2.456459   0.000000
    19  H    9.558034   4.284409   2.480682   0.000000
    20  H    8.709538   4.958751   4.293854   2.481445   0.000000
    21  H    6.427489   4.321979   4.959706   4.285830   2.457194
                   21
    21  H    0.000000
 Stoichiometry    C10H9NO
 Framework group  C1[X(C10H9NO)]
 Deg. of freedom    57
 Full point group                 C1      NOp   1
 Largest Abelian subgroup         C1      NOp   1
 Largest concise Abelian subgroup C1      NOp   1
                         Standard orientation:                         
 ---------------------------------------------------------------------
 Center     Atomic      Atomic             Coordinates (Angstroms)
 Number     Number       Type             X           Y           Z
 ---------------------------------------------------------------------
      1          6           0       -0.578070   -0.025089   -0.020532
      2          6           0       -1.585613    0.912958   -0.033621
      3          1           0       -1.480201    1.986508   -0.052629
      4          6           0       -2.780744    0.159751   -0.001714
      5          7           0       -2.526284   -1.152984    0.015295
      6          8           0       -1.147690   -1.265852    0.002988
      7          6           0       -4.176744    0.647528    0.021158
      8          6           0        0.880765    0.026798   -0.016096
      9          6           0        1.549553    1.260840   -0.003129
     10          6           0        2.946613    1.321471    0.014595
     11          6           0        3.696251    0.148387    0.018249
     12          6           0        3.050909   -1.085038    0.002396
     13          6           0        1.654255   -1.144786   -0.015107
     14          1           0       -4.213395    1.741014   -0.015955
     15          1           0       -4.680644    0.324141    0.937796
     16          1           0       -4.735945    0.260913   -0.836765
     17          1           0        0.993356    2.194733   -0.002825
     18          1           0        3.447929    2.285991    0.027748
     19          1           0        4.782069    0.194625    0.034453
     20          1           0        3.631702   -2.003871    0.005431
     21          1           0        1.177603   -2.123258   -0.025416
 ---------------------------------------------------------------------
 Rotational constants (GHZ):           3.2181910           0.4979916           0.4324664
 Standard basis: 6-31G(d) (6D, 7F)
 There are   198 symmetry adapted cartesian basis functions of A   symmetry.
 There are   198 symmetry adapted basis functions of A   symmetry.
   198 basis functions,   372 primitive gaussians,   198 cartesian basis functions
    42 alpha electrons       42 beta electrons
       nuclear repulsion energy       626.2847668497 Hartrees.
 NAtoms=   21 NActive=   21 NUniq=   21 SFac= 1.00D+00 NAtFMM=   60 NAOKFM=F Big=F
 Integral buffers will be    131072 words long.
 Raffenetti 2 integral format.
 Two-electron integral symmetry is turned on.
 One-electron integrals computed using PRISM.
 NBasis=   198 RedAO= T EigKep=  4.50D-04  NBF=   198
 NBsUse=   198 1.00D-06 EigRej= -1.00D+00 NBFU=   198
 ExpMin= 1.61D-01 ExpMax= 5.48D+03 ExpMxC= 8.25D+02 IAcc=3 IRadAn=         5 AccDes= 0.00D+00
 Harris functional with IExCor=  402 and IRadAn=       5 diagonalized for initial guess.
 HarFok:  IExCor=  402 AccDes= 0.00D+00 IRadAn=         5 IDoV= 1 UseB2=F ITyADJ=14
 ICtDFT=  3500011 ScaDFX=  1.000000  1.000000  1.000000  1.000000
 FoFCou: FMM=F IPFlag=           0 FMFlag=      100000 FMFlg1=           0
         NFxFlg=           0 DoJE=T BraDBF=F KetDBF=T FulRan=T
         wScrn=  0.000000 ICntrl=       500 IOpCl=  0 I1Cent=   200000004 NGrid=           0
         NMat0=    1 NMatS0=      1 NMatT0=    0 NMatD0=    1 NMtDS0=    0 NMtDT0=    0
 Petite list used in FoFCou.
 Keep R1 ints in memory in canonical form, NReq=198177116.
 Gradient too large for Newton-Raphson -- use scaled steepest descent instead.
     Accept linear search using points  2 and  3.
 Gradient too large for Newton-Raphson -- use scaled steepest descent instead.
     Accept linear search using points  2 and  3.
 Gradient too large for Newton-Raphson -- use scaled steepest descent instead.
 Gradient too large for Newton-Raphson -- use scaled steepest descent instead.
     Accept linear search using points  1 and  2.
 Gradient too large for Newton-Raphson -- use scaled steepest descent instead.
     Accept linear search using points  2 and  3.
 LinEq1:  Iter=  0 NonCon=     1 RMS=3.23D-05 Max=1.04D-03 NDo=     1
 AX will form     1 AO Fock derivatives at one time.
 LinEq1:  Iter=  1 NonCon=     1 RMS=3.22D-05 Max=1.25D-03 NDo=     1
 LinEq1:  Iter=  2 NonCon=     1 RMS=9.54D-06 Max=2.65D-04 NDo=     1
 LinEq1:  Iter=  3 NonCon=     1 RMS=9.76D-06 Max=3.99D-04 NDo=     1
 LinEq1:  Iter=  4 NonCon=     1 RMS=4.06D-06 Max=1.11D-04 NDo=     1
 LinEq1:  Iter=  5 NonCon=     1 RMS=1.95D-06 Max=6.67D-05 NDo=     1
 LinEq1:  Iter=  6 NonCon=     1 RMS=1.05D-06 Max=2.38D-05 NDo=     1
 LinEq1:  Iter=  7 NonCon=     1 RMS=5.33D-07 Max=1.57D-05 NDo=     1
 LinEq1:  Iter=  8 NonCon=     1 RMS=3.68D-07 Max=9.37D-06 NDo=     1
 LinEq1:  Iter=  9 NonCon=     1 RMS=2.73D-07 Max=7.41D-06 NDo=     1
 LinEq1:  Iter= 10 NonCon=     1 RMS=1.43D-07 Max=4.28D-06 NDo=     1
 LinEq1:  Iter= 11 NonCon=     1 RMS=7.78D-08 Max=2.35D-06 NDo=     1
 LinEq1:  Iter= 12 NonCon=     1 RMS=3.18D-08 Max=1.00D-06 NDo=     1
 LinEq1:  Iter= 13 NonCon=     1 RMS=2.43D-08 Max=8.50D-07 NDo=     1
 LinEq1:  Iter= 14 NonCon=     1 RMS=1.17D-08 Max=1.82D-07 NDo=     1
 LinEq1:  Iter= 15 NonCon=     0 RMS=4.72D-09 Max=6.46D-08 NDo=     1
 Linear equations converged to 1.145D-08 1.145D-07 after    15 iterations.
     Accept linear search using points  1 and  2.
     Minimum is close to point  2 DX= -2.70D-05 DF=  0.00D+00 DXR=  2.70D-05 DFR=  0.00D+00 which will be used.
 SCF Done:  E(RB3LYP) =  -516.418953665     a.u. after    7 cycles
            Convg  =    0.9869D-06                    31 Fock formations.
              S**2 =  0.0000                  -V/T =  2.0095

 **********************************************************************

            Population analysis using the SCF density.

 **********************************************************************

 Orbital symmetries:
       Occupied  (A) (A) (A) (A) (A) (A) (A) (A) (A) (A) (A) (A)
                 (A) (A) (A) (A) (A) (A) (A) (A) (A) (A) (A) (A)
                 (A) (A) (A) (A) (A) (A) (A) (A) (A) (A) (A) (A)
                 (A) (A) (A) (A) (A) (A)
       Virtual   (A) (A) (A) (A) (A) (A) (A) (A) (A) (A) (A) (A)
                 (A) (A) (A) (A) (A) (A) (A) (A) (A) (A) (A) (A)
                 (A) (A) (A) (A) (A) (A) (A) (A) (A) (A) (A) (A)
                 (A) (A) (A) (A) (A) (A) (A) (A) (A) (A) (A) (A)
                 (A) (A) (A) (A) (A) (A) (A) (A) (A) (A) (A) (A)
                 (A) (A) (A) (A) (A) (A) (A) (A) (A) (A) (A) (A)
                 (A) (A) (A) (A) (A) (A) (A) (A) (A) (A) (A) (A)
                 (A) (A) (A) (A) (A) (A) (A) (A) (A) (A) (A) (A)
                 (A) (A) (A) (A) (A) (A) (A) (A) (A) (A) (A) (A)
                 (A) (A) (A) (A) (A) (A) (A) (A) (A) (A) (A) (A)
                 (A) (A) (A) (A) (A) (A) (A) (A) (A) (A) (A) (A)
                 (A) (A) (A) (A) (A) (A) (A) (A) (A) (A) (A) (A)
                 (A) (A) (A) (A) (A) (A) (A) (A) (A) (A) (A) (A)
 The electronic state is 1-A.
 Alpha  occ. eigenvalues --  -19.22846 -14.36864 -10.25835 -10.22533 -10.21475
 Alpha  occ. eigenvalues --  -10.20283 -10.19917 -10.19884 -10.19801 -10.19738
 Alpha  occ. eigenvalues --  -10.19405 -10.19275  -1.13285  -0.87345  -0.85715
 Alpha  occ. eigenvalues --   -0.80489  -0.75249  -0.74717  -0.72438  -0.63671
 Alpha  occ. eigenvalues --   -0.61833  -0.59018  -0.55732  -0.53256  -0.49198
 Alpha  occ. eigenvalues --   -0.47008  -0.46730  -0.45529  -0.43590  -0.42723
 Alpha  occ. eigenvalues --   -0.42096  -0.41670  -0.39169  -0.37699  -0.37565
 Alpha  occ. eigenvalues --   -0.35759  -0.35052  -0.29430  -0.29309  -0.28030
 Alpha  occ. eigenvalues --   -0.25755  -0.22634
 Alpha virt. eigenvalues --   -0.04618  -0.00890   0.02523   0.07769   0.08382
 Alpha virt. eigenvalues --    0.10407   0.11354   0.13304   0.14281   0.14833
 Alpha virt. eigenvalues --    0.16314   0.17173   0.18386   0.18795   0.19916
 Alpha virt. eigenvalues --    0.22793   0.24438   0.25723   0.28333   0.29928
 Alpha virt. eigenvalues --    0.32335   0.33216   0.36162   0.42770   0.44463
 Alpha virt. eigenvalues --    0.46896   0.50395   0.50439   0.52776   0.53448
 Alpha virt. eigenvalues --    0.53970   0.55326   0.56038   0.56831   0.57855
 Alpha virt. eigenvalues --    0.58816   0.59222   0.60390   0.61297   0.62131
 Alpha virt. eigenvalues --    0.62696   0.63336   0.65029   0.66561   0.67916
 Alpha virt. eigenvalues --    0.68455   0.71665   0.74155   0.75436   0.78460
 Alpha virt. eigenvalues --    0.78730   0.82119   0.82255   0.83009   0.84070
 Alpha virt. eigenvalues --    0.84832   0.86368   0.86916   0.88839   0.89532
 Alpha virt. eigenvalues --    0.90476   0.92648   0.93216   0.94949   0.97225
 Alpha virt. eigenvalues --    0.97843   1.00003   1.02926   1.08071   1.09802
 Alpha virt. eigenvalues --    1.10879   1.15734   1.18008   1.19546   1.24429
 Alpha virt. eigenvalues --    1.24890   1.26390   1.31337   1.34075   1.36048
 Alpha virt. eigenvalues --    1.37502   1.40213   1.42259   1.44808   1.45769
 Alpha virt. eigenvalues --    1.47599   1.47718   1.48566   1.50568   1.51268
 Alpha virt. eigenvalues --    1.53538   1.55523   1.63273   1.73110   1.78472
 Alpha virt. eigenvalues --    1.79251   1.81024   1.83587   1.86819   1.89005
 Alpha virt. eigenvalues --    1.91486   1.91604   1.93812   1.94425   1.97255
 Alpha virt. eigenvalues --    2.01021   2.04201   2.08367   2.10887   2.12670
 Alpha virt. eigenvalues --    2.12779   2.14134   2.16262   2.17609   2.22067
 Alpha virt. eigenvalues --    2.23772   2.24192   2.25063   2.28648   2.29000
 Alpha virt. eigenvalues --    2.29821   2.33621   2.37214   2.42158   2.49115
 Alpha virt. eigenvalues --    2.53917   2.54974   2.57606   2.57937   2.60782
 Alpha virt. eigenvalues --    2.65935   2.66237   2.69268   2.73774   2.75234
 Alpha virt. eigenvalues --    2.76621   2.81407   2.87846   2.90228   2.99542
 Alpha virt. eigenvalues --    3.04256   3.13005   3.26301   3.42698   3.78977
 Alpha virt. eigenvalues --    4.06411   4.08410   4.10658   4.10792   4.18097
 Alpha virt. eigenvalues --    4.27910   4.31549   4.36288   4.42016   4.55364
 Alpha virt. eigenvalues --    4.74021
          Condensed to atoms (all electrons):
               1          2          3          4          5          6
     1  C    4.780318   0.507344  -0.031428  -0.022953  -0.091271   0.248843
     2  C    0.507344   5.198518   0.350213   0.470577  -0.027237  -0.089207
     3  H   -0.031428   0.350213   0.556468  -0.031091   0.005300   0.003655
     4  C   -0.022953   0.470577  -0.031091   4.635808   0.399775  -0.049988
     5  N   -0.091271  -0.027237   0.005300   0.399775   6.859220   0.134574
     6  O    0.248843  -0.089207   0.003655  -0.049988   0.134574   8.169046
     7  C    0.003339  -0.056767  -0.001990   0.354573  -0.073367   0.005956
     8  C    0.334801  -0.057916  -0.003208   0.004287   0.004297  -0.037227
     9  C   -0.046058  -0.019334   0.001315   0.000501  -0.000105   0.003018
    10  C    0.006182   0.000209   0.000070  -0.000005   0.000001  -0.000057
    11  C    0.000804   0.000010  -0.000000   0.000000  -0.000000   0.000001
    12  C    0.004487  -0.000181   0.000001   0.000004   0.000000   0.000319
    13  C   -0.040157   0.011274  -0.000120  -0.000260   0.000163  -0.005312
    14  H    0.000036  -0.003198   0.002147  -0.025064   0.003656  -0.000119
    15  H    0.000051   0.001700  -0.000045  -0.024664  -0.002318  -0.000009
    16  H    0.000053   0.001975  -0.000048  -0.024324  -0.002029  -0.000018
    17  H   -0.011994   0.005273   0.002094   0.000050  -0.000002   0.000021
    18  H   -0.000198  -0.000001  -0.000002   0.000000  -0.000000   0.000000
    19  H    0.000005  -0.000000  -0.000000  -0.000000   0.000000   0.000000
    20  H   -0.000169   0.000001   0.000000  -0.000000  -0.000000  -0.000002
    21  H   -0.012401   0.000186  -0.000007   0.000067  -0.000231   0.009037
               7          8          9         10         11         12
     1  C    0.003339   0.334801  -0.046058   0.006182   0.000804   0.004487
     2  C   -0.056767  -0.057916  -0.019334   0.000209   0.000010  -0.000181
     3  H   -0.001990  -0.003208   0.001315   0.000070  -0.000000   0.000001
     4  C    0.354573   0.004287   0.000501  -0.000005   0.000000   0.000004
     5  N   -0.073367   0.004297  -0.000105   0.000001  -0.000000   0.000000
     6  O    0.005956  -0.037227   0.003018  -0.000057   0.000001   0.000319
     7  C    5.190906  -0.000281   0.000005   0.000000   0.000000  -0.000000
     8  C   -0.000281   4.767988   0.537875  -0.009325  -0.033135  -0.010646
     9  C    0.000005   0.537875   5.013757   0.520897  -0.037588  -0.042376
    10  C    0.000000  -0.009325   0.520897   4.861647   0.548773  -0.025755
    11  C    0.000000  -0.033135  -0.037588   0.548773   4.849080   0.545770
    12  C   -0.000000  -0.010646  -0.042376  -0.025755   0.545770   4.873229
    13  C   -0.000002   0.476666  -0.081401  -0.042888  -0.035523   0.507389
    14  H    0.365012  -0.000004   0.000000   0.000000  -0.000000   0.000000
    15  H    0.366444   0.000005  -0.000000  -0.000000   0.000000   0.000000
    16  H    0.365925   0.000005  -0.000000  -0.000000   0.000000   0.000000
    17  H   -0.000000  -0.038004   0.351648  -0.045194   0.004831   0.000288
    18  H   -0.000000   0.003219  -0.038445   0.358720  -0.042375   0.004620
    19  H   -0.000000   0.000601   0.004942  -0.043215   0.359341  -0.042950
    20  H    0.000000   0.003146   0.000855   0.004594  -0.042743   0.359801
    21  H   -0.000001  -0.037428   0.005418   0.000342   0.004634  -0.043869
              13         14         15         16         17         18
     1  C   -0.040157   0.000036   0.000051   0.000053  -0.011994  -0.000198
     2  C    0.011274  -0.003198   0.001700   0.001975   0.005273  -0.000001
     3  H   -0.000120   0.002147  -0.000045  -0.000048   0.002094  -0.000002
     4  C   -0.000260  -0.025064  -0.024664  -0.024324   0.000050   0.000000
     5  N    0.000163   0.003656  -0.002318  -0.002029  -0.000002  -0.000000
     6  O   -0.005312  -0.000119  -0.000009  -0.000018   0.000021   0.000000
     7  C   -0.000002   0.365012   0.366444   0.365925  -0.000000  -0.000000
     8  C    0.476666  -0.000004   0.000005   0.000005  -0.038004   0.003219
     9  C   -0.081401   0.000000  -0.000000  -0.000000   0.351648  -0.038445
    10  C   -0.042888   0.000000  -0.000000  -0.000000  -0.045194   0.358720
    11  C   -0.035523  -0.000000   0.000000   0.000000   0.004831  -0.042375
    12  C    0.507389   0.000000   0.000000   0.000000   0.000288   0.004620
    13  C    5.049684   0.000000  -0.000000  -0.000000   0.006024   0.000834
    14  H    0.000000   0.553541  -0.027790  -0.027508   0.000000   0.000000
    15  H   -0.000000  -0.027790   0.528863  -0.024598  -0.000000   0.000000
    16  H   -0.000000  -0.027508  -0.024598   0.528243  -0.000000   0.000000
    17  H    0.006024   0.000000  -0.000000  -0.000000   0.597207  -0.005432
    18  H    0.000834   0.000000   0.000000   0.000000  -0.005432   0.589040
    19  H    0.004761   0.000000   0.000000   0.000000  -0.000181  -0.005577
    20  H   -0.037652   0.000000  -0.000000  -0.000000   0.000016  -0.000187
    21  H    0.359443   0.000000  -0.000000  -0.000000  -0.000148   0.000015
              19         20         21
     1  C    0.000005  -0.000169  -0.012401
     2  C   -0.000000   0.000001   0.000186
     3  H   -0.000000   0.000000  -0.000007
     4  C   -0.000000  -0.000000   0.000067
     5  N    0.000000  -0.000000  -0.000231
     6  O    0.000000  -0.000002   0.009037
     7  C   -0.000000   0.000000  -0.000001
     8  C    0.000601   0.003146  -0.037428
     9  C    0.004942   0.000855   0.005418
    10  C   -0.043215   0.004594   0.000342
    11  C    0.359341  -0.042743   0.004634
    12  C   -0.042950   0.359801  -0.043869
    13  C    0.004761  -0.037652   0.359443
    14  H    0.000000   0.000000   0.000000
    15  H    0.000000  -0.000000  -0.000000
    16  H    0.000000  -0.000000  -0.000000
    17  H   -0.000181   0.000016  -0.000148
    18  H   -0.005577  -0.000187   0.000015
    19  H    0.593270  -0.005501  -0.000170
    20  H   -0.005501   0.584500  -0.005160
    21  H   -0.000170  -0.005160   0.559732
 Mulliken charges:
               1
     1  C    0.370364
     2  C   -0.293439
     3  H    0.146679
     4  C    0.312709
     5  N   -0.210425
     6  O   -0.392529
     7  C   -0.519751
     8  C    0.094283
     9  C   -0.174924
    10  C   -0.134994
    11  C   -0.121881
    12  C   -0.130132
    13  C   -0.172923
    14  H    0.159290
    15  H    0.182360
    16  H    0.182324
    17  H    0.133504
    18  H    0.135770
    19  H    0.134674
    20  H    0.138501
    21  H    0.160540
 Sum of Mulliken charges =   0.00000
 Mulliken charges with hydrogens summed into heavy atoms:
               1
     1  C    0.370364
     2  C   -0.146760
     4  C    0.312709
     5  N   -0.210425
     6  O   -0.392529
     7  C    0.004224
     8  C    0.094283
     9  C   -0.041420
    10  C    0.000776
    11  C    0.012793
    12  C    0.008368
    13  C   -0.012383
 Electronic spatial extent (au):  <R**2>=           2487.7061
 Charge=              0.0000 electrons
 Dipole moment (field-independent basis, Debye):
    X=              1.1916    Y=              2.7437    Z=             -0.0092  Tot=              2.9913
 Quadrupole moment (field-independent basis, Debye-Ang):
   XX=            -59.0105   YY=            -66.0950   ZZ=            -71.9416
   XY=             -7.1328   XZ=              0.1056   YZ=              0.0671
 Traceless Quadrupole moment (field-independent basis, Debye-Ang):
   XX=              6.6719   YY=             -0.4126   ZZ=             -6.2593
   XY=             -7.1328   XZ=              0.1056   YZ=              0.0671
 Octapole moment (field-independent basis, Debye-Ang**2):
  XXX=              0.5442  YYY=              5.4651  ZZZ=              0.2628  XYY=             13.6407
  XXY=             16.1794  XXZ=              0.5554  XZZ=            -10.9676  YZZ=             -3.3740
  YYZ=             -0.2089  XYZ=             -0.0210
 Hexadecapole moment (field-independent basis, Debye-Ang**3):
 XXXX=          -2527.0924 YYYY=           -459.9175 ZZZZ=            -77.7962 XXXY=            -43.8791
 XXXZ=              2.3008 YYYX=            -17.5450 YYYZ=              0.0165 ZZZX=             -0.8985
 ZZZY=              0.0908 XXYY=           -537.9542 XXZZ=           -499.2271 YYZZ=           -101.0417
 XXYZ=              0.9959 YYXZ=              0.7682 ZZXY=              3.0040
 N-N= 6.262847668497D+02 E-N=-2.451865367425D+03  KE= 5.115387045743D+02
 Calling FoFJK, ICntrl=      2127 FMM=F ISym2X=0 I1Cent= 0 IOpClX= 0 NMat=1 NMatS=1 NMatT=0.
 ***** Axes restored to original set *****
 -------------------------------------------------------------------
 Center     Atomic                   Forces (Hartrees/Bohr)
 Number     Number              X              Y              Z
 -------------------------------------------------------------------
      1        6          -0.004943468    0.007805405   -0.002161773
      2        6          -0.006060345   -0.009301502   -0.000890458
      3        1           0.000899043    0.000573486    0.000336125
      4        6          -0.021906078   -0.004635043   -0.007902576
      5        7           0.016901656    0.003325208    0.005768544
      6        8           0.005566196   -0.009593139    0.001910119
      7        6           0.007547413    0.008606937    0.002394757
      8        6           0.001678590   -0.002587029    0.000450019
      9        6           0.003563183   -0.007525805    0.001412775
     10        6           0.002740239    0.005725961    0.000755774
     11        6          -0.001534702   -0.004624375   -0.000441590
     12        6           0.001400631    0.005792467    0.000369755
     13        6          -0.009024692   -0.002023002   -0.002931243
     14        1          -0.000671863   -0.000150626   -0.000269081
     15        1           0.000405899    0.001845981   -0.000723711
     16        1          -0.000240960    0.001748400    0.000867286
     17        1          -0.000795502    0.002156153   -0.000265663
     18        1           0.000317501    0.001099188    0.000022148
     19        1           0.000202199   -0.000024705    0.000019559
     20        1           0.000306854    0.000998968    0.000025373
     21        1           0.003648206    0.000787071    0.001253859
 -------------------------------------------------------------------
 Cartesian Forces:  Max     0.021906078 RMS     0.005163984

 GradGradGradGradGradGradGradGradGradGradGradGradGradGradGradGradGradGrad
 Berny optimization.
 FormGI is forming the generalized inverse of G from B-inverse, IUseBI=4.
 Internal  Forces:  Max     0.015960163 RMS     0.002819739
 Search for a local minimum.
 Step number   1 out of a maximum of  114
 All quantities printed in internal units (Hartrees-Bohrs-Radians)
 Mixed Optimization -- RFO/linear search
 Second derivative matrix not updated -- first step.
 ITU=  0
     Eigenvalues ---    0.01045   0.01298   0.01540   0.01809   0.01853
     Eigenvalues ---    0.02050   0.02061   0.02072   0.02078   0.02113
     Eigenvalues ---    0.02146   0.02155   0.02173   0.02193   0.02210
     Eigenvalues ---    0.02227   0.07417   0.07463   0.15998   0.16000
     Eigenvalues ---    0.16000   0.16000   0.16000   0.16000   0.16000
     Eigenvalues ---    0.16000   0.16000   0.22000   0.22000   0.23469
     Eigenvalues ---    0.23796   0.24999   0.24999   0.24999   0.25000
     Eigenvalues ---    0.34257   0.34272   0.34283   0.34691   0.34993
     Eigenvalues ---    0.35150   0.35161   0.35165   0.35171   0.36130
     Eigenvalues ---    0.36994   0.40973   0.41555   0.41816   0.45207
     Eigenvalues ---    0.45435   0.45910   0.46154   0.46787   0.47974
     Eigenvalues ---    0.50220   0.56100
 RFO step:  Lambda=-2.18823957D-03 EMin= 1.04451806D-02
 Linear search not attempted -- first point.
 Iteration  1 RMS(Cart)=  0.02435731 RMS(Int)=  0.00021057
 Iteration  2 RMS(Cart)=  0.00042694 RMS(Int)=  0.00003467
 Iteration  3 RMS(Cart)=  0.00000006 RMS(Int)=  0.00003467
 Variable       Old X    -DE/DX   Delta X   Delta X   Delta X     New X
                                 (Linear)    (Quad)   (Total)
    R1        2.60155  -0.00613   0.00000  -0.01211  -0.01212   2.58943
    R2        2.58037  -0.00873   0.00000  -0.01656  -0.01656   2.56381
    R3        2.75855  -0.00039   0.00000  -0.00106  -0.00106   2.75750
    R4        2.03879   0.00068   0.00000   0.00188   0.00188   2.04067
    R5        2.67025   0.00512   0.00000   0.01156   0.01156   2.68181
    R6        2.52709  -0.01596   0.00000  -0.02771  -0.02770   2.49939
    R7        2.79479   0.01411   0.00000   0.04042   0.04042   2.83522
    R8        2.61398   0.00577   0.00000   0.01180   0.01181   2.62580
    R9        2.06874  -0.00066   0.00000  -0.00193  -0.00193   2.06681
   R10        2.06899   0.00027   0.00000   0.00078   0.00078   2.06976
   R11        2.06854   0.00030   0.00000   0.00088   0.00088   2.06942
   R12        2.65256   0.00139   0.00000   0.00282   0.00283   2.65539
   R13        2.65296   0.00058   0.00000   0.00108   0.00109   2.65405
   R14        2.64276  -0.00525   0.00000  -0.01143  -0.01143   2.63133
   R15        2.05408  -0.00025   0.00000  -0.00071  -0.00071   2.05338
   R16        2.63079   0.00417   0.00000   0.00905   0.00905   2.63984
   R17        2.05432  -0.00053   0.00000  -0.00150  -0.00150   2.05283
   R18        2.63076   0.00422   0.00000   0.00919   0.00919   2.63995
   R19        2.05399  -0.00002   0.00000  -0.00006  -0.00006   2.05392
   R20        2.64191  -0.00429   0.00000  -0.00925  -0.00925   2.63267
   R21        2.05414  -0.00057   0.00000  -0.00162  -0.00162   2.05253
   R22        2.05686  -0.00236   0.00000  -0.00670  -0.00670   2.05017
    A1        1.89021  -0.00108   0.00000  -0.00360  -0.00365   1.88656
    A2        2.35634  -0.00232   0.00000  -0.00951  -0.00949   2.34685
    A3        2.03660   0.00339   0.00000   0.01313   0.01315   2.04975
    A4        2.22267   0.00038   0.00000   0.00327   0.00322   2.22589
    A5        1.82925   0.00104   0.00000   0.00480   0.00467   1.83391
    A6        2.23121  -0.00142   0.00000  -0.00783  -0.00788   2.22333
    A7        1.94186  -0.00097   0.00000  -0.00453  -0.00456   1.93730
    A8        2.24324   0.00054   0.00000   0.00249   0.00251   2.24575
    A9        2.09807   0.00043   0.00000   0.00204   0.00205   2.10012
   A10        1.84380   0.00052   0.00000   0.00122   0.00119   1.84499
   A11        1.91959   0.00050   0.00000   0.00240   0.00236   1.92195
   A12        1.93962  -0.00089   0.00000  -0.00397  -0.00397   1.93565
   A13        1.92833   0.00192   0.00000   0.01121   0.01120   1.93953
   A14        1.93221   0.00167   0.00000   0.00941   0.00940   1.94162
   A15        1.88389  -0.00024   0.00000   0.00016   0.00016   1.88405
   A16        1.88506  -0.00019   0.00000   0.00005   0.00006   1.88512
   A17        1.89308  -0.00241   0.00000  -0.01771  -0.01772   1.87536
   A18        2.10299  -0.00111   0.00000  -0.00408  -0.00409   2.09890
   A19        2.11876  -0.00250   0.00000  -0.00959  -0.00960   2.10916
   A20        2.06140   0.00360   0.00000   0.01372   0.01372   2.07512
   A21        2.11087  -0.00135   0.00000  -0.00638  -0.00637   2.10450
   A22        2.10778  -0.00169   0.00000  -0.01137  -0.01137   2.09640
   A23        2.06453   0.00304   0.00000   0.01776   0.01775   2.08228
   A24        2.09604   0.00008   0.00000   0.00100   0.00100   2.09704
   A25        2.09359  -0.00108   0.00000  -0.00691  -0.00691   2.08667
   A26        2.09356   0.00100   0.00000   0.00592   0.00592   2.09947
   A27        2.09085  -0.00081   0.00000  -0.00236  -0.00237   2.08848
   A28        2.09684   0.00020   0.00000  -0.00007  -0.00007   2.09678
   A29        2.09549   0.00061   0.00000   0.00243   0.00244   2.09793
   A30        2.09567   0.00089   0.00000   0.00492   0.00492   2.10059
   A31        2.09579   0.00045   0.00000   0.00308   0.00307   2.09886
   A32        2.09172  -0.00134   0.00000  -0.00799  -0.00799   2.08374
   A33        2.11153  -0.00241   0.00000  -0.01089  -0.01088   2.10064
   A34        2.10473  -0.00204   0.00000  -0.01455  -0.01455   2.09018
   A35        2.06692   0.00445   0.00000   0.02544   0.02544   2.09236
    D1        3.14150   0.00000   0.00000   0.00062   0.00073  -3.14095
    D2        0.01087  -0.00052   0.00000  -0.02110  -0.02108  -0.01021
    D3        0.00970  -0.00007   0.00000  -0.00191  -0.00181   0.00789
    D4       -3.12093  -0.00059   0.00000  -0.02362  -0.02363   3.13863
    D5       -0.00752   0.00032   0.00000   0.01375   0.01377   0.00625
    D6        3.12633   0.00035   0.00000   0.01563   0.01569  -3.14117
    D7        0.01934  -0.00010   0.00000  -0.00563  -0.00558   0.01376
    D8       -3.13016   0.00006   0.00000   0.00174   0.00173  -3.12843
    D9       -3.11185  -0.00016   0.00000  -0.00824  -0.00822  -3.12007
   D10        0.02184   0.00001   0.00000  -0.00086  -0.00092   0.02092
   D11       -0.01094   0.00053   0.00000   0.02208   0.02211   0.01117
   D12        3.12399   0.00054   0.00000   0.02290   0.02291  -3.13628
   D13       -3.14150  -0.00001   0.00000   0.00012   0.00024  -3.14126
   D14       -0.00656   0.00000   0.00000   0.00095   0.00104  -0.00552
   D15        0.00648  -0.00035   0.00000  -0.01395  -0.01388  -0.00740
   D16       -3.12909  -0.00037   0.00000  -0.01470  -0.01461   3.13948
   D17        0.02579   0.00007   0.00000   0.00309   0.00310   0.02889
   D18       -2.06503  -0.00032   0.00000  -0.00191  -0.00189  -2.06692
   D19        2.12065   0.00035   0.00000   0.00679   0.00680   2.12744
   D20       -3.12298   0.00008   0.00000   0.00396   0.00395  -3.11903
   D21        1.06939  -0.00031   0.00000  -0.00104  -0.00105   1.06834
   D22       -1.02812   0.00036   0.00000   0.00766   0.00764  -1.02048
   D23        0.00061   0.00000   0.00000   0.00015   0.00018   0.00079
   D24        3.13044   0.00023   0.00000   0.01057   0.01058   3.14102
   D25       -0.00709   0.00012   0.00000   0.00645   0.00651  -0.00058
   D26       -0.00351   0.00009   0.00000   0.00353   0.00352   0.00001
   D27       -3.14103  -0.00001   0.00000  -0.00058  -0.00055  -3.14159
   D28       -3.13054  -0.00022   0.00000  -0.00996  -0.00994  -3.14048
   D29        0.00829  -0.00013   0.00000  -0.00631  -0.00634   0.00195
   D30        0.00333  -0.00007   0.00000  -0.00283  -0.00281   0.00052
   D31       -3.14102   0.00002   0.00000   0.00083   0.00079  -3.14024
   D32        0.00114  -0.00005   0.00000  -0.00182  -0.00180  -0.00066
   D33       -3.13810  -0.00009   0.00000  -0.00365  -0.00363   3.14145
   D34        3.13876   0.00004   0.00000   0.00213   0.00218   3.14094
   D35       -0.00048  -0.00000   0.00000   0.00031   0.00034  -0.00014
   D36        0.00150  -0.00002   0.00000  -0.00075  -0.00073   0.00077
   D37       -3.13900  -0.00004   0.00000  -0.00164  -0.00165  -3.14065
   D38        3.14074   0.00001   0.00000   0.00106   0.00110  -3.14134
   D39        0.00024   0.00000   0.00000   0.00017   0.00018   0.00042
   D40       -0.00167   0.00004   0.00000   0.00145   0.00144  -0.00024
   D41       -3.14132  -0.00002   0.00000  -0.00124  -0.00128   3.14059
   D42        3.13883   0.00005   0.00000   0.00234   0.00236   3.14119
   D43       -0.00081  -0.00001   0.00000  -0.00035  -0.00036  -0.00117
   D44       -0.00079   0.00001   0.00000   0.00039   0.00037  -0.00041
   D45       -3.13968  -0.00006   0.00000  -0.00313  -0.00317   3.14034
   D46        3.13886   0.00008   0.00000   0.00309   0.00308  -3.14124
   D47       -0.00003  -0.00000   0.00000  -0.00043  -0.00046  -0.00049
         Item               Value     Threshold  Converged?
 Maximum Force            0.015960     0.000450     NO 
 RMS     Force            0.002820     0.000300     NO 
 Maximum Displacement     0.068419     0.001800     NO 
 RMS     Displacement     0.024473     0.001200     NO 
 Predicted change in Energy=-1.104988D-03
 GradGradGradGradGradGradGradGradGradGradGradGradGradGradGradGradGradGrad

                          Input orientation:                          
 ---------------------------------------------------------------------
 Center     Atomic      Atomic             Coordinates (Angstroms)
 Number     Number       Type             X           Y           Z
 ---------------------------------------------------------------------
      1          6           0       -0.504251   -1.112139    0.114138
      2          6           0        0.609518   -0.404338    0.483143
      3          1           0        1.566107   -0.797734    0.793483
      4          6           0        0.239161    0.959661    0.355317
      5          7           0       -1.015037    1.074395   -0.048598
      6          8           0       -1.481740   -0.225531   -0.200668
      7          6           0        1.064830    2.184070    0.620068
      8          6           0       -0.824601   -2.531830    0.008641
      9          6           0        0.135383   -3.501221    0.345122
     10          6           0       -0.163369   -4.857734    0.247593
     11          6           0       -1.425859   -5.268710   -0.186772
     12          6           0       -2.386426   -4.311886   -0.523546
     13          6           0       -2.091063   -2.953775   -0.427876
     14          1           0        2.079993    1.912201    0.922949
     15          1           0        0.625544    2.791336    1.418738
     16          1           0        1.135290    2.815665   -0.271755
     17          1           0        1.121527   -3.196899    0.685132
     18          1           0        0.591343   -5.593015    0.511865
     19          1           0       -1.659080   -6.327616   -0.261975
     20          1           0       -3.370793   -4.620642   -0.863275
     21          1           0       -2.842409   -2.217248   -0.692484
 ---------------------------------------------------------------------
                    Distance matrix (angstroms):
                    1          2          3          4          5
     1  C    0.000000
     2  C    1.370266   0.000000
     3  H    2.201533   1.079878   0.000000
     4  C    2.214314   1.419154   2.245265   0.000000
     5  N    2.251292   2.260216   3.297919   1.322620   0.000000
     6  O    1.356709   2.207471   3.256551   2.162244   1.389513
     7  C    3.685509   2.631713   3.028614   1.500333   2.450375
     8  C    1.459204   2.609228   3.055905   3.666373   3.611704
     9  C    2.483988   3.136007   3.091414   4.462101   4.734421
    10  C    3.763441   4.526099   4.446649   5.832300   6.000268
    11  C    4.268136   5.315417   5.468308   6.469835   6.357896
    12  C    3.766643   5.025737   5.450353   5.954437   5.578378
    13  C    2.490657   3.823967   4.417593   4.621506   4.186626
    14  H    4.059449   2.778863   2.761266   2.149000   3.350378
    15  H    4.267966   3.329854   3.762582   2.152949   2.791499
    16  H    4.273717   3.348840   3.791700   2.154302   2.775919
    17  H    2.704702   2.846287   2.442414   4.261965   4.831896
    18  H    4.629985   5.188789   4.901449   6.564001   6.881056
    19  H    5.355024   6.386467   6.488098   7.555712   7.433040
    20  H    4.634867   5.952557   6.460067   6.756961   6.216650
    21  H    2.709038   4.072412   4.863963   4.548265   3.819528
                    6          7          8          9         10
     6  O    0.000000
     7  C    3.600667   0.000000
     8  C    2.407210   5.116982   0.000000
     9  C    3.693658   5.767321   1.405171   0.000000
    10  C    4.836976   7.157807   2.429846   1.392441   0.000000
    11  C    5.043508   7.899269   2.808951   2.417520   1.396945
    12  C    4.197738   7.444223   2.427163   2.787702   2.415489
    13  C    2.804677   6.120073   1.404461   2.419562   2.792368
    14  H    4.303296   1.093711   5.387211   5.781049   7.163854
    15  H    4.020524   1.095271   5.694506   6.402279   7.778318
    16  H    4.012826   1.095092   5.702237   6.425216   7.799826
    17  H    4.048539   5.381661   2.165034   1.086600   2.144941
    18  H    5.797867   7.792236   3.410129   2.147395   1.086310
    19  H    6.104969   8.980338   3.895841   3.402524   2.158093
    20  H    4.829552   8.257067   3.406826   3.873835   3.402618
    21  H    2.461755   6.030001   2.159187   3.404770   3.877263
                   11         12         13         14         15
    11  C    0.000000
    12  C    1.397004   0.000000
    13  C    2.420651   1.393146   0.000000
    14  H    8.067711   7.796185   6.549821   0.000000
    15  H    8.470552   7.956142   6.617873   1.770341   0.000000
    16  H    8.480792   7.954110   6.612123   1.770884   1.765843
    17  H    3.397321   3.874253   3.408611   5.203664   6.053357
    18  H    2.159252   3.403010   3.878660   7.662463   8.433323
    19  H    1.086890   2.158847   3.405427   9.125749   9.549847
    20  H    2.158800   1.086151   2.146096   8.693659   8.724432
    21  H    3.402026   2.150342   1.084902   6.625105   6.447470
                   16         17         18         19         20
    16  H    0.000000
    17  H    6.088247   0.000000
    18  H    8.462615   2.460181   0.000000
    19  H    9.560763   4.293038   2.490556   0.000000
    20  H    8.715121   4.960398   4.305234   2.491040   0.000000
    21  H    6.428788   4.309331   4.963559   4.298922   2.466711
                   21
    21  H    0.000000
 Stoichiometry    C10H9NO
 Framework group  C1[X(C10H9NO)]
 Deg. of freedom    57
 Full point group                 C1      NOp   1
 Largest Abelian subgroup         C1      NOp   1
 Largest concise Abelian subgroup C1      NOp   1
                         Standard orientation:                         
 ---------------------------------------------------------------------
 Center     Atomic      Atomic             Coordinates (Angstroms)
 Number     Number       Type             X           Y           Z
 ---------------------------------------------------------------------
      1          6           0       -0.569288   -0.037492    0.000335
      2          6           0       -1.568476    0.900183   -0.003868
      3          1           0       -1.462235    1.974748   -0.016451
      4          6           0       -2.775343    0.153546   -0.002964
      5          7           0       -2.528831   -1.145771    0.015262
      6          8           0       -1.144540   -1.266100    0.016708
      7          6           0       -4.188860    0.656415   -0.012513
      8          6           0        0.888684    0.022442   -0.001165
      9          6           0        1.546309    1.264192    0.008368
     10          6           0        2.937233    1.329163    0.007689
     11          6           0        3.694491    0.155312   -0.001724
     12          6           0        3.049137   -1.083657   -0.011383
     13          6           0        1.657704   -1.152724   -0.011379
     14          1           0       -4.214060    1.749174   -0.050546
     15          1           0       -4.727415    0.337470    0.886292
     16          1           0       -4.740023    0.274703   -0.878390
     17          1           0        0.970818    2.185846    0.016359
     18          1           0        3.428439    2.298045    0.015011
     19          1           0        4.780184    0.206303   -0.001368
     20          1           0        3.628416   -2.002402   -0.019689
     21          1           0        1.164461   -2.118978   -0.020091
 ---------------------------------------------------------------------
 Rotational constants (GHZ):           3.2158009           0.4982265           0.4325634
 Standard basis: 6-31G(d) (6D, 7F)
 There are   198 symmetry adapted cartesian basis functions of A   symmetry.
 There are   198 symmetry adapted basis functions of A   symmetry.
   198 basis functions,   372 primitive gaussians,   198 cartesian basis functions
    42 alpha electrons       42 beta electrons
       nuclear repulsion energy       626.4366215062 Hartrees.
 NAtoms=   21 NActive=   21 NUniq=   21 SFac= 1.00D+00 NAtFMM=   60 NAOKFM=F Big=F
 Integral buffers will be    131072 words long.
 Raffenetti 2 integral format.
 Two-electron integral symmetry is turned on.
 One-electron integrals computed using PRISM.
 NBasis=   198 RedAO= T EigKep=  4.57D-04  NBF=   198
 NBsUse=   198 1.00D-06 EigRej= -1.00D+00 NBFU=   198
 Initial guess from the checkpoint file:  "science_add_171.chk"
 B after Tr=     0.000000    0.000000   -0.000000
         Rot=    1.000000    0.000062    0.000078   -0.000178 Ang=   0.02 deg.
 ExpMin= 1.61D-01 ExpMax= 5.48D+03 ExpMxC= 8.25D+02 IAcc=2 IRadAn=         4 AccDes= 0.00D+00
 Harris functional with IExCor=  402 and IRadAn=       4 diagonalized for initial guess.
 HarFok:  IExCor=  402 AccDes= 0.00D+00 IRadAn=         4 IDoV= 1 UseB2=F ITyADJ=14
 ICtDFT=  3500011 ScaDFX=  1.000000  1.000000  1.000000  1.000000
 FoFCou: FMM=F IPFlag=           0 FMFlag=      100000 FMFlg1=           0
         NFxFlg=           0 DoJE=T BraDBF=F KetDBF=T FulRan=T
         wScrn=  0.000000 ICntrl=       500 IOpCl=  0 I1Cent=   200000004 NGrid=           0
         NMat0=    1 NMatS0=      1 NMatT0=    0 NMatD0=    1 NMtDS0=    0 NMtDT0=    0
 Petite list used in FoFCou.
 Keep R1 ints in memory in canonical form, NReq=198177116.
 Gradient too large for Newton-Raphson -- use scaled steepest descent instead.
     Minimum is close to point  4 DX=  1.07D-01 DF= -5.90D-06 DXR=  8.21D-02 DFR=  6.78D-03 which will be used.
 Gradient too large for Newton-Raphson -- use scaled steepest descent instead.
 Gradient too large for Newton-Raphson -- use scaled steepest descent instead.
     Accept linear search using points  1 and  2.
 Gradient too large for Newton-Raphson -- use scaled steepest descent instead.
     Accept linear search using points  1 and  2.
 LinEq1:  Iter=  0 NonCon=     1 RMS=9.75D-05 Max=2.34D-03 NDo=     1
 AX will form     1 AO Fock derivatives at one time.
 LinEq1:  Iter=  1 NonCon=     1 RMS=1.94D-05 Max=6.72D-04 NDo=     1
 LinEq1:  Iter=  2 NonCon=     1 RMS=1.54D-05 Max=4.68D-04 NDo=     1
 LinEq1:  Iter=  3 NonCon=     1 RMS=7.36D-06 Max=2.19D-04 NDo=     1
 LinEq1:  Iter=  4 NonCon=     1 RMS=5.43D-06 Max=1.61D-04 NDo=     1
 LinEq1:  Iter=  5 NonCon=     1 RMS=2.51D-06 Max=8.26D-05 NDo=     1
 LinEq1:  Iter=  6 NonCon=     1 RMS=1.32D-06 Max=2.61D-05 NDo=     1
 LinEq1:  Iter=  7 NonCon=     1 RMS=5.82D-07 Max=1.21D-05 NDo=     1
 LinEq1:  Iter=  8 NonCon=     1 RMS=4.19D-07 Max=9.52D-06 NDo=     1
 LinEq1:  Iter=  9 NonCon=     1 RMS=2.56D-07 Max=5.40D-06 NDo=     1
 LinEq1:  Iter= 10 NonCon=     1 RMS=1.97D-07 Max=5.09D-06 NDo=     1
 LinEq1:  Iter= 11 NonCon=     1 RMS=9.61D-08 Max=1.78D-06 NDo=     1
 LinEq1:  Iter= 12 NonCon=     1 RMS=4.83D-08 Max=1.07D-06 NDo=     1
 LinEq1:  Iter= 13 NonCon=     1 RMS=2.22D-08 Max=6.54D-07 NDo=     1
 LinEq1:  Iter= 14 NonCon=     1 RMS=1.58D-08 Max=4.96D-07 NDo=     1
 LinEq1:  Iter= 15 NonCon=     1 RMS=8.75D-09 Max=2.47D-07 NDo=     1
 LinEq1:  Iter= 16 NonCon=     0 RMS=4.63D-09 Max=9.23D-08 NDo=     1
 Linear equations converged to 1.145D-08 1.145D-07 after    16 iterations.
     Accept linear search using points  1 and  2.
     Minimum is close to point  2 DX= -1.55D-05 DF=  0.00D+00 DXR=  1.55D-05 DFR=  0.00D+00 which will be used.
 LinEq1:  Iter=  0 NonCon=     1 RMS=9.18D-08 Max=4.72D-06 NDo=     1
 LinEq1:  Iter=  1 NonCon=     1 RMS=6.28D-08 Max=1.72D-06 NDo=     1
 LinEq1:  Iter=  2 NonCon=     1 RMS=4.80D-08 Max=1.07D-06 NDo=     1
 LinEq1:  Iter=  3 NonCon=     1 RMS=2.40D-08 Max=4.70D-07 NDo=     1
 LinEq1:  Iter=  4 NonCon=     1 RMS=1.39D-08 Max=2.44D-07 NDo=     1
 LinEq1:  Iter=  5 NonCon=     1 RMS=6.11D-09 Max=1.51D-07 NDo=     1
 LinEq1:  Iter=  6 NonCon=     1 RMS=4.18D-09 Max=1.14D-07 NDo=     1
 LinEq1:  Iter=  7 NonCon=     1 RMS=2.32D-09 Max=4.25D-08 NDo=     1
 LinEq1:  Iter=  8 NonCon=     1 RMS=1.16D-09 Max=1.72D-08 NDo=     1
 LinEq1:  Iter=  9 NonCon=     1 RMS=6.32D-10 Max=1.87D-08 NDo=     1
 LinEq1:  Iter= 10 NonCon=     1 RMS=4.39D-10 Max=1.33D-08 NDo=     1
 LinEq1:  Iter= 11 NonCon=     1 RMS=3.43D-10 Max=7.74D-09 NDo=     1
 LinEq1:  Iter= 12 NonCon=     1 RMS=1.32D-10 Max=3.26D-09 NDo=     1
 LinEq1:  Iter= 13 NonCon=     1 RMS=6.79D-11 Max=2.08D-09 NDo=     1
 LinEq1:  Iter= 14 NonCon=     1 RMS=3.78D-11 Max=7.69D-10 NDo=     1
 LinEq1:  Iter= 15 NonCon=     0 RMS=2.56D-11 Max=5.02D-10 NDo=     1
 Linear equations converged to 6.294D-11 6.294D-10 after    15 iterations.
 SCF Done:  E(RB3LYP) =  -516.420127453     a.u. after    7 cycles
            Convg  =    0.5401D-10                    45 Fock formations.
              S**2 =  0.0000                  -V/T =  2.0095
 Calling FoFJK, ICntrl=      2127 FMM=F ISym2X=0 I1Cent= 0 IOpClX= 0 NMat=1 NMatS=1 NMatT=0.
 ***** Axes restored to original set *****
 -------------------------------------------------------------------
 Center     Atomic                   Forces (Hartrees/Bohr)
 Number     Number              X              Y              Z
 -------------------------------------------------------------------
      1        6          -0.002070779    0.005419629    0.000518455
      2        6           0.003281256   -0.003779494   -0.000183378
      3        1           0.000329805    0.000565971    0.000037899
      4        6          -0.005935025    0.000455090   -0.000982653
      5        7           0.004943512    0.003154768    0.000851728
      6        8          -0.001551966   -0.004564124   -0.000812136
      7        6           0.001597782    0.001059351    0.000783426
      8        6           0.001092588   -0.000822396    0.000408547
      9        6           0.000855384   -0.001074539    0.000182043
     10        6          -0.000407676    0.000845850   -0.000122553
     11        6          -0.000590716   -0.000350098   -0.000189540
     12        6           0.001074550    0.000063341    0.000334571
     13        6          -0.001477959   -0.000605413   -0.000552713
     14        1          -0.000236298   -0.000557097   -0.000111674
     15        1          -0.000401850   -0.000258847   -0.000147641
     16        1          -0.000584784   -0.000430734   -0.000145540
     17        1          -0.000413176    0.000636918   -0.000102457
     18        1          -0.000053405   -0.000225830   -0.000004356
     19        1           0.000031965    0.000244388   -0.000017631
     20        1          -0.000119824   -0.000354752   -0.000015855
     21        1           0.000636614    0.000578019    0.000271459
 -------------------------------------------------------------------
 Cartesian Forces:  Max     0.005935025 RMS     0.001649757

 GradGradGradGradGradGradGradGradGradGradGradGradGradGradGradGradGradGrad
 Berny optimization.
 Using GEDIIS/GDIIS optimizer.
 FormGI is forming the generalized inverse of G from B-inverse, IUseBI=4.
 Internal  Forces:  Max     0.003260909 RMS     0.000709246
 Search for a local minimum.
 Step number   2 out of a maximum of  114
 All quantities printed in internal units (Hartrees-Bohrs-Radians)
 Mixed Optimization -- En-DIIS/RFO-DIIS
 Update second derivatives using D2CorX and points    1    2
 DE= -1.17D-03 DEPred=-1.10D-03 R= 1.06D+00
 TightC=F SS=  1.41D+00  RLast= 9.96D-02 DXNew= 5.0454D-01 2.9883D-01
 Trust test= 1.06D+00 RLast= 9.96D-02 DXMaxT set to 3.00D-01
 ITU=  1  0
 Use linear search instead of GDIIS.
     Eigenvalues ---    0.01044   0.01298   0.01536   0.01811   0.01851
     Eigenvalues ---    0.02048   0.02060   0.02073   0.02080   0.02113
     Eigenvalues ---    0.02147   0.02155   0.02173   0.02193   0.02227
     Eigenvalues ---    0.02326   0.07351   0.07381   0.14610   0.15999
     Eigenvalues ---    0.16000   0.16000   0.16000   0.16000   0.16000
     Eigenvalues ---    0.16000   0.16466   0.21746   0.22008   0.22692
     Eigenvalues ---    0.24373   0.24824   0.24999   0.25000   0.25490
     Eigenvalues ---    0.34249   0.34264   0.34279   0.34979   0.35005
     Eigenvalues ---    0.35151   0.35162   0.35168   0.35691   0.36126
     Eigenvalues ---    0.37341   0.40925   0.41593   0.41980   0.43609
     Eigenvalues ---    0.45221   0.45987   0.46329   0.46846   0.48710
     Eigenvalues ---    0.49990   0.53138
 RFO step:  Lambda=-2.49998318D-04 EMin= 1.04415603D-02
 Quartic linear search produced a step of  0.08058.
 Iteration  1 RMS(Cart)=  0.00848850 RMS(Int)=  0.00004562
 Iteration  2 RMS(Cart)=  0.00006769 RMS(Int)=  0.00002246
 Iteration  3 RMS(Cart)=  0.00000000 RMS(Int)=  0.00002246
 Variable       Old X    -DE/DX   Delta X   Delta X   Delta X     New X
                                 (Linear)    (Quad)   (Total)
    R1        2.58943  -0.00025  -0.00098  -0.00085  -0.00183   2.58760
    R2        2.56381  -0.00115  -0.00133  -0.00285  -0.00417   2.55964
    R3        2.75750   0.00088  -0.00009   0.00254   0.00246   2.75995
    R4        2.04067   0.00010   0.00015   0.00036   0.00051   2.04118
    R5        2.68181   0.00127   0.00093   0.00347   0.00439   2.68620
    R6        2.49939  -0.00326  -0.00223  -0.00723  -0.00947   2.48992
    R7        2.83522   0.00012   0.00326   0.00182   0.00508   2.84029
    R8        2.62580   0.00313   0.00095   0.00736   0.00832   2.63412
    R9        2.06681  -0.00011  -0.00016  -0.00042  -0.00058   2.06624
   R10        2.06976  -0.00009   0.00006  -0.00026  -0.00019   2.06957
   R11        2.06942  -0.00017   0.00007  -0.00050  -0.00043   2.06900
   R12        2.65539   0.00004   0.00023   0.00026   0.00049   2.65587
   R13        2.65405   0.00045   0.00009   0.00119   0.00128   2.65533
   R14        2.63133  -0.00018  -0.00092  -0.00084  -0.00176   2.62957
   R15        2.05338  -0.00023  -0.00006  -0.00073  -0.00078   2.05259
   R16        2.63984   0.00013   0.00073   0.00055   0.00128   2.64113
   R17        2.05283   0.00011  -0.00012   0.00030   0.00018   2.05301
   R18        2.63995  -0.00055   0.00074  -0.00100  -0.00026   2.63970
   R19        2.05392  -0.00024  -0.00001  -0.00075  -0.00076   2.05317
   R20        2.63267  -0.00002  -0.00075  -0.00037  -0.00112   2.63155
   R21        2.05253   0.00021  -0.00013   0.00060   0.00047   2.05300
   R22        2.05017  -0.00011  -0.00054  -0.00059  -0.00113   2.04903
    A1        1.88656   0.00195  -0.00029   0.00907   0.00871   1.89527
    A2        2.34685  -0.00181  -0.00076  -0.00848  -0.00926   2.33759
    A3        2.04975  -0.00015   0.00106  -0.00050   0.00054   2.05030
    A4        2.22589   0.00159   0.00026   0.00898   0.00923   2.23512
    A5        1.83391  -0.00185   0.00038  -0.00851  -0.00823   1.82568
    A6        2.22333   0.00027  -0.00064  -0.00030  -0.00095   2.22238
    A7        1.93730   0.00156  -0.00037   0.00639   0.00593   1.94323
    A8        2.24575  -0.00138   0.00020  -0.00572  -0.00551   2.24024
    A9        2.10012  -0.00019   0.00017  -0.00060  -0.00042   2.09970
   A10        1.84499  -0.00006   0.00010  -0.00044  -0.00042   1.84457
   A11        1.92195  -0.00160   0.00019  -0.00618  -0.00603   1.91592
   A12        1.93565  -0.00053  -0.00032  -0.00317  -0.00349   1.93215
   A13        1.93953  -0.00038   0.00090  -0.00225  -0.00135   1.93817
   A14        1.94162  -0.00079   0.00076  -0.00548  -0.00473   1.93689
   A15        1.88405   0.00062   0.00001   0.00508   0.00509   1.88914
   A16        1.88512   0.00073   0.00000   0.00510   0.00509   1.89021
   A17        1.87536   0.00045  -0.00143   0.00136  -0.00008   1.87528
   A18        2.09890   0.00031  -0.00033   0.00106   0.00073   2.09963
   A19        2.10916  -0.00047  -0.00077  -0.00251  -0.00329   2.10587
   A20        2.07512   0.00016   0.00111   0.00146   0.00256   2.07768
   A21        2.10450  -0.00034  -0.00051  -0.00176  -0.00228   2.10222
   A22        2.09640  -0.00058  -0.00092  -0.00469  -0.00561   2.09080
   A23        2.08228   0.00092   0.00143   0.00645   0.00788   2.09017
   A24        2.09704   0.00030   0.00008   0.00137   0.00145   2.09848
   A25        2.08667   0.00006  -0.00056   0.00049  -0.00007   2.08660
   A26        2.09947  -0.00035   0.00048  -0.00185  -0.00137   2.09810
   A27        2.08848  -0.00005  -0.00019  -0.00059  -0.00078   2.08770
   A28        2.09678   0.00006  -0.00001   0.00047   0.00046   2.09724
   A29        2.09793  -0.00001   0.00020   0.00012   0.00032   2.09825
   A30        2.10059   0.00017   0.00040   0.00089   0.00129   2.10187
   A31        2.09886  -0.00040   0.00025  -0.00237  -0.00212   2.09674
   A32        2.08374   0.00023  -0.00064   0.00148   0.00084   2.08457
   A33        2.10064  -0.00023  -0.00088  -0.00136  -0.00223   2.09841
   A34        2.09018  -0.00080  -0.00117  -0.00620  -0.00737   2.08281
   A35        2.09236   0.00103   0.00205   0.00756   0.00961   2.10197
    D1       -3.14095   0.00011   0.00006   0.00681   0.00683  -3.13412
    D2       -0.01021   0.00046  -0.00170   0.02350   0.02180   0.01159
    D3        0.00789  -0.00015  -0.00015  -0.00856  -0.00874  -0.00086
    D4        3.13863   0.00021  -0.00190   0.00813   0.00623  -3.13833
    D5        0.00625  -0.00025   0.00111  -0.01295  -0.01192  -0.00568
    D6       -3.14117  -0.00006   0.00126  -0.00063   0.00066  -3.14051
    D7        0.01376   0.00010  -0.00045   0.00498   0.00451   0.01827
    D8       -3.12843   0.00012   0.00014   0.00662   0.00673  -3.12170
    D9       -3.12007  -0.00018  -0.00066  -0.01151  -0.01214  -3.13222
   D10        0.02092  -0.00016  -0.00007  -0.00987  -0.00993   0.01099
   D11        0.01117  -0.00053   0.00178  -0.02720  -0.02540  -0.01423
   D12       -3.13628  -0.00035   0.00185  -0.01471  -0.01282   3.13408
   D13       -3.14126  -0.00017   0.00002  -0.01046  -0.01049   3.13144
   D14       -0.00552   0.00001   0.00008   0.00203   0.00209  -0.00343
   D15       -0.00740   0.00037  -0.00112   0.01930   0.01823   0.01083
   D16        3.13948   0.00021  -0.00118   0.00802   0.00683  -3.13687
   D17        0.02889  -0.00003   0.00025  -0.00351  -0.00326   0.02563
   D18       -2.06692  -0.00021  -0.00015  -0.00631  -0.00645  -2.07337
   D19        2.12744   0.00001   0.00055  -0.00287  -0.00231   2.12513
   D20       -3.11903   0.00017   0.00032   0.01002   0.01032  -3.10871
   D21        1.06834  -0.00001  -0.00008   0.00722   0.00713   1.07548
   D22       -1.02048   0.00021   0.00062   0.01066   0.01127  -1.00921
   D23        0.00079  -0.00008   0.00001  -0.00410  -0.00407  -0.00328
   D24        3.14102   0.00002   0.00085   0.00145   0.00230  -3.13986
   D25       -0.00058   0.00004   0.00052   0.00238   0.00291   0.00233
   D26        0.00001  -0.00000   0.00028  -0.00016   0.00012   0.00014
   D27       -3.14159   0.00002  -0.00004   0.00077   0.00073  -3.14086
   D28       -3.14048  -0.00003  -0.00080  -0.00189  -0.00269   3.14002
   D29        0.00195  -0.00004  -0.00051  -0.00259  -0.00310  -0.00115
   D30        0.00052  -0.00001  -0.00023  -0.00027  -0.00050   0.00002
   D31       -3.14024  -0.00002   0.00006  -0.00097  -0.00091  -3.14114
   D32       -0.00066   0.00001  -0.00014   0.00068   0.00054  -0.00012
   D33        3.14145   0.00001  -0.00029   0.00043   0.00014   3.14159
   D34        3.14094  -0.00001   0.00018  -0.00024  -0.00007   3.14088
   D35       -0.00014  -0.00001   0.00003  -0.00049  -0.00046  -0.00060
   D36        0.00077  -0.00002  -0.00006  -0.00077  -0.00083  -0.00006
   D37       -3.14065  -0.00001  -0.00013  -0.00072  -0.00085  -3.14151
   D38       -3.14134  -0.00001   0.00009  -0.00052  -0.00043   3.14142
   D39        0.00042  -0.00001   0.00001  -0.00047  -0.00045  -0.00004
   D40       -0.00024   0.00001   0.00012   0.00034   0.00045   0.00022
   D41        3.14059   0.00002  -0.00010   0.00091   0.00080   3.14139
   D42        3.14119   0.00000   0.00019   0.00029   0.00048  -3.14152
   D43       -0.00117   0.00002  -0.00003   0.00086   0.00083  -0.00034
   D44       -0.00041   0.00000   0.00003   0.00018   0.00021  -0.00020
   D45        3.14034   0.00002  -0.00026   0.00087   0.00062   3.14096
   D46       -3.14124  -0.00001   0.00025  -0.00038  -0.00014  -3.14138
   D47       -0.00049   0.00001  -0.00004   0.00031   0.00027  -0.00022
         Item               Value     Threshold  Converged?
 Maximum Force            0.003261     0.000450     NO 
 RMS     Force            0.000709     0.000300     NO 
 Maximum Displacement     0.033013     0.001800     NO 
 RMS     Displacement     0.008508     0.001200     NO 
 Predicted change in Energy=-1.320489D-04
 GradGradGradGradGradGradGradGradGradGradGradGradGradGradGradGradGradGrad

                          Input orientation:                          
 ---------------------------------------------------------------------
 Center     Atomic      Atomic             Coordinates (Angstroms)
 Number     Number       Type             X           Y           Z
 ---------------------------------------------------------------------
      1          6           0       -0.507855   -1.109103    0.109949
      2          6           0        0.612412   -0.409218    0.470697
      3          1           0        1.570317   -0.799792    0.781481
      4          6           0        0.235753    0.956264    0.351608
      5          7           0       -1.008169    1.075824   -0.066067
      6          8           0       -1.481767   -0.226426   -0.217247
      7          6           0        1.063702    2.179743    0.628490
      8          6           0       -0.825756   -2.531046    0.009500
      9          6           0        0.136988   -3.498310    0.345283
     10          6           0       -0.161899   -4.853908    0.248760
     11          6           0       -1.425069   -5.266995   -0.183805
     12          6           0       -2.386758   -4.310922   -0.518947
     13          6           0       -2.093835   -2.952790   -0.424691
     14          1           0        2.076049    1.900626    0.933095
     15          1           0        0.619377    2.782850    1.427384
     16          1           0        1.134932    2.814289   -0.260898
     17          1           0        1.120939   -3.185911    0.682990
     18          1           0        0.593279   -5.589206    0.512037
     19          1           0       -1.657221   -6.325749   -0.258666
     20          1           0       -3.371274   -4.622632   -0.856334
     21          1           0       -2.840076   -2.210578   -0.685376
 ---------------------------------------------------------------------
                    Distance matrix (angstroms):
                    1          2          3          4          5
     1  C    0.000000
     2  C    1.369297   0.000000
     3  H    2.205771   1.080147   0.000000
     4  C    2.208414   1.421477   2.247129   0.000000
     5  N    2.248377   2.262686   3.299222   1.317607   0.000000
     6  O    1.354504   2.211847   3.262120   2.161533   1.393917
     7  C    3.681736   2.632733   3.026168   1.503018   2.448203
     8  C    1.460504   2.604454   3.055218   3.661307   3.612270
     9  C    2.485864   3.127978   3.086535   4.455674   4.733212
    10  C    3.763312   4.517087   4.440745   5.824672   5.998083
    11  C    4.267978   5.308266   5.464431   6.463277   6.357595
    12  C    3.765294   5.019732   5.447714   5.947998   5.578767
    13  C    2.490051   3.820373   4.417721   4.616310   4.187721
    14  H    4.051246   2.773342   2.751547   2.148636   3.345299
    15  H    4.260702   3.332356   3.762552   2.154269   2.791638
    16  H    4.269576   3.346529   3.786515   2.153124   2.766424
    17  H    2.700830   2.830847   2.430063   4.248645   4.822507
    18  H    4.630929   5.180189   4.895477   6.557191   6.879060
    19  H    5.354467   6.378757   6.483449   7.548742   7.432472
    20  H    4.634411   5.948414   6.458782   6.752322   6.219420
    21  H    2.699082   4.062152   4.857320   4.534859   3.813118
                    6          7          8          9         10
     6  O    0.000000
     7  C    3.603378   0.000000
     8  C    2.406873   5.113192   0.000000
     9  C    3.693513   5.760147   1.405428   0.000000
    10  C    4.834543   7.149723   2.427682   1.391508   0.000000
    11  C    5.040999   7.893523   2.807483   2.418305   1.397623
    12  C    4.194418   7.439827   2.425684   2.788643   2.415410
    13  C    2.801914   6.117362   1.405138   2.422194   2.792877
    14  H    4.301825   1.093407   5.377101   5.766627   7.148458
    15  H    4.021860   1.095168   5.686501   6.391918   7.766570
    16  H    4.011853   1.094867   5.700002   6.419677   7.793765
    17  H    4.042655   5.366236   2.161495   1.086185   2.148591
    18  H    5.796300   7.784050   3.408600   2.146592   1.086404
    19  H    6.101987   8.974066   3.893972   3.402698   2.158654
    20  H    4.827556   8.255061   3.406474   3.875034   3.402178
    21  H    2.449696   6.020021   2.154771   3.403443   3.877168
                   11         12         13         14         15
    11  C    0.000000
    12  C    1.396868   0.000000
    13  C    2.420912   1.392556   0.000000
    14  H    8.054817   7.785140   6.541190   0.000000
    15  H    8.460241   7.946487   6.609786   1.773284   0.000000
[...]
    15  H    0.000000  -0.031850   0.544348  -0.024442   0.000000   0.000000
    16  H   -0.000000  -0.024444  -0.024442   0.519486  -0.000000   0.000000
    17  H    0.006157   0.000000   0.000000  -0.000000   0.611142  -0.005695
    18  H    0.000851   0.000000   0.000000   0.000000  -0.005695   0.593812
    19  H    0.004836   0.000000   0.000000   0.000000  -0.000180  -0.005679
    20  H   -0.037284  -0.000000  -0.000000  -0.000000   0.000017  -0.000184
    21  H    0.358060   0.000000   0.000000  -0.000000  -0.000154   0.000016
              19         20         21
     1  C    0.000004  -0.000181  -0.013562
     2  C   -0.000000   0.000001   0.000256
     3  H   -0.000000   0.000000  -0.000009
     4  C   -0.000000  -0.000000   0.000067
     5  N    0.000000  -0.000000  -0.000230
     6  O    0.000000  -0.000002   0.010237
     7  C   -0.000000   0.000000  -0.000001
     8  C    0.000595   0.003255  -0.042231
     9  C    0.005058   0.000896   0.005460
    10  C   -0.043089   0.004589   0.000287
    11  C    0.358306  -0.043393   0.004460
    12  C   -0.043047   0.358498  -0.040698
    13  C    0.004836  -0.037284   0.358060
    14  H    0.000000  -0.000000   0.000000
    15  H    0.000000  -0.000000   0.000000
    16  H    0.000000  -0.000000  -0.000000
    17  H   -0.000180   0.000017  -0.000154
    18  H   -0.005679  -0.000184   0.000016
    19  H    0.598603  -0.005654  -0.000163
    20  H   -0.005654   0.590061  -0.005183
    21  H   -0.000163  -0.005183   0.565450
 Mulliken charges:
               1
     1  C    0.378752
     2  C   -0.282004
     3  H    0.156871
     4  C    0.322746
     5  N   -0.191054
     6  O   -0.407229
     7  C   -0.527023
     8  C    0.074909
     9  C   -0.175243
    10  C   -0.132697
    11  C   -0.134525
    12  C   -0.135375
    13  C   -0.161068
    14  H    0.173371
    15  H    0.173374
    16  H    0.185573
    17  H    0.124616
    18  H    0.133095
    19  H    0.130411
    20  H    0.134564
    21  H    0.157938
 Sum of Mulliken charges =  -0.00000
 Mulliken charges with hydrogens summed into heavy atoms:
               1
     1  C    0.378752
     2  C   -0.125134
     4  C    0.322746
     5  N   -0.191054
     6  O   -0.407229
     7  C    0.005294
     8  C    0.074909
     9  C   -0.050628
    10  C    0.000398
    11  C   -0.004114
    12  C   -0.000811
    13  C   -0.003130
 Electronic spatial extent (au):  <R**2>=           2485.0960
 Charge=             -0.0000 electrons
 Dipole moment (field-independent basis, Debye):
    X=              0.0804    Y=              2.7476    Z=             -0.0004  Tot=              2.7488
 Quadrupole moment (field-independent basis, Debye-Ang):
   XX=            -59.5630   YY=            -66.7361   ZZ=            -72.1001
   XY=             -7.0505   XZ=              0.0008   YZ=              0.0007
 Traceless Quadrupole moment (field-independent basis, Debye-Ang):
   XX=              6.5701   YY=             -0.6030   ZZ=             -5.9670
   XY=             -7.0505   XZ=              0.0008   YZ=              0.0007
 Octapole moment (field-independent basis, Debye-Ang**2):
  XXX=            -10.5041  YYY=              4.4395  ZZZ=              0.0006  XYY=             10.1018
  XXY=             16.0295  XXZ=             -0.0021  XZZ=            -11.2955  YZZ=             -2.3885
  YYZ=             -0.0009  XYZ=              0.0004
 Hexadecapole moment (field-independent basis, Debye-Ang**3):
 XXXX=          -2538.6130 YYYY=           -467.6669 ZZZZ=            -78.1529 XXXY=            -41.8811
 XXXZ=              0.0034 YYYX=            -14.2786 YYYZ=              0.0028 ZZZX=              0.0007
 ZZZY=             -0.0016 XXYY=           -535.4150 XXZZ=           -504.5396 YYZZ=           -100.2241
 XXYZ=              0.0062 YYXZ=              0.0014 ZZXY=             -1.6076
 N-N= 6.265420849001D+02 E-N=-2.452282067502D+03  KE= 5.117531819734D+02
 Evaluate density.
 Using the total density.
 Monte-Carlo method of calculating molar volume:
 based on  0.001 e/bohr**3 density envelope.
 Number of points per bohr**3 =   20 CutOff= 1.00D-04
 Using the CI density.
 There are       372 points.  Will hold       372 in memory.
 LenV=  1073627278 MDV=  1073741824.
 Box volume = 6440.613 fraction occupied=0.220
 Integrated density= 8.5120827816719057D+01 error= 1.1208278167190571D+00
 Molar volume = 1419.705 bohr**3/mol (126.693 cm**3/mol)
 Recommended a0 for SCRF calculation =  4.56 angstrom (  8.62 bohr)
 ******************************Gaussian NBO Version 3.1******************************
             N A T U R A L   A T O M I C   O R B I T A L   A N D
          N A T U R A L   B O N D   O R B I T A L   A N A L Y S I S
 ******************************Gaussian NBO Version 3.1******************************
       /RESON  / : Allow strongly delocalized NBO set

 Analyzing the CI density

 Job title: Title Card Required                                             

 Storage needed:    119154 in NPA (1073739409 available)


 NATURAL POPULATIONS:  Natural atomic orbital occupancies 
                                                          
   NAO  Atom  No  lang   Type(AO)    Occupancy
 --------------------------------------------
     1    C    1  S      Cor( 1S)     1.99898
     2    C    1  S      Val( 2S)     0.85250
     3    C    1  S      Ryd( 3S)     0.00210
     4    C    1  S      Ryd( 4S)     0.00019
     5    C    1  px     Val( 2p)     1.02592
     6    C    1  px     Ryd( 3p)     0.00458
     7    C    1  py     Val( 2p)     0.79224
     8    C    1  py     Ryd( 3p)     0.01104
     9    C    1  pz     Val( 2p)     0.94583
    10    C    1  pz     Ryd( 3p)     0.00144
    11    C    1  dxy    Ryd( 3d)     0.00167
    12    C    1  dxz    Ryd( 3d)     0.00156
    13    C    1  dyz    Ryd( 3d)     0.00176
    14    C    1  dx2y2  Ryd( 3d)     0.00162
    15    C    1  dz2    Ryd( 3d)     0.00059
 
    16    C    2  S      Cor( 1S)     1.99887
    17    C    2  S      Val( 2S)     0.97748
    18    C    2  S      Ryd( 3S)     0.00071
    19    C    2  S      Ryd( 4S)     0.00005
    20    C    2  px     Val( 2p)     1.04125
    21    C    2  px     Ryd( 3p)     0.00302
    22    C    2  py     Val( 2p)     1.21498
    23    C    2  py     Ryd( 3p)     0.00287
    24    C    2  pz     Val( 2p)     1.06261
    25    C    2  pz     Ryd( 3p)     0.00372
    26    C    2  dxy    Ryd( 3d)     0.00081
    27    C    2  dxz    Ryd( 3d)     0.00052
    28    C    2  dyz    Ryd( 3d)     0.00067
    29    C    2  dx2y2  Ryd( 3d)     0.00067
    30    C    2  dz2    Ryd( 3d)     0.00044
 
    31    H    3  S      Val( 1S)     0.74866
    32    H    3  S      Ryd( 2S)     0.00093
 
    33    C    4  S      Cor( 1S)     1.99928
    34    C    4  S      Val( 2S)     0.87545
    35    C    4  S      Ryd( 3S)     0.00270
    36    C    4  S      Ryd( 4S)     0.00015
    37    C    4  px     Val( 2p)     1.06223
    38    C    4  px     Ryd( 3p)     0.00428
    39    C    4  py     Val( 2p)     0.92634
    40    C    4  py     Ryd( 3p)     0.01070
    41    C    4  pz     Val( 2p)     0.97034
    42    C    4  pz     Ryd( 3p)     0.00183
    43    C    4  dxy    Ryd( 3d)     0.00097
    44    C    4  dxz    Ryd( 3d)     0.00078
    45    C    4  dyz    Ryd( 3d)     0.00131
    46    C    4  dx2y2  Ryd( 3d)     0.00105
    47    C    4  dz2    Ryd( 3d)     0.00031
 
    48    N    5  S      Cor( 1S)     1.99938
    49    N    5  S      Val( 2S)     1.49395
    50    N    5  S      Ryd( 3S)     0.00118
    51    N    5  S      Ryd( 4S)     0.00002
    52    N    5  px     Val( 2p)     0.90288
    53    N    5  px     Ryd( 3p)     0.00586
    54    N    5  py     Val( 2p)     1.47446
    55    N    5  py     Ryd( 3p)     0.00533
    56    N    5  pz     Val( 2p)     1.20362
    57    N    5  pz     Ryd( 3p)     0.00208
    58    N    5  dxy    Ryd( 3d)     0.00258
    59    N    5  dxz    Ryd( 3d)     0.00135
    60    N    5  dyz    Ryd( 3d)     0.00312
    61    N    5  dx2y2  Ryd( 3d)     0.00411
    62    N    5  dz2    Ryd( 3d)     0.00266
 
    63    O    6  S      Cor( 1S)     1.99973
    64    O    6  S      Val( 2S)     1.62806
    65    O    6  S      Ryd( 3S)     0.00066
    66    O    6  S      Ryd( 4S)     0.00005
    67    O    6  px     Val( 2p)     1.29831
    68    O    6  px     Ryd( 3p)     0.00157
    69    O    6  py     Val( 2p)     1.64923
    70    O    6  py     Ryd( 3p)     0.00266
    71    O    6  pz     Val( 2p)     1.75430
    72    O    6  pz     Ryd( 3p)     0.00144
    73    O    6  dxy    Ryd( 3d)     0.00160
    74    O    6  dxz    Ryd( 3d)     0.00075
    75    O    6  dyz    Ryd( 3d)     0.00202
    76    O    6  dx2y2  Ryd( 3d)     0.00127
    77    O    6  dz2    Ryd( 3d)     0.00084
 
    78    C    7  S      Cor( 1S)     1.99935
    79    C    7  S      Val( 2S)     1.10263
    80    C    7  S      Ryd( 3S)     0.00043
    81    C    7  S      Ryd( 4S)     0.00000
    82    C    7  px     Val( 2p)     1.10092
    83    C    7  px     Ryd( 3p)     0.00098
    84    C    7  py     Val( 2p)     1.24733
    85    C    7  py     Ryd( 3p)     0.00216
    86    C    7  pz     Val( 2p)     1.24998
    87    C    7  pz     Ryd( 3p)     0.00049
    88    C    7  dxy    Ryd( 3d)     0.00077
    89    C    7  dxz    Ryd( 3d)     0.00028
    90    C    7  dyz    Ryd( 3d)     0.00101
    91    C    7  dx2y2  Ryd( 3d)     0.00048
    92    C    7  dz2    Ryd( 3d)     0.00068
 
    93    C    8  S      Cor( 1S)     1.99898
    94    C    8  S      Val( 2S)     0.87996
    95    C    8  S      Ryd( 3S)     0.00068
    96    C    8  S      Ryd( 4S)     0.00007
    97    C    8  px     Val( 2p)     1.06237
    98    C    8  px     Ryd( 3p)     0.00477
    99    C    8  py     Val( 2p)     1.10765
   100    C    8  py     Ryd( 3p)     0.00523
   101    C    8  pz     Val( 2p)     1.05505
   102    C    8  pz     Ryd( 3p)     0.00248
   103    C    8  dxy    Ryd( 3d)     0.00060
   104    C    8  dxz    Ryd( 3d)     0.00078
   105    C    8  dyz    Ryd( 3d)     0.00062
   106    C    8  dx2y2  Ryd( 3d)     0.00079
   107    C    8  dz2    Ryd( 3d)     0.00034
 
   108    C    9  S      Cor( 1S)     1.99907
   109    C    9  S      Val( 2S)     0.94979
   110    C    9  S      Ryd( 3S)     0.00058
   111    C    9  S      Ryd( 4S)     0.00005
   112    C    9  px     Val( 2p)     1.10265
   113    C    9  px     Ryd( 3p)     0.00368
   114    C    9  py     Val( 2p)     1.13923
   115    C    9  py     Ryd( 3p)     0.00449
   116    C    9  pz     Val( 2p)     1.01665
   117    C    9  pz     Ryd( 3p)     0.00317
   118    C    9  dxy    Ryd( 3d)     0.00088
   119    C    9  dxz    Ryd( 3d)     0.00059
   120    C    9  dyz    Ryd( 3d)     0.00040
   121    C    9  dx2y2  Ryd( 3d)     0.00059
   122    C    9  dz2    Ryd( 3d)     0.00043
 
   123    C   10  S      Cor( 1S)     1.99912
   124    C   10  S      Val( 2S)     0.96453
   125    C   10  S      Ryd( 3S)     0.00065
   126    C   10  S      Ryd( 4S)     0.00003
   127    C   10  px     Val( 2p)     1.09018
   128    C   10  px     Ryd( 3p)     0.00488
   129    C   10  py     Val( 2p)     1.17046
   130    C   10  py     Ryd( 3p)     0.00531
   131    C   10  pz     Val( 2p)     0.98865
   132    C   10  pz     Ryd( 3p)     0.00089
   133    C   10  dxy    Ryd( 3d)     0.00080
   134    C   10  dxz    Ryd( 3d)     0.00070
   135    C   10  dyz    Ryd( 3d)     0.00044
   136    C   10  dx2y2  Ryd( 3d)     0.00070
   137    C   10  dz2    Ryd( 3d)     0.00043
 
   138    C   11  S      Cor( 1S)     1.99909
   139    C   11  S      Val( 2S)     0.96470
   140    C   11  S      Ryd( 3S)     0.00052
   141    C   11  S      Ryd( 4S)     0.00003
   142    C   11  px     Val( 2p)     1.19249
   143    C   11  px     Ryd( 3p)     0.00465
   144    C   11  py     Val( 2p)     1.05570
   145    C   11  py     Ryd( 3p)     0.00477
   146    C   11  pz     Val( 2p)     1.00417
   147    C   11  pz     Ryd( 3p)     0.00411
   148    C   11  dxy    Ryd( 3d)     0.00065
   149    C   11  dxz    Ryd( 3d)     0.00034
   150    C   11  dyz    Ryd( 3d)     0.00055
   151    C   11  dx2y2  Ryd( 3d)     0.00088
   152    C   11  dz2    Ryd( 3d)     0.00043
 
   153    C   12  S      Cor( 1S)     1.99912
   154    C   12  S      Val( 2S)     0.96463
   155    C   12  S      Ryd( 3S)     0.00064
   156    C   12  S      Ryd( 4S)     0.00004
   157    C   12  px     Val( 2p)     1.10142
   158    C   12  px     Ryd( 3p)     0.00497
   159    C   12  py     Val( 2p)     1.15885
   160    C   12  py     Ryd( 3p)     0.00514
   161    C   12  pz     Val( 2p)     1.00287
   162    C   12  pz     Ryd( 3p)     0.00129
   163    C   12  dxy    Ryd( 3d)     0.00084
   164    C   12  dxz    Ryd( 3d)     0.00061
   165    C   12  dyz    Ryd( 3d)     0.00048
   166    C   12  dx2y2  Ryd( 3d)     0.00065
   167    C   12  dz2    Ryd( 3d)     0.00043
 
   168    C   13  S      Cor( 1S)     1.99908
   169    C   13  S      Val( 2S)     0.95647
   170    C   13  S      Ryd( 3S)     0.00063
   171    C   13  S      Ryd( 4S)     0.00005
   172    C   13  px     Val( 2p)     1.09009
   173    C   13  px     Ryd( 3p)     0.00445
   174    C   13  py     Val( 2p)     1.16206
   175    C   13  py     Ryd( 3p)     0.00469
   176    C   13  pz     Val( 2p)     0.97046
   177    C   13  pz     Ryd( 3p)     0.00245
   178    C   13  dxy    Ryd( 3d)     0.00088
   179    C   13  dxz    Ryd( 3d)     0.00067
   180    C   13  dyz    Ryd( 3d)     0.00039
   181    C   13  dx2y2  Ryd( 3d)     0.00062
   182    C   13  dz2    Ryd( 3d)     0.00043
 
   183    H   14  S      Val( 1S)     0.74822
   184    H   14  S      Ryd( 2S)     0.00088
 
   185    H   15  S      Val( 1S)     0.74821
   186    H   15  S      Ryd( 2S)     0.00088
 
   187    H   16  S      Val( 1S)     0.73968
   188    H   16  S      Ryd( 2S)     0.00135
 
   189    H   17  S      Val( 1S)     0.76999
   190    H   17  S      Ryd( 2S)     0.00141
 
   191    H   18  S      Val( 1S)     0.76128
   192    H   18  S      Ryd( 2S)     0.00087
 
   193    H   19  S      Val( 1S)     0.76538
   194    H   19  S      Ryd( 2S)     0.00115
 
   195    H   20  S      Val( 1S)     0.76035
   196    H   20  S      Ryd( 2S)     0.00084
 
   197    H   21  S      Val( 1S)     0.74850
   198    H   21  S      Ryd( 2S)     0.00154

 WARNING:  1 low occupancy (<1.9990e) core orbital  found on  C    1
           1 low occupancy (<1.9990e) core orbital  found on  C    2
           1 low occupancy (<1.9990e) core orbital  found on  C    8


 Summary of Natural Population Analysis:                  
                                                          
                                       Natural Population 
                Natural  -----------------------------------------------
    Atom  No    Charge         Core      Valence    Rydberg      Total
 -----------------------------------------------------------------------
      C    1    0.35799      1.99898     3.61649    0.02655     5.64201
      C    2   -0.30867      1.99887     4.29633    0.01348     6.30867
      H    3    0.25041      0.00000     0.74866    0.00093     0.74959
      C    4    0.14229      1.99928     3.83436    0.02408     5.85771
      N    5   -0.10257      1.99938     5.07491    0.02828     7.10257
      O    6   -0.34252      1.99973     6.32991    0.01288     8.34252
      C    7   -0.70749      1.99935     4.70086    0.00728     6.70749
      C    8   -0.12037      1.99898     4.10503    0.01637     6.12037
      C    9   -0.22226      1.99907     4.20832    0.01487     6.22226
      C   10   -0.22779      1.99912     4.21383    0.01484     6.22779
      C   11   -0.23308      1.99909     4.21705    0.01694     6.23308
      C   12   -0.24198      1.99912     4.22777    0.01508     6.24198
      C   13   -0.19340      1.99908     4.17907    0.01526     6.19340
      H   14    0.25090      0.00000     0.74822    0.00088     0.74910
      H   15    0.25090      0.00000     0.74821    0.00088     0.74910
      H   16    0.25897      0.00000     0.73968    0.00135     0.74103
      H   17    0.22860      0.00000     0.76999    0.00141     0.77140
      H   18    0.23784      0.00000     0.76128    0.00087     0.76216
      H   19    0.23346      0.00000     0.76538    0.00115     0.76654
      H   20    0.23881      0.00000     0.76035    0.00084     0.76119
      H   21    0.24997      0.00000     0.74850    0.00154     0.75003
 =======================================================================
   * Total *   -0.00000     23.99004    59.79420    0.21576    84.00000

                                 Natural Population      
 --------------------------------------------------------
   Core                      23.99004 ( 99.9585% of  24)
   Valence                   59.79420 ( 99.6570% of  60)
   Natural Minimal Basis     83.78424 ( 99.7431% of  84)
   Natural Rydberg Basis      0.21576 (  0.2569% of  84)
 --------------------------------------------------------

    Atom  No          Natural Electron Configuration
 ----------------------------------------------------------------------------
      C    1      [core]2S( 0.85)2p( 2.76)3p( 0.02)3d( 0.01)
      C    2      [core]2S( 0.98)2p( 3.32)3p( 0.01)
      H    3            1S( 0.75)
      C    4      [core]2S( 0.88)2p( 2.96)3p( 0.02)
      N    5      [core]2S( 1.49)2p( 3.58)3p( 0.01)3d( 0.01)
      O    6      [core]2S( 1.63)2p( 4.70)3p( 0.01)3d( 0.01)
      C    7      [core]2S( 1.10)2p( 3.60)
      C    8      [core]2S( 0.88)2p( 3.23)3p( 0.01)
      C    9      [core]2S( 0.95)2p( 3.26)3p( 0.01)
      C   10      [core]2S( 0.96)2p( 3.25)3p( 0.01)
      C   11      [core]2S( 0.96)2p( 3.25)3p( 0.01)
      C   12      [core]2S( 0.96)2p( 3.26)3p( 0.01)
      C   13      [core]2S( 0.96)2p( 3.22)3p( 0.01)
      H   14            1S( 0.75)
      H   15            1S( 0.75)
      H   16            1S( 0.74)
      H   17            1S( 0.77)
      H   18            1S( 0.76)
      H   19            1S( 0.77)
      H   20            1S( 0.76)
      H   21            1S( 0.75)


 NBO analysis skipped by request.
 1\1\GINC-DELLA-R4C4N3\SP\RB3LYP TD-FC\6-31G(d)\C10H9N1O1\BJS4\27-Aug-2
 018\0\\# TD(NStates=10, Root=1) b3lyp/6-31G* volume pop=NPA density=cu
 rrent Geom=AllCheck Guess=Read\\Title Card Required\\0,1\C,0,-0.495666
 5083,-1.1069482733,0.0817035389\C,0,0.5963198638,-0.4100327866,0.52373
 98924\H,0,1.5148033122,-0.8005260775,0.9356807972\C,0,0.2527124147,0.9
 568142151,0.3194383026\N,0,-0.949294974,1.0788389054,-0.2036847214\O,0
 ,-1.427983514,-0.227574784,-0.3563166751\C,0,1.0646304891,2.179421393,
 0.6191255812\C,0,-0.8212077999,-2.5298983903,-0.0001055312\C,0,0.10102
 46474,-3.4956642739,0.4373540165\C,0,-0.2065940849,-4.8510369859,0.360
 4845297\C,0,-1.4382134881,-5.2643945557,-0.153622291\C,0,-2.3600945801
 ,-4.3109497234,-0.5904170609\C,0,-2.057815961,-2.9532296874,-0.5159516
 648\H,0,2.0090331997,2.1695162219,0.0630250578\H,0,1.3095727466,2.2363
 066593,1.6858969866\H,0,0.5063609346,3.0769058445,0.3415533895\H,0,1.0
 61011742,-3.1837497309,0.838519157\H,0,0.5164153226,-5.5864449061,0.70
 25472585\H,0,-1.6769178491,-6.3226759411,-0.2129994053\H,0,-3.31989397
 64,-4.6248889133,-0.9913938627\H,0,-2.7741319355,-2.21277821,-0.855337
 299\\Version=ES64L-G16RevA.03\State=1-A\HF=-516.4217665\RMSD=1.672e-09
 \Dipole=0.9434042,-0.3213815,0.4198252\Quadrupole=1.7079031,1.7696377,
 -3.4775408,5.4747314,2.4242054,2.1043186\PG=C01 [X(C10H9N1O1)]\\@


 I WANT TO KNOW HOW GOD CREATED THE WORLD.  I AM NOT INTERESTED IN
 THIS OR THAT PHENOMENON, IN THE SPECTRUM OF THIS OR THAT ELEMENT.
 I WANT TO KNOW HIS THOUGHTS, THE REST ARE DETAILS.
     -- ALBERT EINSTEIN
 Job cpu time:       0 days  0 hours 14 minutes 53.1 seconds.
 Elapsed time:       0 days  0 hours  3 minutes 50.1 seconds.
 File lengths (MBytes):  RWF=    359 Int=      0 D2E=      0 Chk=     67 Scr=      1
 Normal termination of Gaussian 16 at Mon Aug 27 12:07:41 2018.
