 Entering Gaussian System, Link 0=g16
 Input=science_add_1123.com
 Output=science_add_1123.log
 Initial command:
 /opt/export/g16/l1.exe "/scratch/bjs4/job.154934/Gau-154937.inp" -scrdir="/scratch/bjs4/job.154934/"
 Entering Link 1 = /opt/export/g16/l1.exe PID=    154938.
  
 Copyright (c) 1988,1990,1992,1993,1995,1998,2003,2009,2016,
            Gaussian, Inc.  All Rights Reserved.
  
 This is part of the Gaussian(R) 16 program.  It is based on
 the Gaussian(R) 09 system (copyright 2009, Gaussian, Inc.),
 the Gaussian(R) 03 system (copyright 2003, Gaussian, Inc.),
 the Gaussian(R) 98 system (copyright 1998, Gaussian, Inc.),
 the Gaussian(R) 94 system (copyright 1995, Gaussian, Inc.),
 the Gaussian 92(TM) system (copyright 1992, Gaussian, Inc.),
 the Gaussian 90(TM) system (copyright 1990, Gaussian, Inc.),
 the Gaussian 88(TM) system (copyright 1988, Gaussian, Inc.),
 the Gaussian 86(TM) system (copyright 1986, Carnegie Mellon
 University), and the Gaussian 82(TM) system (copyright 1983,
 Carnegie Mellon University). Gaussian is a federally registered
 trademark of Gaussian, Inc.
  
 This software contains proprietary and confidential information,
 including trade secrets, belonging to Gaussian, Inc.
  
 This software is provided under written license and may be
 used, copied, transmitted, or stored only in accord with that
 written license.
  
 The following legend is applicable only to US Government
 contracts under FAR:
  
                    RESTRICTED RIGHTS LEGEND
  
 Use, reproduction and disclosure by the US Government is
 subject to restrictions as set forth in subparagraphs (a)
 and (c) of the Commercial Computer Software - Restricted
 Rights clause in FAR 52.227-19.
  
 Gaussian, Inc.
 340 Quinnipiac St., Bldg. 40, Wallingford CT 06492
  
  
 ---------------------------------------------------------------
 Warning -- This program may not be used in any manner that
 competes with the business of Gaussian, Inc. or will provide
 assistance to any competitor of Gaussian, Inc.  The licensee
 of this program is prohibited from giving any competitor of
 Gaussian, Inc. access to this program.  By using this program,
 the user acknowledges that Gaussian, Inc. is engaged in the
 business of creating and licensing software in the field of
 computational chemistry and represents and warrants to the
 licensee that it is not a competitor of Gaussian, Inc. and that
 it will not use this program in any manner prohibited above.
 ---------------------------------------------------------------
  

 Cite this work as:
 Gaussian 16, Revision A.03,
 M. J. Frisch, G. W. Trucks, H. B. Schlegel, G. E. Scuseria, 
 M. A. Robb, J. R. Cheeseman, G. Scalmani, V. Barone, 
 G. A. Petersson, H. Nakatsuji, X. Li, M. Caricato, A. V. Marenich, 
 J. Bloino, B. G. Janesko, R. Gomperts, B. Mennucci, H. P. Hratchian, 
 J. V. Ortiz, A. F. Izmaylov, J. L. Sonnenberg, D. Williams-Young, 
 F. Ding, F. Lipparini, F. Egidi, J. Goings, B. Peng, A. Petrone, 
 T. Henderson, D. Ranasinghe, V. G. Zakrzewski, J. Gao, N. Rega, 
 G. Zheng, W. Liang, M. Hada, M. Ehara, K. Toyota, R. Fukuda, 
 J. Hasegawa, M. Ishida, T. Nakajima, Y. Honda, O. Kitao, H. Nakai, 
 T. Vreven, K. Throssell, J. A. Montgomery, Jr., J. E. Peralta, 
 F. Ogliaro, M. J. Bearpark, J. J. Heyd, E. N. Brothers, K. N. Kudin, 
 V. N. Staroverov, T. A. Keith, R. Kobayashi, J. Normand, 
 K. Raghavachari, A. P. Rendell, J. C. Burant, S. S. Iyengar, 
 J. Tomasi, M. Cossi, J. M. Millam, M. Klene, C. Adamo, R. Cammi, 
 J. W. Ochterski, R. L. Martin, K. Morokuma, O. Farkas, 
 J. B. Foresman, and D. J. Fox, Gaussian, Inc., Wallingford CT, 2016.
 
 ******************************************
 Gaussian 16:  ES64L-G16RevA.03 25-Dec-2016
                27-Aug-2018 
 ******************************************
 %nprocshared=3
 Will use up to    3 processors via shared memory.
 %Mem=6GB
 %Chk=science_add_11.chk
 -------------------------
 # opt b3lyp/6-31G* scf=qc
 -------------------------
 1/18=20,19=15,26=3,38=1/1,3;
 2/9=110,12=2,17=6,18=5,40=1/2;
 3/5=1,6=6,7=1,11=2,25=1,30=1,71=1,74=-5/1,2,3;
 4//1;
 5/5=2,8=3,38=5/8;
 6/7=2,8=2,9=2,10=2,28=1/1;
 7//1,2,3,16;
 1/18=20,19=15,26=3/3(2);
 2/9=110/2;
 99//99;
 2/9=110/2;
 3/5=1,6=6,7=1,11=2,25=1,30=1,71=1,74=-5/1,2,3;
 4/5=5,16=3,69=1/1;
 5/5=2,8=3,38=5/8;
 7//1,2,3,16;
 1/18=20,19=15,26=3/3(-5);
 2/9=110/2;
 6/7=2,8=2,9=2,10=2,19=2,28=1/1;
 99/9=1/99;
 -------------------
 Title Card Required
 -------------------
 Symbolic Z-matrix:
 Charge =  0 Multiplicity = 1
 C5                   -0.7732    0.13054  -0.80229 
 H                    -1.46568   0.05329  -1.62726 
 C4                   -0.34962   1.15198   0.01568 
 C3                    0.59247   0.51736   0.8566 
 H                     1.18169   0.94003   1.65797 
 N2                    0.7279   -0.78268   0.58245 
 O1                   -0.13953  -1.02252  -0.47084 
 C                    -0.79312   2.53108  -0.05942 
 C                    -2.08266   2.85783  -0.50401 
 C                    -2.49341   4.19168  -0.57819 
 C                    -1.62135   5.21294  -0.20808 
 C                    -0.34035   4.90198   0.2417 
 C                     0.07128   3.56861   0.31834 
 H                    -2.79079   2.08266  -0.78682 
 H                    -3.49568   4.43259  -0.92363 
 H                    -1.94018   6.25038  -0.26959 
 H                     0.34191   5.69799   0.52968 
 H                     1.08143   3.35751   0.66155 
 

 GradGradGradGradGradGradGradGradGradGradGradGradGradGradGradGradGradGrad
 Berny optimization.
 Initialization pass.
                           ----------------------------
                           !    Initial Parameters    !
                           ! (Angstroms and Degrees)  !
 --------------------------                            --------------------------
 ! Name  Definition              Value          Derivative Info.                !
 --------------------------------------------------------------------------------
 ! R1    R(1,2)                  1.0798         estimate D2E/DX2                !
 ! R2    R(1,3)                  1.3754         estimate D2E/DX2                !
 ! R3    R(1,7)                  1.3568         estimate D2E/DX2                !
 ! R4    R(3,4)                  1.4133         estimate D2E/DX2                !
 ! R5    R(3,8)                  1.4506         estimate D2E/DX2                !
 ! R6    R(4,5)                  1.0808         estimate D2E/DX2                !
 ! R7    R(4,6)                  1.3355         estimate D2E/DX2                !
 ! R8    R(6,7)                  1.3854         estimate D2E/DX2                !
 ! R9    R(8,9)                  1.4026         estimate D2E/DX2                !
 ! R10   R(8,13)                 1.4023         estimate D2E/DX2                !
 ! R11   R(9,10)                 1.3976         estimate D2E/DX2                !
 ! R12   R(9,14)                 1.0873         estimate D2E/DX2                !
 ! R13   R(10,11)                1.393          estimate D2E/DX2                !
 ! R14   R(10,15)                1.0872         estimate D2E/DX2                !
 ! R15   R(11,12)                1.3928         estimate D2E/DX2                !
 ! R16   R(11,16)                1.0871         estimate D2E/DX2                !
 ! R17   R(12,13)                1.3976         estimate D2E/DX2                !
 ! R18   R(12,17)                1.0872         estimate D2E/DX2                !
 ! R19   R(13,18)                1.0875         estimate D2E/DX2                !
 ! A1    A(2,1,3)              134.8249         estimate D2E/DX2                !
 ! A2    A(2,1,7)              115.1712         estimate D2E/DX2                !
 ! A3    A(3,1,7)              109.9991         estimate D2E/DX2                !
 ! A4    A(1,3,4)              103.0419         estimate D2E/DX2                !
 ! A5    A(1,3,8)              125.5265         estimate D2E/DX2                !
 ! A6    A(4,3,8)              131.4146         estimate D2E/DX2                !
 ! A7    A(3,4,5)              128.9763         estimate D2E/DX2                !
 ! A8    A(3,4,6)              112.4924         estimate D2E/DX2                !
 ! A9    A(5,4,6)              118.5304         estimate D2E/DX2                !
 ! A10   A(4,6,7)              105.1349         estimate D2E/DX2                !
 ! A11   A(1,7,6)              109.3304         estimate D2E/DX2                !
 ! A12   A(3,8,9)              121.2633         estimate D2E/DX2                !
 ! A13   A(3,8,13)             120.067          estimate D2E/DX2                !
 ! A14   A(9,8,13)             118.6697         estimate D2E/DX2                !
 ! A15   A(8,9,10)             120.6203         estimate D2E/DX2                !
 ! A16   A(8,9,14)             121.0048         estimate D2E/DX2                !
 ! A17   A(10,9,14)            118.3703         estimate D2E/DX2                !
 ! A18   A(9,10,11)            120.1056         estimate D2E/DX2                !
 ! A19   A(9,10,15)            119.9531         estimate D2E/DX2                !
 ! A20   A(11,10,15)           119.9412         estimate D2E/DX2                !
 ! A21   A(10,11,12)           119.8605         estimate D2E/DX2                !
 ! A22   A(10,11,16)           120.0677         estimate D2E/DX2                !
 ! A23   A(12,11,16)           120.0718         estimate D2E/DX2                !
 ! A24   A(11,12,13)           120.1058         estimate D2E/DX2                !
 ! A25   A(11,12,17)           119.9486         estimate D2E/DX2                !
 ! A26   A(13,12,17)           119.945          estimate D2E/DX2                !
 ! A27   A(8,13,12)            120.6356         estimate D2E/DX2                !
 ! A28   A(8,13,18)            120.9278         estimate D2E/DX2                !
 ! A29   A(12,13,18)           118.429          estimate D2E/DX2                !
 ! D1    D(2,1,3,4)           -178.841          estimate D2E/DX2                !
 ! D2    D(2,1,3,8)             -0.1942         estimate D2E/DX2                !
 ! D3    D(7,1,3,4)              0.3002         estimate D2E/DX2                !
 ! D4    D(7,1,3,8)            178.9471         estimate D2E/DX2                !
 ! D5    D(2,1,7,6)            179.1706         estimate D2E/DX2                !
 ! D6    D(3,1,7,6)             -0.1564         estimate D2E/DX2                !
 ! D7    D(1,3,4,5)            179.9797         estimate D2E/DX2                !
 ! D8    D(1,3,4,6)             -0.3582         estimate D2E/DX2                !
 ! D9    D(8,3,4,5)              1.4482         estimate D2E/DX2                !
 ! D10   D(8,3,4,6)           -178.8897         estimate D2E/DX2                !
 ! D11   D(1,3,8,9)             30.3719         estimate D2E/DX2                !
 ! D12   D(1,3,8,13)          -149.7419         estimate D2E/DX2                !
 ! D13   D(4,3,8,9)           -151.3861         estimate D2E/DX2                !
 ! D14   D(4,3,8,13)            28.5002         estimate D2E/DX2                !
 ! D15   D(3,4,6,7)              0.2707         estimate D2E/DX2                !
 ! D16   D(5,4,6,7)            179.9718         estimate D2E/DX2                !
 ! D17   D(4,6,7,1)             -0.0703         estimate D2E/DX2                !
 ! D18   D(3,8,9,10)          -179.6375         estimate D2E/DX2                !
 ! D19   D(3,8,9,14)             1.1527         estimate D2E/DX2                !
 ! D20   D(13,8,9,10)            0.4747         estimate D2E/DX2                !
 ! D21   D(13,8,9,14)         -178.7351         estimate D2E/DX2                !
 ! D22   D(3,8,13,12)          179.5416         estimate D2E/DX2                !
 ! D23   D(3,8,13,18)            0.5665         estimate D2E/DX2                !
 ! D24   D(9,8,13,12)           -0.5692         estimate D2E/DX2                !
 ! D25   D(9,8,13,18)         -179.5443         estimate D2E/DX2                !
 ! D26   D(8,9,10,11)           -0.0598         estimate D2E/DX2                !
 ! D27   D(8,9,10,15)         -179.9529         estimate D2E/DX2                !
 ! D28   D(14,9,10,11)         179.1705         estimate D2E/DX2                !
 ! D29   D(14,9,10,15)          -0.7226         estimate D2E/DX2                !
 ! D30   D(9,10,11,12)          -0.2697         estimate D2E/DX2                !
 ! D31   D(9,10,11,16)         179.7685         estimate D2E/DX2                !
 ! D32   D(15,10,11,12)        179.6234         estimate D2E/DX2                !
 ! D33   D(15,10,11,16)         -0.3384         estimate D2E/DX2                !
 ! D34   D(10,11,12,13)          0.1757         estimate D2E/DX2                !
 ! D35   D(10,11,12,17)        179.9188         estimate D2E/DX2                !
 ! D36   D(16,11,12,13)       -179.8625         estimate D2E/DX2                !
 ! D37   D(16,11,12,17)         -0.1194         estimate D2E/DX2                !
 ! D38   D(11,12,13,8)           0.2495         estimate D2E/DX2                !
 ! D39   D(11,12,13,18)        179.2497         estimate D2E/DX2                !
 ! D40   D(17,12,13,8)        -179.4936         estimate D2E/DX2                !
 ! D41   D(17,12,13,18)         -0.4934         estimate D2E/DX2                !
 --------------------------------------------------------------------------------
 Trust Radius=3.00D-01 FncErr=1.00D-07 GrdErr=1.00D-06 EigMax=2.50D+02 EigMin=1.00D-04
 Number of steps in this run=     99 maximum allowed number of steps=    108.
 GradGradGradGradGradGradGradGradGradGradGradGradGradGradGradGradGradGrad

                          Input orientation:                          
 ---------------------------------------------------------------------
 Center     Atomic      Atomic             Coordinates (Angstroms)
 Number     Number       Type             X           Y           Z
 ---------------------------------------------------------------------
      1          6           0       -0.773200    0.130540   -0.802290
      2          1           0       -1.465680    0.053290   -1.627260
      3          6           0       -0.349620    1.151980    0.015680
      4          6           0        0.592470    0.517360    0.856600
      5          1           0        1.181690    0.940030    1.657970
      6          7           0        0.727900   -0.782680    0.582450
      7          8           0       -0.139530   -1.022520   -0.470840
      8          6           0       -0.793120    2.531080   -0.059420
      9          6           0       -2.082660    2.857830   -0.504010
     10          6           0       -2.493410    4.191680   -0.578190
     11          6           0       -1.621350    5.212940   -0.208080
     12          6           0       -0.340350    4.901980    0.241700
     13          6           0        0.071280    3.568610    0.318340
     14          1           0       -2.790790    2.082660   -0.786820
     15          1           0       -3.495680    4.432590   -0.923630
     16          1           0       -1.940180    6.250380   -0.269590
     17          1           0        0.341910    5.697990    0.529680
     18          1           0        1.081430    3.357510    0.661550
 ---------------------------------------------------------------------
                    Distance matrix (angstroms):
                    1          2          3          4          5
     1  C    0.000000
     2  H    1.079848   0.000000
     3  C    1.375440   2.269793   0.000000
     4  C    2.183255   3.258973   1.413302   0.000000
     5  H    3.244957   4.311335   2.255427   1.080752   0.000000
     6  N    2.237136   3.223889   2.285867   1.335516   2.080961
     7  O    1.356814   2.062365   2.238144   2.160822   3.182618
     8  C    2.512936   3.008306   1.450603   2.610368   3.062800
     9  C    3.040027   3.083472   2.486650   3.805966   4.359827
    10  C    4.416130   4.391247   3.766735   5.008184   5.392587
    11  C    5.186833   5.353531   4.261310   5.299341   5.440307
    12  C    4.903459   5.316876   3.756817   4.524726   4.474313
    13  C    3.713392   4.301753   2.471611   3.141893   3.152309
    14  H    2.807433   2.565268   2.733035   4.073996   4.802416
    15  H    5.092569   4.877936   4.641379   5.933904   6.382823
    16  H    6.252844   6.361788   5.348359   6.367899   6.454562
    17  H    5.832162   6.307330   4.626945   5.196978   4.961497
    18  H    3.999477   4.758602   2.707289   2.888525   2.616699
                    6          7          8          9         10
     6  N    0.000000
     7  O    1.385416   0.000000
     8  C    3.702230   3.636553   0.000000
     9  C    4.725776   4.339812   1.402619   0.000000
    10  C    6.038889   5.721901   2.432632   1.397632   0.000000
    11  C    6.487786   6.414499   2.810772   2.418041   1.392998
    12  C    5.794189   5.970573   2.432456   2.787522   2.410895
    13  C    4.408472   4.663231   1.402269   2.412659   2.787403
    14  H    4.739858   4.095261   2.172758   1.087345   2.140076
    15  H    6.877932   6.420824   3.415616   2.156983   1.087158
    16  H    7.570241   7.495193   3.897834   3.403623   2.153960
    17  H    6.492369   6.811614   3.415355   3.874734   3.396378
    18  H    4.156009   4.685906   2.171802   3.408765   3.874568
                   11         12         13         14         15
    11  C    0.000000
    12  C    1.392824   0.000000
    13  C    2.417837   1.397565   0.000000
    14  H    3.391339   3.874413   3.408940   0.000000
    15  H    2.152689   3.396237   3.874552   2.457185   0.000000
    16  H    1.087068   2.153847   3.403458   4.284968   2.480264
    17  H    2.152662   1.087218   2.156888   4.961612   4.294234
    18  H    3.391739   2.140822   1.087547   4.326327   4.961706
                   16         17         18
    16  H    0.000000
    17  H    2.480303   0.000000
    18  H    4.285539   2.458074   0.000000
 Stoichiometry    C9H7NO
 Framework group  C1[X(C9H7NO)]
 Deg. of freedom    48
 Full point group                 C1      NOp   1
 Largest Abelian subgroup         C1      NOp   1
 Largest concise Abelian subgroup C1      NOp   1
                         Standard orientation:                         
 ---------------------------------------------------------------------
 Center     Atomic      Atomic             Coordinates (Angstroms)
 Number     Number       Type             X           Y           Z
 ---------------------------------------------------------------------
      1          6           0        1.813839   -1.012497   -0.348169
      2          1           0        1.648966   -2.016436   -0.710100
      3          6           0        0.997769    0.028592    0.028658
      4          6           0        1.916594    1.048257    0.365508
      5          1           0        1.720319    2.051180    0.717143
      6          7           0        3.186185    0.661871    0.215689
      7          8           0        3.115349   -0.645244   -0.237975
      8          6           0       -0.452667    0.008621    0.019410
      9          6           0       -1.165650   -1.180473    0.231656
     10          6           0       -2.563139   -1.185677    0.212427
     11          6           0       -3.263168   -0.003535   -0.017665
     12          6           0       -2.567584    1.185549   -0.223095
     13          6           0       -1.170193    1.192846   -0.202234
     14          1           0       -0.648133   -2.116516    0.427406
     15          1           0       -3.104839   -2.113426    0.379024
     16          1           0       -4.350064   -0.008981   -0.036227
     17          1           0       -3.112476    2.108786   -0.404118
     18          1           0       -0.654670    2.134149   -0.378145
 ---------------------------------------------------------------------
 Rotational constants (GHZ):           3.5887305           0.6588778           0.5673870
 Standard basis: 6-31G(d) (6D, 7F)
 There are   179 symmetry adapted cartesian basis functions of A   symmetry.
 There are   179 symmetry adapted basis functions of A   symmetry.
   179 basis functions,   336 primitive gaussians,   179 cartesian basis functions
    38 alpha electrons       38 beta electrons
       nuclear repulsion energy       537.0041995014 Hartrees.
 NAtoms=   18 NActive=   18 NUniq=   18 SFac= 1.00D+00 NAtFMM=   60 NAOKFM=F Big=F
 Integral buffers will be    131072 words long.
 Raffenetti 2 integral format.
 Two-electron integral symmetry is turned on.
 One-electron integrals computed using PRISM.
 NBasis=   179 RedAO= T EigKep=  4.60D-04  NBF=   179
 NBsUse=   179 1.00D-06 EigRej= -1.00D+00 NBFU=   179
 ExpMin= 1.61D-01 ExpMax= 5.48D+03 ExpMxC= 8.25D+02 IAcc=3 IRadAn=         5 AccDes= 0.00D+00
 Harris functional with IExCor=  402 and IRadAn=       5 diagonalized for initial guess.
 HarFok:  IExCor=  402 AccDes= 0.00D+00 IRadAn=         5 IDoV= 1 UseB2=F ITyADJ=14
 ICtDFT=  3500011 ScaDFX=  1.000000  1.000000  1.000000  1.000000
 FoFCou: FMM=F IPFlag=           0 FMFlag=      100000 FMFlg1=           0
         NFxFlg=           0 DoJE=T BraDBF=F KetDBF=T FulRan=T
         wScrn=  0.000000 ICntrl=       500 IOpCl=  0 I1Cent=   200000004 NGrid=           0
         NMat0=    1 NMatS0=      1 NMatT0=    0 NMatD0=    1 NMtDS0=    0 NMtDT0=    0
 Petite list used in FoFCou.
 Keep R1 ints in memory in canonical form, NReq=132789143.
 Gradient too large for Newton-Raphson -- use scaled steepest descent instead.
 Gradient too large for Newton-Raphson -- use scaled steepest descent instead.
     Accept linear search using points  1 and  2.
 Gradient too large for Newton-Raphson -- use scaled steepest descent instead.
     Accept linear search using points  2 and  3.
 Gradient too large for Newton-Raphson -- use scaled steepest descent instead.
     Accept linear search using points  1 and  2.
 Gradient too large for Newton-Raphson -- use scaled steepest descent instead.
     Accept linear search using points  1 and  2.
 Gradient too large for Newton-Raphson -- use scaled steepest descent instead.
     Minimum is close to point  2 DX=  2.46D-02 DF= -1.37D-07 DXR=  5.80D-02 DFR=  3.37D-03 which will be used.
 LinEq1:  Iter=  0 NonCon=     1 RMS=5.64D-05 Max=2.01D-03 NDo=     1
 AX will form     1 AO Fock derivatives at one time.
 LinEq1:  Iter=  1 NonCon=     1 RMS=7.01D-05 Max=1.68D-03 NDo=     1
 LinEq1:  Iter=  2 NonCon=     1 RMS=1.58D-05 Max=4.38D-04 NDo=     1
 LinEq1:  Iter=  3 NonCon=     1 RMS=1.51D-05 Max=5.68D-04 NDo=     1
 LinEq1:  Iter=  4 NonCon=     1 RMS=5.49D-06 Max=8.44D-05 NDo=     1
 LinEq1:  Iter=  5 NonCon=     1 RMS=4.09D-06 Max=1.16D-04 NDo=     1
 LinEq1:  Iter=  6 NonCon=     1 RMS=3.29D-06 Max=7.44D-05 NDo=     1
 LinEq1:  Iter=  7 NonCon=     1 RMS=9.98D-07 Max=1.95D-05 NDo=     1
 LinEq1:  Iter=  8 NonCon=     1 RMS=5.05D-07 Max=1.04D-05 NDo=     1
 LinEq1:  Iter=  9 NonCon=     1 RMS=2.24D-07 Max=3.87D-06 NDo=     1
 LinEq1:  Iter= 10 NonCon=     1 RMS=1.44D-07 Max=4.60D-06 NDo=     1
 LinEq1:  Iter= 11 NonCon=     1 RMS=6.05D-08 Max=9.98D-07 NDo=     1
 LinEq1:  Iter= 12 NonCon=     1 RMS=4.36D-08 Max=7.68D-07 NDo=     1
 LinEq1:  Iter= 13 NonCon=     1 RMS=1.45D-08 Max=3.15D-07 NDo=     1
 LinEq1:  Iter= 14 NonCon=     1 RMS=9.13D-09 Max=1.31D-07 NDo=     1
 LinEq1:  Iter= 15 NonCon=     0 RMS=3.30D-09 Max=5.61D-08 NDo=     1
 Linear equations converged to 1.035D-08 1.035D-07 after    15 iterations.
     Accept linear search using points  1 and  2.
     Minimum is close to point  2 DX= -1.21D-04 DF= -2.84D-13 DXR=  1.21D-04 DFR=  1.55D-08 which will be used.
 LinEq1:  Iter=  0 NonCon=     1 RMS=4.75D-08 Max=1.66D-06 NDo=     1
 LinEq1:  Iter=  1 NonCon=     1 RMS=3.14D-08 Max=1.23D-06 NDo=     1
 LinEq1:  Iter=  2 NonCon=     1 RMS=1.87D-08 Max=4.07D-07 NDo=     1
 LinEq1:  Iter=  3 NonCon=     1 RMS=7.68D-09 Max=1.34D-07 NDo=     1
 LinEq1:  Iter=  4 NonCon=     1 RMS=6.41D-09 Max=1.58D-07 NDo=     1
 LinEq1:  Iter=  5 NonCon=     1 RMS=2.12D-09 Max=4.45D-08 NDo=     1
 LinEq1:  Iter=  6 NonCon=     1 RMS=1.76D-09 Max=4.64D-08 NDo=     1
 LinEq1:  Iter=  7 NonCon=     1 RMS=8.96D-10 Max=2.81D-08 NDo=     1
 LinEq1:  Iter=  8 NonCon=     1 RMS=7.53D-10 Max=2.21D-08 NDo=     1
 LinEq1:  Iter=  9 NonCon=     1 RMS=4.68D-10 Max=1.01D-08 NDo=     1
 LinEq1:  Iter= 10 NonCon=     1 RMS=2.26D-10 Max=4.26D-09 NDo=     1
 LinEq1:  Iter= 11 NonCon=     1 RMS=1.21D-10 Max=2.40D-09 NDo=     1
 LinEq1:  Iter= 12 NonCon=     1 RMS=5.05D-11 Max=1.43D-09 NDo=     1
 LinEq1:  Iter= 13 NonCon=     1 RMS=1.55D-11 Max=4.63D-10 NDo=     1
 LinEq1:  Iter= 14 NonCon=     1 RMS=1.06D-11 Max=2.96D-10 NDo=     1
 LinEq1:  Iter= 15 NonCon=     0 RMS=6.10D-12 Max=1.81D-10 NDo=     1
 Linear equations converged to 2.340D-11 2.340D-10 after    15 iterations.
 SCF Done:  E(RB3LYP) =  -477.091054771     a.u. after    9 cycles
            Convg  =    0.4219D-10                    48 Fock formations.
              S**2 =  0.0000                  -V/T =  2.0095

 **********************************************************************

            Population analysis using the SCF density.

 **********************************************************************

 Orbital symmetries:
       Occupied  (A) (A) (A) (A) (A) (A) (A) (A) (A) (A) (A) (A)
                 (A) (A) (A) (A) (A) (A) (A) (A) (A) (A) (A) (A)
                 (A) (A) (A) (A) (A) (A) (A) (A) (A) (A) (A) (A)
                 (A) (A)
       Virtual   (A) (A) (A) (A) (A) (A) (A) (A) (A) (A) (A) (A)
                 (A) (A) (A) (A) (A) (A) (A) (A) (A) (A) (A) (A)
                 (A) (A) (A) (A) (A) (A) (A) (A) (A) (A) (A) (A)
                 (A) (A) (A) (A) (A) (A) (A) (A) (A) (A) (A) (A)
                 (A) (A) (A) (A) (A) (A) (A) (A) (A) (A) (A) (A)
                 (A) (A) (A) (A) (A) (A) (A) (A) (A) (A) (A) (A)
                 (A) (A) (A) (A) (A) (A) (A) (A) (A) (A) (A) (A)
                 (A) (A) (A) (A) (A) (A) (A) (A) (A) (A) (A) (A)
                 (A) (A) (A) (A) (A) (A) (A) (A) (A) (A) (A) (A)
                 (A) (A) (A) (A) (A) (A) (A) (A) (A) (A) (A) (A)
                 (A) (A) (A) (A) (A) (A) (A) (A) (A) (A) (A) (A)
                 (A) (A) (A) (A) (A) (A) (A) (A) (A)
 The electronic state is 1-A.
 Alpha  occ. eigenvalues --  -19.24221 -14.38582 -10.25895 -10.22919 -10.21331
 Alpha  occ. eigenvalues --  -10.21063 -10.20087 -10.19999 -10.19940 -10.19891
 Alpha  occ. eigenvalues --  -10.19714  -1.14433  -0.87325  -0.85904  -0.81334
 Alpha  occ. eigenvalues --   -0.75369  -0.74643  -0.64173  -0.62601  -0.59678
 Alpha  occ. eigenvalues --   -0.58844  -0.54792  -0.50749  -0.47546  -0.47061
 Alpha  occ. eigenvalues --   -0.45940  -0.43453  -0.42891  -0.42143  -0.39713
 Alpha  occ. eigenvalues --   -0.37841  -0.35786  -0.35299  -0.31323  -0.30573
 Alpha  occ. eigenvalues --   -0.28197  -0.25919  -0.23399
 Alpha virt. eigenvalues --   -0.03221  -0.01323  -0.00756   0.07464   0.08466
 Alpha virt. eigenvalues --    0.09777   0.11303   0.13902   0.14805   0.15287
 Alpha virt. eigenvalues --    0.16866   0.17294   0.19594   0.20080   0.25795
 Alpha virt. eigenvalues --    0.27444   0.29758   0.30417   0.33168   0.34908
 Alpha virt. eigenvalues --    0.40839   0.42294   0.45867   0.50200   0.52302
 Alpha virt. eigenvalues --    0.52756   0.53575   0.54232   0.56356   0.57231
 Alpha virt. eigenvalues --    0.57982   0.58697   0.59639   0.59945   0.60722
 Alpha virt. eigenvalues --    0.61013   0.61668   0.62705   0.65532   0.66687
 Alpha virt. eigenvalues --    0.68897   0.71450   0.74209   0.75871   0.78224
 Alpha virt. eigenvalues --    0.78511   0.80191   0.80655   0.83031   0.83357
 Alpha virt. eigenvalues --    0.84372   0.85557   0.90256   0.91727   0.92337
 Alpha virt. eigenvalues --    0.93730   0.96315   0.97767   1.00172   1.00670
 Alpha virt. eigenvalues --    1.02503   1.04133   1.11132   1.11867   1.13552
 Alpha virt. eigenvalues --    1.15128   1.18594   1.19685   1.25697   1.32432
 Alpha virt. eigenvalues --    1.35833   1.37160   1.39238   1.42205   1.43002
 Alpha virt. eigenvalues --    1.43668   1.46215   1.47712   1.48571   1.49212
 Alpha virt. eigenvalues --    1.50617   1.53499   1.55951   1.58256   1.68385
 Alpha virt. eigenvalues --    1.77807   1.79327   1.80353   1.82831   1.86135
 Alpha virt. eigenvalues --    1.88747   1.91106   1.91686   1.96345   2.04428
 Alpha virt. eigenvalues --    2.05726   2.08449   2.10244   2.11746   2.13092
 Alpha virt. eigenvalues --    2.14199   2.17370   2.18820   2.20508   2.26178
 Alpha virt. eigenvalues --    2.27559   2.28823   2.29738   2.30138   2.32261
 Alpha virt. eigenvalues --    2.40691   2.46404   2.52087   2.56508   2.57571
 Alpha virt. eigenvalues --    2.62137   2.64646   2.66011   2.67888   2.69754
 Alpha virt. eigenvalues --    2.70541   2.74619   2.74771   2.80833   2.88121
 Alpha virt. eigenvalues --    2.92404   3.01054   3.11317   3.22754   3.42590
 Alpha virt. eigenvalues --    3.74684   3.98540   4.07329   4.09562   4.10776
 Alpha virt. eigenvalues --    4.16734   4.21341   4.30354   4.31994   4.49506
 Alpha virt. eigenvalues --    4.73540
          Condensed to atoms (all electrons):
               1          2          3          4          5          6
     1  C    5.043359   0.361851   0.510839  -0.081122   0.006501  -0.114276
     2  H    0.361851   0.510580  -0.031252   0.004301  -0.000109   0.003485
     3  C    0.510839  -0.031252   4.938537   0.457349  -0.036808   0.003591
     4  C   -0.081122   0.004301   0.457349   4.972841   0.365466   0.399371
     5  H    0.006501  -0.000109  -0.036808   0.365466   0.532891  -0.042894
     6  N   -0.114276   0.003485   0.003591   0.399371  -0.042894   6.726909
     7  O    0.228731  -0.032662  -0.012524  -0.090035   0.004068   0.174548
     8  C   -0.054514  -0.001080   0.305796  -0.041239  -0.002349   0.007922
     9  C   -0.014775   0.002229  -0.045579   0.006600  -0.000051  -0.000088
    10  C    0.000265  -0.000017   0.006680  -0.000154  -0.000000   0.000001
    11  C    0.000024   0.000001   0.000861   0.000012   0.000001   0.000000
    12  C   -0.000203   0.000001   0.007020   0.000245  -0.000032  -0.000001
    13  C    0.006968  -0.000055  -0.047128  -0.012470   0.001997  -0.000019
    14  H    0.006019   0.001740  -0.010929  -0.000020   0.000001  -0.000004
    15  H   -0.000007  -0.000000  -0.000194   0.000001   0.000000  -0.000000
    16  H   -0.000000  -0.000000   0.000001  -0.000000  -0.000000   0.000000
    17  H    0.000002   0.000000  -0.000212  -0.000005   0.000000  -0.000000
    18  H    0.000084   0.000001  -0.010857   0.004672   0.001748  -0.000029
               7          8          9         10         11         12
     1  C    0.228731  -0.054514  -0.014775   0.000265   0.000024  -0.000203
     2  H   -0.032662  -0.001080   0.002229  -0.000017   0.000001   0.000001
     3  C   -0.012524   0.305796  -0.045579   0.006680   0.000861   0.007020
     4  C   -0.090035  -0.041239   0.006600  -0.000154   0.000012   0.000245
     5  H    0.004068  -0.002349  -0.000051  -0.000000   0.000001  -0.000032
     6  N    0.174548   0.007922  -0.000088   0.000001   0.000000  -0.000001
     7  O    8.041198   0.005446   0.000011  -0.000001   0.000000   0.000000
     8  C    0.005446   4.742963   0.522971  -0.011422  -0.033057  -0.009901
     9  C    0.000011   0.522971   5.017703   0.513085  -0.038811  -0.044155
    10  C   -0.000001  -0.011422   0.513085   4.865377   0.551129  -0.025283
    11  C    0.000000  -0.033057  -0.038811   0.551129   4.846783   0.551836
    12  C    0.000000  -0.009901  -0.044155  -0.025283   0.551836   4.864115
    13  C   -0.000078   0.520681  -0.065508  -0.043986  -0.038556   0.513028
    14  H   -0.000039  -0.042105   0.351554  -0.043067   0.004841   0.000287
    15  H   -0.000000   0.003297  -0.037935   0.357400  -0.042284   0.004621
    16  H    0.000000   0.000571   0.004974  -0.043344   0.359270  -0.043227
    17  H   -0.000000   0.003228   0.000867   0.004618  -0.042364   0.357418
    18  H   -0.000004  -0.041864   0.005679   0.000316   0.004803  -0.043734
              13         14         15         16         17         18
     1  C    0.006968   0.006019  -0.000007  -0.000000   0.000002   0.000084
     2  H   -0.000055   0.001740  -0.000000  -0.000000   0.000000   0.000001
     3  C   -0.047128  -0.010929  -0.000194   0.000001  -0.000212  -0.010857
     4  C   -0.012470  -0.000020   0.000001  -0.000000  -0.000005   0.004672
     5  H    0.001997   0.000001   0.000000  -0.000000   0.000000   0.001748
     6  N   -0.000019  -0.000004  -0.000000   0.000000  -0.000000  -0.000029
     7  O   -0.000078  -0.000039  -0.000000   0.000000  -0.000000  -0.000004
     8  C    0.520681  -0.042105   0.003297   0.000571   0.003228  -0.041864
     9  C   -0.065508   0.351554  -0.037935   0.004974   0.000867   0.005679
    10  C   -0.043986  -0.043067   0.357400  -0.043344   0.004618   0.000316
    11  C   -0.038556   0.004841  -0.042284   0.359270  -0.042364   0.004803
    12  C    0.513028   0.000287   0.004621  -0.043227   0.357418  -0.043734
    13  C    5.015510   0.005888   0.000839   0.004958  -0.038021   0.354430
    14  H    0.005888   0.601233  -0.005542  -0.000184   0.000017  -0.000156
    15  H    0.000839  -0.005542   0.590302  -0.005603  -0.000188   0.000017
    16  H    0.004958  -0.000184  -0.005603   0.595075  -0.005607  -0.000183
    17  H   -0.038021   0.000017  -0.000188  -0.005607   0.590286  -0.005395
    18  H    0.354430  -0.000156   0.000017  -0.000183  -0.005395   0.596790
 Mulliken charges:
               1
     1  C    0.100253
     2  H    0.180986
     3  C   -0.035191
     4  C    0.014188
     5  H    0.169569
     6  N   -0.158516
     7  O   -0.318661
     8  C    0.124655
     9  C   -0.178771
    10  C   -0.131595
    11  C   -0.124489
    12  C   -0.132036
    13  C   -0.178478
    14  H    0.130465
    15  H    0.135276
    16  H    0.133301
    17  H    0.135358
    18  H    0.133684
 Sum of Mulliken charges =   0.00000
 Mulliken charges with hydrogens summed into heavy atoms:
               1
     1  C    0.281239
     3  C   -0.035191
     4  C    0.183757
     6  N   -0.158516
     7  O   -0.318661
     8  C    0.124655
     9  C   -0.048306
    10  C    0.003681
    11  C    0.008813
    12  C    0.003322
    13  C   -0.044793
 Electronic spatial extent (au):  <R**2>=           1876.5356
 Charge=              0.0000 electrons
 Dipole moment (field-independent basis, Debye):
    X=             -3.2623    Y=             -0.5474    Z=             -0.1945  Tot=              3.3137
 Quadrupole moment (field-independent basis, Debye-Ang):
   XX=            -71.1152   YY=            -53.8301   ZZ=            -65.0015
   XY=             -1.9930   XZ=             -0.5237   YZ=              0.4524
 Traceless Quadrupole moment (field-independent basis, Debye-Ang):
   XX=             -7.7996   YY=              9.4855   ZZ=             -1.6859
   XY=             -1.9930   XZ=             -0.5237   YZ=              0.4524
 Octapole moment (field-independent basis, Debye-Ang**2):
  XXX=            -68.0158  YYY=             -3.1633  ZZZ=             -1.1823  XYY=              2.5931
  XXY=             -8.3637  XXZ=             -3.0303  XZZ=             10.5303  YZZ=             -1.0354
  YYZ=             -0.5259  XYZ=              4.9013
 Hexadecapole moment (field-independent basis, Debye-Ang**3):
 XXXX=          -2074.1403 YYYY=           -388.1085 ZZZZ=            -89.9576 XXXY=            -36.2889
 XXXZ=             -9.8762 YYYX=             -9.9853 YYYZ=              3.7149 ZZZX=             -3.7514
 ZZZY=              3.0016 XXYY=           -377.5040 XXZZ=           -358.7202 YYZZ=            -87.7539
 XXYZ=             -6.1763 YYXZ=             -1.0449 ZZXY=             -3.3749
 N-N= 5.370041995014D+02 E-N=-2.182303177548D+03  KE= 4.726124458950D+02
 Calling FoFJK, ICntrl=      2127 FMM=F ISym2X=0 I1Cent= 0 IOpClX= 0 NMat=1 NMatS=1 NMatT=0.
 ***** Axes restored to original set *****
 -------------------------------------------------------------------
 Center     Atomic                   Forces (Hartrees/Bohr)
 Number     Number              X              Y              Z
 -------------------------------------------------------------------
      1        6           0.009792211   -0.010649236    0.009251669
      2        1          -0.000024111    0.001716677   -0.000137044
      3        6          -0.010791569   -0.010515773   -0.016403231
      4        6           0.007718186   -0.024955568   -0.001330688
      5        1           0.000180720    0.000509341    0.001198485
      6        7           0.000076021    0.020639453    0.007083301
      7        8          -0.006294761    0.007113488   -0.004357189
      8        6           0.001183370    0.009685969    0.005002886
      9        6          -0.005295094    0.006408084   -0.001988226
     10        6           0.000977588   -0.004180968   -0.000947861
     11        6          -0.001073836    0.004219403   -0.000134798
     12        6           0.001859862   -0.003019031    0.000763889
     13        6           0.000187049    0.009237238    0.001002795
     14        1           0.002089360   -0.001743045    0.001385276
     15        1           0.000223055   -0.000842448    0.000111345
     16        1          -0.000018056   -0.000184339    0.000197109
     17        1           0.000161169   -0.000748133    0.000061317
     18        1          -0.000951164   -0.002691113   -0.000759034
 -------------------------------------------------------------------
 Cartesian Forces:  Max     0.024955568 RMS     0.006688576

 GradGradGradGradGradGradGradGradGradGradGradGradGradGradGradGradGradGrad
 Berny optimization.
 FormGI is forming the generalized inverse of G from B-inverse, IUseBI=4.
 Internal  Forces:  Max     0.020577825 RMS     0.003565285
 Search for a local minimum.
 Step number   1 out of a maximum of   99
 All quantities printed in internal units (Hartrees-Bohrs-Radians)
 Mixed Optimization -- RFO/linear search
 Second derivative matrix not updated -- first step.
 ITU=  0
     Eigenvalues ---    0.01419   0.01861   0.01864   0.02012   0.02066
     Eigenvalues ---    0.02086   0.02092   0.02120   0.02131   0.02147
     Eigenvalues ---    0.02153   0.02168   0.02183   0.02235   0.02380
     Eigenvalues ---    0.15998   0.15999   0.15999   0.16000   0.16000
     Eigenvalues ---    0.16000   0.16000   0.22000   0.22000   0.23346
     Eigenvalues ---    0.23474   0.23849   0.24986   0.25000   0.35098
     Eigenvalues ---    0.35121   0.35136   0.35143   0.35154   0.35904
     Eigenvalues ---    0.36013   0.38166   0.40976   0.41670   0.41886
     Eigenvalues ---    0.45333   0.45394   0.46021   0.46140   0.46688
     Eigenvalues ---    0.48023   0.51297   0.56608
 RFO step:  Lambda=-2.91707066D-03 EMin= 1.41937511D-02
 Linear search not attempted -- first point.
 Iteration  1 RMS(Cart)=  0.02100612 RMS(Int)=  0.00022955
 Iteration  2 RMS(Cart)=  0.00034620 RMS(Int)=  0.00005400
 Iteration  3 RMS(Cart)=  0.00000011 RMS(Int)=  0.00005400
 Variable       Old X    -DE/DX   Delta X   Delta X   Delta X     New X
                                 (Linear)    (Quad)   (Total)
    R1        2.04062  -0.00000   0.00000  -0.00001  -0.00001   2.04061
    R2        2.59920  -0.00486   0.00000  -0.00882  -0.00880   2.59041
    R3        2.56401  -0.00935   0.00000  -0.01713  -0.01713   2.54688
    R4        2.67075   0.00909   0.00000   0.02106   0.02107   2.69183
    R5        2.74124   0.01530   0.00000   0.03979   0.03979   2.78104
    R6        2.04232   0.00119   0.00000   0.00328   0.00328   2.04560
    R7        2.52376  -0.02058   0.00000  -0.03574  -0.03575   2.48801
    R8        2.61806   0.00279   0.00000   0.00505   0.00502   2.62308
    R9        2.65057   0.00165   0.00000   0.00346   0.00346   2.65402
   R10        2.64990   0.00253   0.00000   0.00544   0.00544   2.65535
   R11        2.64114  -0.00280   0.00000  -0.00610  -0.00610   2.63504
   R12        2.05478  -0.00048   0.00000  -0.00135  -0.00135   2.05343
   R13        2.63238   0.00290   0.00000   0.00628   0.00628   2.63866
   R14        2.05443  -0.00043   0.00000  -0.00121  -0.00121   2.05322
   R15        2.63206   0.00248   0.00000   0.00544   0.00544   2.63749
   R16        2.05426  -0.00018   0.00000  -0.00051  -0.00051   2.05375
   R17        2.64102  -0.00236   0.00000  -0.00506  -0.00506   2.63596
   R18        2.05454  -0.00043   0.00000  -0.00121  -0.00121   2.05333
   R19        2.05517  -0.00060   0.00000  -0.00170  -0.00170   2.05347
    A1        2.35314  -0.00243   0.00000  -0.01478  -0.01480   2.33834
    A2        2.01012   0.00098   0.00000   0.00612   0.00610   2.01622
    A3        1.91985   0.00144   0.00000   0.00862   0.00865   1.92850
    A4        1.79842  -0.00434   0.00000  -0.01500  -0.01497   1.78345
    A5        2.19085   0.01032   0.00000   0.03988   0.03984   2.23069
    A6        2.29362  -0.00598   0.00000  -0.02462  -0.02467   2.26895
    A7        2.25106  -0.00122   0.00000  -0.00535  -0.00542   2.24564
    A8        1.96336   0.00207   0.00000   0.00834   0.00830   1.97167
    A9        2.06875  -0.00085   0.00000  -0.00309  -0.00316   2.06559
   A10        1.83495   0.00073   0.00000  -0.00105  -0.00107   1.83388
   A11        1.90818   0.00010   0.00000  -0.00093  -0.00094   1.90723
   A12        2.11644  -0.00059   0.00000  -0.00200  -0.00199   2.11445
   A13        2.09556   0.00224   0.00000   0.00918   0.00918   2.10475
   A14        2.07118  -0.00164   0.00000  -0.00718  -0.00719   2.06399
   A15        2.10522   0.00095   0.00000   0.00363   0.00363   2.10885
   A16        2.11193  -0.00349   0.00000  -0.02036  -0.02036   2.09157
   A17        2.06595   0.00254   0.00000   0.01666   0.01666   2.08261
   A18        2.09624   0.00076   0.00000   0.00341   0.00337   2.09961
   A19        2.09358  -0.00117   0.00000  -0.00653  -0.00655   2.08702
   A20        2.09337   0.00040   0.00000   0.00310   0.00307   2.09644
   A21        2.09196  -0.00148   0.00000  -0.00619  -0.00619   2.08577
   A22        2.09558   0.00074   0.00000   0.00307   0.00307   2.09865
   A23        2.09565   0.00074   0.00000   0.00311   0.00311   2.09876
   A24        2.09624   0.00022   0.00000   0.00128   0.00127   2.09752
   A25        2.09350   0.00054   0.00000   0.00335   0.00335   2.09685
   A26        2.09344  -0.00076   0.00000  -0.00464  -0.00464   2.08879
   A27        2.10549   0.00120   0.00000   0.00506   0.00505   2.11054
   A28        2.11059  -0.00356   0.00000  -0.02071  -0.02070   2.08989
   A29        2.06698   0.00236   0.00000   0.01563   0.01563   2.08261
    D1       -3.12137   0.00020   0.00000   0.00568   0.00556  -3.11580
    D2       -0.00339   0.00029   0.00000   0.01540   0.01553   0.01214
    D3        0.00524   0.00004   0.00000   0.00151   0.00150   0.00674
    D4        3.12322   0.00013   0.00000   0.01124   0.01146   3.13468
    D5        3.12712  -0.00018   0.00000  -0.00271  -0.00268   3.12443
    D6       -0.00273  -0.00002   0.00000   0.00076   0.00077  -0.00196
    D7        3.14124   0.00046   0.00000   0.01710   0.01698  -3.12496
    D8       -0.00625  -0.00009   0.00000  -0.00354  -0.00358  -0.00983
    D9        0.02528   0.00004   0.00000   0.00526   0.00543   0.03071
   D10       -3.12221  -0.00051   0.00000  -0.01538  -0.01513  -3.13735
   D11        0.53009  -0.00031   0.00000  -0.01703  -0.01708   0.51301
   D12       -2.61349  -0.00025   0.00000  -0.01408  -0.01410  -2.62758
   D13       -2.64219  -0.00006   0.00000  -0.00384  -0.00382  -2.64600
   D14        0.49742   0.00000   0.00000  -0.00088  -0.00083   0.49659
   D15        0.00473   0.00008   0.00000   0.00404   0.00409   0.00882
   D16        3.14110  -0.00040   0.00000  -0.01423  -0.01416   3.12694
   D17       -0.00123  -0.00005   0.00000  -0.00294  -0.00298  -0.00421
   D18       -3.13527   0.00023   0.00000   0.01008   0.01008  -3.12518
   D19        0.02012   0.00035   0.00000   0.01583   0.01576   0.03587
   D20        0.00828   0.00017   0.00000   0.00715   0.00715   0.01543
   D21       -3.11952   0.00029   0.00000   0.01289   0.01282  -3.10670
   D22        3.13359  -0.00000   0.00000  -0.00028  -0.00030   3.13329
   D23        0.00989   0.00000   0.00000   0.00081   0.00078   0.01067
   D24       -0.00994   0.00006   0.00000   0.00261   0.00260  -0.00733
   D25       -3.13364   0.00006   0.00000   0.00370   0.00369  -3.12995
   D26       -0.00104  -0.00030   0.00000  -0.01255  -0.01256  -0.01360
   D27       -3.14077   0.00004   0.00000   0.00127   0.00123  -3.13954
   D28        3.12711  -0.00046   0.00000  -0.01843  -0.01849   3.10863
   D29       -0.01261  -0.00013   0.00000  -0.00461  -0.00470  -0.01731
   D30       -0.00471   0.00019   0.00000   0.00801   0.00799   0.00329
   D31        3.13755   0.00027   0.00000   0.01112   0.01112  -3.13451
   D32        3.13502  -0.00015   0.00000  -0.00581  -0.00588   3.12914
   D33       -0.00591  -0.00007   0.00000  -0.00271  -0.00275  -0.00866
   D34        0.00307   0.00004   0.00000   0.00170   0.00170   0.00477
   D35        3.14017  -0.00004   0.00000  -0.00148  -0.00148   3.13869
   D36       -3.13919  -0.00004   0.00000  -0.00140  -0.00142  -3.14062
   D37       -0.00208  -0.00012   0.00000  -0.00458  -0.00461  -0.00669
   D38        0.00435  -0.00016   0.00000  -0.00704  -0.00702  -0.00266
   D39        3.12850  -0.00022   0.00000  -0.00846  -0.00847   3.12003
   D40       -3.13276  -0.00009   0.00000  -0.00387  -0.00387  -3.13663
   D41       -0.00861  -0.00015   0.00000  -0.00530  -0.00532  -0.01393
         Item               Value     Threshold  Converged?
 Maximum Force            0.020578     0.000450     NO 
 RMS     Force            0.003565     0.000300     NO 
 Maximum Displacement     0.097130     0.001800     NO 
 RMS     Displacement     0.020862     0.001200     NO 
 Predicted change in Energy=-1.475389D-03
 GradGradGradGradGradGradGradGradGradGradGradGradGradGradGradGradGradGrad

                          Input orientation:                          
 ---------------------------------------------------------------------
 Center     Atomic      Atomic             Coordinates (Angstroms)
 Number     Number       Type             X           Y           Z
 ---------------------------------------------------------------------
      1          6           0       -0.766538    0.092645   -0.800332
      2          1           0       -1.458552    0.001891   -1.624313
      3          6           0       -0.357277    1.136432   -0.011623
      4          6           0        0.597612    0.512277    0.841421
      5          1           0        1.176602    0.951243    1.643827
      6          7           0        0.738596   -0.774322    0.600132
      7          8           0       -0.129196   -1.041928   -0.449666
      8          6           0       -0.798789    2.539055   -0.070782
      9          6           0       -2.088589    2.876667   -0.512269
     10          6           0       -2.493327    4.209106   -0.584103
     11          6           0       -1.622887    5.231397   -0.200740
     12          6           0       -0.342181    4.910199    0.251593
     13          6           0        0.065696    3.577747    0.314222
     14          1           0       -2.789209    2.092197   -0.785220
     15          1           0       -3.496542    4.447147   -0.926766
     16          1           0       -1.941566    6.269211   -0.250866
     17          1           0        0.344516    5.697646    0.549956
     18          1           0        1.072743    3.344638    0.649368
 ---------------------------------------------------------------------
                    Distance matrix (angstroms):
                    1          2          3          4          5
     1  C    0.000000
     2  H    1.079844   0.000000
     3  C    1.370783   2.258486   0.000000
     4  C    2.175396   3.250868   1.424453   0.000000
     5  H    3.238348   4.304188   2.264419   1.082486   0.000000
     6  N    2.231224   3.221509   2.286081   1.316599   2.063668
     7  O    1.347749   2.058285   2.233642   2.147256   3.171838
     8  C    2.553078   3.047285   1.471661   2.624859   3.059935
     9  C    3.095412   3.146097   2.505296   3.826029   4.360904
    10  C    4.469206   4.455721   3.785732   5.025193   5.389407
    11  C    5.244007   5.422296   4.290253   5.318535   5.436845
    12  C    4.949288   5.371852   3.782966   4.535729   4.462998
    13  C    3.752437   4.343731   2.499020   3.155627   3.146503
    14  H    2.844228   2.616124   2.725112   4.075864   4.788497
    15  H    5.141069   4.939663   4.653311   5.947419   6.377113
    16  H    6.311305   6.434203   5.377047   6.386143   6.449311
    17  H    5.871435   6.357682   4.648931   5.199718   4.941382
    18  H    4.007498   4.769804   2.712571   2.878351   2.593853
                    6          7          8          9         10
     6  N    0.000000
     7  O    1.388075   0.000000
     8  C    3.713779   3.662697   0.000000
     9  C    4.749752   4.381613   1.404449   0.000000
    10  C    6.056591   5.760255   2.433932   1.394405   0.000000
    11  C    6.502820   6.453502   2.818640   2.420471   1.396321
    12  C    5.796840   5.997078   2.436132   2.787235   2.411918
    13  C    4.413054   4.686460   1.405149   2.411545   2.784637
    14  H    4.752005   4.124440   2.161452   1.086630   2.146927
    15  H    6.894313   6.457289   3.413414   2.149545   1.086519
    16  H    7.584118   7.535049   3.905436   3.405775   2.158593
    17  H    6.484149   6.829752   3.416015   3.873789   3.399293
    18  H    4.132785   4.679155   2.161068   3.400356   3.871125
                   11         12         13         14         15
    11  C    0.000000
    12  C    1.395701   0.000000
    13  C    2.418896   1.394889   0.000000
    14  H    3.399485   3.873508   3.400900   0.000000
    15  H    2.157022   3.398962   3.871105   2.462954   0.000000
    16  H    1.086797   2.158104   3.404762   4.295519   2.488918
    17  H    2.156759   1.086575   2.151112   4.960059   4.300951
    18  H    3.398377   2.147375   1.086649   4.305965   4.957630
                   16         17         18
    16  H    0.000000
    17  H    2.488810   0.000000
    18  H    4.295302   2.465126   0.000000
 Stoichiometry    C9H7NO
 Framework group  C1[X(C9H7NO)]
 Deg. of freedom    48
 Full point group                 C1      NOp   1
 Largest Abelian subgroup         C1      NOp   1
 Largest concise Abelian subgroup C1      NOp   1
                         Standard orientation:                         
 ---------------------------------------------------------------------
 Center     Atomic      Atomic             Coordinates (Angstroms)
 Number     Number       Type             X           Y           Z
 ---------------------------------------------------------------------
      1          6           0        1.852181   -1.016955   -0.344898
      2          1           0        1.700437   -2.023708   -0.704738
      3          6           0        1.009312    0.003731    0.011218
      4          6           0        1.922369    1.042891    0.351131
      5          1           0        1.707476    2.042406    0.706893
      6          7           0        3.182111    0.681432    0.225304
      7          8           0        3.137879   -0.631832   -0.222059
      8          6           0       -0.462343   -0.000179    0.011962
      9          6           0       -1.185563   -1.184998    0.225580
     10          6           0       -2.579824   -1.184581    0.205578
     11          6           0       -3.280877    0.003182   -0.012262
     12          6           0       -2.575594    1.190559   -0.213987
     13          6           0       -1.180747    1.188068   -0.203467
     14          1           0       -0.656491   -2.112482    0.427126
     15          1           0       -3.118898   -2.112554    0.375256
     16          1           0       -4.367637    0.003632   -0.021127
     17          1           0       -3.110651    2.120284   -0.387112
     18          1           0       -0.645532    2.116746   -0.382095
 ---------------------------------------------------------------------
 Rotational constants (GHZ):           3.5953686           0.6520816           0.5620424
 Standard basis: 6-31G(d) (6D, 7F)
 There are   179 symmetry adapted cartesian basis functions of A   symmetry.
 There are   179 symmetry adapted basis functions of A   symmetry.
   179 basis functions,   336 primitive gaussians,   179 cartesian basis functions
    38 alpha electrons       38 beta electrons
       nuclear repulsion energy       536.0213649867 Hartrees.
 NAtoms=   18 NActive=   18 NUniq=   18 SFac= 1.00D+00 NAtFMM=   60 NAOKFM=F Big=F
 Integral buffers will be    131072 words long.
 Raffenetti 2 integral format.
 Two-electron integral symmetry is turned on.
 One-electron integrals computed using PRISM.
 NBasis=   179 RedAO= T EigKep=  4.60D-04  NBF=   179
 NBsUse=   179 1.00D-06 EigRej= -1.00D+00 NBFU=   179
 Initial guess from the checkpoint file:  "science_add_11.chk"
 B after Tr=    -0.000000    0.000000   -0.000000
         Rot=    1.000000   -0.000049    0.000479   -0.000544 Ang=  -0.08 deg.
 ExpMin= 1.61D-01 ExpMax= 5.48D+03 ExpMxC= 8.25D+02 IAcc=2 IRadAn=         4 AccDes= 0.00D+00
 Harris functional with IExCor=  402 and IRadAn=       4 diagonalized for initial guess.
 HarFok:  IExCor=  402 AccDes= 0.00D+00 IRadAn=         4 IDoV= 1 UseB2=F ITyADJ=14
 ICtDFT=  3500011 ScaDFX=  1.000000  1.000000  1.000000  1.000000
 FoFCou: FMM=F IPFlag=           0 FMFlag=      100000 FMFlg1=           0
         NFxFlg=           0 DoJE=T BraDBF=F KetDBF=T FulRan=T
         wScrn=  0.000000 ICntrl=       500 IOpCl=  0 I1Cent=   200000004 NGrid=           0
         NMat0=    1 NMatS0=      1 NMatT0=    0 NMatD0=    1 NMtDS0=    0 NMtDT0=    0
 Petite list used in FoFCou.
 Keep R1 ints in memory in canonical form, NReq=132789143.
 Gradient too large for Newton-Raphson -- use scaled steepest descent instead.
     Minimum is close to point  4 DX=  1.49D-02 DF= -1.37D-07 DXR=  1.22D-02 DFR=  1.50D-04 which will be used.
 Gradient too large for Newton-Raphson -- use scaled steepest descent instead.
 Gradient too large for Newton-Raphson -- use scaled steepest descent instead.
     Accept linear search using points  1 and  2.
 Gradient too large for Newton-Raphson -- use scaled steepest descent instead.
     Accept linear search using points  1 and  2.
 LinEq1:  Iter=  0 NonCon=     1 RMS=1.12D-04 Max=2.13D-03 NDo=     1
 AX will form     1 AO Fock derivatives at one time.
 LinEq1:  Iter=  1 NonCon=     1 RMS=2.49D-05 Max=7.61D-04 NDo=     1
 LinEq1:  Iter=  2 NonCon=     1 RMS=1.73D-05 Max=3.75D-04 NDo=     1
 LinEq1:  Iter=  3 NonCon=     1 RMS=1.06D-05 Max=2.25D-04 NDo=     1
 LinEq1:  Iter=  4 NonCon=     1 RMS=6.61D-06 Max=1.79D-04 NDo=     1
 LinEq1:  Iter=  5 NonCon=     1 RMS=4.05D-06 Max=1.13D-04 NDo=     1
 LinEq1:  Iter=  6 NonCon=     1 RMS=2.25D-06 Max=6.86D-05 NDo=     1
 LinEq1:  Iter=  7 NonCon=     1 RMS=1.52D-06 Max=4.66D-05 NDo=     1
 LinEq1:  Iter=  8 NonCon=     1 RMS=9.12D-07 Max=1.83D-05 NDo=     1
 LinEq1:  Iter=  9 NonCon=     1 RMS=5.44D-07 Max=8.95D-06 NDo=     1
 LinEq1:  Iter= 10 NonCon=     1 RMS=2.76D-07 Max=2.91D-06 NDo=     1
 LinEq1:  Iter= 11 NonCon=     1 RMS=1.22D-07 Max=1.87D-06 NDo=     1
 LinEq1:  Iter= 12 NonCon=     1 RMS=6.78D-08 Max=9.80D-07 NDo=     1
 LinEq1:  Iter= 13 NonCon=     1 RMS=2.76D-08 Max=3.48D-07 NDo=     1
 LinEq1:  Iter= 14 NonCon=     1 RMS=8.67D-09 Max=1.70D-07 NDo=     1
 LinEq1:  Iter= 15 NonCon=     1 RMS=6.63D-09 Max=1.61D-07 NDo=     1
 LinEq1:  Iter= 16 NonCon=     0 RMS=3.23D-09 Max=4.80D-08 NDo=     1
 Linear equations converged to 1.035D-08 1.035D-07 after    16 iterations.
     Minimum is close to point  2 DX=  1.06D-04 DF= -8.53D-13 DXR=  1.06D-04 DFR=  1.21D-08 which will be used.
 LinEq1:  Iter=  0 NonCon=     1 RMS=9.98D-08 Max=3.16D-06 NDo=     1
 LinEq1:  Iter=  1 NonCon=     1 RMS=7.69D-08 Max=1.56D-06 NDo=     1
 LinEq1:  Iter=  2 NonCon=     1 RMS=4.78D-08 Max=7.87D-07 NDo=     1
 LinEq1:  Iter=  3 NonCon=     1 RMS=2.53D-08 Max=3.80D-07 NDo=     1
 LinEq1:  Iter=  4 NonCon=     1 RMS=1.33D-08 Max=2.13D-07 NDo=     1
 LinEq1:  Iter=  5 NonCon=     1 RMS=7.25D-09 Max=1.32D-07 NDo=     1
 LinEq1:  Iter=  6 NonCon=     1 RMS=5.48D-09 Max=1.10D-07 NDo=     1
 LinEq1:  Iter=  7 NonCon=     1 RMS=4.19D-09 Max=8.44D-08 NDo=     1
 LinEq1:  Iter=  8 NonCon=     1 RMS=2.47D-09 Max=6.53D-08 NDo=     1
 LinEq1:  Iter=  9 NonCon=     1 RMS=1.71D-09 Max=3.48D-08 NDo=     1
 LinEq1:  Iter= 10 NonCon=     1 RMS=6.60D-10 Max=1.07D-08 NDo=     1
 LinEq1:  Iter= 11 NonCon=     1 RMS=3.92D-10 Max=8.85D-09 NDo=     1
 LinEq1:  Iter= 12 NonCon=     1 RMS=1.54D-10 Max=2.29D-09 NDo=     1
 LinEq1:  Iter= 13 NonCon=     1 RMS=5.85D-11 Max=1.32D-09 NDo=     1
 LinEq1:  Iter= 14 NonCon=     1 RMS=4.75D-11 Max=1.18D-09 NDo=     1
 LinEq1:  Iter= 15 NonCon=     0 RMS=1.79D-11 Max=2.05D-10 NDo=     1
 Linear equations converged to 7.245D-11 7.245D-10 after    15 iterations.
 SCF Done:  E(RB3LYP) =  -477.092803443     a.u. after    7 cycles
            Convg  =    0.3792D-10                    46 Fock formations.
              S**2 =  0.0000                  -V/T =  2.0095
 Calling FoFJK, ICntrl=      2127 FMM=F ISym2X=0 I1Cent= 0 IOpClX= 0 NMat=1 NMatS=1 NMatT=0.
 ***** Axes restored to original set *****
 -------------------------------------------------------------------
 Center     Atomic                   Forces (Hartrees/Bohr)
 Number     Number              X              Y              Z
 -------------------------------------------------------------------
      1        6           0.003449928   -0.002692530    0.004099394
      2        1          -0.000261077    0.000722383   -0.000296919
      3        6          -0.005913376    0.001322521   -0.007205314
      4        6           0.003382529   -0.006130233    0.002462126
      5        1          -0.000059564    0.000767368    0.000061060
      6        7           0.001473401    0.006397813    0.003229844
      7        8          -0.004020977   -0.000004691   -0.004421911
      8        6           0.002102287    0.000812756    0.002458941
      9        6          -0.000971434    0.000794493   -0.000725922
     10        6           0.000460762   -0.000644590    0.000505451
     11        6          -0.000170663    0.000318378   -0.000127884
     12        6          -0.000204080   -0.001117393   -0.000128778
     13        6           0.000251317    0.000915438    0.000196711
     14        1           0.000352507   -0.000586044    0.000062605
     15        1          -0.000064794   -0.000018691   -0.000130126
     16        1           0.000045039   -0.000219213   -0.000029049
     17        1           0.000080785   -0.000083355    0.000108714
     18        1           0.000067410   -0.000554410   -0.000118942
 -------------------------------------------------------------------
 Cartesian Forces:  Max     0.007205314 RMS     0.002307817

 GradGradGradGradGradGradGradGradGradGradGradGradGradGradGradGradGradGrad
 Berny optimization.
 Using GEDIIS/GDIIS optimizer.
 FormGI is forming the generalized inverse of G from B-inverse, IUseBI=4.
 Internal  Forces:  Max     0.004830854 RMS     0.001052720
 Search for a local minimum.
 Step number   2 out of a maximum of   99
 All quantities printed in internal units (Hartrees-Bohrs-Radians)
 Mixed Optimization -- RFO/linear search
 Update second derivatives using D2CorX and points    1    2
 DE= -1.75D-03 DEPred=-1.48D-03 R= 1.19D+00
 TightC=F SS=  1.41D+00  RLast= 1.08D-01 DXNew= 5.0454D-01 3.2438D-01
 Trust test= 1.19D+00 RLast= 1.08D-01 DXMaxT set to 3.24D-01
 ITU=  1  0
 Use linear search instead of GDIIS.
     Eigenvalues ---    0.01413   0.01859   0.01862   0.02019   0.02070
     Eigenvalues ---    0.02090   0.02093   0.02124   0.02129   0.02149
     Eigenvalues ---    0.02156   0.02168   0.02184   0.02247   0.02377
     Eigenvalues ---    0.14884   0.15997   0.15997   0.15998   0.16000
     Eigenvalues ---    0.16000   0.16109   0.20844   0.22015   0.22041
     Eigenvalues ---    0.23491   0.23752   0.24353   0.25007   0.35101
     Eigenvalues ---    0.35124   0.35137   0.35146   0.35149   0.35878
     Eigenvalues ---    0.36006   0.39598   0.40695   0.41675   0.41997
     Eigenvalues ---    0.44777   0.45406   0.45987   0.46654   0.46943
     Eigenvalues ---    0.47999   0.51306   0.53785
 RFO step:  Lambda=-2.73011665D-04 EMin= 1.41340528D-02
 Quartic linear search produced a step of  0.25231.
 Iteration  1 RMS(Cart)=  0.01440086 RMS(Int)=  0.00012342
 Iteration  2 RMS(Cart)=  0.00016393 RMS(Int)=  0.00004734
 Iteration  3 RMS(Cart)=  0.00000005 RMS(Int)=  0.00004734
 Variable       Old X    -DE/DX   Delta X   Delta X   Delta X     New X
                                 (Linear)    (Quad)   (Total)
    R1        2.04061   0.00033  -0.00000   0.00116   0.00116   2.04177
    R2        2.59041  -0.00162  -0.00222  -0.00279  -0.00500   2.58540
    R3        2.54688  -0.00241  -0.00432  -0.00295  -0.00727   2.53961
    R4        2.69183   0.00339   0.00532   0.00638   0.01170   2.70352
    R5        2.78104  -0.00103   0.01004  -0.00973   0.00031   2.78135
    R6        2.04560   0.00032   0.00083   0.00061   0.00144   2.04704
    R7        2.48801  -0.00483  -0.00902  -0.00460  -0.01363   2.47438
    R8        2.62308   0.00419   0.00127   0.01021   0.01147   2.63455
    R9        2.65402   0.00006   0.00087  -0.00040   0.00047   2.65449
   R10        2.65535  -0.00058   0.00137  -0.00251  -0.00114   2.65421
   R11        2.63504  -0.00084  -0.00154  -0.00130  -0.00284   2.63220
   R12        2.05343   0.00018  -0.00034   0.00086   0.00052   2.05395
   R13        2.63866   0.00005   0.00158  -0.00083   0.00075   2.63942
   R14        2.05322   0.00010  -0.00030   0.00054   0.00023   2.05346
   R15        2.63749   0.00032   0.00137  -0.00001   0.00136   2.63885
   R16        2.05375  -0.00022  -0.00013  -0.00071  -0.00083   2.05291
   R17        2.63596  -0.00089  -0.00128  -0.00165  -0.00293   2.63303
   R18        2.05333   0.00002  -0.00031   0.00027  -0.00004   2.05329
   R19        2.05347   0.00014  -0.00043   0.00079   0.00036   2.05383
    A1        2.33834  -0.00136  -0.00374  -0.00676  -0.01051   2.32782
    A2        2.01622   0.00015   0.00154   0.00167   0.00320   2.01941
    A3        1.92850   0.00121   0.00218   0.00498   0.00717   1.93567
    A4        1.78345  -0.00027  -0.00378   0.00065  -0.00314   1.78031
    A5        2.23069   0.00356   0.01005   0.01169   0.02171   2.25240
    A6        2.26895  -0.00328  -0.00622  -0.01222  -0.01848   2.25047
    A7        2.24564  -0.00048  -0.00137  -0.00331  -0.00470   2.24094
    A8        1.97167  -0.00046   0.00210  -0.00381  -0.00175   1.96991
    A9        2.06559   0.00094  -0.00080   0.00743   0.00662   2.07221
   A10        1.83388   0.00080  -0.00027   0.00460   0.00430   1.83818
   A11        1.90723  -0.00128  -0.00024  -0.00629  -0.00653   1.90071
   A12        2.11445  -0.00081  -0.00050  -0.00375  -0.00425   2.11020
   A13        2.10475   0.00001   0.00232  -0.00140   0.00091   2.10566
   A14        2.06399   0.00080  -0.00181   0.00515   0.00333   2.06732
   A15        2.10885  -0.00034   0.00091  -0.00236  -0.00145   2.10739
   A16        2.09157  -0.00051  -0.00514  -0.00116  -0.00630   2.08527
   A17        2.08261   0.00085   0.00420   0.00350   0.00770   2.09031
   A18        2.09961  -0.00013   0.00085  -0.00103  -0.00019   2.09942
   A19        2.08702   0.00002  -0.00165   0.00096  -0.00070   2.08632
   A20        2.09644   0.00011   0.00078   0.00017   0.00094   2.09738
   A21        2.08577   0.00003  -0.00156   0.00132  -0.00024   2.08552
   A22        2.09865  -0.00005   0.00077  -0.00092  -0.00015   2.09850
   A23        2.09876   0.00002   0.00079  -0.00039   0.00039   2.09916
   A24        2.09752   0.00021   0.00032   0.00105   0.00137   2.09889
   A25        2.09685   0.00004   0.00085  -0.00007   0.00078   2.09763
   A26        2.08879  -0.00024  -0.00117  -0.00097  -0.00214   2.08665
   A27        2.11054  -0.00057   0.00127  -0.00404  -0.00277   2.10777
   A28        2.08989  -0.00028  -0.00522   0.00058  -0.00464   2.08525
   A29        2.08261   0.00084   0.00394   0.00347   0.00742   2.09002
    D1       -3.11580   0.00001   0.00140  -0.00166  -0.00037  -3.11617
    D2        0.01214   0.00012   0.00392   0.00641   0.01046   0.02261
    D3        0.00674  -0.00015   0.00038  -0.00893  -0.00856  -0.00182
    D4        3.13468  -0.00003   0.00289  -0.00085   0.00227   3.13695
    D5        3.12443  -0.00009  -0.00068  -0.00266  -0.00331   3.12113
    D6       -0.00196   0.00006   0.00019   0.00325   0.00348   0.00151
    D7       -3.12496   0.00002   0.00429  -0.00203   0.00218  -3.12278
    D8       -0.00983   0.00019  -0.00090   0.01235   0.01141   0.00159
    D9        0.03071  -0.00018   0.00137  -0.01063  -0.00908   0.02163
   D10       -3.13735  -0.00000  -0.00382   0.00375   0.00016  -3.13719
   D11        0.51301  -0.00027  -0.00431  -0.01795  -0.02228   0.49073
   D12       -2.62758  -0.00025  -0.00356  -0.01740  -0.02097  -2.64856
   D13       -2.64600  -0.00007  -0.00096  -0.00746  -0.00841  -2.65442
   D14        0.49659  -0.00006  -0.00021  -0.00692  -0.00710   0.48949
   D15        0.00882  -0.00016   0.00103  -0.01062  -0.00956  -0.00074
   D16        3.12694  -0.00003  -0.00357   0.00198  -0.00148   3.12546
   D17       -0.00421   0.00006  -0.00075   0.00452   0.00376  -0.00045
   D18       -3.12518  -0.00007   0.00254  -0.00618  -0.00364  -3.12882
   D19        0.03587  -0.00004   0.00398  -0.00476  -0.00082   0.03506
   D20        0.01543  -0.00009   0.00180  -0.00672  -0.00492   0.01051
   D21       -3.10670  -0.00005   0.00323  -0.00530  -0.00210  -3.10880
   D22        3.13329   0.00006  -0.00008   0.00354   0.00344   3.13673
   D23        0.01067   0.00004   0.00020   0.00267   0.00286   0.01353
   D24       -0.00733   0.00007   0.00066   0.00407   0.00473  -0.00261
   D25       -3.12995   0.00006   0.00093   0.00320   0.00414  -3.12581
   D26       -0.01360   0.00008  -0.00317   0.00644   0.00326  -0.01034
   D27       -3.13954  -0.00001   0.00031  -0.00105  -0.00075  -3.14029
   D28        3.10863   0.00003  -0.00466   0.00498   0.00028   3.10891
   D29       -0.01731  -0.00006  -0.00119  -0.00251  -0.00373  -0.02104
   D30        0.00329  -0.00003   0.00202  -0.00324  -0.00123   0.00206
   D31       -3.13451  -0.00004   0.00281  -0.00432  -0.00151  -3.13603
   D32        3.12914   0.00006  -0.00148   0.00430   0.00279   3.13193
   D33       -0.00866   0.00005  -0.00069   0.00322   0.00251  -0.00615
   D34        0.00477   0.00002   0.00043   0.00061   0.00105   0.00581
   D35        3.13869   0.00002  -0.00037   0.00161   0.00124   3.13993
   D36       -3.14062   0.00003  -0.00036   0.00169   0.00133  -3.13929
   D37       -0.00669   0.00003  -0.00116   0.00269   0.00152  -0.00517
   D38       -0.00266  -0.00004  -0.00177  -0.00109  -0.00286  -0.00552
   D39        3.12003  -0.00004  -0.00214  -0.00026  -0.00240   3.11763
   D40       -3.13663  -0.00005  -0.00098  -0.00208  -0.00306  -3.13968
   D41       -0.01393  -0.00004  -0.00134  -0.00125  -0.00260  -0.01653
         Item               Value     Threshold  Converged?
 Maximum Force            0.004831     0.000450     NO 
 RMS     Force            0.001053     0.000300     NO 
 Maximum Displacement     0.057595     0.001800     NO 
 RMS     Displacement     0.014437     0.001200     NO 
 Predicted change in Energy=-2.098131D-04
 GradGradGradGradGradGradGradGradGradGradGradGradGradGradGradGradGradGrad

                          Input orientation:                          
 ---------------------------------------------------------------------
 Center     Atomic      Atomic             Coordinates (Angstroms)
 Number     Number       Type             X           Y           Z
 ---------------------------------------------------------------------
      1          6           0       -0.773382    0.077703   -0.792562
      2          1           0       -1.471759   -0.019970   -1.611168
      3          6           0       -0.364693    1.135611   -0.027317
      4          6           0        0.599537    0.524286    0.834819
      5          1           0        1.179069    0.981721    1.627484
      6          7           0        0.748308   -0.756135    0.604870
      7          8           0       -0.129669   -1.047509   -0.438153
      8          6           0       -0.800323    2.540540   -0.079015
      9          6           0       -2.088428    2.880590   -0.524356
     10          6           0       -2.491985    4.212314   -0.586253
     11          6           0       -1.621398    5.231208   -0.192859
     12          6           0       -0.341703    4.904947    0.260936
     13          6           0        0.066082    3.573686    0.314313
     14          1           0       -2.783126    2.092702   -0.803611
     15          1           0       -3.493400    4.453068   -0.932658
     16          1           0       -1.938848    6.269225   -0.236599
     17          1           0        0.345259    5.688662    0.568302
     18          1           0        1.071569    3.330601    0.647667
 ---------------------------------------------------------------------
                    Distance matrix (angstroms):
                    1          2          3          4          5
     1  C    0.000000
     2  H    1.080456   0.000000
     3  C    1.368136   2.251565   0.000000
     4  C    2.175480   3.251051   1.430642   0.000000
     5  H    3.238200   4.303387   2.268314   1.083246   0.000000
     6  N    2.227924   3.222028   2.284105   1.309384   2.061902
     7  O    1.343903   2.057428   2.233839   2.150055   3.177645
     8  C    2.564262   3.058517   1.471826   2.619157   3.043032
     9  C    3.107645   3.158273   2.502651   3.824223   4.348868
    10  C    4.482317   4.472531   3.782047   5.017819   5.367867
    11  C    5.257127   5.441402   4.287263   5.305072   5.405034
    12  C    4.959686   5.388562   3.780412   4.517241   4.424014
    13  C    3.761883   4.357384   2.499297   3.139163   3.111501
    14  H    2.845947   2.614424   2.714309   4.072689   4.779486
    15  H    5.153828   4.955348   4.649083   5.942343   6.358973
    16  H    6.324741   6.454578   5.373616   6.371472   6.415131
    17  H    5.881001   6.374960   4.646404   5.177497   4.896161
    18  H    4.007424   4.774639   2.708585   2.851885   2.547319
                    6          7          8          9         10
     6  N    0.000000
     7  O    1.394145   0.000000
     8  C    3.705945   3.667813   0.000000
     9  C    4.748473   4.390232   1.404698   0.000000
    10  C    6.050104   5.767860   2.431838   1.392902   0.000000
    11  C    6.488463   6.458151   2.815460   2.419382   1.396720
    12  C    5.775316   5.997118   2.432349   2.786710   2.412713
    13  C    4.392859   4.686146   1.404548   2.413640   2.786140
    14  H    4.750866   4.127387   2.158033   1.086903   2.150526
    15  H    6.891436   6.466496   3.411617   2.147870   1.086642
    16  H    7.568657   7.539785   3.901815   3.404118   2.158495
    17  H    6.457492   6.827482   3.412045   3.873241   3.400376
    18  H    4.099725   4.667958   2.157833   3.400254   3.872841
                   11         12         13         14         15
    11  C    0.000000
    12  C    1.396422   0.000000
    13  C    2.419130   1.393339   0.000000
    14  H    3.401889   3.873310   3.400155   0.000000
    15  H    2.158054   3.400302   3.872746   2.468293   0.000000
    16  H    1.086355   2.158626   3.404288   4.298564   2.489890
    17  H    2.157862   1.086554   2.148389   4.959825   4.302892
    18  H    3.401596   2.150689   1.086839   4.300846   4.959466
                   16         17         18
    16  H    0.000000
    17  H    2.490394   0.000000
    18  H    4.298842   2.468659   0.000000
 Stoichiometry    C9H7NO
 Framework group  C1[X(C9H7NO)]
 Deg. of freedom    48
 Full point group                 C1      NOp   1
 Largest Abelian subgroup         C1      NOp   1
 Largest concise Abelian subgroup C1      NOp   1
                         Standard orientation:                         
 ---------------------------------------------------------------------
 Center     Atomic      Atomic             Coordinates (Angstroms)
 Number     Number       Type             X           Y           Z
 ---------------------------------------------------------------------
      1          6           0        1.865533   -1.022819   -0.332318
      2          1           0        1.718976   -2.034060   -0.683458
      3          6           0        1.007836   -0.010612    0.001731
      4          6           0        1.911517    1.044515    0.343499
      5          1           0        1.678519    2.044681    0.688174
      6          7           0        3.168222    0.697028    0.223356
      7          8           0        3.144244   -0.627791   -0.210141
      8          6           0       -0.463977   -0.005541    0.005275
      9          6           0       -1.189052   -1.190321    0.214410
     10          6           0       -2.581886   -1.184346    0.202036
     11          6           0       -3.279379    0.007515   -0.007241
     12          6           0       -2.569632    1.193482   -0.206578
     13          6           0       -1.176311    1.186797   -0.203689
     14          1           0       -0.655121   -2.116966    0.408330
     15          1           0       -3.123067   -2.112039    0.367259
     16          1           0       -4.365716    0.012076   -0.011575
     17          1           0       -3.100789    2.126822   -0.371951
     18          1           0       -0.632204    2.110598   -0.381896
 ---------------------------------------------------------------------
 Rotational constants (GHZ):           3.5902129           0.6533233           0.5622533
 Standard basis: 6-31G(d) (6D, 7F)
 There are   179 symmetry adapted cartesian basis functions of A   symmetry.
 There are   179 symmetry adapted basis functions of A   symmetry.
   179 basis functions,   336 primitive gaussians,   179 cartesian basis functions
    38 alpha electrons       38 beta electrons
       nuclear repulsion energy       536.1711929894 Hartrees.
 NAtoms=   18 NActive=   18 NUniq=   18 SFac= 1.00D+00 NAtFMM=   60 NAOKFM=F Big=F
 Integral buffers will be    131072 words long.
 Raffenetti 2 integral format.
 Two-electron integral symmetry is turned on.
 One-electron integrals computed using PRISM.
 NBasis=   179 RedAO= T EigKep=  4.60D-04  NBF=   179
 NBsUse=   179 1.00D-06 EigRej= -1.00D+00 NBFU=   179
 Initial guess from the checkpoint file:  "science_add_11.chk"
 B after Tr=    -0.000000    0.000000   -0.000000
         Rot=    1.000000    0.000353    0.000355   -0.000364 Ang=   0.07 deg.
 ExpMin= 1.61D-01 ExpMax= 5.48D+03 ExpMxC= 8.25D+02 IAcc=2 IRadAn=         4 AccDes= 0.00D+00
 Harris functional with IExCor=  402 and IRadAn=       4 diagonalized for initial guess.
 HarFok:  IExCor=  402 AccDes= 0.00D+00 IRadAn=         4 IDoV= 1 UseB2=F ITyADJ=14
 ICtDFT=  3500011 ScaDFX=  1.000000  1.000000  1.000000  1.000000
 FoFCou: FMM=F IPFlag=           0 FMFlag=      100000 FMFlg1=           0
         NFxFlg=           0 DoJE=T BraDBF=F KetDBF=T FulRan=T
         wScrn=  0.000000 ICntrl=       500 IOpCl=  0 I1Cent=   200000004 NGrid=           0
         NMat0=    1 NMatS0=      1 NMatT0=    0 NMatD0=    1 NMtDS0=    0 NMtDT0=    0
 Petite list used in FoFCou.
 Keep R1 ints in memory in canonical form, NReq=132789143.
 Gradient too large for Newton-Raphson -- use scaled steepest descent instead.
 Gradient too large for Newton-Raphson -- use scaled steepest descent instead.
 LinEq1:  Iter=  0 NonCon=     1 RMS=1.19D-04 Max=2.14D-03 NDo=     1
 AX will form     1 AO Fock derivatives at one time.
 LinEq1:  Iter=  1 NonCon=     1 RMS=1.56D-05 Max=3.57D-04 NDo=     1
 LinEq1:  Iter=  2 NonCon=     1 RMS=1.26D-05 Max=2.61D-04 NDo=     1
 LinEq1:  Iter=  3 NonCon=     1 RMS=8.93D-06 Max=1.70D-04 NDo=     1
 LinEq1:  Iter=  4 NonCon=     1 RMS=6.04D-06 Max=1.27D-04 NDo=     1
 LinEq1:  Iter=  5 NonCon=     1 RMS=3.20D-06 Max=8.05D-05 NDo=     1
 LinEq1:  Iter=  6 NonCon=     1 RMS=2.17D-06 Max=4.81D-05 NDo=     1
 LinEq1:  Iter=  7 NonCon=     1 RMS=1.45D-06 Max=4.11D-05 NDo=     1
 LinEq1:  Iter=  8 NonCon=     1 RMS=9.92D-07 Max=2.40D-05 NDo=     1
 LinEq1:  Iter=  9 NonCon=     1 RMS=5.30D-07 Max=8.81D-06 NDo=     1
 LinEq1:  Iter= 10 NonCon=     1 RMS=3.02D-07 Max=4.10D-06 NDo=     1
 LinEq1:  Iter= 11 NonCon=     1 RMS=1.34D-07 Max=2.44D-06 NDo=     1
 LinEq1:  Iter= 12 NonCon=     1 RMS=7.45D-08 Max=1.34D-06 NDo=     1
 LinEq1:  Iter= 13 NonCon=     1 RMS=3.35D-08 Max=8.25D-07 NDo=     1
 LinEq1:  Iter= 14 NonCon=     1 RMS=1.43D-08 Max=4.82D-07 NDo=     1
 LinEq1:  Iter= 15 NonCon=     1 RMS=1.09D-08 Max=3.39D-07 NDo=     1
 LinEq1:  Iter= 16 NonCon=     1 RMS=5.80D-09 Max=1.54D-07 NDo=     1
 LinEq1:  Iter= 17 NonCon=     0 RMS=2.62D-09 Max=5.81D-08 NDo=     1
 Linear equations converged to 1.035D-08 1.035D-07 after    17 iterations.
     Minimum is close to point  2 DX=  3.97D-05 DF= -1.71D-13 DXR=  3.97D-05 DFR=  1.88D-09 which will be used.
 LinEq1:  Iter=  0 NonCon=     1 RMS=6.96D-08 Max=1.78D-06 NDo=     1
 LinEq1:  Iter=  1 NonCon=     1 RMS=5.82D-08 Max=1.39D-06 NDo=     1
 LinEq1:  Iter=  2 NonCon=     1 RMS=3.96D-08 Max=8.47D-07 NDo=     1
 LinEq1:  Iter=  3 NonCon=     1 RMS=2.59D-08 Max=5.51D-07 NDo=     1
 LinEq1:  Iter=  4 NonCon=     1 RMS=1.39D-08 Max=2.60D-07 NDo=     1
 LinEq1:  Iter=  5 NonCon=     1 RMS=9.39D-09 Max=1.84D-07 NDo=     1
 LinEq1:  Iter=  6 NonCon=     1 RMS=6.54D-09 Max=1.71D-07 NDo=     1
 LinEq1:  Iter=  7 NonCon=     1 RMS=4.29D-09 Max=1.11D-07 NDo=     1
 LinEq1:  Iter=  8 NonCon=     1 RMS=2.58D-09 Max=6.75D-08 NDo=     1
 LinEq1:  Iter=  9 NonCon=     1 RMS=1.62D-09 Max=3.63D-08 NDo=     1
 LinEq1:  Iter= 10 NonCon=     1 RMS=6.40D-10 Max=9.66D-09 NDo=     1
 LinEq1:  Iter= 11 NonCon=     1 RMS=3.43D-10 Max=6.85D-09 NDo=     1
 LinEq1:  Iter= 12 NonCon=     1 RMS=1.67D-10 Max=2.79D-09 NDo=     1
 LinEq1:  Iter= 13 NonCon=     1 RMS=7.17D-11 Max=1.21D-09 NDo=     1
 LinEq1:  Iter= 14 NonCon=     0 RMS=3.94D-11 Max=7.19D-10 NDo=     1
 Linear equations converged to 7.251D-11 7.251D-10 after    14 iterations.
 SCF Done:  E(RB3LYP) =  -477.093026920     a.u. after    5 cycles
            Convg  =    0.3772D-10                    43 Fock formations.
              S**2 =  0.0000                  -V/T =  2.0095
 Calling FoFJK, ICntrl=      2127 FMM=F ISym2X=0 I1Cent= 0 IOpClX= 0 NMat=1 NMatS=1 NMatT=0.
 ***** Axes restored to original set *****
 -------------------------------------------------------------------
 Center     Atomic                   Forces (Hartrees/Bohr)
 Number     Number              X              Y              Z
 -------------------------------------------------------------------
      1        6           0.000370944    0.000390907    0.000249722
      2        1          -0.000083934    0.000177849   -0.000088304
      3        6          -0.002070793    0.001852299   -0.001132576
      4        6           0.000574360    0.000435844   -0.000469286
      5        1          -0.000142605    0.000063337   -0.000249325
      6        7           0.001788619   -0.001616359    0.002455078
      7        8          -0.000934650   -0.000119253   -0.001209448
      8        6           0.000636490   -0.001143332    0.000478990
      9        6           0.000069414   -0.000302511   -0.000009847
     10        6          -0.000110493    0.000288167   -0.000029457
     11        6           0.000219598   -0.000340604    0.000090139
[...]
    15  H   -0.000007  -0.000000  -0.000187   0.000001   0.000000  -0.000000
    16  H   -0.000000  -0.000000   0.000003  -0.000000  -0.000000   0.000000
    17  H    0.000001   0.000000  -0.000200  -0.000004  -0.000000  -0.000000
    18  H   -0.000171  -0.000002  -0.011004   0.005140   0.001827  -0.000059
               7          8          9         10         11         12
     1  C    0.213252  -0.055596  -0.009958   0.000073  -0.000000  -0.000116
     2  H   -0.032840  -0.000793   0.002584  -0.000056   0.000000   0.000003
     3  C   -0.007626   0.336347  -0.045984   0.006796   0.000738   0.006405
     4  C   -0.089927  -0.032940   0.005508  -0.000133   0.000005   0.000123
     5  H    0.004328  -0.002697  -0.000116   0.000002   0.000001  -0.000064
     6  N    0.154479   0.007691  -0.000072   0.000001   0.000000  -0.000002
     7  O    8.073490   0.005642  -0.000036  -0.000001   0.000000   0.000000
     8  C    0.005642   4.813050   0.467761  -0.007257  -0.025429  -0.019967
     9  C   -0.000036   0.467761   5.182855   0.427108  -0.046075  -0.025843
    10  C   -0.000001  -0.007257   0.427108   4.998642   0.509092  -0.041992
    11  C    0.000000  -0.025429  -0.046075   0.509092   4.922640   0.501675
    12  C    0.000000  -0.019967  -0.025843  -0.041992   0.501675   5.022069
    13  C   -0.000073   0.462565  -0.087298  -0.029843  -0.036031   0.432841
    14  H   -0.000049  -0.043519   0.351712  -0.042706   0.005062   0.000205
    15  H   -0.000000   0.003402  -0.037698   0.359173  -0.042122   0.004589
    16  H    0.000000   0.000553   0.004755  -0.042371   0.360283  -0.042073
    17  H   -0.000000   0.003425   0.000818   0.004622  -0.041188   0.360557
    18  H   -0.000001  -0.042441   0.006129   0.000224   0.004807  -0.041764
              13         14         15         16         17         18
     1  C    0.006530   0.006103  -0.000007  -0.000000   0.000001  -0.000171
     2  H   -0.000110   0.001403  -0.000000  -0.000000   0.000000  -0.000002
     3  C   -0.039813  -0.012321  -0.000187   0.000003  -0.000200  -0.011004
     4  C   -0.010476  -0.000103   0.000001  -0.000000  -0.000004   0.005140
     5  H    0.002516  -0.000002   0.000000  -0.000000  -0.000000   0.001827
     6  N   -0.000059   0.000002  -0.000000   0.000000  -0.000000  -0.000059
     7  O   -0.000073  -0.000049  -0.000000   0.000000  -0.000000  -0.000001
     8  C    0.462565  -0.043519   0.003402   0.000553   0.003425  -0.042441
     9  C   -0.087298   0.351712  -0.037698   0.004755   0.000818   0.006129
    10  C   -0.029843  -0.042706   0.359173  -0.042371   0.004622   0.000224
    11  C   -0.036031   0.005062  -0.042122   0.360283  -0.041188   0.004807
    12  C    0.432841   0.000205   0.004589  -0.042073   0.360557  -0.041764
    13  C    5.143683   0.006573   0.000792   0.004844  -0.038498   0.351744
    14  H    0.006573   0.609258  -0.005782  -0.000171   0.000016  -0.000151
    15  H    0.000792  -0.005782   0.586981  -0.005544  -0.000182   0.000017
    16  H    0.004844  -0.000171  -0.005544   0.586465  -0.005571  -0.000169
    17  H   -0.038498   0.000016  -0.000182  -0.005571   0.588820  -0.005638
    18  H    0.351744  -0.000151   0.000017  -0.000169  -0.005638   0.593186
 Mulliken charges:
               1
     1  C    0.103434
     2  H    0.185064
     3  C   -0.034999
     4  C    0.028579
     5  H    0.173418
     6  N   -0.158919
     7  O   -0.320638
     8  C    0.130203
     9  C   -0.196152
    10  C   -0.141375
    11  C   -0.113460
    12  C   -0.156647
    13  C   -0.169888
    14  H    0.124469
    15  H    0.136565
    16  H    0.138995
    17  H    0.133023
    18  H    0.138327
 Sum of Mulliken charges =   0.00000
 Mulliken charges with hydrogens summed into heavy atoms:
               1
     1  C    0.288497
     3  C   -0.034999
     4  C    0.201998
     6  N   -0.158919
     7  O   -0.320638
     8  C    0.130203
     9  C   -0.071683
    10  C   -0.004810
    11  C    0.025535
    12  C   -0.023623
    13  C   -0.031561
 Electronic spatial extent (au):  <R**2>=           1891.1128
 Charge=              0.0000 electrons
 Dipole moment (field-independent basis, Debye):
    X=             -2.8158    Y=             -0.4517    Z=             -0.2148  Tot=              2.8598
 Quadrupole moment (field-independent basis, Debye-Ang):
   XX=            -71.0191   YY=            -54.7781   ZZ=            -65.3051
   XY=             -2.1067   XZ=             -0.7436   YZ=              0.4541
 Traceless Quadrupole moment (field-independent basis, Debye-Ang):
   XX=             -7.3183   YY=              8.9227   ZZ=             -1.6044
   XY=             -2.1067   XZ=             -0.7436   YZ=              0.4541
 Octapole moment (field-independent basis, Debye-Ang**2):
  XXX=            -64.1508  YYY=             -2.7943  ZZZ=             -0.9008  XYY=              4.5473
  XXY=             -9.9677  XXZ=             -2.6564  XZZ=             11.0628  YZZ=             -0.8561
  YYZ=             -0.5367  XYZ=              4.0371
 Hexadecapole moment (field-independent basis, Debye-Ang**3):
 XXXX=          -2087.8347 YYYY=           -396.0030 ZZZZ=            -84.9286 XXXY=            -35.1796
 XXXZ=            -12.6069 YYYX=            -10.6398 YYYZ=              3.6307 ZZZX=             -2.9947
 ZZZY=              2.7531 XXYY=           -386.7451 XXZZ=           -362.0211 YYZZ=            -90.0336
 XXYZ=             -5.2246 YYXZ=             -1.7072 ZZXY=             -3.1744
 N-N= 5.360883474024D+02 E-N=-2.180338342941D+03  KE= 4.728441525636D+02
 Evaluate density.
 Using the total density.
 Monte-Carlo method of calculating molar volume:
 based on  0.001 e/bohr**3 density envelope.
 Number of points per bohr**3 =   20 CutOff= 1.00D-04
 Using the CI density.
 There are       363 points.  Will hold       363 in memory.
 LenV=   805207719 MDV=   805306368.
 Box volume = 6022.585 fraction occupied=0.198
 Integrated density= 6.8280564518414423D+01 error=-7.7194354815855775D+00
 Molar volume = 1194.562 bohr**3/mol (106.601 cm**3/mol)
 Recommended a0 for SCRF calculation =  4.33 angstrom (  8.19 bohr)
 ******************************Gaussian NBO Version 3.1******************************
             N A T U R A L   A T O M I C   O R B I T A L   A N D
          N A T U R A L   B O N D   O R B I T A L   A N A L Y S I S
 ******************************Gaussian NBO Version 3.1******************************
       /RESON  / : Allow strongly delocalized NBO set

 Analyzing the CI density

 Job title: Title Card Required                                             

 Storage needed:     97292 in NPA ( 805304604 available)


 NATURAL POPULATIONS:  Natural atomic orbital occupancies 
                                                          
   NAO  Atom  No  lang   Type(AO)    Occupancy
 --------------------------------------------
     1    C    1  S      Cor( 1S)     1.99900
     2    C    1  S      Val( 2S)     0.94322
     3    C    1  S      Ryd( 3S)     0.00193
     4    C    1  S      Ryd( 4S)     0.00017
     5    C    1  px     Val( 2p)     0.74269
     6    C    1  px     Ryd( 3p)     0.00922
     7    C    1  py     Val( 2p)     1.13591
     8    C    1  py     Ryd( 3p)     0.00357
     9    C    1  pz     Val( 2p)     0.99850
    10    C    1  pz     Ryd( 3p)     0.00385
    11    C    1  dxy    Ryd( 3d)     0.00143
    12    C    1  dxz    Ryd( 3d)     0.00166
    13    C    1  dyz    Ryd( 3d)     0.00074
    14    C    1  dx2y2  Ryd( 3d)     0.00196
    15    C    1  dz2    Ryd( 3d)     0.00069
 
    16    H    2  S      Val( 1S)     0.76299
    17    H    2  S      Ryd( 2S)     0.00072
 
    18    C    3  S      Cor( 1S)     1.99903
    19    C    3  S      Val( 2S)     0.89954
    20    C    3  S      Ryd( 3S)     0.00129
    21    C    3  S      Ryd( 4S)     0.00008
    22    C    3  px     Val( 2p)     1.10848
    23    C    3  px     Ryd( 3p)     0.00415
    24    C    3  py     Val( 2p)     1.08034
    25    C    3  py     Ryd( 3p)     0.00624
    26    C    3  pz     Val( 2p)     1.05911
    27    C    3  pz     Ryd( 3p)     0.00110
    28    C    3  dxy    Ryd( 3d)     0.00083
    29    C    3  dxz    Ryd( 3d)     0.00097
    30    C    3  dyz    Ryd( 3d)     0.00051
    31    C    3  dx2y2  Ryd( 3d)     0.00047
    32    C    3  dz2    Ryd( 3d)     0.00041
 
    33    C    4  S      Cor( 1S)     1.99926
    34    C    4  S      Val( 2S)     0.95067
    35    C    4  S      Ryd( 3S)     0.00286
    36    C    4  S      Ryd( 4S)     0.00012
    37    C    4  px     Val( 2p)     0.91647
    38    C    4  px     Ryd( 3p)     0.01030
    39    C    4  py     Val( 2p)     1.15038
    40    C    4  py     Ryd( 3p)     0.00331
    41    C    4  pz     Val( 2p)     0.99216
    42    C    4  pz     Ryd( 3p)     0.00165
    43    C    4  dxy    Ryd( 3d)     0.00114
    44    C    4  dxz    Ryd( 3d)     0.00159
    45    C    4  dyz    Ryd( 3d)     0.00067
    46    C    4  dx2y2  Ryd( 3d)     0.00140
    47    C    4  dz2    Ryd( 3d)     0.00053
 
    48    H    5  S      Val( 1S)     0.75213
    49    H    5  S      Ryd( 2S)     0.00061
 
    50    N    6  S      Cor( 1S)     1.99947
    51    N    6  S      Val( 2S)     1.50096
    52    N    6  S      Ryd( 3S)     0.00177
    53    N    6  S      Ryd( 4S)     0.00002
    54    N    6  px     Val( 2p)     1.51670
    55    N    6  px     Ryd( 3p)     0.00512
    56    N    6  py     Val( 2p)     0.88397
    57    N    6  py     Ryd( 3p)     0.00652
    58    N    6  pz     Val( 2p)     1.19758
    59    N    6  pz     Ryd( 3p)     0.00176
    60    N    6  dxy    Ryd( 3d)     0.00192
    61    N    6  dxz    Ryd( 3d)     0.00245
    62    N    6  dyz    Ryd( 3d)     0.00132
    63    N    6  dx2y2  Ryd( 3d)     0.00221
    64    N    6  dz2    Ryd( 3d)     0.00118
 
    65    O    7  S      Cor( 1S)     1.99977
    66    O    7  S      Val( 2S)     1.63526
    67    O    7  S      Ryd( 3S)     0.00070
    68    O    7  S      Ryd( 4S)     0.00004
    69    O    7  px     Val( 2p)     1.61944
    70    O    7  px     Ryd( 3p)     0.00230
    71    O    7  py     Val( 2p)     1.37355
    72    O    7  py     Ryd( 3p)     0.00223
    73    O    7  pz     Val( 2p)     1.66345
    74    O    7  pz     Ryd( 3p)     0.00124
    75    O    7  dxy    Ryd( 3d)     0.00219
    76    O    7  dxz    Ryd( 3d)     0.00211
    77    O    7  dyz    Ryd( 3d)     0.00123
    78    O    7  dx2y2  Ryd( 3d)     0.00170
    79    O    7  dz2    Ryd( 3d)     0.00114
 
    80    C    8  S      Cor( 1S)     1.99903
    81    C    8  S      Val( 2S)     0.87689
    82    C    8  S      Ryd( 3S)     0.00058
    83    C    8  S      Ryd( 4S)     0.00007
    84    C    8  px     Val( 2p)     1.05651
    85    C    8  px     Ryd( 3p)     0.00490
    86    C    8  py     Val( 2p)     1.10354
    87    C    8  py     Ryd( 3p)     0.00499
    88    C    8  pz     Val( 2p)     0.98653
    89    C    8  pz     Ryd( 3p)     0.00200
    90    C    8  dxy    Ryd( 3d)     0.00069
    91    C    8  dxz    Ryd( 3d)     0.00060
    92    C    8  dyz    Ryd( 3d)     0.00093
    93    C    8  dx2y2  Ryd( 3d)     0.00078
    94    C    8  dz2    Ryd( 3d)     0.00039
 
    95    C    9  S      Cor( 1S)     1.99909
    96    C    9  S      Val( 2S)     0.95090
    97    C    9  S      Ryd( 3S)     0.00062
    98    C    9  S      Ryd( 4S)     0.00005
    99    C    9  px     Val( 2p)     1.08898
   100    C    9  px     Ryd( 3p)     0.00383
   101    C    9  py     Val( 2p)     1.14320
   102    C    9  py     Ryd( 3p)     0.00472
   103    C    9  pz     Val( 2p)     1.06236
   104    C    9  pz     Ryd( 3p)     0.00558
   105    C    9  dxy    Ryd( 3d)     0.00081
   106    C    9  dxz    Ryd( 3d)     0.00058
   107    C    9  dyz    Ryd( 3d)     0.00038
   108    C    9  dx2y2  Ryd( 3d)     0.00065
   109    C    9  dz2    Ryd( 3d)     0.00041
 
   110    C   10  S      Cor( 1S)     1.99913
   111    C   10  S      Val( 2S)     0.96749
   112    C   10  S      Ryd( 3S)     0.00062
   113    C   10  S      Ryd( 4S)     0.00003
   114    C   10  px     Val( 2p)     1.08941
   115    C   10  px     Ryd( 3p)     0.00498
   116    C   10  py     Val( 2p)     1.15338
   117    C   10  py     Ryd( 3p)     0.00496
   118    C   10  pz     Val( 2p)     0.99560
   119    C   10  pz     Ryd( 3p)     0.00414
   120    C   10  dxy    Ryd( 3d)     0.00081
   121    C   10  dxz    Ryd( 3d)     0.00064
   122    C   10  dyz    Ryd( 3d)     0.00042
   123    C   10  dx2y2  Ryd( 3d)     0.00071
   124    C   10  dz2    Ryd( 3d)     0.00043
 
   125    C   11  S      Cor( 1S)     1.99913
   126    C   11  S      Val( 2S)     0.97354
   127    C   11  S      Ryd( 3S)     0.00053
   128    C   11  S      Ryd( 4S)     0.00003
   129    C   11  px     Val( 2p)     1.19383
   130    C   11  px     Ryd( 3p)     0.00487
   131    C   11  py     Val( 2p)     1.05540
   132    C   11  py     Ryd( 3p)     0.00466
   133    C   11  pz     Val( 2p)     0.95680
   134    C   11  pz     Ryd( 3p)     0.00260
   135    C   11  dxy    Ryd( 3d)     0.00065
   136    C   11  dxz    Ryd( 3d)     0.00034
   137    C   11  dyz    Ryd( 3d)     0.00078
   138    C   11  dx2y2  Ryd( 3d)     0.00091
   139    C   11  dz2    Ryd( 3d)     0.00047
 
   140    C   12  S      Cor( 1S)     1.99914
   141    C   12  S      Val( 2S)     0.96418
   142    C   12  S      Ryd( 3S)     0.00064
   143    C   12  S      Ryd( 4S)     0.00003
   144    C   12  px     Val( 2p)     1.08389
   145    C   12  px     Ryd( 3p)     0.00511
   146    C   12  py     Val( 2p)     1.15983
   147    C   12  py     Ryd( 3p)     0.00510
   148    C   12  pz     Val( 2p)     1.05365
   149    C   12  pz     Ryd( 3p)     0.00477
   150    C   12  dxy    Ryd( 3d)     0.00075
   151    C   12  dxz    Ryd( 3d)     0.00052
   152    C   12  dyz    Ryd( 3d)     0.00042
   153    C   12  dx2y2  Ryd( 3d)     0.00072
   154    C   12  dz2    Ryd( 3d)     0.00043
 
   155    C   13  S      Cor( 1S)     1.99908
   156    C   13  S      Val( 2S)     0.95889
   157    C   13  S      Ryd( 3S)     0.00058
   158    C   13  S      Ryd( 4S)     0.00005
   159    C   13  px     Val( 2p)     1.09339
   160    C   13  px     Ryd( 3p)     0.00361
   161    C   13  py     Val( 2p)     1.13766
   162    C   13  py     Ryd( 3p)     0.00450
   163    C   13  pz     Val( 2p)     0.97292
   164    C   13  pz     Ryd( 3p)     0.00418
   165    C   13  dxy    Ryd( 3d)     0.00087
   166    C   13  dxz    Ryd( 3d)     0.00072
   167    C   13  dyz    Ryd( 3d)     0.00039
   168    C   13  dx2y2  Ryd( 3d)     0.00067
   169    C   13  dz2    Ryd( 3d)     0.00041
 
   170    H   14  S      Val( 1S)     0.77116
   171    H   14  S      Ryd( 2S)     0.00123
 
   172    H   15  S      Val( 1S)     0.76525
   173    H   15  S      Ryd( 2S)     0.00086
 
   174    H   16  S      Val( 1S)     0.76436
   175    H   16  S      Ryd( 2S)     0.00085
 
   176    H   17  S      Val( 1S)     0.76442
   177    H   17  S      Ryd( 2S)     0.00082
 
   178    H   18  S      Val( 1S)     0.76959
   179    H   18  S      Ryd( 2S)     0.00108


 Summary of Natural Population Analysis:                  
                                                          
                                       Natural Population 
                Natural  -----------------------------------------------
    Atom  No    Charge         Core      Valence    Rydberg      Total
 -----------------------------------------------------------------------
      C    1    0.15545      1.99900     3.82032    0.02523     5.84455
      H    2    0.23629      0.00000     0.76299    0.00072     0.76371
      C    3   -0.16255      1.99903     4.14747    0.01605     6.16255
      C    4   -0.03251      1.99926     4.00968    0.02357     6.03251
      H    5    0.24726      0.00000     0.75213    0.00061     0.75274
      N    6   -0.12296      1.99947     5.09921    0.02428     7.12296
      O    7   -0.30636      1.99977     6.29170    0.01489     8.30636
      C    8   -0.03845      1.99903     4.02348    0.01594     6.03845
      C    9   -0.26216      1.99909     4.24544    0.01763     6.26216
      C   10   -0.22276      1.99913     4.20588    0.01774     6.22276
      C   11   -0.19453      1.99913     4.17957    0.01584     6.19453
      C   12   -0.27918      1.99914     4.26156    0.01848     6.27918
      C   13   -0.17793      1.99908     4.16286    0.01599     6.17793
      H   14    0.22761      0.00000     0.77116    0.00123     0.77239
      H   15    0.23389      0.00000     0.76525    0.00086     0.76611
      H   16    0.23479      0.00000     0.76436    0.00085     0.76521
      H   17    0.23476      0.00000     0.76442    0.00082     0.76524
      H   18    0.22933      0.00000     0.76959    0.00108     0.77067
 =======================================================================
   * Total *   -0.00000     21.99113    53.79707    0.21180    76.00000

                                 Natural Population      
 --------------------------------------------------------
   Core                      21.99113 ( 99.9597% of  22)
   Valence                   53.79707 ( 99.6242% of  54)
   Natural Minimal Basis     75.78820 ( 99.7213% of  76)
   Natural Rydberg Basis      0.21180 (  0.2787% of  76)
 --------------------------------------------------------

    Atom  No          Natural Electron Configuration
 ----------------------------------------------------------------------------
      C    1      [core]2S( 0.94)2p( 2.88)3p( 0.02)3d( 0.01)
      H    2            1S( 0.76)
      C    3      [core]2S( 0.90)2p( 3.25)3p( 0.01)
      C    4      [core]2S( 0.95)2p( 3.06)3p( 0.02)3d( 0.01)
      H    5            1S( 0.75)
      N    6      [core]2S( 1.50)2p( 3.60)3p( 0.01)3d( 0.01)
      O    7      [core]2S( 1.64)2p( 4.66)3p( 0.01)3d( 0.01)
      C    8      [core]2S( 0.88)2p( 3.15)3p( 0.01)
      C    9      [core]2S( 0.95)2p( 3.29)3p( 0.01)
      C   10      [core]2S( 0.97)2p( 3.24)3p( 0.01)
      C   11      [core]2S( 0.97)2p( 3.21)3p( 0.01)
      C   12      [core]2S( 0.96)2p( 3.30)3p( 0.01)
      C   13      [core]2S( 0.96)2p( 3.20)3p( 0.01)
      H   14            1S( 0.77)
      H   15            1S( 0.77)
      H   16            1S( 0.76)
      H   17            1S( 0.76)
      H   18            1S( 0.77)


 NBO analysis skipped by request.
 1\1\GINC-DELLA-R4C4N6\SP\RB3LYP TD-FC\6-31G(d)\C9H7N1O1\BJS4\27-Aug-20
 18\0\\# TD(NStates=10, Root=1) b3lyp/6-31G* volume pop=NPA density=cur
 rent Geom=AllCheck Guess=Read\\Title Card Required\\0,1\C,0,-0.7912391
 558,0.0679354192,-0.7747036673\H,0,-1.5085100591,-0.0385649749,-1.5759
 967082\C,0,-0.3668244027,1.1357205107,-0.0327964983\C,0,0.6190289758,0
 .5332965909,0.8136965866\H,0,1.2162527286,1.0027776639,1.5855931984\N,
 0,0.7616918272,-0.7516274721,0.603275556\O,0,-0.1426474136,-1.05438821
 14,-0.4207085625\C,0,-0.8005705021,2.5387854355,-0.0830132651\C,0,-2.0
 833952423,2.8827396304,-0.5421867988\C,0,-2.4867560464,4.2148778308,-0
 .599593512\C,0,-1.6211535564,5.2308202705,-0.188473096\C,0,-0.34710739
 12,4.9018040749,0.2772269599\C,0,0.0607001578,3.5698277064,0.326819771
 4\H,0,-2.7752978393,2.0983104735,-0.8374264684\H,0,-3.4836557342,4.459
 089817,-0.9566097741\H,0,-1.9381447816,6.2691971115,-0.2283643727\H,0,
 0.3356094152,5.6843030244,0.5972857548\H,0,1.0631290202,3.3283450987,0
 .6698148962\\Version=ES64L-G16RevA.03\State=1-A\HF=-477.0930686\RMSD=3
 .325e-09\Dipole=-0.4333649,1.017676,-0.2061105\Quadrupole=2.7953857,-3
 .7845267,0.989141,3.7469515,2.9193728,2.5039849\PG=C01 [X(C9H7N1O1)]\\
 @


 If fifty million people say a stupid thing,
 it is still a stupid thing.
                   -- Anatole France
 Job cpu time:       0 days  0 hours 12 minutes 51.6 seconds.
 Elapsed time:       0 days  0 hours  4 minutes 21.4 seconds.
 File lengths (MBytes):  RWF=    304 Int=      0 D2E=      0 Chk=     67 Scr=      1
 Normal termination of Gaussian 16 at Mon Aug 27 11:53:28 2018.
