 Entering Gaussian System, Link 0=g16
 Input=4_123.com
 Output=4_123.log
 Initial command:
 /opt/export/g16/l1.exe "/scratch/bjs4/job.4221/Gau-4223.inp" -scrdir="/scratch/bjs4/job.4221/"
 Entering Link 1 = /opt/export/g16/l1.exe PID=      4224.
  
 Copyright (c) 1988,1990,1992,1993,1995,1998,2003,2009,2016,
            Gaussian, Inc.  All Rights Reserved.
  
 This is part of the Gaussian(R) 16 program.  It is based on
 the Gaussian(R) 09 system (copyright 2009, Gaussian, Inc.),
 the Gaussian(R) 03 system (copyright 2003, Gaussian, Inc.),
 the Gaussian(R) 98 system (copyright 1998, Gaussian, Inc.),
 the Gaussian(R) 94 system (copyright 1995, Gaussian, Inc.),
 the Gaussian 92(TM) system (copyright 1992, Gaussian, Inc.),
 the Gaussian 90(TM) system (copyright 1990, Gaussian, Inc.),
 the Gaussian 88(TM) system (copyright 1988, Gaussian, Inc.),
 the Gaussian 86(TM) system (copyright 1986, Carnegie Mellon
 University), and the Gaussian 82(TM) system (copyright 1983,
 Carnegie Mellon University). Gaussian is a federally registered
 trademark of Gaussian, Inc.
  
 This software contains proprietary and confidential information,
 including trade secrets, belonging to Gaussian, Inc.
  
 This software is provided under written license and may be
 used, copied, transmitted, or stored only in accord with that
 written license.
  
 The following legend is applicable only to US Government
 contracts under FAR:
  
                    RESTRICTED RIGHTS LEGEND
  
 Use, reproduction and disclosure by the US Government is
 subject to restrictions as set forth in subparagraphs (a)
 and (c) of the Commercial Computer Software - Restricted
 Rights clause in FAR 52.227-19.
  
 Gaussian, Inc.
 340 Quinnipiac St., Bldg. 40, Wallingford CT 06492
  
  
 ---------------------------------------------------------------
 Warning -- This program may not be used in any manner that
 competes with the business of Gaussian, Inc. or will provide
 assistance to any competitor of Gaussian, Inc.  The licensee
 of this program is prohibited from giving any competitor of
 Gaussian, Inc. access to this program.  By using this program,
 the user acknowledges that Gaussian, Inc. is engaged in the
 business of creating and licensing software in the field of
 computational chemistry and represents and warrants to the
 licensee that it is not a competitor of Gaussian, Inc. and that
 it will not use this program in any manner prohibited above.
 ---------------------------------------------------------------
  

 Cite this work as:
 Gaussian 16, Revision A.03,
 M. J. Frisch, G. W. Trucks, H. B. Schlegel, G. E. Scuseria, 
 M. A. Robb, J. R. Cheeseman, G. Scalmani, V. Barone, 
 G. A. Petersson, H. Nakatsuji, X. Li, M. Caricato, A. V. Marenich, 
 J. Bloino, B. G. Janesko, R. Gomperts, B. Mennucci, H. P. Hratchian, 
 J. V. Ortiz, A. F. Izmaylov, J. L. Sonnenberg, D. Williams-Young, 
 F. Ding, F. Lipparini, F. Egidi, J. Goings, B. Peng, A. Petrone, 
 T. Henderson, D. Ranasinghe, V. G. Zakrzewski, J. Gao, N. Rega, 
 G. Zheng, W. Liang, M. Hada, M. Ehara, K. Toyota, R. Fukuda, 
 J. Hasegawa, M. Ishida, T. Nakajima, Y. Honda, O. Kitao, H. Nakai, 
 T. Vreven, K. Throssell, J. A. Montgomery, Jr., J. E. Peralta, 
 F. Ogliaro, M. J. Bearpark, J. J. Heyd, E. N. Brothers, K. N. Kudin, 
 V. N. Staroverov, T. A. Keith, R. Kobayashi, J. Normand, 
 K. Raghavachari, A. P. Rendell, J. C. Burant, S. S. Iyengar, 
 J. Tomasi, M. Cossi, J. M. Millam, M. Klene, C. Adamo, R. Cammi, 
 J. W. Ochterski, R. L. Martin, K. Morokuma, O. Farkas, 
 J. B. Foresman, and D. J. Fox, Gaussian, Inc., Wallingford CT, 2016.
 
 ******************************************
 Gaussian 16:  ES64L-G16RevA.03 25-Dec-2016
                30-Dec-2019 
 ******************************************
 %nprocshared=5
 Will use up to    5 processors via shared memory.
 %Mem=10GB
 %Chk=4_1.chk
 ---------------------------------
 # opt=CalcAll B3LYP/6-31G* scf=qc
 ---------------------------------
 1/10=4,18=20,19=15,26=3,38=1/1,3;
 2/9=110,12=2,17=6,18=5,40=1/2;
 3/5=1,6=6,7=1,11=2,25=1,30=1,71=2,74=-5,140=1/1,2,3;
 4//1;
 5/5=2,8=3,38=5/8;
 8/6=4,10=90,11=11/1;
 11/6=1,8=1,9=11,15=111,16=1/1,2,10;
 10/6=1/2;
 6/7=2,8=2,9=2,10=2,18=1,28=1/1;
 7/10=1,25=1/1,2,3,16;
 1/10=4,18=20,19=15,26=3/3(3);
 2/9=110/2;
 7/8=1,9=1,25=1,44=-1/16;
 99//99;
 2/9=110/2;
 3/5=1,6=6,7=1,11=2,25=1,30=1,71=2,74=-5,140=1/1,2,3;
 4/5=5,16=3,69=1/1;
 5/5=2,8=3,38=5/8;
 8/6=4,10=90,11=11/1;
 11/6=1,8=1,9=11,15=111,16=1/1,2,10;
 10/6=1/2;
 7/10=1,25=1/1,2,3,16;
 1/10=4,18=20,19=15,26=3/3(-8);
 2/9=110/2;
 6/7=2,8=2,9=2,10=2,18=1,19=2,28=1/1;
 7/8=1,9=1,25=1,44=-1/16;
 99//99;
 -------------------
 Title Card Required
 -------------------
 Symbolic Z-matrix:
 Charge =  0 Multiplicity = 1
 C5                   -1.13315   0.11202   0.01055 
 C4                   -2.00941   1.16438   0.11494 
 H                    -1.78194   2.21031   0.22536 
 C3                   -3.28283   0.54795   0.04888 
 H                    -4.25989   1.01262   0.09467 
 N2                   -3.20532  -0.75602  -0.08596 
 O1                   -1.84092  -1.03893  -0.1108 
 C                     0.32576   0.02689   0.00506 
 C                     1.0415   -1.18664   0.02604 
 C                     2.42938  -1.24807   0.01899 
 C                     3.16527  -0.06542  -0.00821 
 C                     2.51081   1.16604  -0.02718 
 C                     1.1252    1.18492  -0.01971 
 F                     0.51557   2.38911  -0.03958 
 F                     0.36971  -2.34626   0.05931 
 H                     2.90497  -2.22228   0.03686 
 H                     4.25002  -0.10213  -0.01377 
 H                     3.04874   2.10708  -0.04875 
 

 GradGradGradGradGradGradGradGradGradGradGradGradGradGradGradGradGradGrad
 Berny optimization.
 Initialization pass.
                           ----------------------------
                           !    Initial Parameters    !
                           ! (Angstroms and Degrees)  !
 --------------------------                            --------------------------
 ! Name  Definition              Value          Derivative Info.                !
 --------------------------------------------------------------------------------
 ! R1    R(1,2)                  1.3734         calculate D2E/DX2 analytically  !
 ! R2    R(1,7)                  1.3566         calculate D2E/DX2 analytically  !
 ! R3    R(1,8)                  1.4614         calculate D2E/DX2 analytically  !
 ! R4    R(2,3)                  1.0761         calculate D2E/DX2 analytically  !
 ! R5    R(2,4)                  1.4163         calculate D2E/DX2 analytically  !
 ! R6    R(4,5)                  1.0829         calculate D2E/DX2 analytically  !
 ! R7    R(4,6)                  1.3132         calculate D2E/DX2 analytically  !
 ! R8    R(6,7)                  1.3936         calculate D2E/DX2 analytically  !
 ! R9    R(8,9)                  1.409          calculate D2E/DX2 analytically  !
 ! R10   R(8,13)                 1.4074         calculate D2E/DX2 analytically  !
 ! R11   R(9,10)                 1.3893         calculate D2E/DX2 analytically  !
 ! R12   R(9,15)                 1.3406         calculate D2E/DX2 analytically  !
 ! R13   R(10,11)                1.3932         calculate D2E/DX2 analytically  !
 ! R14   R(10,16)                1.0842         calculate D2E/DX2 analytically  !
 ! R15   R(11,12)                1.3947         calculate D2E/DX2 analytically  !
 ! R16   R(11,17)                1.0854         calculate D2E/DX2 analytically  !
 ! R17   R(12,13)                1.3858         calculate D2E/DX2 analytically  !
 ! R18   R(12,18)                1.0842         calculate D2E/DX2 analytically  !
 ! R19   R(13,14)                1.3499         calculate D2E/DX2 analytically  !
 ! A1    A(2,1,7)              108.9059         calculate D2E/DX2 analytically  !
 ! A2    A(2,1,8)              132.9894         calculate D2E/DX2 analytically  !
 ! A3    A(7,1,8)              118.1045         calculate D2E/DX2 analytically  !
 ! A4    A(1,2,3)              128.1498         calculate D2E/DX2 analytically  !
 ! A5    A(1,2,4)              103.6869         calculate D2E/DX2 analytically  !
 ! A6    A(3,2,4)              128.1628         calculate D2E/DX2 analytically  !
 ! A7    A(2,4,5)              128.4997         calculate D2E/DX2 analytically  !
 ! A8    A(2,4,6)              112.5751         calculate D2E/DX2 analytically  !
 ! A9    A(5,4,6)              118.9251         calculate D2E/DX2 analytically  !
 ! A10   A(4,6,7)              105.1405         calculate D2E/DX2 analytically  !
 ! A11   A(1,7,6)              109.6913         calculate D2E/DX2 analytically  !
 ! A12   A(1,8,9)              123.8634         calculate D2E/DX2 analytically  !
 ! A13   A(1,8,13)             121.2785         calculate D2E/DX2 analytically  !
 ! A14   A(9,8,13)             114.8579         calculate D2E/DX2 analytically  !
 ! A15   A(8,9,10)             123.057          calculate D2E/DX2 analytically  !
 ! A16   A(8,9,15)             119.3937         calculate D2E/DX2 analytically  !
 ! A17   A(10,9,15)            117.5488         calculate D2E/DX2 analytically  !
 ! A18   A(9,10,11)            119.3565         calculate D2E/DX2 analytically  !
 ! A19   A(9,10,16)            118.545          calculate D2E/DX2 analytically  !
 ! A20   A(11,10,16)           122.0983         calculate D2E/DX2 analytically  !
 ! A21   A(10,11,12)           120.1288         calculate D2E/DX2 analytically  !
 ! A22   A(10,11,17)           119.9526         calculate D2E/DX2 analytically  !
 ! A23   A(12,11,17)           119.9186         calculate D2E/DX2 analytically  !
 ! A24   A(11,12,13)           118.7607         calculate D2E/DX2 analytically  !
 ! A25   A(11,12,18)           122.2655         calculate D2E/DX2 analytically  !
 ! A26   A(13,12,18)           118.9738         calculate D2E/DX2 analytically  !
 ! A27   A(8,13,12)            123.8388         calculate D2E/DX2 analytically  !
 ! A28   A(8,13,14)            118.5385         calculate D2E/DX2 analytically  !
 ! A29   A(12,13,14)           117.6226         calculate D2E/DX2 analytically  !
 ! D1    D(7,1,2,3)            179.8696         calculate D2E/DX2 analytically  !
 ! D2    D(7,1,2,4)              0.115          calculate D2E/DX2 analytically  !
 ! D3    D(8,1,2,3)             -0.2911         calculate D2E/DX2 analytically  !
 ! D4    D(8,1,2,4)            179.9543         calculate D2E/DX2 analytically  !
 ! D5    D(2,1,7,6)             -0.0705         calculate D2E/DX2 analytically  !
 ! D6    D(8,1,7,6)           -179.9372         calculate D2E/DX2 analytically  !
 ! D7    D(2,1,8,9)            173.0649         calculate D2E/DX2 analytically  !
 ! D8    D(2,1,8,13)            -6.8123         calculate D2E/DX2 analytically  !
 ! D9    D(7,1,8,9)             -7.1074         calculate D2E/DX2 analytically  !
 ! D10   D(7,1,8,13)           173.0155         calculate D2E/DX2 analytically  !
 ! D11   D(1,2,4,5)            179.9115         calculate D2E/DX2 analytically  !
 ! D12   D(1,2,4,6)             -0.1279         calculate D2E/DX2 analytically  !
 ! D13   D(3,2,4,5)              0.157          calculate D2E/DX2 analytically  !
 ! D14   D(3,2,4,6)           -179.8824         calculate D2E/DX2 analytically  !
 ! D15   D(2,4,6,7)              0.0867         calculate D2E/DX2 analytically  !
 ! D16   D(5,4,6,7)           -179.9486         calculate D2E/DX2 analytically  !
 ! D17   D(4,6,7,1)             -0.0102         calculate D2E/DX2 analytically  !
 ! D18   D(1,8,9,10)           179.9292         calculate D2E/DX2 analytically  !
 ! D19   D(1,8,9,15)            -0.32           calculate D2E/DX2 analytically  !
 ! D20   D(13,8,9,10)           -0.1865         calculate D2E/DX2 analytically  !
 ! D21   D(13,8,9,15)          179.5643         calculate D2E/DX2 analytically  !
 ! D22   D(1,8,13,12)         -179.9432         calculate D2E/DX2 analytically  !
 ! D23   D(1,8,13,14)           -0.0512         calculate D2E/DX2 analytically  !
 ! D24   D(9,8,13,12)            0.1692         calculate D2E/DX2 analytically  !
 ! D25   D(9,8,13,14)         -179.9388         calculate D2E/DX2 analytically  !
 ! D26   D(8,9,10,11)            0.0878         calculate D2E/DX2 analytically  !
 ! D27   D(8,9,10,16)          179.9741         calculate D2E/DX2 analytically  !
 ! D28   D(15,9,10,11)        -179.6673         calculate D2E/DX2 analytically  !
 ! D29   D(15,9,10,16)           0.219          calculate D2E/DX2 analytically  !
 ! D30   D(9,10,11,12)           0.0432         calculate D2E/DX2 analytically  !
 ! D31   D(9,10,11,17)         179.9898         calculate D2E/DX2 analytically  !
 ! D32   D(16,10,11,12)       -179.8389         calculate D2E/DX2 analytically  !
 ! D33   D(16,10,11,17)          0.1077         calculate D2E/DX2 analytically  !
 ! D34   D(10,11,12,13)         -0.0606         calculate D2E/DX2 analytically  !
 ! D35   D(10,11,12,18)       -179.9848         calculate D2E/DX2 analytically  !
 ! D36   D(17,11,12,13)        179.9928         calculate D2E/DX2 analytically  !
 ! D37   D(17,11,12,18)          0.0686         calculate D2E/DX2 analytically  !
 ! D38   D(11,12,13,8)          -0.0519         calculate D2E/DX2 analytically  !
 ! D39   D(11,12,13,14)       -179.9448         calculate D2E/DX2 analytically  !
 ! D40   D(18,12,13,8)         179.8748         calculate D2E/DX2 analytically  !
 ! D41   D(18,12,13,14)         -0.0181         calculate D2E/DX2 analytically  !
 --------------------------------------------------------------------------------
 Trust Radius=3.00D-01 FncErr=1.00D-07 GrdErr=1.00D-06 EigMax=2.50D+02 EigMin=1.00D-04
 Number of steps in this run=     99 maximum allowed number of steps=    108.
 GradGradGradGradGradGradGradGradGradGradGradGradGradGradGradGradGradGrad

                          Input orientation:                          
 ---------------------------------------------------------------------
 Center     Atomic      Atomic             Coordinates (Angstroms)
 Number     Number       Type             X           Y           Z
 ---------------------------------------------------------------------
      1          6           0       -1.133147    0.112015    0.010546
      2          6           0       -2.009414    1.164378    0.114941
      3          1           0       -1.781941    2.210313    0.225360
      4          6           0       -3.282829    0.547953    0.048882
      5          1           0       -4.259891    1.012615    0.094671
      6          7           0       -3.205324   -0.756016   -0.085964
      7          8           0       -1.840920   -1.038935   -0.110796
      8          6           0        0.325757    0.026887    0.005059
      9          6           0        1.041504   -1.186642    0.026041
     10          6           0        2.429384   -1.248074    0.018987
     11          6           0        3.165265   -0.065419   -0.008207
     12          6           0        2.510806    1.166041   -0.027179
     13          6           0        1.125201    1.184916   -0.019707
     14          9           0        0.515574    2.389110   -0.039583
     15          9           0        0.369711   -2.346260    0.059312
     16          1           0        2.904969   -2.222276    0.036856
     17          1           0        4.250024   -0.102130   -0.013771
     18          1           0        3.048741    2.107080   -0.048748
 ---------------------------------------------------------------------
                    Distance matrix (angstroms):
                    1          2          3          4          5
     1  C    0.000000
     2  C    1.373394   0.000000
     3  H    2.206793   1.076065   0.000000
     4  C    2.193774   1.416308   2.246609   0.000000
     5  H    3.254948   2.255679   2.755321   1.082893   0.000000
     6  N    2.248713   2.271228   3.304852   1.313212   2.067074
     7  O    1.356596   2.221246   3.267123   2.150073   3.178442
     8  C    1.461396   2.599804   3.042741   3.646275   4.691253
     9  C    2.532954   3.852700   4.421637   4.659313   5.739881
    10  C    3.813337   5.052926   5.453282   5.987987   7.061363
    11  C    4.302113   5.320232   5.450537   6.477453   7.503711
    12  C    3.793519   4.522454   4.425150   5.827008   6.773531
    13  C    2.500433   3.137573   3.092405   4.454341   5.389062
    14  F    2.811753   2.810589   2.319642   4.222032   4.971703
    15  F    2.881679   4.241216   5.041779   4.660217   5.719834
    16  H    4.664331   5.968809   6.453720   6.779613   7.861494
    17  H    5.387484   6.387580   6.464455   7.561112   8.583302
    18  H    4.633788   5.147855   4.839554   6.521441   7.391517
                    6          7          8          9         10
     6  N    0.000000
     7  O    1.393649   0.000000
     8  C    3.617977   2.417414   0.000000
     9  C    4.270074   2.889448   1.409037   0.000000
    10  C    5.657126   4.277392   2.459871   1.389257   0.000000
    11  C    6.408383   5.100995   2.841039   2.401807   1.393174
    12  C    6.030912   4.879183   2.464376   2.774310   2.415929
    13  C    4.746057   3.708326   1.407393   2.373475   2.760766
    14  F    4.872274   4.160484   2.370258   3.614818   4.110378
    15  F    3.915464   2.573893   2.374174   1.340570   2.334500
    16  H    6.284957   4.893420   3.422292   2.131937   1.084237
    17  H    7.484316   6.163328   3.926432   3.387086   2.151509
    18  H    6.878374   5.814641   3.427060   3.857875   3.412514
                   11         12         13         14         15
    11  C    0.000000
    12  C    1.394694   0.000000
    13  C    2.392766   1.385754   0.000000
    14  F    3.612002   2.340300   1.349860   0.000000
    15  F    3.608589   4.114368   3.611954   4.738648   0.000000
    16  H    2.172974   3.411767   3.844442   5.194221   2.538387
    17  H    1.085394   2.152514   3.379503   4.489216   4.483112
    18  H    2.175999   1.084156   2.133363   2.548835   5.198184
                   16         17         18
    16  H    0.000000
    17  H    2.511325   0.000000
    18  H    4.332588   2.514938   0.000000
 Stoichiometry    C9H5F2NO
 Framework group  C1[X(C9H5F2NO)]
 Deg. of freedom    48
 Full point group                 C1      NOp   1
 Largest Abelian subgroup         C1      NOp   1
 Largest concise Abelian subgroup C1      NOp   1
                         Standard orientation:                         
 ---------------------------------------------------------------------
 Center     Atomic      Atomic             Coordinates (Angstroms)
 Number     Number       Type             X           Y           Z
 ---------------------------------------------------------------------
      1          6           0       -1.133147    0.112015    0.010546
      2          6           0       -2.009414    1.164378    0.114941
      3          1           0       -1.781941    2.210313    0.225360
      4          6           0       -3.282829    0.547953    0.048882
      5          1           0       -4.259891    1.012615    0.094671
      6          7           0       -3.205324   -0.756016   -0.085964
      7          8           0       -1.840920   -1.038935   -0.110796
      8          6           0        0.325757    0.026887    0.005059
      9          6           0        1.041504   -1.186642    0.026041
     10          6           0        2.429384   -1.248074    0.018987
     11          6           0        3.165265   -0.065419   -0.008207
     12          6           0        2.510806    1.166041   -0.027179
     13          6           0        1.125201    1.184916   -0.019707
     14          9           0        0.515574    2.389110   -0.039583
     15          9           0        0.369711   -2.346260    0.059312
     16          1           0        2.904969   -2.222276    0.036856
     17          1           0        4.250024   -0.102130   -0.013771
     18          1           0        3.048741    2.107080   -0.048748
 ---------------------------------------------------------------------
 Rotational constants (GHZ):           1.4734902           0.6707380           0.4614908
 Standard basis: 6-31G(d) (6D, 7F)
 There are   205 symmetry adapted cartesian basis functions of A   symmetry.
 There are   205 symmetry adapted basis functions of A   symmetry.
   205 basis functions,   384 primitive gaussians,   205 cartesian basis functions
    46 alpha electrons       46 beta electrons
       nuclear repulsion energy       757.8986453044 Hartrees.
 NAtoms=   18 NActive=   18 NUniq=   18 SFac= 1.00D+00 NAtFMM=   60 NAOKFM=F Big=F
 Integral buffers will be    131072 words long.
 Raffenetti 2 integral format.
 Two-electron integral symmetry is turned on.
 One-electron integrals computed using PRISM.
 NBasis=   205 RedAO= T EigKep=  3.84D-04  NBF=   205
 NBsUse=   205 1.00D-06 EigRej= -1.00D+00 NBFU=   205
 ExpMin= 1.61D-01 ExpMax= 7.00D+03 ExpMxC= 1.05D+03 IAcc=3 IRadAn=         5 AccDes= 0.00D+00
 Harris functional with IExCor=  402 and IRadAn=       5 diagonalized for initial guess.
 HarFok:  IExCor=  402 AccDes= 0.00D+00 IRadAn=         5 IDoV= 1 UseB2=F ITyADJ=14
 ICtDFT=  3500011 ScaDFX=  1.000000  1.000000  1.000000  1.000000
 FoFCou: FMM=F IPFlag=           0 FMFlag=      100000 FMFlg1=           0
         NFxFlg=           0 DoJE=T BraDBF=F KetDBF=T FulRan=T
         wScrn=  0.000000 ICntrl=       500 IOpCl=  0 I1Cent=   200000004 NGrid=           0
         NMat0=    1 NMatS0=      1 NMatT0=    0 NMatD0=    1 NMtDS0=    0 NMtDT0=    0
 Petite list used in FoFCou.
 Keep R1 ints in memory in canonical form, NReq=228100016.
 Gradient too large for Newton-Raphson -- use scaled steepest descent instead.
     Minimum is close to point  3 DX=  5.22D-03 DF= -3.00D-05 DXR=  1.29D-02 DFR=  1.65D-04 which will be used.
 Gradient too large for Newton-Raphson -- use scaled steepest descent instead.
     Accept linear search using points  2 and  3.
 Gradient too large for Newton-Raphson -- use scaled steepest descent instead.
     Minimum is close to point  2 DX=  3.99D-02 DF= -2.48D-05 DXR=  9.07D-02 DFR=  8.30D-03 which will be used.
 Gradient too large for Newton-Raphson -- use scaled steepest descent instead.
 Gradient too large for Newton-Raphson -- use scaled steepest descent instead.
     Accept linear search using points  1 and  2.
 Gradient too large for Newton-Raphson -- use scaled steepest descent instead.
     Accept linear search using points  2 and  3.
 LinEq1:  Iter=  0 NonCon=     1 RMS=2.60D-05 Max=1.02D-03 NDo=     1
 AX will form     1 AO Fock derivatives at one time.
 LinEq1:  Iter=  1 NonCon=     1 RMS=2.66D-05 Max=1.24D-03 NDo=     1
 LinEq1:  Iter=  2 NonCon=     1 RMS=8.29D-06 Max=2.71D-04 NDo=     1
 LinEq1:  Iter=  3 NonCon=     1 RMS=5.80D-06 Max=9.61D-05 NDo=     1
 LinEq1:  Iter=  4 NonCon=     1 RMS=1.73D-06 Max=3.49D-05 NDo=     1
 LinEq1:  Iter=  5 NonCon=     1 RMS=1.19D-06 Max=3.93D-05 NDo=     1
 LinEq1:  Iter=  6 NonCon=     1 RMS=4.70D-07 Max=1.06D-05 NDo=     1
 LinEq1:  Iter=  7 NonCon=     1 RMS=2.75D-07 Max=6.39D-06 NDo=     1
 LinEq1:  Iter=  8 NonCon=     1 RMS=2.50D-07 Max=7.55D-06 NDo=     1
 LinEq1:  Iter=  9 NonCon=     1 RMS=1.48D-07 Max=4.87D-06 NDo=     1
 LinEq1:  Iter= 10 NonCon=     1 RMS=7.53D-08 Max=1.49D-06 NDo=     1
 LinEq1:  Iter= 11 NonCon=     1 RMS=2.20D-08 Max=3.37D-07 NDo=     1
 LinEq1:  Iter= 12 NonCon=     1 RMS=1.35D-08 Max=2.54D-07 NDo=     1
 LinEq1:  Iter= 13 NonCon=     0 RMS=5.91D-09 Max=9.39D-08 NDo=     1
 Linear equations converged to 1.209D-08 1.209D-07 after    13 iterations.
     Minimum is close to point  2 DX=  1.36D-04 DF= -1.14D-13 DXR=  1.36D-04 DFR=  4.68D-08 which will be used.
 SCF Done:  E(RB3LYP) =  -675.559531655     a.u. after    8 cycles
            Convg  =    0.5002D-06                    32 Fock formations.
              S**2 =  0.0000                  -V/T =  2.0085
 DoSCS=F DFT=T ScalE2(SS,OS)=  1.000000  1.000000
 Range of M.O.s used for correlation:     1   205
 NBasis=   205 NAE=    46 NBE=    46 NFC=     0 NFV=     0
 NROrb=    205 NOA=    46 NOB=    46 NVA=   159 NVB=   159

 **** Warning!!: The largest alpha MO coefficient is  0.13855862D+02

 Symmetrizing basis deriv contribution to polar:
 IMax=3 JMax=2 DiffMx= 0.00D+00
 G2DrvN: will do    19 centers at a time, making    1 passes.
 Calling FoFCou, ICntrl=  3107 FMM=F I1Cent=   0 AccDes= 0.00D+00.
 End of G2Drv F.D. properties file   721 does not exist.
 End of G2Drv F.D. properties file   722 does not exist.
 End of G2Drv F.D. properties file   788 does not exist.
          IDoAtm=111111111111111111
          Differentiating once with respect to electric field.
                with respect to dipole field.
          Differentiating once with respect to nuclear coordinates.
 Keep R1 ints in memory in canonical form, NReq=228101820.
          There are    57 degrees of freedom in the 1st order CPHF.  IDoFFX=6 NUNeed=     3.
     54 vectors produced by pass  0 Test12= 1.28D-14 1.75D-09 XBig12= 2.34D+02 1.23D+01.
 AX will form    54 AO Fock derivatives at one time.
     54 vectors produced by pass  1 Test12= 1.28D-14 1.75D-09 XBig12= 3.31D+01 1.62D+00.
     54 vectors produced by pass  2 Test12= 1.28D-14 1.75D-09 XBig12= 2.92D-01 6.21D-02.
     54 vectors produced by pass  3 Test12= 1.28D-14 1.75D-09 XBig12= 2.55D-03 8.42D-03.
     54 vectors produced by pass  4 Test12= 1.28D-14 1.75D-09 XBig12= 6.71D-06 2.82D-04.
     51 vectors produced by pass  5 Test12= 1.28D-14 1.75D-09 XBig12= 6.59D-09 1.10D-05.
     10 vectors produced by pass  6 Test12= 1.28D-14 1.75D-09 XBig12= 5.80D-12 3.42D-07.
      3 vectors produced by pass  7 Test12= 1.28D-14 1.75D-09 XBig12= 4.12D-15 8.47D-09.
 InvSVY:  IOpt=1 It=  1 EMax= 8.88D-15
 Solved reduced A of dimension   334 with    57 vectors.
 Isotropic polarizability for W=    0.000000      101.28 Bohr**3.
 End of Minotr F.D. properties file   721 does not exist.
 End of Minotr F.D. properties file   722 does not exist.
 End of Minotr F.D. properties file   788 does not exist.

 **********************************************************************

            Population analysis using the SCF density.

 **********************************************************************

 Orbital symmetries:
       Occupied  (A) (A) (A) (A) (A) (A) (A) (A) (A) (A) (A) (A)
                 (A) (A) (A) (A) (A) (A) (A) (A) (A) (A) (A) (A)
                 (A) (A) (A) (A) (A) (A) (A) (A) (A) (A) (A) (A)
                 (A) (A) (A) (A) (A) (A) (A) (A) (A) (A)
       Virtual   (A) (A) (A) (A) (A) (A) (A) (A) (A) (A) (A) (A)
                 (A) (A) (A) (A) (A) (A) (A) (A) (A) (A) (A) (A)
                 (A) (A) (A) (A) (A) (A) (A) (A) (A) (A) (A) (A)
                 (A) (A) (A) (A) (A) (A) (A) (A) (A) (A) (A) (A)
                 (A) (A) (A) (A) (A) (A) (A) (A) (A) (A) (A) (A)
                 (A) (A) (A) (A) (A) (A) (A) (A) (A) (A) (A) (A)
                 (A) (A) (A) (A) (A) (A) (A) (A) (A) (A) (A) (A)
                 (A) (A) (A) (A) (A) (A) (A) (A) (A) (A) (A) (A)
                 (A) (A) (A) (A) (A) (A) (A) (A) (A) (A) (A) (A)
                 (A) (A) (A) (A) (A) (A) (A) (A) (A) (A) (A) (A)
                 (A) (A) (A) (A) (A) (A) (A) (A) (A) (A) (A) (A)
                 (A) (A) (A) (A) (A) (A) (A) (A) (A) (A) (A) (A)
                 (A) (A) (A) (A) (A) (A) (A) (A) (A) (A) (A) (A)
                 (A) (A) (A)
 The electronic state is 1-A.
 Alpha  occ. eigenvalues --  -24.73046 -24.71990 -19.23443 -14.38126 -10.29980
 Alpha  occ. eigenvalues --  -10.29821 -10.27127 -10.23671 -10.22544 -10.22315
 Alpha  occ. eigenvalues --  -10.21375 -10.21209 -10.20010  -1.24190  -1.23446
 Alpha  occ. eigenvalues --   -1.14090  -0.89114  -0.86697  -0.81665  -0.76877
 Alpha  occ. eigenvalues --   -0.76604  -0.66097  -0.64605  -0.61764  -0.59444
 Alpha  occ. eigenvalues --   -0.56807  -0.54432  -0.52743  -0.50212  -0.49238
 Alpha  occ. eigenvalues --   -0.49072  -0.47139  -0.46288  -0.46196  -0.44720
 Alpha  occ. eigenvalues --   -0.42734  -0.40880  -0.39695  -0.38161  -0.37098
 Alpha  occ. eigenvalues --   -0.36598  -0.31134  -0.30547  -0.29777  -0.26087
 Alpha  occ. eigenvalues --   -0.23889
 Alpha virt. eigenvalues --   -0.05693  -0.01395   0.01677   0.06626   0.06762
 Alpha virt. eigenvalues --    0.09987   0.12597   0.13403   0.14414   0.15963
 Alpha virt. eigenvalues --    0.16283   0.16508   0.18376   0.20487   0.24860
 Alpha virt. eigenvalues --    0.26590   0.29431   0.33702   0.34562   0.37603
 Alpha virt. eigenvalues --    0.39699   0.42029   0.44455   0.48318   0.50563
 Alpha virt. eigenvalues --    0.50793   0.52106   0.52852   0.53602   0.56104
 Alpha virt. eigenvalues --    0.56653   0.57135   0.57840   0.58368   0.60198
 Alpha virt. eigenvalues --    0.61174   0.61884   0.63217   0.63546   0.64019
 Alpha virt. eigenvalues --    0.66956   0.69529   0.71505   0.77205   0.77494
 Alpha virt. eigenvalues --    0.80362   0.80859   0.81441   0.81771   0.82095
 Alpha virt. eigenvalues --    0.84045   0.86461   0.88302   0.89055   0.89501
 Alpha virt. eigenvalues --    0.92451   0.95055   0.98345   0.99307   1.00708
 Alpha virt. eigenvalues --    1.05108   1.07138   1.11267   1.15801   1.16470
 Alpha virt. eigenvalues --    1.19233   1.20039   1.20193   1.22883   1.25139
 Alpha virt. eigenvalues --    1.26694   1.29417   1.32677   1.35848   1.36959
 Alpha virt. eigenvalues --    1.38362   1.38922   1.41098   1.41955   1.42547
 Alpha virt. eigenvalues --    1.44956   1.45164   1.47632   1.47913   1.50350
 Alpha virt. eigenvalues --    1.55640   1.57355   1.62972   1.70233   1.70845
 Alpha virt. eigenvalues --    1.72218   1.75564   1.79290   1.80726   1.81756
 Alpha virt. eigenvalues --    1.82370   1.84073   1.86435   1.90313   1.90911
 Alpha virt. eigenvalues --    1.91432   1.95074   1.96981   1.98543   1.99143
 Alpha virt. eigenvalues --    1.99453   2.05106   2.07142   2.07892   2.14876
 Alpha virt. eigenvalues --    2.15211   2.17386   2.18462   2.19965   2.22323
 Alpha virt. eigenvalues --    2.25837   2.26752   2.29757   2.30996   2.31567
 Alpha virt. eigenvalues --    2.34207   2.37120   2.37520   2.42714   2.45712
 Alpha virt. eigenvalues --    2.51235   2.56040   2.56634   2.60735   2.63556
 Alpha virt. eigenvalues --    2.64788   2.65666   2.67063   2.70126   2.72885
 Alpha virt. eigenvalues --    2.77391   2.81298   2.86710   2.95748   2.98339
 Alpha virt. eigenvalues --    3.02542   3.05812   3.08763   3.16045   3.32217
 Alpha virt. eigenvalues --    3.42589   3.76380   4.01909   4.05598   4.07466
 Alpha virt. eigenvalues --    4.08089   4.21204   4.28862   4.32638   4.35890
 Alpha virt. eigenvalues --    4.49925   4.72299   5.47186   5.52628
          Condensed to atoms (all electrons):
               1          2          3          4          5          6
     1  C    4.765140   0.548930  -0.028630  -0.040281   0.003470  -0.092078
     2  C    0.548930   5.152823   0.352271   0.432951  -0.040371  -0.021612
     3  H   -0.028630   0.352271   0.528020  -0.031394  -0.000544   0.004553
     4  C   -0.040281   0.432951  -0.031394   4.857114   0.369436   0.428763
     5  H    0.003470  -0.040371  -0.000544   0.369436   0.538998  -0.042753
     6  N   -0.092078  -0.021612   0.004553   0.428763  -0.042753   6.708823
     7  O    0.251021  -0.081828   0.003665  -0.068789   0.004958   0.157004
     8  C    0.311244  -0.077021  -0.005140   0.005163  -0.000081   0.004059
     9  C   -0.054795   0.006526  -0.000151  -0.000042   0.000001  -0.000037
    10  C    0.006849  -0.000091   0.000002   0.000004  -0.000000   0.000002
    11  C   -0.000327  -0.000040  -0.000007  -0.000000   0.000000  -0.000000
    12  C    0.008206   0.000514   0.000203   0.000001  -0.000000   0.000001
    13  C   -0.065973  -0.015136   0.001518   0.000394  -0.000004  -0.000016
    14  F   -0.009833   0.004907   0.010018   0.000489   0.000000  -0.000004
    15  F    0.000080   0.000219   0.000001  -0.000049   0.000000   0.000143
    16  H   -0.000113   0.000001  -0.000000   0.000000   0.000000  -0.000000
    17  H    0.000002   0.000000   0.000000   0.000000  -0.000000   0.000000
    18  H   -0.000099   0.000001   0.000002  -0.000000  -0.000000  -0.000000
               7          8          9         10         11         12
     1  C    0.251021   0.311244  -0.054795   0.006849  -0.000327   0.008206
     2  C   -0.081828  -0.077021   0.006526  -0.000091  -0.000040   0.000514
     3  H    0.003665  -0.005140  -0.000151   0.000002  -0.000007   0.000203
     4  C   -0.068789   0.005163  -0.000042   0.000004  -0.000000   0.000001
     5  H    0.004958  -0.000081   0.000001  -0.000000   0.000000  -0.000000
     6  N    0.157004   0.004059  -0.000037   0.000002  -0.000000   0.000001
     7  O    8.154036  -0.034924  -0.000113   0.000164   0.000002  -0.000061
     8  C   -0.034924   5.365855   0.328687  -0.067497  -0.026443  -0.057703
     9  C   -0.000113   0.328687   4.638009   0.481473  -0.003652  -0.045536
    10  C    0.000164  -0.067497   0.481473   5.104072   0.482157  -0.028238
    11  C    0.000002  -0.026443  -0.003652   0.482157   4.900596   0.482530
    12  C   -0.000061  -0.057703  -0.045536  -0.028238   0.482530   5.081812
    13  C    0.001952   0.394450   0.006050  -0.049927  -0.001882   0.485266
    14  F    0.000015  -0.046529   0.002476  -0.000025   0.002956  -0.045567
    15  F   -0.002455  -0.054466   0.325187  -0.049319   0.003021  -0.000058
    16  H    0.000002   0.006437  -0.031750   0.349652  -0.038821   0.004493
    17  H   -0.000000   0.000090   0.003701  -0.036519   0.363488  -0.036658
    18  H    0.000000   0.006548   0.000301   0.004485  -0.038486   0.349298
              13         14         15         16         17         18
     1  C   -0.065973  -0.009833   0.000080  -0.000113   0.000002  -0.000099
     2  C   -0.015136   0.004907   0.000219   0.000001   0.000000   0.000001
     3  H    0.001518   0.010018   0.000001  -0.000000   0.000000   0.000002
     4  C    0.000394   0.000489  -0.000049   0.000000   0.000000  -0.000000
     5  H   -0.000004   0.000000   0.000000   0.000000  -0.000000  -0.000000
     6  N   -0.000016  -0.000004   0.000143  -0.000000   0.000000  -0.000000
     7  O    0.001952   0.000015  -0.002455   0.000002  -0.000000   0.000000
     8  C    0.394450  -0.046529  -0.054466   0.006437   0.000090   0.006548
     9  C    0.006050   0.002476   0.325187  -0.031750   0.003701   0.000301
    10  C   -0.049927  -0.000025  -0.049319   0.349652  -0.036519   0.004485
    11  C   -0.001882   0.002956   0.003021  -0.038821   0.363488  -0.038486
    12  C    0.485266  -0.045567  -0.000058   0.004493  -0.036658   0.349298
    13  C    4.638072   0.299465   0.002509   0.000301   0.003770  -0.032554
    14  F    0.299465   9.068100  -0.000000   0.000001  -0.000025  -0.000181
    15  F    0.002509  -0.000000   9.041346   0.000024  -0.000025   0.000000
    16  H    0.000301   0.000001   0.000024   0.557154  -0.005421  -0.000128
    17  H    0.003770  -0.000025  -0.000025  -0.005421   0.558699  -0.005329
    18  H   -0.032554  -0.000181   0.000000  -0.000128  -0.005329   0.559346
 Mulliken charges:
               1
     1  C    0.397188
     2  C   -0.263046
     3  H    0.165613
     4  C    0.046240
     5  H    0.166890
     6  N   -0.146847
     7  O   -0.384650
     8  C   -0.052730
     9  C    0.343663
    10  C   -0.197246
    11  C   -0.125091
    12  C   -0.198502
    13  C    0.331744
    14  F   -0.286262
    15  F   -0.266158
    16  H    0.158170
    17  H    0.154227
    18  H    0.156796
 Sum of Mulliken charges =   0.00000
 Mulliken charges with hydrogens summed into heavy atoms:
               1
     1  C    0.397188
     2  C   -0.097433
     4  C    0.213130
     6  N   -0.146847
     7  O   -0.384650
     8  C   -0.052730
     9  C    0.343663
    10  C   -0.039075
    11  C    0.029136
    12  C   -0.041706
    13  C    0.331744
    14  F   -0.286262
    15  F   -0.266158
 APT charges:
               1
     1  C    0.340412
     2  C   -0.215747
     3  H    0.108907
     4  C    0.217373
     5  H    0.061923
     6  N   -0.239329
     7  O   -0.271131
     8  C   -0.079485
     9  C    0.541846
    10  C   -0.149977
    11  C    0.061896
    12  C   -0.160452
    13  C    0.510911
    14  F   -0.442569
    15  F   -0.441648
    16  H    0.058466
    17  H    0.040186
    18  H    0.058419
 Sum of APT charges =   0.00000
 APT charges with hydrogens summed into heavy atoms:
               1
     1  C    0.340412
     2  C   -0.106840
     4  C    0.279295
     6  N   -0.239329
     7  O   -0.271131
     8  C   -0.079485
     9  C    0.541846
    10  C   -0.091512
    11  C    0.102082
    12  C   -0.102032
    13  C    0.510911
    14  F   -0.442569
    15  F   -0.441648
 Electronic spatial extent (au):  <R**2>=           2218.3031
 Charge=              0.0000 electrons
 Dipole moment (field-independent basis, Debye):
    X=              3.1096    Y=              2.4054    Z=              0.2644  Tot=              3.9402
 Quadrupole moment (field-independent basis, Debye-Ang):
   XX=            -62.6647   YY=            -71.6609   ZZ=            -72.6769
   XY=             -8.4809   XZ=             -0.8964   YZ=              0.0764
 Traceless Quadrupole moment (field-independent basis, Debye-Ang):
   XX=              6.3362   YY=             -2.6600   ZZ=             -3.6761
   XY=             -8.4809   XZ=             -0.8964   YZ=              0.0764
 Octapole moment (field-independent basis, Debye-Ang**2):
  XXX=             30.1888  YYY=              1.6520  ZZZ=             -0.6522  XYY=              9.4648
  XXY=             25.9729  XXZ=              2.5614  XZZ=             -3.7022  YZZ=             -2.5204
  YYZ=              0.9318  XYZ=             -0.3057
 Hexadecapole moment (field-independent basis, Debye-Ang**3):
 XXXX=          -1815.9364 YYYY=           -722.0475 ZZZZ=            -68.8198 XXXY=            -93.0362
 XXXZ=            -10.5295 YYYX=            -10.1056 YYYZ=              0.4532 ZZZX=              1.6242
 ZZZY=             -1.6530 XXYY=           -428.6225 XXZZ=           -369.1545 YYZZ=           -134.0367
 XXYZ=             -1.6066 YYXZ=             -2.2096 ZZXY=              5.9992
 N-N= 7.578986453044D+02 E-N=-3.097720190677D+03  KE= 6.698426095410D+02
  Exact polarizability: 163.455  -5.613 103.417  -0.724   1.178  36.969
 Approx polarizability: 251.995  -5.700 197.630  -0.916   3.158  58.193
 Calling FoFJK, ICntrl=    100127 FMM=F ISym2X=0 I1Cent= 0 IOpClX= 0 NMat=1 NMatS=1 NMatT=0.
 ***** Axes restored to original set *****
 -------------------------------------------------------------------
 Center     Atomic                   Forces (Hartrees/Bohr)
 Number     Number              X              Y              Z
 -------------------------------------------------------------------
      1        6          -0.000033187   -0.000025834   -0.000014819
      2        6          -0.000004311   -0.000001450    0.000011728
      3        1           0.000004418    0.000005759   -0.000003586
      4        6           0.000001643    0.000013660   -0.000001978
      5        1          -0.000002329    0.000002185    0.000001197
      6        7          -0.000032679    0.000017646   -0.000001922
      7        8           0.000062128   -0.000005685    0.000007460
      8        6           0.000022873    0.000010561    0.000002405
      9        6          -0.000005821   -0.000003638    0.000003014
     10        6          -0.000000431   -0.000004829    0.000000016
     11        6          -0.000000877    0.000002446   -0.000000206
     12        6           0.000004092   -0.000005350    0.000000822
     13        6          -0.000015315    0.000005663   -0.000005577
     14        9          -0.000005706   -0.000008208    0.000002192
     15        9           0.000004072   -0.000000314   -0.000000465
     16        1           0.000000810   -0.000000097    0.000000568
     17        1          -0.000000166   -0.000001452   -0.000000218
     18        1           0.000000784   -0.000001063   -0.000000632
 -------------------------------------------------------------------
 Cartesian Forces:  Max     0.000062128 RMS     0.000012871
 FormGI is forming the generalized inverse of G from B-inverse, IUseBI=4.

 GradGradGradGradGradGradGradGradGradGradGradGradGradGradGradGradGradGrad
 Berny optimization.
 Internal  Forces:  Max     0.000044051 RMS     0.000008649
 Search for a local minimum.
 Step number   1 out of a maximum of   99
 All quantities printed in internal units (Hartrees-Bohrs-Radians)
 Mixed Optimization -- En-DIIS/RFO-DIIS
 Second derivative matrix not updated -- analytic derivatives used.
 ITU=  0
     Eigenvalues ---    0.00033   0.01150   0.01376   0.01576   0.01708
     Eigenvalues ---    0.01768   0.02070   0.02201   0.02274   0.02776
     Eigenvalues ---    0.02818   0.03279   0.03371   0.04842   0.05861
     Eigenvalues ---    0.09682   0.10701   0.10984   0.11309   0.12273
     Eigenvalues ---    0.14942   0.17885   0.18829   0.19355   0.19581
     Eigenvalues ---    0.20559   0.24865   0.27536   0.28063   0.29603
     Eigenvalues ---    0.32751   0.35815   0.36274   0.36568   0.36924
     Eigenvalues ---    0.37287   0.38076   0.38988   0.42424   0.43962
     Eigenvalues ---    0.44657   0.47449   0.47755   0.49519   0.51651
     Eigenvalues ---    0.52808   0.55594   0.57136
 RFO step:  Lambda=-2.44515658D-08 EMin= 3.25709464D-04
 Linear search not attempted -- first point.
 Iteration  1 RMS(Cart)=  0.00039609 RMS(Int)=  0.00000009
 Iteration  2 RMS(Cart)=  0.00000011 RMS(Int)=  0.00000000
 Variable       Old X    -DE/DX   Delta X   Delta X   Delta X     New X
                                 (Linear)    (Quad)   (Total)
    R1        2.59534   0.00001   0.00000   0.00002   0.00002   2.59536
    R2        2.56359  -0.00002   0.00000  -0.00010  -0.00010   2.56349
    R3        2.76164   0.00000   0.00000   0.00005   0.00005   2.76168
    R4        2.03347   0.00001   0.00000   0.00000   0.00000   2.03347
    R5        2.67643  -0.00001   0.00000  -0.00003  -0.00003   2.67641
    R6        2.04637   0.00000   0.00000   0.00001   0.00001   2.04638
    R7        2.48161   0.00000   0.00000   0.00000   0.00000   2.48161
    R8        2.63362   0.00004   0.00000   0.00020   0.00020   2.63382
    R9        2.66269   0.00000   0.00000   0.00001   0.00001   2.66270
   R10        2.65959  -0.00002   0.00000  -0.00002  -0.00002   2.65956
   R11        2.62531   0.00000   0.00000   0.00000   0.00000   2.62532
   R12        2.53331  -0.00000   0.00000  -0.00001  -0.00001   2.53330
   R13        2.63272   0.00000   0.00000   0.00001   0.00001   2.63272
   R14        2.04891   0.00000   0.00000  -0.00000  -0.00000   2.04891
   R15        2.63559   0.00000   0.00000  -0.00001  -0.00001   2.63558
   R16        2.05110  -0.00000   0.00000   0.00000   0.00000   2.05110
   R17        2.61869   0.00000   0.00000   0.00001   0.00001   2.61871
   R18        2.04876  -0.00000   0.00000   0.00000   0.00000   2.04876
   R19        2.55087  -0.00000   0.00000  -0.00002  -0.00002   2.55085
    A1        1.90077   0.00002   0.00000   0.00007   0.00007   1.90084
    A2        2.32110  -0.00003   0.00000  -0.00011  -0.00011   2.32099
    A3        2.06131   0.00001   0.00000   0.00004   0.00004   2.06135
    A4        2.23664  -0.00001   0.00000  -0.00001  -0.00001   2.23663
    A5        1.80968   0.00000   0.00000  -0.00001  -0.00001   1.80967
    A6        2.23686   0.00000   0.00000   0.00002   0.00002   2.23688
    A7        2.24274   0.00000   0.00000   0.00001   0.00001   2.24275
    A8        1.96481  -0.00001   0.00000   0.00002   0.00002   1.96482
    A9        2.07564   0.00000   0.00000  -0.00003  -0.00003   2.07561
   A10        1.83505   0.00001   0.00000  -0.00002  -0.00002   1.83503
   A11        1.91448  -0.00002   0.00000  -0.00006  -0.00006   1.91442
   A12        2.16182   0.00002   0.00000   0.00001   0.00001   2.16184
   A13        2.11671  -0.00003   0.00000  -0.00004  -0.00004   2.11667
   A14        2.00465   0.00001   0.00000   0.00003   0.00003   2.00468
   A15        2.14775  -0.00001   0.00000  -0.00001  -0.00001   2.14774
   A16        2.08381   0.00001   0.00000   0.00002   0.00002   2.08384
   A17        2.05161  -0.00000   0.00000  -0.00001  -0.00001   2.05160
   A18        2.08316  -0.00000   0.00000  -0.00001  -0.00001   2.08316
   A19        2.06900   0.00000   0.00000   0.00002   0.00002   2.06902
   A20        2.13102  -0.00000   0.00000  -0.00001  -0.00001   2.13101
   A21        2.09664   0.00000   0.00000   0.00001   0.00001   2.09665
   A22        2.09357  -0.00000   0.00000  -0.00001  -0.00001   2.09356
   A23        2.09297  -0.00000   0.00000  -0.00000  -0.00000   2.09297
   A24        2.07276  -0.00000   0.00000   0.00000   0.00000   2.07277
   A25        2.13393  -0.00000   0.00000  -0.00001  -0.00001   2.13393
   A26        2.07648   0.00000   0.00000   0.00000   0.00000   2.07649
   A27        2.16139  -0.00000   0.00000  -0.00002  -0.00002   2.16138
   A28        2.06889  -0.00001   0.00000   0.00000   0.00000   2.06889
   A29        2.05290   0.00001   0.00000   0.00002   0.00002   2.05292
    D1        3.13932   0.00000   0.00000   0.00010   0.00010   3.13941
    D2        0.00201  -0.00000   0.00000  -0.00009  -0.00009   0.00191
    D3       -0.00508   0.00000   0.00000   0.00021   0.00021  -0.00487
    D4        3.14080  -0.00000   0.00000   0.00002   0.00002   3.14082
    D5       -0.00123   0.00000   0.00000   0.00010   0.00010  -0.00113
    D6       -3.14050   0.00000   0.00000   0.00000   0.00000  -3.14050
    D7        3.02055  -0.00000   0.00000   0.00069   0.00069   3.02125
    D8       -0.11890  -0.00000   0.00000   0.00066   0.00066  -0.11823
    D9       -0.12405   0.00000   0.00000   0.00082   0.00082  -0.12323
   D10        3.01969   0.00000   0.00000   0.00079   0.00079   3.02048
   D11        3.14005   0.00000   0.00000   0.00003   0.00003   3.14007
   D12       -0.00223   0.00000   0.00000   0.00006   0.00006  -0.00217
   D13        0.00274  -0.00000   0.00000  -0.00016  -0.00016   0.00258
   D14       -3.13954  -0.00000   0.00000  -0.00013  -0.00013  -3.13967
   D15        0.00151   0.00000   0.00000  -0.00001  -0.00001   0.00150
   D16       -3.14070   0.00000   0.00000   0.00002   0.00002  -3.14067
   D17       -0.00018  -0.00000   0.00000  -0.00005  -0.00005  -0.00023
   D18        3.14036   0.00000   0.00000   0.00001   0.00001   3.14036
   D19       -0.00558   0.00000   0.00000   0.00005   0.00005  -0.00553
   D20       -0.00326  -0.00000   0.00000   0.00003   0.00003  -0.00322
   D21        3.13399   0.00000   0.00000   0.00008   0.00008   3.13407
   D22       -3.14060  -0.00000   0.00000  -0.00001  -0.00001  -3.14062
   D23       -0.00089   0.00000   0.00000   0.00005   0.00005  -0.00084
   D24        0.00295  -0.00000   0.00000  -0.00004  -0.00004   0.00291
   D25       -3.14052   0.00000   0.00000   0.00003   0.00003  -3.14050
   D26        0.00153   0.00000   0.00000  -0.00001  -0.00001   0.00152
   D27        3.14114   0.00000   0.00000   0.00000   0.00000   3.14114
   D28       -3.13579  -0.00000   0.00000  -0.00006  -0.00006  -3.13584
   D29        0.00382  -0.00000   0.00000  -0.00004  -0.00004   0.00378
   D30        0.00075  -0.00000   0.00000  -0.00000  -0.00000   0.00075
   D31        3.14141  -0.00000   0.00000  -0.00000  -0.00000   3.14141
   D32       -3.13878   0.00000   0.00000  -0.00002  -0.00002  -3.13880
   D33        0.00188  -0.00000   0.00000  -0.00002  -0.00002   0.00186
   D34       -0.00106  -0.00000   0.00000  -0.00000  -0.00000  -0.00106
   D35       -3.14133  -0.00000   0.00000  -0.00001  -0.00001  -3.14134
   D36        3.14147  -0.00000   0.00000  -0.00000  -0.00000   3.14146
   D37        0.00120  -0.00000   0.00000  -0.00001  -0.00001   0.00119
   D38       -0.00091   0.00000   0.00000   0.00003   0.00003  -0.00088
   D39       -3.14063  -0.00000   0.00000  -0.00004  -0.00004  -3.14067
   D40        3.13941   0.00000   0.00000   0.00003   0.00003   3.13944
   D41       -0.00032  -0.00000   0.00000  -0.00003  -0.00003  -0.00035
         Item               Value     Threshold  Converged?
 Maximum Force            0.000044     0.000450     YES
 RMS     Force            0.000009     0.000300     YES
 Maximum Displacement     0.002168     0.001800     NO 
 RMS     Displacement     0.000396     0.001200     YES
 Predicted change in Energy=-1.222578D-08
 GradGradGradGradGradGradGradGradGradGradGradGradGradGradGradGradGradGrad

                          Input orientation:                          
 ---------------------------------------------------------------------
 Center     Atomic      Atomic             Coordinates (Angstroms)
 Number     Number       Type             X           Y           Z
 ---------------------------------------------------------------------
      1          6           0       -1.133175    0.111905    0.010611
      2          6           0       -2.009349    1.164408    0.114519
      3          1           0       -1.781768    2.210398    0.224213
      4          6           0       -3.282804    0.548056    0.048875
      5          1           0       -4.259834    1.012816    0.094467
      6          7           0       -3.205435   -0.755999   -0.085215
      7          8           0       -1.840950   -1.039064   -0.109955
      8          6           0        0.325754    0.026803    0.005101
      9          6           0        1.041542   -1.186710    0.025861
     10          6           0        2.429425   -1.248080    0.018795
     11          6           0        3.165246   -0.065379   -0.008198
     12          6           0        2.510736    1.166053   -0.026966
     13          6           0        1.125124    1.184872   -0.019497
     14          9           0        0.515432    2.389028   -0.039125
     15          9           0        0.369812   -2.346368    0.058866
     16          1           0        2.905071   -2.222255    0.036484
     17          1           0        4.250007   -0.102041   -0.013768
     18          1           0        3.048638    2.107114   -0.048367
 ---------------------------------------------------------------------
                    Distance matrix (angstroms):
                    1          2          3          4          5
     1  C    0.000000
     2  C    1.373405   0.000000
     3  H    2.206802   1.076067   0.000000
     4  C    2.193763   1.416294   2.246605   0.000000
     5  H    3.254946   2.255674   2.755331   1.082898   0.000000
     6  N    2.248711   2.271229   3.304858   1.313212   2.067063
     7  O    1.356543   2.221269   3.267135   2.150144   3.178522
     8  C    1.461420   2.599774   3.042655   3.646274   4.691250
     9  C    2.532987   3.852733   4.421625   4.659389   5.739966
    10  C    3.813364   5.052917   5.453202   5.988035   7.061414
    11  C    4.302116   5.320138   5.450333   6.477415   7.503656
    12  C    3.793511   4.522299   4.424855   5.826901   6.773392
    13  C    2.500416   3.137403   3.092106   4.454216   5.388911
    14  F    2.811702   2.810305   2.319134   4.221791   4.971415
    15  F    2.881736   4.241350   5.041900   4.660407   5.720053
    16  H    4.664376   5.968844   6.453690   6.779718   7.861610
    17  H    5.387486   6.387479   6.464234   7.561071   8.583240
    18  H    4.633778   5.147665   4.839194   6.521294   7.391323
                    6          7          8          9         10
     6  N    0.000000
     7  O    1.393757   0.000000
     8  C    3.618043   2.417419   0.000000
     9  C    4.270206   2.889464   1.409041   0.000000
    10  C    5.657261   4.277425   2.459867   1.389257   0.000000
    11  C    6.408468   5.101020   2.841019   2.401804   1.393177
    12  C    6.030944   4.879200   2.464358   2.774313   2.415934
    13  C    4.746055   3.708324   1.407381   2.373488   2.760783
    14  F    4.872183   4.160452   2.370240   3.614819   4.110386
    15  F    3.915663   2.573910   2.374189   1.340566   2.334492
    16  H    6.285141   4.893475   3.422298   2.131949   1.084237
    17  H    7.484409   6.163360   3.926412   3.387082   2.151507
    18  H    6.878387   5.814662   3.427046   3.857878   3.412515
                   11         12         13         14         15
    11  C    0.000000
    12  C    1.394690   0.000000
    13  C    2.392771   1.385760   0.000000
    14  F    3.612006   2.340310   1.349852   0.000000
    15  F    3.608581   4.114368   3.611966   4.738647   0.000000
    16  H    2.172970   3.411767   3.844459   5.194229   2.538394
    17  H    1.085394   2.152510   3.379508   4.489222   4.483101
    18  H    2.175991   1.084156   2.133371   2.548861   5.198184
                   16         17         18
    16  H    0.000000
    17  H    2.511311   0.000000
    18  H    4.332580   2.514926   0.000000
 Stoichiometry    C9H5F2NO
 Framework group  C1[X(C9H5F2NO)]
 Deg. of freedom    48
 Full point group                 C1      NOp   1
 Largest Abelian subgroup         C1      NOp   1
 Largest concise Abelian subgroup C1      NOp   1
                         Standard orientation:                         
 ---------------------------------------------------------------------
 Center     Atomic      Atomic             Coordinates (Angstroms)
 Number     Number       Type             X           Y           Z
 ---------------------------------------------------------------------
      1          6           0       -1.133164    0.111904    0.010512
      2          6           0       -2.009368    1.164381    0.114419
      3          1           0       -1.781819    2.210378    0.224113
      4          6           0       -3.282806    0.547991    0.048775
      5          1           0       -4.259849    1.012723    0.094367
      6          7           0       -3.205398   -0.756061   -0.085315
      7          8           0       -1.840904   -1.039085   -0.110055
      8          6           0        0.325768    0.026845    0.005001
      9          6           0        1.041591   -1.186647    0.025761
     10          6           0        2.429476   -1.247976    0.018696
     11          6           0        3.165262   -0.065254   -0.008298
     12          6           0        2.510716    1.166159   -0.027065
     13          6           0        1.125104    1.184938   -0.019596
     14          9           0        0.515376    2.389075   -0.039225
     15          9           0        0.369895   -2.346325    0.058767
     16          1           0        2.905151   -2.222137    0.036385
     17          1           0        4.250024   -0.101884   -0.013868
     18          1           0        3.048591    2.107236   -0.048466
 ---------------------------------------------------------------------
 Rotational constants (GHZ):           1.4734827           0.6707460           0.4614867
 Standard basis: 6-31G(d) (6D, 7F)
 There are   205 symmetry adapted cartesian basis functions of A   symmetry.
 There are   205 symmetry adapted basis functions of A   symmetry.
   205 basis functions,   384 primitive gaussians,   205 cartesian basis functions
    46 alpha electrons       46 beta electrons
       nuclear repulsion energy       757.8985275352 Hartrees.
 NAtoms=   18 NActive=   18 NUniq=   18 SFac= 1.00D+00 NAtFMM=   60 NAOKFM=F Big=F
 Integral buffers will be    131072 words long.
 Raffenetti 2 integral format.
 Two-electron integral symmetry is turned on.
 One-electron integrals computed using PRISM.
 NBasis=   205 RedAO= T EigKep=  3.84D-04  NBF=   205
 NBsUse=   205 1.00D-06 EigRej= -1.00D+00 NBFU=   205
 Initial guess from the checkpoint file:  "4_1.chk"
 B after Tr=    -0.000000   -0.000000   -0.000000
         Rot=    1.000000   -0.000028   -0.000025   -0.000018 Ang=  -0.00 deg.
 Keep R1 ints in memory in canonical form, NReq=228100016.
 LinEq1:  Iter=  0 NonCon=     1 RMS=7.99D-06 Max=2.06D-04 NDo=     1
 AX will form     1 AO Fock derivatives at one time.
 LinEq1:  Iter=  1 NonCon=     1 RMS=6.36D-07 Max=1.13D-05 NDo=     1
 LinEq1:  Iter=  2 NonCon=     1 RMS=4.54D-07 Max=8.67D-06 NDo=     1
 LinEq1:  Iter=  3 NonCon=     1 RMS=2.83D-07 Max=8.53D-06 NDo=     1
 LinEq1:  Iter=  4 NonCon=     1 RMS=1.83D-07 Max=4.42D-06 NDo=     1
 LinEq1:  Iter=  5 NonCon=     1 RMS=8.16D-08 Max=2.16D-06 NDo=     1
 LinEq1:  Iter=  6 NonCon=     1 RMS=6.63D-08 Max=2.04D-06 NDo=     1
 LinEq1:  Iter=  7 NonCon=     1 RMS=3.44D-08 Max=7.23D-07 NDo=     1
 LinEq1:  Iter=  8 NonCon=     1 RMS=1.84D-08 Max=6.08D-07 NDo=     1
 LinEq1:  Iter=  9 NonCon=     1 RMS=9.65D-09 Max=2.41D-07 NDo=     1
 LinEq1:  Iter= 10 NonCon=     1 RMS=4.29D-09 Max=9.01D-08 NDo=     1
 LinEq1:  Iter= 11 NonCon=     1 RMS=3.41D-09 Max=8.93D-08 NDo=     1
 LinEq1:  Iter= 12 NonCon=     0 RMS=2.33D-09 Max=4.96D-08 NDo=     1
 Linear equations converged to 7.924D-09 7.924D-08 after    12 iterations.
     Minimum is close to point  2 DX=  2.83D-06 DF=  0.00D+00 DXR=  2.83D-06 DFR=  0.00D+00 which will be used.
 SCF Done:  E(RB3LYP) =  -675.559531665     a.u. after    2 cycles
            Convg  =    0.8783D-07                    15 Fock formations.
              S**2 =  0.0000                  -V/T =  2.0085
 DoSCS=F DFT=T ScalE2(SS,OS)=  1.000000  1.000000
 Range of M.O.s used for correlation:     1   205
 NBasis=   205 NAE=    46 NBE=    46 NFC=     0 NFV=     0
 NROrb=    205 NOA=    46 NOB=    46 NVA=   159 NVB=   159

 **** Warning!!: The largest alpha MO coefficient is  0.13856027D+02

 Symmetrizing basis deriv contribution to polar:
 IMax=3 JMax=2 DiffMx= 0.00D+00
 G2DrvN: will do    19 centers at a time, making    1 passes.
 Calling FoFCou, ICntrl=  3107 FMM=F I1Cent=   0 AccDes= 0.00D+00.
 End of G2Drv F.D. properties file   721 does not exist.
 End of G2Drv F.D. properties file   722 does not exist.
 End of G2Drv F.D. properties file   788 does not exist.
          IDoAtm=111111111111111111
          Differentiating once with respect to electric field.
                with respect to dipole field.
          Differentiating once with respect to nuclear coordinates.
 Keep R1 ints in memory in canonical form, NReq=228101820.
          There are    57 degrees of freedom in the 1st order CPHF.  IDoFFX=6 NUNeed=     3.
     54 vectors produced by pass  0 Test12= 1.28D-14 1.75D-09 XBig12= 2.34D+02 1.23D+01.
 AX will form    54 AO Fock derivatives at one time.
     54 vectors produced by pass  1 Test12= 1.28D-14 1.75D-09 XBig12= 3.31D+01 1.62D+00.
     54 vectors produced by pass  2 Test12= 1.28D-14 1.75D-09 XBig12= 2.92D-01 6.21D-02.
     54 vectors produced by pass  3 Test12= 1.28D-14 1.75D-09 XBig12= 2.55D-03 8.42D-03.
     54 vectors produced by pass  4 Test12= 1.28D-14 1.75D-09 XBig12= 6.72D-06 2.82D-04.
     51 vectors produced by pass  5 Test12= 1.28D-14 1.75D-09 XBig12= 6.59D-09 1.10D-05.
     10 vectors produced by pass  6 Test12= 1.28D-14 1.75D-09 XBig12= 5.80D-12 3.42D-07.
      3 vectors produced by pass  7 Test12= 1.28D-14 1.75D-09 XBig12= 4.12D-15 8.48D-09.
 InvSVY:  IOpt=1 It=  1 EMax= 1.60D-14
 Solved reduced A of dimension   334 with    57 vectors.
 Isotropic polarizability for W=    0.000000      101.28 Bohr**3.
 End of Minotr F.D. properties file   721 does not exist.
 End of Minotr F.D. properties file   722 does not exist.
 End of Minotr F.D. properties file   788 does not exist.
 Calling FoFJK, ICntrl=    100127 FMM=F ISym2X=0 I1Cent= 0 IOpClX= 0 NMat=1 NMatS=1 NMatT=0.
 ***** Axes restored to original set *****
 -------------------------------------------------------------------
 Center     Atomic                   Forces (Hartrees/Bohr)
 Number     Number              X              Y              Z
 -------------------------------------------------------------------
      1        6          -0.000000017    0.000000340    0.000000108
      2        6           0.000000224    0.000000550   -0.000000124
      3        1           0.000000487    0.000000512   -0.000000407
      4        6           0.000000094    0.000000890    0.000000112
      5        1           0.000000214    0.000001081    0.000000047
      6        7          -0.000000207    0.000000765    0.000000431
      7        8          -0.000000281    0.000000441    0.000000425
      8        6          -0.000000031   -0.000000058    0.000000020
      9        6          -0.000000394   -0.000000155    0.000000295
     10        6          -0.000000262   -0.000000508    0.000000230
     11        6          -0.000000077   -0.000000715   -0.000000109
     12        6           0.000000263   -0.000000561   -0.000000386
     13        6           0.000000239   -0.000000216   -0.000000313
     14        9           0.000000523   -0.000000083   -0.000000577
     15        9          -0.000000600   -0.000000013    0.000000628
     16        1          -0.000000566   -0.000000624    0.000000448
     17        1          -0.000000066   -0.000000960   -0.000000169
     18        1           0.000000456   -0.000000688   -0.000000658
 -------------------------------------------------------------------
 Cartesian Forces:  Max     0.000001081 RMS     0.000000446
 FormGI is forming the generalized inverse of G from B-inverse, IUseBI=4.

 GradGradGradGradGradGradGradGradGradGradGradGradGradGradGradGradGradGrad
 Berny optimization.
 Using GEDIIS/GDIIS optimizer.
 Internal  Forces:  Max     0.000000052 RMS     0.000000015
 Search for a local minimum.
 Step number   2 out of a maximum of   99
 All quantities printed in internal units (Hartrees-Bohrs-Radians)
 Mixed Optimization -- En-DIIS/RFO-DIIS
 Swapping is turned off.
 Second derivative matrix not updated -- analytic derivatives used.
 DE= -1.04D-08 DEPred=-1.22D-08 R= 8.51D-01
 Trust test= 8.51D-01 RLast= 1.56D-03 DXMaxT set to 3.00D-01
 ITU=  0  0
     Eigenvalues ---    0.00032   0.01150   0.01376   0.01576   0.01708
     Eigenvalues ---    0.01768   0.02070   0.02201   0.02274   0.02776
     Eigenvalues ---    0.02818   0.03279   0.03371   0.04842   0.05861
     Eigenvalues ---    0.09682   0.10701   0.10984   0.11309   0.12273
     Eigenvalues ---    0.14942   0.17880   0.18829   0.19354   0.19581
     Eigenvalues ---    0.20559   0.24864   0.27535   0.28065   0.29602
     Eigenvalues ---    0.32750   0.35817   0.36274   0.36568   0.36924
     Eigenvalues ---    0.37287   0.38077   0.38988   0.42426   0.43963
     Eigenvalues ---    0.44659   0.47449   0.47755   0.49522   0.51649
     Eigenvalues ---    0.52808   0.55614   0.57140
 En-DIIS/RFO-DIIS/Sim-DIIS IScMMF=       -3 using points:     2    1
 RFO step:  Lambda=-4.05071056D-14.
 DidBck=F Rises=F RFO-DIIS coefs:    1.01518   -0.01518
 Iteration  1 RMS(Cart)=  0.00000618 RMS(Int)=  0.00000000
 Iteration  2 RMS(Cart)=  0.00000000 RMS(Int)=  0.00000000
 Variable       Old X    -DE/DX   Delta X   Delta X   Delta X     New X
                                 (Linear)    (Quad)   (Total)
    R1        2.59536   0.00000   0.00000  -0.00000   0.00000   2.59536
    R2        2.56349   0.00000  -0.00000   0.00000   0.00000   2.56349
    R3        2.76168  -0.00000   0.00000  -0.00000   0.00000   2.76168
    R4        2.03347  -0.00000   0.00000  -0.00000  -0.00000   2.03347
    R5        2.67641  -0.00000  -0.00000   0.00000  -0.00000   2.67641
    R6        2.04638  -0.00000   0.00000  -0.00000  -0.00000   2.04638
    R7        2.48161   0.00000   0.00000   0.00000   0.00000   2.48161
    R8        2.63382  -0.00000   0.00000  -0.00000  -0.00000   2.63382
    R9        2.66270  -0.00000   0.00000  -0.00000  -0.00000   2.66270
   R10        2.65956   0.00000  -0.00000   0.00000   0.00000   2.65956
   R11        2.62532   0.00000   0.00000   0.00000   0.00000   2.62532
   R12        2.53330  -0.00000  -0.00000   0.00000  -0.00000   2.53330
   R13        2.63272  -0.00000   0.00000  -0.00000  -0.00000   2.63272
   R14        2.04891  -0.00000  -0.00000  -0.00000  -0.00000   2.04891
   R15        2.63558  -0.00000  -0.00000   0.00000  -0.00000   2.63558
   R16        2.05110  -0.00000   0.00000  -0.00000  -0.00000   2.05110
   R17        2.61871   0.00000   0.00000  -0.00000  -0.00000   2.61871
   R18        2.04876  -0.00000   0.00000  -0.00000  -0.00000   2.04876
   R19        2.55085  -0.00000  -0.00000   0.00000   0.00000   2.55085
    A1        1.90084   0.00000   0.00000  -0.00000  -0.00000   1.90084
    A2        2.32099   0.00000  -0.00000   0.00000   0.00000   2.32099
    A3        2.06135  -0.00000   0.00000  -0.00000  -0.00000   2.06135
    A4        2.23663   0.00000  -0.00000   0.00000   0.00000   2.23663
    A5        1.80967   0.00000  -0.00000   0.00000   0.00000   1.80967
    A6        2.23688  -0.00000   0.00000  -0.00000  -0.00000   2.23688
    A7        2.24275   0.00000   0.00000  -0.00000  -0.00000   2.24275
    A8        1.96482  -0.00000   0.00000  -0.00000  -0.00000   1.96482
    A9        2.07561   0.00000  -0.00000   0.00000   0.00000   2.07561
   A10        1.83503   0.00000  -0.00000   0.00000   0.00000   1.83503
   A11        1.91442  -0.00000  -0.00000   0.00000   0.00000   1.91442
   A12        2.16184  -0.00000   0.00000  -0.00000   0.00000   2.16184
   A13        2.11667   0.00000  -0.00000   0.00000   0.00000   2.11667
   A14        2.00468  -0.00000   0.00000  -0.00000  -0.00000   2.00468
   A15        2.14774   0.00000  -0.00000   0.00000   0.00000   2.14774
   A16        2.08384  -0.00000   0.00000  -0.00000   0.00000   2.08384
   A17        2.05160   0.00000  -0.00000  -0.00000  -0.00000   2.05160
   A18        2.08316  -0.00000  -0.00000   0.00000   0.00000   2.08316
   A19        2.06902   0.00000   0.00000  -0.00000  -0.00000   2.06902
   A20        2.13101   0.00000  -0.00000   0.00000   0.00000   2.13101
   A21        2.09665   0.00000   0.00000  -0.00000  -0.00000   2.09665
   A22        2.09356  -0.00000  -0.00000   0.00000   0.00000   2.09356
   A23        2.09297  -0.00000  -0.00000   0.00000   0.00000   2.09297
   A24        2.07277   0.00000   0.00000  -0.00000   0.00000   2.07277
   A25        2.13393  -0.00000  -0.00000   0.00000   0.00000   2.13393
   A26        2.07649  -0.00000   0.00000  -0.00000  -0.00000   2.07649
   A27        2.16138  -0.00000  -0.00000   0.00000   0.00000   2.16138
   A28        2.06889  -0.00000   0.00000  -0.00000   0.00000   2.06889
   A29        2.05292   0.00000   0.00000  -0.00000  -0.00000   2.05292
    D1        3.13941   0.00000   0.00000  -0.00000   0.00000   3.13941
    D2        0.00191   0.00000  -0.00000   0.00000  -0.00000   0.00191
    D3       -0.00487  -0.00000   0.00000  -0.00000   0.00000  -0.00487
    D4        3.14082  -0.00000   0.00000  -0.00000  -0.00000   3.14082
    D5       -0.00113  -0.00000   0.00000  -0.00000   0.00000  -0.00113
    D6       -3.14050   0.00000   0.00000   0.00000   0.00000  -3.14050
    D7        3.02125   0.00000   0.00001   0.00000   0.00001   3.02126
    D8       -0.11823   0.00000   0.00001   0.00000   0.00001  -0.11822
    D9       -0.12323   0.00000   0.00001   0.00000   0.00001  -0.12322
   D10        3.02048   0.00000   0.00001   0.00000   0.00001   3.02049
   D11        3.14007   0.00000   0.00000  -0.00000   0.00000   3.14007
   D12       -0.00217   0.00000   0.00000  -0.00000   0.00000  -0.00217
   D13        0.00258  -0.00000  -0.00000   0.00000  -0.00000   0.00258
   D14       -3.13967  -0.00000  -0.00000   0.00000  -0.00000  -3.13967
   D15        0.00150  -0.00000  -0.00000  -0.00000  -0.00000   0.00150
   D16       -3.14067  -0.00000   0.00000  -0.00000  -0.00000  -3.14067
   D17       -0.00023   0.00000  -0.00000   0.00000   0.00000  -0.00023
   D18        3.14036  -0.00000   0.00000  -0.00000   0.00000   3.14036
   D19       -0.00553   0.00000   0.00000  -0.00000   0.00000  -0.00553
   D20       -0.00322  -0.00000   0.00000  -0.00000   0.00000  -0.00322
   D21        3.13407   0.00000   0.00000  -0.00000   0.00000   3.13407
   D22       -3.14062   0.00000  -0.00000   0.00000  -0.00000  -3.14062
   D23       -0.00084   0.00000   0.00000  -0.00000   0.00000  -0.00084
   D24        0.00291   0.00000  -0.00000   0.00000  -0.00000   0.00291
   D25       -3.14050   0.00000   0.00000  -0.00000  -0.00000  -3.14050
   D26        0.00152   0.00000  -0.00000   0.00000  -0.00000   0.00152
   D27        3.14114   0.00000   0.00000   0.00000   0.00000   3.14114
   D28       -3.13584  -0.00000  -0.00000   0.00000  -0.00000  -3.13585
   D29        0.00378   0.00000  -0.00000   0.00000  -0.00000   0.00378
   D30        0.00075  -0.00000  -0.00000  -0.00000  -0.00000   0.00075
   D31        3.14141   0.00000  -0.00000   0.00000   0.00000   3.14141
   D32       -3.13880  -0.00000  -0.00000  -0.00000  -0.00000  -3.13880
   D33        0.00186   0.00000  -0.00000   0.00000  -0.00000   0.00186
   D34       -0.00106  -0.00000  -0.00000   0.00000   0.00000  -0.00106
   D35       -3.14134   0.00000  -0.00000   0.00000  -0.00000  -3.14134
   D36        3.14146  -0.00000  -0.00000   0.00000  -0.00000   3.14146
   D37        0.00119  -0.00000  -0.00000   0.00000  -0.00000   0.00119
   D38       -0.00088   0.00000   0.00000  -0.00000   0.00000  -0.00088
   D39       -3.14067  -0.00000  -0.00000   0.00000  -0.00000  -3.14067
   D40        3.13944  -0.00000   0.00000  -0.00000   0.00000   3.13944
   D41       -0.00035  -0.00000  -0.00000   0.00000  -0.00000  -0.00035
         Item               Value     Threshold  Converged?
 Maximum Force            0.000000     0.000450     YES
 RMS     Force            0.000000     0.000300     YES
 Maximum Displacement     0.000034     0.001800     YES
 RMS     Displacement     0.000006     0.001200     YES
 Predicted change in Energy=-1.236010D-13
 Optimization completed.
    -- Stationary point found.
                           ----------------------------
                           !   Optimized Parameters   !
                           ! (Angstroms and Degrees)  !
 --------------------------                            --------------------------
 ! Name  Definition              Value          Derivative Info.                !
 --------------------------------------------------------------------------------
 ! R1    R(1,2)                  1.3734         -DE/DX =    0.0                 !
 ! R2    R(1,7)                  1.3565         -DE/DX =    0.0                 !
 ! R3    R(1,8)                  1.4614         -DE/DX =    0.0                 !
 ! R4    R(2,3)                  1.0761         -DE/DX =    0.0                 !
 ! R5    R(2,4)                  1.4163         -DE/DX =    0.0                 !
 ! R6    R(4,5)                  1.0829         -DE/DX =    0.0                 !
 ! R7    R(4,6)                  1.3132         -DE/DX =    0.0                 !
 ! R8    R(6,7)                  1.3938         -DE/DX =    0.0                 !
 ! R9    R(8,9)                  1.409          -DE/DX =    0.0                 !
 ! R10   R(8,13)                 1.4074         -DE/DX =    0.0                 !
 ! R11   R(9,10)                 1.3893         -DE/DX =    0.0                 !
 ! R12   R(9,15)                 1.3406         -DE/DX =    0.0                 !
 ! R13   R(10,11)                1.3932         -DE/DX =    0.0                 !
 ! R14   R(10,16)                1.0842         -DE/DX =    0.0                 !
 ! R15   R(11,12)                1.3947         -DE/DX =    0.0                 !
 ! R16   R(11,17)                1.0854         -DE/DX =    0.0                 !
 ! R17   R(12,13)                1.3858         -DE/DX =    0.0                 !
 ! R18   R(12,18)                1.0842         -DE/DX =    0.0                 !
 ! R19   R(13,14)                1.3499         -DE/DX =    0.0                 !
 ! A1    A(2,1,7)              108.91           -DE/DX =    0.0                 !
 ! A2    A(2,1,8)              132.983          -DE/DX =    0.0                 !
 ! A3    A(7,1,8)              118.1068         -DE/DX =    0.0                 !
 ! A4    A(1,2,3)              128.1495         -DE/DX =    0.0                 !
 ! A5    A(1,2,4)              103.6863         -DE/DX =    0.0                 !
 ! A6    A(3,2,4)              128.1637         -DE/DX =    0.0                 !
 ! A7    A(2,4,5)              128.5002         -DE/DX =    0.0                 !
 ! A8    A(2,4,6)              112.5761         -DE/DX =    0.0                 !
 ! A9    A(5,4,6)              118.9237         -DE/DX =    0.0                 !
 ! A10   A(4,6,7)              105.1395         -DE/DX =    0.0                 !
 ! A11   A(1,7,6)              109.6879         -DE/DX =    0.0                 !
 ! A12   A(1,8,9)              123.8642         -DE/DX =    0.0                 !
 ! A13   A(1,8,13)             121.2763         -DE/DX =    0.0                 !
 ! A14   A(9,8,13)             114.8594         -DE/DX =    0.0                 !
 ! A15   A(8,9,10)             123.0563         -DE/DX =    0.0                 !
 ! A16   A(8,9,15)             119.395          -DE/DX =    0.0                 !
 ! A17   A(10,9,15)            117.5483         -DE/DX =    0.0                 !
 ! A18   A(9,10,11)            119.3561         -DE/DX =    0.0                 !
 ! A19   A(9,10,16)            118.5461         -DE/DX =    0.0                 !
 ! A20   A(11,10,16)           122.0977         -DE/DX =    0.0                 !
 ! A21   A(10,11,12)           120.1293         -DE/DX =    0.0                 !
 ! A22   A(10,11,17)           119.9522         -DE/DX =    0.0                 !
 ! A23   A(12,11,17)           119.9185         -DE/DX =    0.0                 !
 ! A24   A(11,12,13)           118.7609         -DE/DX =    0.0                 !
 ! A25   A(11,12,18)           122.265          -DE/DX =    0.0                 !
 ! A26   A(13,12,18)           118.9741         -DE/DX =    0.0                 !
 ! A27   A(8,13,12)            123.8377         -DE/DX =    0.0                 !
 ! A28   A(8,13,14)            118.5386         -DE/DX =    0.0                 !
 ! A29   A(12,13,14)           117.6236         -DE/DX =    0.0                 !
 ! D1    D(7,1,2,3)            179.875          -DE/DX =    0.0                 !
 ! D2    D(7,1,2,4)              0.1096         -DE/DX =    0.0                 !
 ! D3    D(8,1,2,3)             -0.2791         -DE/DX =    0.0                 !
 ! D4    D(8,1,2,4)            179.9555         -DE/DX =    0.0                 !
 ! D5    D(2,1,7,6)             -0.065          -DE/DX =    0.0                 !
 ! D6    D(8,1,7,6)           -179.9372         -DE/DX =    0.0                 !
 ! D7    D(2,1,8,9)            173.1046         -DE/DX =    0.0                 !
 ! D8    D(2,1,8,13)            -6.7742         -DE/DX =    0.0                 !
 ! D9    D(7,1,8,9)             -7.0607         -DE/DX =    0.0                 !
 ! D10   D(7,1,8,13)           173.0605         -DE/DX =    0.0                 !
 ! D11   D(1,2,4,5)            179.913          -DE/DX =    0.0                 !
 ! D12   D(1,2,4,6)             -0.1242         -DE/DX =    0.0                 !
 ! D13   D(3,2,4,5)              0.1476         -DE/DX =    0.0                 !
 ! D14   D(3,2,4,6)           -179.8896         -DE/DX =    0.0                 !
 ! D15   D(2,4,6,7)              0.0862         -DE/DX =    0.0                 !
 ! D16   D(5,4,6,7)           -179.9471         -DE/DX =    0.0                 !
 ! D17   D(4,6,7,1)             -0.0132         -DE/DX =    0.0                 !
 ! D18   D(1,8,9,10)           179.9296         -DE/DX =    0.0                 !
 ! D19   D(1,8,9,15)            -0.3169         -DE/DX =    0.0                 !
 ! D20   D(13,8,9,10)           -0.1846         -DE/DX =    0.0                 !
 ! D21   D(13,8,9,15)          179.5689         -DE/DX =    0.0                 !
 ! D22   D(1,8,13,12)         -179.944          -DE/DX =    0.0                 !
 ! D23   D(1,8,13,14)           -0.0483         -DE/DX =    0.0                 !
 ! D24   D(9,8,13,12)            0.1669         -DE/DX =    0.0                 !
 ! D25   D(9,8,13,14)         -179.9374         -DE/DX =    0.0                 !
 ! D26   D(8,9,10,11)            0.0871         -DE/DX =    0.0                 !
 ! D27   D(8,9,10,16)          179.9742         -DE/DX =    0.0                 !
 ! D28   D(15,9,10,11)        -179.6707         -DE/DX =    0.0                 !
 ! D29   D(15,9,10,16)           0.2164         -DE/DX =    0.0                 !
 ! D30   D(9,10,11,12)           0.0429         -DE/DX =    0.0                 !
 ! D31   D(9,10,11,17)         179.9897         -DE/DX =    0.0                 !
 ! D32   D(16,10,11,12)       -179.84           -DE/DX =    0.0                 !
 ! D33   D(16,10,11,17)          0.1068         -DE/DX =    0.0                 !
 ! D34   D(10,11,12,13)         -0.0607         -DE/DX =    0.0                 !
 ! D35   D(10,11,12,18)       -179.9853         -DE/DX =    0.0                 !
 ! D36   D(17,11,12,13)        179.9925         -DE/DX =    0.0                 !
 ! D37   D(17,11,12,18)          0.0679         -DE/DX =    0.0                 !
 ! D38   D(11,12,13,8)          -0.0504         -DE/DX =    0.0                 !
 ! D39   D(11,12,13,14)       -179.947          -DE/DX =    0.0                 !
 ! D40   D(18,12,13,8)         179.8767         -DE/DX =    0.0                 !
 ! D41   D(18,12,13,14)         -0.0199         -DE/DX =    0.0                 !
 --------------------------------------------------------------------------------
 GradGradGradGradGradGradGradGradGradGradGradGradGradGradGradGradGradGrad

                          Input orientation:                          
 ---------------------------------------------------------------------
 Center     Atomic      Atomic             Coordinates (Angstroms)
 Number     Number       Type             X           Y           Z
 ---------------------------------------------------------------------
      1          6           0       -1.133175    0.111905    0.010611
      2          6           0       -2.009349    1.164408    0.114519
      3          1           0       -1.781768    2.210398    0.224213
      4          6           0       -3.282804    0.548056    0.048875
      5          1           0       -4.259834    1.012816    0.094467
      6          7           0       -3.205435   -0.755999   -0.085215
      7          8           0       -1.840950   -1.039064   -0.109955
      8          6           0        0.325754    0.026803    0.005101
      9          6           0        1.041542   -1.186710    0.025861
     10          6           0        2.429425   -1.248080    0.018795
     11          6           0        3.165246   -0.065379   -0.008198
     12          6           0        2.510736    1.166053   -0.026966
     13          6           0        1.125124    1.184872   -0.019497
     14          9           0        0.515432    2.389028   -0.039125
     15          9           0        0.369812   -2.346368    0.058866
     16          1           0        2.905071   -2.222255    0.036484
     17          1           0        4.250007   -0.102041   -0.013768
     18          1           0        3.048638    2.107114   -0.048367
 ---------------------------------------------------------------------
                    Distance matrix (angstroms):
                    1          2          3          4          5
     1  C    0.000000
     2  C    1.373405   0.000000
     3  H    2.206802   1.076067   0.000000
     4  C    2.193763   1.416294   2.246605   0.000000
     5  H    3.254946   2.255674   2.755331   1.082898   0.000000
     6  N    2.248711   2.271229   3.304858   1.313212   2.067063
     7  O    1.356543   2.221269   3.267135   2.150144   3.178522
     8  C    1.461420   2.599774   3.042655   3.646274   4.691250
     9  C    2.532987   3.852733   4.421625   4.659389   5.739966
    10  C    3.813364   5.052917   5.453202   5.988035   7.061414
[...]
    18  H    0.000000   0.006360   0.000292   0.004463  -0.037350   0.347702
              13         14         15         16         17         18
     1  C   -0.071038  -0.009712  -0.000278  -0.000112   0.000001  -0.000088
     2  C   -0.011822   0.004235   0.000177   0.000001   0.000000   0.000000
     3  H    0.001563   0.010144   0.000001  -0.000000   0.000000   0.000003
     4  C    0.000447   0.000490  -0.000045   0.000000   0.000000  -0.000000
     5  H   -0.000004   0.000000   0.000000   0.000000   0.000000  -0.000000
     6  N   -0.000043  -0.000004   0.000152  -0.000000   0.000000  -0.000000
     7  O    0.002154   0.000014  -0.003038   0.000003  -0.000000   0.000000
     8  C    0.337230  -0.043599  -0.048523   0.006241   0.000065   0.006360
     9  C    0.005949   0.002545   0.317540  -0.033699   0.004006   0.000292
    10  C   -0.037061  -0.000061  -0.045805   0.351353  -0.036081   0.004463
    11  C   -0.024636   0.003086   0.002933  -0.036491   0.365490  -0.037350
    12  C    0.447608  -0.044690  -0.000096   0.004609  -0.036797   0.347702
    13  C    4.789717   0.289170   0.002388   0.000272   0.003913  -0.032499
    14  F    0.289170   9.073298  -0.000000   0.000001  -0.000026   0.000056
    15  F    0.002388  -0.000000   9.003949  -0.000224  -0.000025   0.000001
    16  H    0.000272   0.000001  -0.000224   0.552537  -0.005591  -0.000125
    17  H    0.003913  -0.000026  -0.000025  -0.005591   0.560685  -0.005459
    18  H   -0.032499   0.000056   0.000001  -0.000125  -0.005459   0.549207
 Mulliken charges:
               1
     1  C    0.389093
     2  C   -0.260168
     3  H    0.164985
     4  C    0.043138
     5  H    0.163391
     6  N   -0.149349
     7  O   -0.403390
     8  C   -0.046689
     9  C    0.355892
    10  C   -0.198549
    11  C   -0.149588
    12  C   -0.169887
    13  C    0.296692
    14  F   -0.284946
    15  F   -0.229106
    16  H    0.161225
    17  H    0.149819
    18  H    0.167436
 Sum of Mulliken charges =   0.00000
 Mulliken charges with hydrogens summed into heavy atoms:
               1
     1  C    0.389093
     2  C   -0.095183
     4  C    0.206529
     6  N   -0.149349
     7  O   -0.403390
     8  C   -0.046689
     9  C    0.355892
    10  C   -0.037325
    11  C    0.000231
    12  C   -0.002450
    13  C    0.296692
    14  F   -0.284946
    15  F   -0.229106
 Electronic spatial extent (au):  <R**2>=           2219.0534
 Charge=              0.0000 electrons
 Dipole moment (field-independent basis, Debye):
    X=              3.4611    Y=              2.0179    Z=              0.2848  Tot=              4.0164
 Quadrupole moment (field-independent basis, Debye-Ang):
   XX=            -64.4353   YY=            -70.8088   ZZ=            -72.7667
   XY=             -8.0936   XZ=             -0.8954   YZ=              0.0170
 Traceless Quadrupole moment (field-independent basis, Debye-Ang):
   XX=              4.9016   YY=             -1.4719   ZZ=             -3.4298
   XY=             -8.0936   XZ=             -0.8954   YZ=              0.0170
 Octapole moment (field-independent basis, Debye-Ang**2):
  XXX=             28.6833  YYY=             -1.0241  ZZZ=             -0.6382  XYY=             11.4527
  XXY=             27.8137  XXZ=              2.4979  XZZ=             -3.5279  YZZ=             -2.6807
  YYZ=              0.9825  XYZ=             -0.2666
 Hexadecapole moment (field-independent basis, Debye-Ang**3):
 XXXX=          -1850.7941 YYYY=           -715.8821 ZZZZ=            -69.1025 XXXY=            -84.6493
 XXXZ=            -10.2878 YYYX=             -8.5252 YYYZ=              0.2327 ZZZX=              1.7020
 ZZZY=             -1.7640 XXYY=           -428.1050 XXZZ=           -370.9516 YYZZ=           -133.9379
 XXYZ=             -1.8760 YYXZ=             -2.1973 ZZXY=              6.6454
 N-N= 7.578985275352D+02 E-N=-3.097686571141D+03  KE= 6.700428410495D+02
 Evaluate density.
 Using the total density.
 Monte-Carlo method of calculating molar volume:
 based on  0.001 e/bohr**3 density envelope.
 Number of points per bohr**3 =   20 CutOff= 1.00D-04
 Using the CI density.
 There are       365 points.  Will hold       365 in memory.
 LenV=  1342058765 MDV=  1342177280.
 Box volume = 6099.441 fraction occupied=0.230
 Integrated density= 9.7027835512552286D+01 error= 5.0278355125522864D+00
 Molar volume = 1403.707 bohr**3/mol (125.265 cm**3/mol)
 Recommended a0 for SCRF calculation =  4.55 angstrom (  8.59 bohr)
 ******************************Gaussian NBO Version 3.1******************************
             N A T U R A L   A T O M I C   O R B I T A L   A N D
          N A T U R A L   B O N D   O R B I T A L   A N A L Y S I S
 ******************************Gaussian NBO Version 3.1******************************
       /RESON  / : Allow strongly delocalized NBO set

 Analyzing the CI density

 Job title: Title Card Required                                             

 Storage needed:    127270 in NPA (1342175516 available)


 NATURAL POPULATIONS:  Natural atomic orbital occupancies 
                                                          
   NAO  Atom  No  lang   Type(AO)    Occupancy
 --------------------------------------------
     1    C    1  S      Cor( 1S)     1.99899
     2    C    1  S      Val( 2S)     0.84155
     3    C    1  S      Ryd( 3S)     0.00218
     4    C    1  S      Ryd( 4S)     0.00016
     5    C    1  px     Val( 2p)     0.97868
     6    C    1  px     Ryd( 3p)     0.00497
     7    C    1  py     Val( 2p)     0.83826
     8    C    1  py     Ryd( 3p)     0.01219
     9    C    1  pz     Val( 2p)     1.01318
    10    C    1  pz     Ryd( 3p)     0.00206
    11    C    1  dxy    Ryd( 3d)     0.00155
    12    C    1  dxz    Ryd( 3d)     0.00142
    13    C    1  dyz    Ryd( 3d)     0.00157
    14    C    1  dx2y2  Ryd( 3d)     0.00147
    15    C    1  dz2    Ryd( 3d)     0.00061
 
    16    C    2  S      Cor( 1S)     1.99898
    17    C    2  S      Val( 2S)     0.98676
    18    C    2  S      Ryd( 3S)     0.00072
    19    C    2  S      Ryd( 4S)     0.00004
    20    C    2  px     Val( 2p)     1.04400
    21    C    2  px     Ryd( 3p)     0.00420
    22    C    2  py     Val( 2p)     1.21571
    23    C    2  py     Ryd( 3p)     0.00310
    24    C    2  pz     Val( 2p)     1.07118
    25    C    2  pz     Ryd( 3p)     0.00257
    26    C    2  dxy    Ryd( 3d)     0.00079
    27    C    2  dxz    Ryd( 3d)     0.00045
    28    C    2  dyz    Ryd( 3d)     0.00068
    29    C    2  dx2y2  Ryd( 3d)     0.00060
    30    C    2  dz2    Ryd( 3d)     0.00044
 
    31    H    3  S      Val( 1S)     0.73737
    32    H    3  S      Ryd( 2S)     0.00127
 
    33    C    4  S      Cor( 1S)     1.99933
    34    C    4  S      Val( 2S)     0.96061
    35    C    4  S      Ryd( 3S)     0.00244
    36    C    4  S      Ryd( 4S)     0.00011
    37    C    4  px     Val( 2p)     1.15476
    38    C    4  px     Ryd( 3p)     0.00409
    39    C    4  py     Val( 2p)     0.93720
    40    C    4  py     Ryd( 3p)     0.01039
    41    C    4  pz     Val( 2p)     0.98484
    42    C    4  pz     Ryd( 3p)     0.00121
    43    C    4  dxy    Ryd( 3d)     0.00125
    44    C    4  dxz    Ryd( 3d)     0.00062
    45    C    4  dyz    Ryd( 3d)     0.00170
    46    C    4  dx2y2  Ryd( 3d)     0.00139
    47    C    4  dz2    Ryd( 3d)     0.00057
 
    48    H    5  S      Val( 1S)     0.75584
    49    H    5  S      Ryd( 2S)     0.00049
 
    50    N    6  S      Cor( 1S)     1.99947
    51    N    6  S      Val( 2S)     1.49864
    52    N    6  S      Ryd( 3S)     0.00209
    53    N    6  S      Ryd( 4S)     0.00002
    54    N    6  px     Val( 2p)     0.95939
    55    N    6  px     Ryd( 3p)     0.00617
    56    N    6  py     Val( 2p)     1.41139
    57    N    6  py     Ryd( 3p)     0.00585
    58    N    6  pz     Val( 2p)     1.22655
    59    N    6  pz     Ryd( 3p)     0.00165
    60    N    6  dxy    Ryd( 3d)     0.00184
    61    N    6  dxz    Ryd( 3d)     0.00155
    62    N    6  dyz    Ryd( 3d)     0.00205
    63    N    6  dx2y2  Ryd( 3d)     0.00229
    64    N    6  dz2    Ryd( 3d)     0.00121
 
    65    O    7  S      Cor( 1S)     1.99973
    66    O    7  S      Val( 2S)     1.62540
    67    O    7  S      Ryd( 3S)     0.00058
    68    O    7  S      Ryd( 4S)     0.00007
    69    O    7  px     Val( 2p)     1.27940
    70    O    7  px     Ryd( 3p)     0.00169
    71    O    7  py     Val( 2p)     1.67439
    72    O    7  py     Ryd( 3p)     0.00255
    73    O    7  pz     Val( 2p)     1.73470
    74    O    7  pz     Ryd( 3p)     0.00119
    75    O    7  dxy    Ryd( 3d)     0.00211
    76    O    7  dxz    Ryd( 3d)     0.00095
    77    O    7  dyz    Ryd( 3d)     0.00222
    78    O    7  dx2y2  Ryd( 3d)     0.00168
    79    O    7  dz2    Ryd( 3d)     0.00117
 
    80    C    8  S      Cor( 1S)     1.99883
    81    C    8  S      Val( 2S)     0.90192
    82    C    8  S      Ryd( 3S)     0.00054
    83    C    8  S      Ryd( 4S)     0.00010
    84    C    8  px     Val( 2p)     1.10087
    85    C    8  px     Ryd( 3p)     0.00391
    86    C    8  py     Val( 2p)     1.10085
    87    C    8  py     Ryd( 3p)     0.00610
    88    C    8  pz     Val( 2p)     1.11443
    89    C    8  pz     Ryd( 3p)     0.00257
    90    C    8  dxy    Ryd( 3d)     0.00082
    91    C    8  dxz    Ryd( 3d)     0.00111
    92    C    8  dyz    Ryd( 3d)     0.00060
    93    C    8  dx2y2  Ryd( 3d)     0.00049
    94    C    8  dz2    Ryd( 3d)     0.00039
 
    95    C    9  S      Cor( 1S)     1.99848
    96    C    9  S      Val( 2S)     0.84701
    97    C    9  S      Ryd( 3S)     0.00153
    98    C    9  S      Ryd( 4S)     0.00020
    99    C    9  px     Val( 2p)     0.95464
   100    C    9  px     Ryd( 3p)     0.00657
   101    C    9  py     Val( 2p)     0.73461
   102    C    9  py     Ryd( 3p)     0.01011
   103    C    9  pz     Val( 2p)     0.91454
   104    C    9  pz     Ryd( 3p)     0.00190
   105    C    9  dxy    Ryd( 3d)     0.00204
   106    C    9  dxz    Ryd( 3d)     0.00145
   107    C    9  dyz    Ryd( 3d)     0.00175
   108    C    9  dx2y2  Ryd( 3d)     0.00181
   109    C    9  dz2    Ryd( 3d)     0.00053
 
   110    C   10  S      Cor( 1S)     1.99904
   111    C   10  S      Val( 2S)     0.97785
   112    C   10  S      Ryd( 3S)     0.00074
   113    C   10  S      Ryd( 4S)     0.00005
   114    C   10  px     Val( 2p)     1.07750
   115    C   10  px     Ryd( 3p)     0.00518
   116    C   10  py     Val( 2p)     1.18866
   117    C   10  py     Ryd( 3p)     0.00511
   118    C   10  pz     Val( 2p)     1.05555
   119    C   10  pz     Ryd( 3p)     0.00353
   120    C   10  dxy    Ryd( 3d)     0.00050
   121    C   10  dxz    Ryd( 3d)     0.00061
   122    C   10  dyz    Ryd( 3d)     0.00050
   123    C   10  dx2y2  Ryd( 3d)     0.00087
   124    C   10  dz2    Ryd( 3d)     0.00047
 
   125    C   11  S      Cor( 1S)     1.99914
   126    C   11  S      Val( 2S)     0.96283
   127    C   11  S      Ryd( 3S)     0.00054
   128    C   11  S      Ryd( 4S)     0.00005
   129    C   11  px     Val( 2p)     1.19870
   130    C   11  px     Ryd( 3p)     0.00469
   131    C   11  py     Val( 2p)     1.04297
   132    C   11  py     Ryd( 3p)     0.00504
   133    C   11  pz     Val( 2p)     1.04701
   134    C   11  pz     Ryd( 3p)     0.00350
   135    C   11  dxy    Ryd( 3d)     0.00064
   136    C   11  dxz    Ryd( 3d)     0.00041
   137    C   11  dyz    Ryd( 3d)     0.00061
   138    C   11  dx2y2  Ryd( 3d)     0.00080
   139    C   11  dz2    Ryd( 3d)     0.00045
 
   140    C   12  S      Cor( 1S)     1.99902
   141    C   12  S      Val( 2S)     0.98468
   142    C   12  S      Ryd( 3S)     0.00071
   143    C   12  S      Ryd( 4S)     0.00006
   144    C   12  px     Val( 2p)     1.09622
   145    C   12  px     Ryd( 3p)     0.00483
   146    C   12  py     Val( 2p)     1.17591
   147    C   12  py     Ryd( 3p)     0.00512
   148    C   12  pz     Val( 2p)     0.94488
   149    C   12  pz     Ryd( 3p)     0.00181
   150    C   12  dxy    Ryd( 3d)     0.00060
   151    C   12  dxz    Ryd( 3d)     0.00095
   152    C   12  dyz    Ryd( 3d)     0.00051
   153    C   12  dx2y2  Ryd( 3d)     0.00084
   154    C   12  dz2    Ryd( 3d)     0.00046
 
   155    C   13  S      Cor( 1S)     1.99848
   156    C   13  S      Val( 2S)     0.83000
   157    C   13  S      Ryd( 3S)     0.00132
   158    C   13  S      Ryd( 4S)     0.00020
   159    C   13  px     Val( 2p)     0.96909
   160    C   13  px     Ryd( 3p)     0.00575
   161    C   13  py     Val( 2p)     0.71300
   162    C   13  py     Ryd( 3p)     0.01027
   163    C   13  pz     Val( 2p)     1.07902
   164    C   13  pz     Ryd( 3p)     0.00306
   165    C   13  dxy    Ryd( 3d)     0.00182
   166    C   13  dxz    Ryd( 3d)     0.00103
   167    C   13  dyz    Ryd( 3d)     0.00163
   168    C   13  dx2y2  Ryd( 3d)     0.00170
   169    C   13  dz2    Ryd( 3d)     0.00051
 
   170    F   14  S      Cor( 1S)     1.99994
   171    F   14  S      Val( 2S)     1.82663
   172    F   14  S      Ryd( 3S)     0.00018
   173    F   14  S      Ryd( 4S)     0.00005
   174    F   14  px     Val( 2p)     1.89554
   175    F   14  px     Ryd( 3p)     0.00058
   176    F   14  py     Val( 2p)     1.68948
   177    F   14  py     Ryd( 3p)     0.00021
   178    F   14  pz     Val( 2p)     1.90956
   179    F   14  pz     Ryd( 3p)     0.00093
   180    F   14  dxy    Ryd( 3d)     0.00099
   181    F   14  dxz    Ryd( 3d)     0.00029
   182    F   14  dyz    Ryd( 3d)     0.00118
   183    F   14  dx2y2  Ryd( 3d)     0.00101
   184    F   14  dz2    Ryd( 3d)     0.00028
 
   185    F   15  S      Cor( 1S)     1.99994
   186    F   15  S      Val( 2S)     1.82834
   187    F   15  S      Ryd( 3S)     0.00016
   188    F   15  S      Ryd( 4S)     0.00006
   189    F   15  px     Val( 2p)     1.88176
   190    F   15  px     Ryd( 3p)     0.00067
   191    F   15  py     Val( 2p)     1.70432
   192    F   15  py     Ryd( 3p)     0.00028
   193    F   15  pz     Val( 2p)     1.85051
   194    F   15  pz     Ryd( 3p)     0.00078
   195    F   15  dxy    Ryd( 3d)     0.00106
   196    F   15  dxz    Ryd( 3d)     0.00049
   197    F   15  dyz    Ryd( 3d)     0.00123
   198    F   15  dx2y2  Ryd( 3d)     0.00119
   199    F   15  dz2    Ryd( 3d)     0.00029
 
   200    H   16  S      Val( 1S)     0.74232
   201    H   16  S      Ryd( 2S)     0.00113
 
   202    H   17  S      Val( 1S)     0.75294
   203    H   17  S      Ryd( 2S)     0.00077
 
   204    H   18  S      Val( 1S)     0.74348
   205    H   18  S      Ryd( 2S)     0.00114

 WARNING:  1 low occupancy (<1.9990e) core orbital  found on  C    1
           1 low occupancy (<1.9990e) core orbital  found on  C    2
           1 low occupancy (<1.9990e) core orbital  found on  C    8
           1 low occupancy (<1.9990e) core orbital  found on  C    9
           1 low occupancy (<1.9990e) core orbital  found on  C   13


 Summary of Natural Population Analysis:                  
                                                          
                                       Natural Population 
                Natural  -----------------------------------------------
    Atom  No    Charge         Core      Valence    Rydberg      Total
 -----------------------------------------------------------------------
      C    1    0.30116      1.99899     3.67168    0.02817     5.69884
      C    2   -0.33022      1.99898     4.31765    0.01359     6.33022
      H    3    0.26135      0.00000     0.73737    0.00127     0.73865
      C    4   -0.06051      1.99933     4.03741    0.02377     6.06051
      H    5    0.24367      0.00000     0.75584    0.00049     0.75633
      N    6   -0.12016      1.99947     5.09596    0.02473     7.12016
      O    7   -0.32783      1.99973     6.31389    0.01421     8.32783
      C    8   -0.23353      1.99883     4.21807    0.01664     6.23353
      C    9    0.52283      1.99848     3.45081    0.02789     5.47717
      C   10   -0.31616      1.99904     4.29956    0.01756     6.31616
      C   11   -0.26738      1.99914     4.25152    0.01672     6.26738
      C   12   -0.21659      1.99902     4.20170    0.01587     6.21659
      C   13    0.38311      1.99848     3.59112    0.02729     5.61689
      F   14   -0.32688      1.99994     7.32122    0.00572     9.32688
      F   15   -0.27107      1.99994     7.26492    0.00621     9.27107
      H   16    0.25654      0.00000     0.74232    0.00113     0.74346
      H   17    0.24629      0.00000     0.75294    0.00077     0.75371
      H   18    0.25538      0.00000     0.74348    0.00114     0.74462
 =======================================================================
   * Total *   -0.00000     25.98937    65.76746    0.24317    92.00000

                                 Natural Population      
 --------------------------------------------------------
   Core                      25.98937 ( 99.9591% of  26)
   Valence                   65.76746 ( 99.6477% of  66)
   Natural Minimal Basis     91.75683 ( 99.7357% of  92)
   Natural Rydberg Basis      0.24317 (  0.2643% of  92)
 --------------------------------------------------------

    Atom  No          Natural Electron Configuration
 ----------------------------------------------------------------------------
      C    1      [core]2S( 0.84)2p( 2.83)3p( 0.02)3d( 0.01)
      C    2      [core]2S( 0.99)2p( 3.33)3p( 0.01)
      H    3            1S( 0.74)
      C    4      [core]2S( 0.96)2p( 3.08)3p( 0.02)3d( 0.01)
      H    5            1S( 0.76)
      N    6      [core]2S( 1.50)2p( 3.60)3p( 0.01)3d( 0.01)
      O    7      [core]2S( 1.63)2p( 4.69)3p( 0.01)3d( 0.01)
      C    8      [core]2S( 0.90)2p( 3.32)3p( 0.01)
      C    9      [core]2S( 0.85)2p( 2.60)3p( 0.02)3d( 0.01)
      C   10      [core]2S( 0.98)2p( 3.32)3p( 0.01)
      C   11      [core]2S( 0.96)2p( 3.29)3p( 0.01)
      C   12      [core]2S( 0.98)2p( 3.22)3p( 0.01)
      C   13      [core]2S( 0.83)2p( 2.76)3p( 0.02)3d( 0.01)
      F   14      [core]2S( 1.83)2p( 5.49)
      F   15      [core]2S( 1.83)2p( 5.44)
      H   16            1S( 0.74)
      H   17            1S( 0.75)
      H   18            1S( 0.74)


 NBO analysis skipped by request.
 1\1\GINC-DELLA-R4C2N8\SP\RB3LYP TD-FC\6-31G(d)\C9H5F2N1O1\BJS4\30-Dec-
 2019\0\\# TD(NStates=10, Root=1) B3LYP/6-31G* scf=qc volume pop=NPA de
 nsity=current Geom=AllCheck Guess=Read\\Title Card Required\\0,1\C,0,-
 1.1331749589,0.1119047286,0.0106114672\C,0,-2.0093488495,1.1644082483,
 0.1145185986\H,0,-1.7817684264,2.2103982976,0.224212775\C,0,-3.2828041
 469,0.5480557398,0.0488747141\H,0,-4.2598342136,1.0128158761,0.0944667
 09\N,0,-3.20543489,-0.7559994486,-0.0852153629\O,0,-1.8409495416,-1.03
 90635405,-0.1099552481\C,0,0.3257544105,0.026803381,0.0051008655\C,0,1
 .0415416161,-1.1867102099,0.0258608839\C,0,2.4294249658,-1.2480795665,
 0.0187951871\C,0,3.1652459034,-0.0653793778,-0.0081983375\C,0,2.510735
 6027,1.1660525446,-0.026965569\C,0,1.1251237427,1.1848722614,-0.019497
 0161\F,0,0.5154318669,2.3890275266,-0.0391251268\F,0,0.369811533,-2.34
 63680805,0.058866009\H,0,2.9050707742,-2.2222550263,0.0364840936\H,0,4
 .2500065338,-0.1020414402,-0.0137680913\H,0,3.0486380777,2.1071140862,
 -0.0483665514\\Version=ES64L-G16RevA.03\State=1-A\HF=-675.5595317\RMSD
 =7.262e-10\Dipole=1.3617074,0.7938494,0.1120323\Quadrupole=3.6438905,-
 1.0939393,-2.5499512,-6.0175221,-0.6656933,0.0126266\PG=C01 [X(C9H5F2N
 1O1)]\\@


 IF YOU GET CONFUSED, LOGIC OUT YOUR DILEMMA

           --  PICKER X-RAY CORP.    DIGITAL PRINTER MANUAL CA. 1964
 Job cpu time:       0 days  0 hours 17 minutes 45.5 seconds.
 Elapsed time:       0 days  0 hours  3 minutes 43.0 seconds.
 File lengths (MBytes):  RWF=    392 Int=      0 D2E=      0 Chk=     24 Scr=      1
 Normal termination of Gaussian 16 at Mon Dec 30 18:04:47 2019.
