 Entering Gaussian System, Link 0=g16
 Input=6_123.com
 Output=6_123.log
 Initial command:
 /opt/export/g16/l1.exe "/scratch/bjs4/job.20367/Gau-20369.inp" -scrdir="/scratch/bjs4/job.20367/"
 Entering Link 1 = /opt/export/g16/l1.exe PID=     20370.
  
 Copyright (c) 1988,1990,1992,1993,1995,1998,2003,2009,2016,
            Gaussian, Inc.  All Rights Reserved.
  
 This is part of the Gaussian(R) 16 program.  It is based on
 the Gaussian(R) 09 system (copyright 2009, Gaussian, Inc.),
 the Gaussian(R) 03 system (copyright 2003, Gaussian, Inc.),
 the Gaussian(R) 98 system (copyright 1998, Gaussian, Inc.),
 the Gaussian(R) 94 system (copyright 1995, Gaussian, Inc.),
 the Gaussian 92(TM) system (copyright 1992, Gaussian, Inc.),
 the Gaussian 90(TM) system (copyright 1990, Gaussian, Inc.),
 the Gaussian 88(TM) system (copyright 1988, Gaussian, Inc.),
 the Gaussian 86(TM) system (copyright 1986, Carnegie Mellon
 University), and the Gaussian 82(TM) system (copyright 1983,
 Carnegie Mellon University). Gaussian is a federally registered
 trademark of Gaussian, Inc.
  
 This software contains proprietary and confidential information,
 including trade secrets, belonging to Gaussian, Inc.
  
 This software is provided under written license and may be
 used, copied, transmitted, or stored only in accord with that
 written license.
  
 The following legend is applicable only to US Government
 contracts under FAR:
  
                    RESTRICTED RIGHTS LEGEND
  
 Use, reproduction and disclosure by the US Government is
 subject to restrictions as set forth in subparagraphs (a)
 and (c) of the Commercial Computer Software - Restricted
 Rights clause in FAR 52.227-19.
  
 Gaussian, Inc.
 340 Quinnipiac St., Bldg. 40, Wallingford CT 06492
  
  
 ---------------------------------------------------------------
 Warning -- This program may not be used in any manner that
 competes with the business of Gaussian, Inc. or will provide
 assistance to any competitor of Gaussian, Inc.  The licensee
 of this program is prohibited from giving any competitor of
 Gaussian, Inc. access to this program.  By using this program,
 the user acknowledges that Gaussian, Inc. is engaged in the
 business of creating and licensing software in the field of
 computational chemistry and represents and warrants to the
 licensee that it is not a competitor of Gaussian, Inc. and that
 it will not use this program in any manner prohibited above.
 ---------------------------------------------------------------
  

 Cite this work as:
 Gaussian 16, Revision A.03,
 M. J. Frisch, G. W. Trucks, H. B. Schlegel, G. E. Scuseria, 
 M. A. Robb, J. R. Cheeseman, G. Scalmani, V. Barone, 
 G. A. Petersson, H. Nakatsuji, X. Li, M. Caricato, A. V. Marenich, 
 J. Bloino, B. G. Janesko, R. Gomperts, B. Mennucci, H. P. Hratchian, 
 J. V. Ortiz, A. F. Izmaylov, J. L. Sonnenberg, D. Williams-Young, 
 F. Ding, F. Lipparini, F. Egidi, J. Goings, B. Peng, A. Petrone, 
 T. Henderson, D. Ranasinghe, V. G. Zakrzewski, J. Gao, N. Rega, 
 G. Zheng, W. Liang, M. Hada, M. Ehara, K. Toyota, R. Fukuda, 
 J. Hasegawa, M. Ishida, T. Nakajima, Y. Honda, O. Kitao, H. Nakai, 
 T. Vreven, K. Throssell, J. A. Montgomery, Jr., J. E. Peralta, 
 F. Ogliaro, M. J. Bearpark, J. J. Heyd, E. N. Brothers, K. N. Kudin, 
 V. N. Staroverov, T. A. Keith, R. Kobayashi, J. Normand, 
 K. Raghavachari, A. P. Rendell, J. C. Burant, S. S. Iyengar, 
 J. Tomasi, M. Cossi, J. M. Millam, M. Klene, C. Adamo, R. Cammi, 
 J. W. Ochterski, R. L. Martin, K. Morokuma, O. Farkas, 
 J. B. Foresman, and D. J. Fox, Gaussian, Inc., Wallingford CT, 2016.
 
 ******************************************
 Gaussian 16:  ES64L-G16RevA.03 25-Dec-2016
                30-Dec-2019 
 ******************************************
 %nprocshared=3
 Will use up to    3 processors via shared memory.
 %Mem=6GB
 %Chk=6_1.chk
 ---------------------------------
 # opt=CalcAll B3LYP/6-31G* scf=qc
 ---------------------------------
 1/10=4,18=20,19=15,26=3,38=1/1,3;
 2/9=110,12=2,17=6,18=5,40=1/2;
 3/5=1,6=6,7=1,11=2,25=1,30=1,71=2,74=-5,140=1/1,2,3;
 4//1;
 5/5=2,8=3,38=5/8;
 8/6=4,10=90,11=11/1;
 11/6=1,8=1,9=11,15=111,16=1/1,2,10;
 10/6=1/2;
 6/7=2,8=2,9=2,10=2,18=1,28=1/1;
 7/10=1,25=1/1,2,3,16;
 1/10=4,18=20,19=15,26=3/3(3);
 2/9=110/2;
 7/8=1,9=1,25=1,44=-1/16;
 99//99;
 2/9=110/2;
 3/5=1,6=6,7=1,11=2,25=1,30=1,71=2,74=-5,140=1/1,2,3;
 4/5=5,16=3,69=1/1;
 5/5=2,8=3,38=5/8;
 8/6=4,10=90,11=11/1;
 11/6=1,8=1,9=11,15=111,16=1/1,2,10;
 10/6=1/2;
 7/10=1,25=1/1,2,3,16;
 1/10=4,18=20,19=15,26=3/3(-8);
 2/9=110/2;
 6/7=2,8=2,9=2,10=2,18=1,19=2,28=1/1;
 7/8=1,9=1,25=1,44=-1/16;
 99//99;
 -------------------
 Title Card Required
 -------------------
 Symbolic Z-matrix:
 Charge =  0 Multiplicity = 1
 C5                    0.62189   0.11098  -0.00011 
 C4                   -0.25746   1.15412  0. 
 H                    -0.03397   2.21031  -0.00002 
 C3                   -1.53066   0.52011   0.00002 
 H                    -2.51351   0.97539   0.00004 
 N2                   -1.44035  -0.78847   0.00004 
 O1                   -0.06401  -1.05371  -0.00003 
 C                     2.10904   0.01479   0.00003 
 H                     2.55193   1.01378  -0.00267 
 H                     2.4665   -0.5277   -0.88255 
 H                     2.46671  -0.5229    0.88549 
 

 GradGradGradGradGradGradGradGradGradGradGradGradGradGradGradGradGradGrad
 Berny optimization.
 Initialization pass.
                           ----------------------------
                           !    Initial Parameters    !
                           ! (Angstroms and Degrees)  !
 --------------------------                            --------------------------
 ! Name  Definition              Value          Derivative Info.                !
 --------------------------------------------------------------------------------
 ! R1    R(1,2)                  1.3643         calculate D2E/DX2 analytically  !
 ! R2    R(1,7)                  1.3517         calculate D2E/DX2 analytically  !
 ! R3    R(1,8)                  1.4903         calculate D2E/DX2 analytically  !
 ! R4    R(2,3)                  1.0796         calculate D2E/DX2 analytically  !
 ! R5    R(2,4)                  1.4223         calculate D2E/DX2 analytically  !
 ! R6    R(4,5)                  1.0832         calculate D2E/DX2 analytically  !
 ! R7    R(4,6)                  1.3117         calculate D2E/DX2 analytically  !
 ! R8    R(6,7)                  1.4017         calculate D2E/DX2 analytically  !
 ! R9    R(8,9)                  1.0928         calculate D2E/DX2 analytically  !
 ! R10   R(8,10)                 1.0959         calculate D2E/DX2 analytically  !
 ! R11   R(8,11)                 1.0959         calculate D2E/DX2 analytically  !
 ! A1    A(2,1,7)              109.3752         calculate D2E/DX2 analytically  !
 ! A2    A(2,1,8)              133.8313         calculate D2E/DX2 analytically  !
 ! A3    A(7,1,8)              116.7935         calculate D2E/DX2 analytically  !
 ! A4    A(1,2,3)              127.9222         calculate D2E/DX2 analytically  !
 ! A5    A(1,2,4)              103.6589         calculate D2E/DX2 analytically  !
 ! A6    A(3,2,4)              128.4189         calculate D2E/DX2 analytically  !
 ! A7    A(2,4,5)              128.674          calculate D2E/DX2 analytically  !
 ! A8    A(2,4,6)              112.5236         calculate D2E/DX2 analytically  !
 ! A9    A(5,4,6)              118.8024         calculate D2E/DX2 analytically  !
 ! A10   A(4,6,7)              104.8559         calculate D2E/DX2 analytically  !
 ! A11   A(1,7,6)              109.5863         calculate D2E/DX2 analytically  !
 ! A12   A(1,8,9)              110.2085         calculate D2E/DX2 analytically  !
 ! A13   A(1,8,10)             110.9387         calculate D2E/DX2 analytically  !
 ! A14   A(1,8,11)             110.9419         calculate D2E/DX2 analytically  !
 ! A15   A(9,8,10)             108.5631         calculate D2E/DX2 analytically  !
 ! A16   A(9,8,11)             108.5572         calculate D2E/DX2 analytically  !
 ! A17   A(10,8,11)            107.539          calculate D2E/DX2 analytically  !
 ! D1    D(7,1,2,3)            179.9995         calculate D2E/DX2 analytically  !
 ! D2    D(7,1,2,4)             -0.0051         calculate D2E/DX2 analytically  !
 ! D3    D(8,1,2,3)              0.016          calculate D2E/DX2 analytically  !
 ! D4    D(8,1,2,4)           -179.9886         calculate D2E/DX2 analytically  !
 ! D5    D(2,1,7,6)              0.0036         calculate D2E/DX2 analytically  !
 ! D6    D(8,1,7,6)            179.9903         calculate D2E/DX2 analytically  !
 ! D7    D(2,1,8,9)             -0.1644         calculate D2E/DX2 analytically  !
 ! D8    D(2,1,8,10)          -120.4336         calculate D2E/DX2 analytically  !
 ! D9    D(2,1,8,11)           120.0996         calculate D2E/DX2 analytically  !
 ! D10   D(7,1,8,9)            179.8531         calculate D2E/DX2 analytically  !
 ! D11   D(7,1,8,10)            59.5839         calculate D2E/DX2 analytically  !
 ! D12   D(7,1,8,11)           -59.8829         calculate D2E/DX2 analytically  !
 ! D13   D(1,2,4,5)           -179.9968         calculate D2E/DX2 analytically  !
 ! D14   D(1,2,4,6)              0.0052         calculate D2E/DX2 analytically  !
 ! D15   D(3,2,4,5)             -0.0015         calculate D2E/DX2 analytically  !
 ! D16   D(3,2,4,6)           -179.9995         calculate D2E/DX2 analytically  !
 ! D17   D(2,4,6,7)             -0.003          calculate D2E/DX2 analytically  !
 ! D18   D(5,4,6,7)            179.9988         calculate D2E/DX2 analytically  !
 ! D19   D(4,6,7,1)             -0.0003         calculate D2E/DX2 analytically  !
 --------------------------------------------------------------------------------
 Trust Radius=3.00D-01 FncErr=1.00D-07 GrdErr=1.00D-06 EigMax=2.50D+02 EigMin=1.00D-04
 Number of steps in this run=     57 maximum allowed number of steps=    100.
 GradGradGradGradGradGradGradGradGradGradGradGradGradGradGradGradGradGrad

                          Input orientation:                          
 ---------------------------------------------------------------------
 Center     Atomic      Atomic             Coordinates (Angstroms)
 Number     Number       Type             X           Y           Z
 ---------------------------------------------------------------------
      1          6           0        0.621890    0.110984   -0.000106
      2          6           0       -0.257459    1.154118   -0.000002
      3          1           0       -0.033972    2.210311   -0.000016
      4          6           0       -1.530662    0.520111    0.000017
      5          1           0       -2.513514    0.975385    0.000043
      6          7           0       -1.440351   -0.788466    0.000042
      7          8           0       -0.064009   -1.053706   -0.000032
      8          6           0        2.109044    0.014793    0.000034
      9          1           0        2.551928    1.013778   -0.002672
     10          1           0        2.466500   -0.527701   -0.882545
     11          1           0        2.466711   -0.522898    0.885491
 ---------------------------------------------------------------------
                    Distance matrix (angstroms):
                    1          2          3          4          5
     1  C    0.000000
     2  C    1.364325   0.000000
     3  H    2.199393   1.079579   0.000000
     4  C    2.191088   1.422326   2.257622   0.000000
     5  H    3.252376   2.263124   2.770049   1.083177   0.000000
     6  N    2.249855   2.274394   3.312184   1.311690   2.064667
     7  O    1.351651   2.216283   3.264155   2.151272   3.180768
     8  C    1.490262   2.626480   3.068031   3.674616   4.721311
     9  H    2.130749   2.812891   2.849312   4.112330   5.065588
    10  H    2.142243   3.320745   3.811552   4.225415   5.276246
    11  H    2.142301   3.319274   3.808933   4.225035   5.275558
                    6          7          8          9         10
     6  N    0.000000
     7  O    1.401667   0.000000
     8  C    3.639152   2.421539   0.000000
     9  H    4.380226   3.334310   1.092760   0.000000
    10  H    4.013782   2.731114   1.095911   1.776973   0.000000
    11  H    4.014932   2.733213   1.095934   1.776927   1.768043
                   11
    11  H    0.000000
 Stoichiometry    C4H5NO
 Framework group  C1[X(C4H5NO)]
 Deg. of freedom    27
 Full point group                 C1      NOp   1
 Largest Abelian subgroup         C1      NOp   1
 Largest concise Abelian subgroup C1      NOp   1
                         Standard orientation:                         
 ---------------------------------------------------------------------
 Center     Atomic      Atomic             Coordinates (Angstroms)
 Number     Number       Type             X           Y           Z
 ---------------------------------------------------------------------
      1          6           0        0.621890    0.110984   -0.000106
      2          6           0       -0.257459    1.154118   -0.000002
      3          1           0       -0.033972    2.210311   -0.000016
      4          6           0       -1.530662    0.520111    0.000017
      5          1           0       -2.513514    0.975385    0.000043
      6          7           0       -1.440351   -0.788466    0.000042
      7          8           0       -0.064009   -1.053706   -0.000032
      8          6           0        2.109044    0.014793    0.000034
      9          1           0        2.551928    1.013778   -0.002672
     10          1           0        2.466500   -0.527701   -0.882545
     11          1           0        2.466711   -0.522898    0.885491
 ---------------------------------------------------------------------
 Rotational constants (GHZ):           9.2364752           3.5443443           2.6029991
 Standard basis: 6-31G(d) (6D, 7F)
 There are   100 symmetry adapted cartesian basis functions of A   symmetry.
 There are   100 symmetry adapted basis functions of A   symmetry.
   100 basis functions,   188 primitive gaussians,   100 cartesian basis functions
    22 alpha electrons       22 beta electrons
       nuclear repulsion energy       223.4000398912 Hartrees.
 NAtoms=   11 NActive=   11 NUniq=   11 SFac= 1.00D+00 NAtFMM=   60 NAOKFM=F Big=F
 Integral buffers will be    131072 words long.
 Raffenetti 2 integral format.
 Two-electron integral symmetry is turned on.
 One-electron integrals computed using PRISM.
 NBasis=   100 RedAO= T EigKep=  1.38D-03  NBF=   100
 NBsUse=   100 1.00D-06 EigRej= -1.00D+00 NBFU=   100
 ExpMin= 1.61D-01 ExpMax= 5.48D+03 ExpMxC= 8.25D+02 IAcc=3 IRadAn=         5 AccDes= 0.00D+00
 Harris functional with IExCor=  402 and IRadAn=       5 diagonalized for initial guess.
 HarFok:  IExCor=  402 AccDes= 0.00D+00 IRadAn=         5 IDoV= 1 UseB2=F ITyADJ=14
 ICtDFT=  3500011 ScaDFX=  1.000000  1.000000  1.000000  1.000000
 FoFCou: FMM=F IPFlag=           0 FMFlag=      100000 FMFlg1=           0
         NFxFlg=           0 DoJE=T BraDBF=F KetDBF=T FulRan=T
         wScrn=  0.000000 ICntrl=       500 IOpCl=  0 I1Cent=   200000004 NGrid=           0
         NMat0=    1 NMatS0=      1 NMatT0=    0 NMatD0=    1 NMtDS0=    0 NMtDT0=    0
 Petite list used in FoFCou.
 Keep R1 ints in memory in canonical form, NReq=15530881.
 Gradient too large for Newton-Raphson -- use scaled steepest descent instead.
     Minimum is close to point  3 DX=  2.28D-02 DF= -3.32D-04 DXR=  5.39D-02 DFR=  2.88D-03 which will be used.
 Gradient too large for Newton-Raphson -- use scaled steepest descent instead.
     Minimum is close to point  2 DX=  3.98D-02 DF= -7.56D-05 DXR=  9.04D-02 DFR=  8.24D-03 which will be used.
 Gradient too large for Newton-Raphson -- use scaled steepest descent instead.
 Gradient too large for Newton-Raphson -- use scaled steepest descent instead.
     Accept linear search using points  1 and  2.
 Gradient too large for Newton-Raphson -- use scaled steepest descent instead.
     Accept linear search using points  2 and  3.
 LinEq1:  Iter=  0 NonCon=     1 RMS=4.57D-05 Max=8.67D-04 NDo=     1
 AX will form     1 AO Fock derivatives at one time.
 LinEq1:  Iter=  1 NonCon=     1 RMS=4.99D-05 Max=1.11D-03 NDo=     1
 LinEq1:  Iter=  2 NonCon=     1 RMS=1.15D-05 Max=9.63D-05 NDo=     1
 LinEq1:  Iter=  3 NonCon=     1 RMS=4.98D-06 Max=1.15D-04 NDo=     1
 LinEq1:  Iter=  4 NonCon=     1 RMS=3.21D-06 Max=3.98D-05 NDo=     1
 LinEq1:  Iter=  5 NonCon=     1 RMS=2.62D-06 Max=5.26D-05 NDo=     1
 LinEq1:  Iter=  6 NonCon=     1 RMS=1.27D-06 Max=1.78D-05 NDo=     1
 LinEq1:  Iter=  7 NonCon=     1 RMS=8.63D-07 Max=8.99D-06 NDo=     1
 LinEq1:  Iter=  8 NonCon=     1 RMS=2.73D-07 Max=2.87D-06 NDo=     1
 LinEq1:  Iter=  9 NonCon=     1 RMS=1.17D-07 Max=1.26D-06 NDo=     1
 LinEq1:  Iter= 10 NonCon=     1 RMS=3.35D-08 Max=2.53D-07 NDo=     1
 LinEq1:  Iter= 11 NonCon=     1 RMS=1.29D-08 Max=2.28D-07 NDo=     1
 LinEq1:  Iter= 12 NonCon=     1 RMS=5.34D-09 Max=8.98D-08 NDo=     1
 LinEq1:  Iter= 13 NonCon=     0 RMS=9.78D-10 Max=9.93D-09 NDo=     1
 Linear equations converged to 5.858D-09 5.858D-08 after    13 iterations.
     Accept linear search using points  1 and  2.
     Minimum is close to point  2 DX= -7.24D-05 DF=  0.00D+00 DXR=  7.24D-05 DFR=  0.00D+00 which will be used.
 SCF Done:  E(RB3LYP) =  -285.359308322     a.u. after    7 cycles
            Convg  =    0.5628D-06                    28 Fock formations.
              S**2 =  0.0000                  -V/T =  2.0092
 DoSCS=F DFT=T ScalE2(SS,OS)=  1.000000  1.000000
 Range of M.O.s used for correlation:     1   100
 NBasis=   100 NAE=    22 NBE=    22 NFC=     0 NFV=     0
 NROrb=    100 NOA=    22 NOB=    22 NVA=    78 NVB=    78
 Symmetrizing basis deriv contribution to polar:
 IMax=3 JMax=2 DiffMx= 0.00D+00
 G2DrvN: will do    12 centers at a time, making    1 passes.
 Calling FoFCou, ICntrl=  3107 FMM=F I1Cent=   0 AccDes= 0.00D+00.
 End of G2Drv F.D. properties file   721 does not exist.
 End of G2Drv F.D. properties file   722 does not exist.
 End of G2Drv F.D. properties file   788 does not exist.
          IDoAtm=11111111111
          Differentiating once with respect to electric field.
                with respect to dipole field.
          Differentiating once with respect to nuclear coordinates.
 Keep R1 ints in memory in canonical form, NReq=15530728.
          There are    36 degrees of freedom in the 1st order CPHF.  IDoFFX=6 NUNeed=     3.
     33 vectors produced by pass  0 Test12= 4.77D-15 2.78D-09 XBig12= 5.90D+01 5.48D+00.
 AX will form    33 AO Fock derivatives at one time.
     33 vectors produced by pass  1 Test12= 4.77D-15 2.78D-09 XBig12= 1.85D+01 1.24D+00.
     33 vectors produced by pass  2 Test12= 4.77D-15 2.78D-09 XBig12= 1.44D-01 7.24D-02.
     33 vectors produced by pass  3 Test12= 4.77D-15 2.78D-09 XBig12= 5.45D-04 4.45D-03.
     33 vectors produced by pass  4 Test12= 4.77D-15 2.78D-09 XBig12= 8.06D-07 1.24D-04.
     24 vectors produced by pass  5 Test12= 4.77D-15 2.78D-09 XBig12= 5.03D-10 3.04D-06.
      3 vectors produced by pass  6 Test12= 4.77D-15 2.78D-09 XBig12= 3.56D-13 1.10D-07.
      1 vectors produced by pass  7 Test12= 4.77D-15 2.78D-09 XBig12= 2.17D-16 3.01D-09.
 InvSVY:  IOpt=1 It=  1 EMax= 3.55D-15
 Solved reduced A of dimension   193 with    36 vectors.
 Isotropic polarizability for W=    0.000000       45.83 Bohr**3.
 End of Minotr F.D. properties file   721 does not exist.
 End of Minotr F.D. properties file   722 does not exist.
 End of Minotr F.D. properties file   788 does not exist.

 **********************************************************************

            Population analysis using the SCF density.

 **********************************************************************

 Orbital symmetries:
       Occupied  (A) (A) (A) (A) (A) (A) (A) (A) (A) (A) (A) (A)
                 (A) (A) (A) (A) (A) (A) (A) (A) (A) (A)
       Virtual   (A) (A) (A) (A) (A) (A) (A) (A) (A) (A) (A) (A)
                 (A) (A) (A) (A) (A) (A) (A) (A) (A) (A) (A) (A)
                 (A) (A) (A) (A) (A) (A) (A) (A) (A) (A) (A) (A)
                 (A) (A) (A) (A) (A) (A) (A) (A) (A) (A) (A) (A)
                 (A) (A) (A) (A) (A) (A) (A) (A) (A) (A) (A) (A)
                 (A) (A) (A) (A) (A) (A) (A) (A) (A) (A) (A) (A)
                 (A) (A) (A) (A) (A) (A)
 The electronic state is 1-A.
 Alpha  occ. eigenvalues --  -19.22876 -14.37520 -10.26046 -10.22246 -10.20762
 Alpha  occ. eigenvalues --  -10.19468  -1.13357  -0.86525  -0.80571  -0.72340
 Alpha  occ. eigenvalues --   -0.61568  -0.57609  -0.51152  -0.47297  -0.45335
 Alpha  occ. eigenvalues --   -0.42393  -0.41757  -0.39798  -0.38077  -0.30084
 Alpha  occ. eigenvalues --   -0.29574  -0.25386
 Alpha virt. eigenvalues --   -0.00869   0.06483   0.08942   0.11329   0.13738
 Alpha virt. eigenvalues --    0.14785   0.16724   0.16857   0.21595   0.23267
 Alpha virt. eigenvalues --    0.28331   0.38520   0.42981   0.49720   0.51440
 Alpha virt. eigenvalues --    0.54737   0.56303   0.57450   0.59148   0.63049
 Alpha virt. eigenvalues --    0.64604   0.66497   0.67763   0.72045   0.76272
 Alpha virt. eigenvalues --    0.79191   0.81949   0.82281   0.85547   0.85962
 Alpha virt. eigenvalues --    0.87914   0.92774   0.93626   0.99573   1.00859
 Alpha virt. eigenvalues --    1.07445   1.08018   1.13084   1.31356   1.37249
 Alpha virt. eigenvalues --    1.37537   1.38317   1.43305   1.48629   1.49778
 Alpha virt. eigenvalues --    1.57813   1.62876   1.64848   1.80437   1.83011
 Alpha virt. eigenvalues --    1.88911   1.93712   1.94961   2.00831   2.14890
 Alpha virt. eigenvalues --    2.16824   2.18740   2.18921   2.23002   2.30242
 Alpha virt. eigenvalues --    2.34485   2.37003   2.38845   2.48945   2.58815
 Alpha virt. eigenvalues --    2.64155   2.68869   2.73741   2.77736   2.94755
 Alpha virt. eigenvalues --    3.06002   3.11507   3.75639   4.01241   4.11931
 Alpha virt. eigenvalues --    4.18676   4.32380   4.51848
          Condensed to atoms (all electrons):
               1          2          3          4          5          6
     1  C    4.606648   0.590128  -0.035722  -0.041581   0.003581  -0.090432
     2  C    0.590128   5.042451   0.357975   0.458656  -0.040754  -0.027873
     3  H   -0.035722   0.357975   0.554924  -0.032373  -0.000429   0.004555
     4  C   -0.041581   0.458656  -0.032373   4.826109   0.367215   0.443526
     5  H    0.003581  -0.040754  -0.000429   0.367215   0.546816  -0.044326
     6  N   -0.090432  -0.027873   0.004555   0.443526  -0.044326   6.711327
     7  O    0.256525  -0.050411   0.004067  -0.080274   0.005099   0.162000
     8  C    0.372570  -0.060800  -0.001179   0.004780  -0.000142   0.004762
     9  H   -0.024622  -0.002290   0.001121   0.000126  -0.000006  -0.000133
    10  H   -0.025242   0.001111  -0.000003  -0.000061   0.000003   0.000039
    11  H   -0.025277   0.001080  -0.000003  -0.000061   0.000003   0.000039
               7          8          9         10         11
     1  C    0.256525   0.372570  -0.024622  -0.025242  -0.025277
     2  C   -0.050411  -0.060800  -0.002290   0.001111   0.001080
     3  H    0.004067  -0.001179   0.001121  -0.000003  -0.000003
     4  C   -0.080274   0.004780   0.000126  -0.000061  -0.000061
     5  H    0.005099  -0.000142  -0.000006   0.000003   0.000003
     6  N    0.162000   0.004762  -0.000133   0.000039   0.000039
     7  O    8.117592  -0.053436   0.002343  -0.000234  -0.000237
     8  C   -0.053436   5.164800   0.367750   0.362456   0.362482
     9  H    0.002343   0.367750   0.534872  -0.025718  -0.025740
    10  H   -0.000234   0.362456  -0.025718   0.532834  -0.030267
    11  H   -0.000237   0.362482  -0.025740  -0.030267   0.532901
 Mulliken charges:
               1
     1  C    0.413425
     2  C   -0.269271
     3  H    0.147066
     4  C    0.053940
     5  H    0.162941
     6  N   -0.163483
     7  O   -0.363034
     8  C   -0.524042
     9  H    0.172298
    10  H    0.185081
    11  H    0.185080
 Sum of Mulliken charges =   0.00000
 Mulliken charges with hydrogens summed into heavy atoms:
               1
     1  C    0.413425
     2  C   -0.122205
     4  C    0.216880
     6  N   -0.163483
     7  O   -0.363034
     8  C    0.018417
 APT charges:
               1
     1  C    0.364035
     2  C   -0.231841
     3  H    0.079532
     4  C    0.208616
     5  H    0.060985
     6  N   -0.161694
     7  O   -0.384570
     8  C    0.063347
     9  H    0.007613
    10  H   -0.002921
    11  H   -0.003101
 Sum of APT charges =   0.00000
 APT charges with hydrogens summed into heavy atoms:
               1
     1  C    0.364035
     2  C   -0.152309
     4  C    0.269601
     6  N   -0.161694
     7  O   -0.384570
     8  C    0.064938
 Electronic spatial extent (au):  <R**2>=            486.1307
 Charge=              0.0000 electrons
 Dipole moment (field-independent basis, Debye):
    X=              1.8948    Y=              2.5826    Z=              0.0002  Tot=              3.2031
 Quadrupole moment (field-independent basis, Debye-Ang):
   XX=            -31.1171   YY=            -35.2003   ZZ=            -35.5484
   XY=             -3.5356   XZ=              0.0002   YZ=              0.0001
 Traceless Quadrupole moment (field-independent basis, Debye-Ang):
   XX=              2.8382   YY=             -1.2451   ZZ=             -1.5932
   XY=             -3.5356   XZ=              0.0002   YZ=              0.0001
 Octapole moment (field-independent basis, Debye-Ang**2):
  XXX=              2.3659  YYY=              3.8821  ZZZ=              0.0054  XYY=              2.7806
  XXY=              5.7346  XXZ=              0.0005  XZZ=              1.8693  YZZ=             -3.5238
  YYZ=             -0.0049  XYZ=             -0.0003
 Hexadecapole moment (field-independent basis, Debye-Ang**3):
 XXXX=           -404.8463 YYYY=           -160.7335 ZZZZ=            -39.9112 XXXY=            -17.7672
 XXXZ=              0.0003 YYYX=             -2.2107 YYYZ=              0.0005 ZZZX=              0.0137
 ZZZY=             -0.0000 XXYY=            -99.4740 XXZZ=            -77.6644 YYZZ=            -36.5047
 XXYZ=             -0.0005 YYXZ=             -0.0132 ZZXY=             -1.4754
 N-N= 2.234000398912D+02 E-N=-1.111357784333D+03  KE= 2.827509720931D+02
  Exact polarizability:  62.912  -2.748  48.572   0.003  -0.000  26.010
 Approx polarizability:  92.952  -4.341  86.390   0.003  -0.000  37.814
 Calling FoFJK, ICntrl=    100127 FMM=F ISym2X=0 I1Cent= 0 IOpClX= 0 NMat=1 NMatS=1 NMatT=0.
 ***** Axes restored to original set *****
 -------------------------------------------------------------------
 Center     Atomic                   Forces (Hartrees/Bohr)
 Number     Number              X              Y              Z
 -------------------------------------------------------------------
      1        6          -0.000016508   -0.000167626    0.000011565
      2        6          -0.000372653   -0.000190542   -0.000013937
      3        1           0.000007900    0.000057287   -0.000001573
      4        6           0.000390046    0.000326525    0.000011028
      5        1          -0.000015600   -0.000035008    0.000000168
      6        7          -0.000374928   -0.000129516   -0.000005073
      7        8           0.000373469    0.000172503   -0.000002007
      8        6          -0.000122112   -0.000025523    0.000001692
      9        1           0.000010768   -0.000006359    0.000001312
     10        1           0.000059809    0.000000916   -0.000018902
     11        1           0.000059809   -0.000002657    0.000015728
 -------------------------------------------------------------------
 Cartesian Forces:  Max     0.000390046 RMS     0.000157410
 FormGI is forming the generalized inverse of G from B-inverse, IUseBI=4.

 GradGradGradGradGradGradGradGradGradGradGradGradGradGradGradGradGradGrad
 Berny optimization.
 Internal  Forces:  Max     0.000320534 RMS     0.000078758
 Search for a local minimum.
 Step number   1 out of a maximum of   57
 All quantities printed in internal units (Hartrees-Bohrs-Radians)
 Mixed Optimization -- En-DIIS/RFO-DIIS
 Second derivative matrix not updated -- analytic derivatives used.
 ITU=  0
     Eigenvalues ---    0.00071   0.01117   0.01506   0.02734   0.04776
     Eigenvalues ---    0.05821   0.05872   0.06060   0.09583   0.10939
     Eigenvalues ---    0.12222   0.12943   0.15177   0.16252   0.19270
     Eigenvalues ---    0.27109   0.29617   0.32601   0.33738   0.34487
     Eigenvalues ---    0.35134   0.36213   0.37914   0.38577   0.45073
     Eigenvalues ---    0.52253   0.57948
 RFO step:  Lambda=-1.29120627D-06 EMin= 7.05497491D-04
 Linear search not attempted -- first point.
 Iteration  1 RMS(Cart)=  0.00116797 RMS(Int)=  0.00000102
 Iteration  2 RMS(Cart)=  0.00000105 RMS(Int)=  0.00000004
 Iteration  3 RMS(Cart)=  0.00000000 RMS(Int)=  0.00000004
 Variable       Old X    -DE/DX   Delta X   Delta X   Delta X     New X
                                 (Linear)    (Quad)   (Total)
    R1        2.57820   0.00008   0.00000   0.00032   0.00032   2.57852
    R2        2.55425  -0.00020   0.00000  -0.00080  -0.00080   2.55345
    R3        2.81619   0.00001   0.00000  -0.00003  -0.00003   2.81616
    R4        2.04011   0.00006   0.00000   0.00016   0.00016   2.04027
    R5        2.68781  -0.00032   0.00000  -0.00110  -0.00110   2.68671
    R6        2.04691  -0.00000   0.00000   0.00003   0.00003   2.04694
    R7        2.47873   0.00012   0.00000   0.00036   0.00036   2.47909
    R8        2.64877   0.00027   0.00000   0.00139   0.00139   2.65016
    R9        2.06502  -0.00000   0.00000   0.00003   0.00003   2.06504
   R10        2.07097   0.00003   0.00000   0.00013   0.00013   2.07110
   R11        2.07102   0.00003   0.00000   0.00008   0.00008   2.07110
    A1        1.90896  -0.00001   0.00000   0.00009   0.00009   1.90904
    A2        2.33580   0.00001   0.00000  -0.00029  -0.00029   2.33550
    A3        2.03843   0.00000   0.00000   0.00021   0.00021   2.03864
    A4        2.23266  -0.00003   0.00000  -0.00011  -0.00011   2.23255
    A5        1.80919   0.00007   0.00000   0.00014   0.00014   1.80933
    A6        2.24133  -0.00004   0.00000  -0.00003  -0.00003   2.24131
    A7        2.24579   0.00001   0.00000   0.00023   0.00023   2.24602
    A8        1.96391   0.00006   0.00000   0.00044   0.00044   1.96435
    A9        2.07349  -0.00007   0.00000  -0.00068  -0.00068   2.07282
   A10        1.83008  -0.00013   0.00000  -0.00067  -0.00067   1.82941
   A11        1.91264   0.00000   0.00000  -0.00000  -0.00000   1.91264
   A12        1.92350  -0.00001   0.00000  -0.00011  -0.00011   1.92339
   A13        1.93624   0.00006   0.00000   0.00049   0.00049   1.93674
   A14        1.93630   0.00006   0.00000   0.00044   0.00044   1.93674
   A15        1.89478  -0.00004   0.00000  -0.00039  -0.00039   1.89440
   A16        1.89468  -0.00004   0.00000  -0.00029  -0.00029   1.89439
   A17        1.87691  -0.00004   0.00000  -0.00018  -0.00018   1.87673
    D1        3.14158   0.00000   0.00000   0.00001   0.00001  -3.14159
    D2       -0.00009   0.00000   0.00000   0.00009   0.00009   0.00000
    D3        0.00028  -0.00000   0.00000  -0.00028  -0.00028   0.00000
    D4       -3.14139   0.00000   0.00000  -0.00020  -0.00020  -3.14159
    D5        0.00006  -0.00000   0.00000  -0.00006  -0.00006   0.00000
    D6        3.14142  -0.00000   0.00000   0.00017   0.00017   3.14159
    D7       -0.00287   0.00000   0.00000   0.00285   0.00285  -0.00002
    D8       -2.10196   0.00002   0.00000   0.00308   0.00308  -2.09888
    D9        2.09613  -0.00001   0.00000   0.00270   0.00270   2.09884
   D10        3.13903   0.00000   0.00000   0.00254   0.00254   3.14157
   D11        1.03994   0.00001   0.00000   0.00278   0.00278   1.04272
   D12       -1.04515  -0.00001   0.00000   0.00240   0.00240  -1.04276
   D13       -3.14154  -0.00000   0.00000  -0.00005  -0.00005  -3.14159
   D14        0.00009  -0.00001   0.00000  -0.00009  -0.00009  -0.00000
   D15       -0.00003   0.00000   0.00000   0.00003   0.00003  -0.00000
   D16       -3.14158  -0.00000   0.00000  -0.00001  -0.00001   3.14159
   D17       -0.00005   0.00000   0.00000   0.00005   0.00005   0.00000
   D18        3.14157   0.00000   0.00000   0.00002   0.00002   3.14159
   D19       -0.00001  -0.00000   0.00000   0.00001   0.00001  -0.00000
         Item               Value     Threshold  Converged?
 Maximum Force            0.000321     0.000450     YES
 RMS     Force            0.000079     0.000300     YES
 Maximum Displacement     0.003664     0.001800     NO 
 RMS     Displacement     0.001168     0.001200     YES
 Predicted change in Energy=-6.456031D-07
 GradGradGradGradGradGradGradGradGradGradGradGradGradGradGradGradGradGrad

                          Input orientation:                          
 ---------------------------------------------------------------------
 Center     Atomic      Atomic             Coordinates (Angstroms)
 Number     Number       Type             X           Y           Z
 ---------------------------------------------------------------------
      1          6           0        0.621752    0.110556    0.000137
      2          6           0       -0.257635    1.153876   -0.000593
      3          1           0       -0.033938    2.210113   -0.001423
      4          6           0       -1.530450    0.520396   -0.000004
      5          1           0       -2.513329    0.975654   -0.000274
      6          7           0       -1.440981   -0.788429    0.000994
      7          8           0       -0.063909   -1.053783    0.001086
      8          6           0        2.108914    0.014700    0.000091
      9          1           0        2.551472    1.013848   -0.000733
     10          1           0        2.467033   -0.525808   -0.883520
     11          1           0        2.467178   -0.524414    0.884494
 ---------------------------------------------------------------------
                    Distance matrix (angstroms):
                    1          2          3          4          5
     1  C    0.000000
     2  C    1.364493   0.000000
     3  H    2.199562   1.079665   0.000000
     4  C    2.190877   1.421744   2.257143   0.000000
     5  H    3.252250   2.262724   2.769706   1.083195   0.000000
     6  N    2.250120   2.274392   3.312254   1.311880   2.064442
     7  O    1.351228   2.216144   3.264034   2.151461   3.180923
     8  C    1.490248   2.626457   3.067842   3.674329   4.721076
     9  H    2.130670   2.812594   2.848753   4.111639   5.064944
    10  H    2.142631   3.320349   3.810277   4.225519   5.276222
    11  H    2.142632   3.320338   3.810258   4.225517   5.276217
                    6          7          8          9         10
     6  N    0.000000
     7  O    1.402405   0.000000
     8  C    3.639611   2.421325   0.000000
     9  H    4.380397   3.333964   1.092774   0.000000
    10  H    4.015458   2.732573   1.095977   1.776790   0.000000
    11  H    4.015468   2.732589   1.095978   1.776790   1.768015
                   11
    11  H    0.000000
 Stoichiometry    C4H5NO
 Framework group  C1[X(C4H5NO)]
 Deg. of freedom    27
 Full point group                 C1      NOp   1
 Largest Abelian subgroup         C1      NOp   1
 Largest concise Abelian subgroup C1      NOp   1
                         Standard orientation:                         
 ---------------------------------------------------------------------
 Center     Atomic      Atomic             Coordinates (Angstroms)
 Number     Number       Type             X           Y           Z
 ---------------------------------------------------------------------
      1          6           0        0.621841    0.110661   -0.000000
      2          6           0       -0.257619    1.153920   -0.000000
      3          1           0       -0.033996    2.210172   -0.000001
      4          6           0       -1.530390    0.520351    0.000000
      5          1           0       -2.513301    0.975540    0.000000
      6          7           0       -1.440829   -0.788468    0.000000
      7          8           0       -0.063739   -1.053726   -0.000000
      8          6           0        2.109009    0.014909    0.000000
      9          1           0        2.551497    1.014088   -0.000021
     10          1           0        2.467237   -0.524896   -0.883996
     11          1           0        2.467240   -0.524859    0.884018
 ---------------------------------------------------------------------
 Rotational constants (GHZ):           9.2370141           3.5440966           2.6029070
 Standard basis: 6-31G(d) (6D, 7F)
 There are   100 symmetry adapted cartesian basis functions of A   symmetry.
 There are   100 symmetry adapted basis functions of A   symmetry.
   100 basis functions,   188 primitive gaussians,   100 cartesian basis functions
    22 alpha electrons       22 beta electrons
       nuclear repulsion energy       223.3950813812 Hartrees.
 NAtoms=   11 NActive=   11 NUniq=   11 SFac= 1.00D+00 NAtFMM=   60 NAOKFM=F Big=F
 Integral buffers will be    131072 words long.
 Raffenetti 2 integral format.
 Two-electron integral symmetry is turned on.
 One-electron integrals computed using PRISM.
 NBasis=   100 RedAO= T EigKep=  1.38D-03  NBF=   100
 NBsUse=   100 1.00D-06 EigRej= -1.00D+00 NBFU=   100
 Initial guess from the checkpoint file:  "6_1.chk"
 B after Tr=     0.000000   -0.000000    0.000000
         Rot=    1.000000   -0.000132    0.000002   -0.000008 Ang=  -0.02 deg.
 Keep R1 ints in memory in canonical form, NReq=15530881.
 LinEq1:  Iter=  0 NonCon=     1 RMS=2.64D-05 Max=2.74D-04 NDo=     1
 AX will form     1 AO Fock derivatives at one time.
 LinEq1:  Iter=  1 NonCon=     1 RMS=6.78D-06 Max=1.43D-04 NDo=     1
 LinEq1:  Iter=  2 NonCon=     1 RMS=3.53D-06 Max=5.91D-05 NDo=     1
 LinEq1:  Iter=  3 NonCon=     1 RMS=2.66D-06 Max=6.40D-05 NDo=     1
 LinEq1:  Iter=  4 NonCon=     1 RMS=1.29D-06 Max=1.86D-05 NDo=     1
 LinEq1:  Iter=  5 NonCon=     1 RMS=5.36D-07 Max=5.75D-06 NDo=     1
 LinEq1:  Iter=  6 NonCon=     1 RMS=3.47D-07 Max=7.64D-06 NDo=     1
 LinEq1:  Iter=  7 NonCon=     1 RMS=2.62D-07 Max=2.14D-06 NDo=     1
 LinEq1:  Iter=  8 NonCon=     1 RMS=9.02D-08 Max=6.77D-07 NDo=     1
 LinEq1:  Iter=  9 NonCon=     1 RMS=2.30D-08 Max=1.90D-07 NDo=     1
 LinEq1:  Iter= 10 NonCon=     1 RMS=9.20D-09 Max=9.15D-08 NDo=     1
 LinEq1:  Iter= 11 NonCon=     1 RMS=3.75D-09 Max=7.09D-08 NDo=     1
 LinEq1:  Iter= 12 NonCon=     0 RMS=1.77D-09 Max=2.15D-08 NDo=     1
 Linear equations converged to 5.858D-09 5.858D-08 after    12 iterations.
     Minimum is close to point  2 DX=  4.44D-06 DF=  0.00D+00 DXR=  4.44D-06 DFR=  0.00D+00 which will be used.
 SCF Done:  E(RB3LYP) =  -285.359308970     a.u. after    2 cycles
            Convg  =    0.1340D-06                    15 Fock formations.
              S**2 =  0.0000                  -V/T =  2.0092
 DoSCS=F DFT=T ScalE2(SS,OS)=  1.000000  1.000000
 Range of M.O.s used for correlation:     1   100
 NBasis=   100 NAE=    22 NBE=    22 NFC=     0 NFV=     0
 NROrb=    100 NOA=    22 NOB=    22 NVA=    78 NVB=    78
 Symmetrizing basis deriv contribution to polar:
 IMax=3 JMax=2 DiffMx= 0.00D+00
 G2DrvN: will do    12 centers at a time, making    1 passes.
 Calling FoFCou, ICntrl=  3107 FMM=F I1Cent=   0 AccDes= 0.00D+00.
 End of G2Drv F.D. properties file   721 does not exist.
 End of G2Drv F.D. properties file   722 does not exist.
 End of G2Drv F.D. properties file   788 does not exist.
          IDoAtm=11111111111
          Differentiating once with respect to electric field.
                with respect to dipole field.
          Differentiating once with respect to nuclear coordinates.
 Keep R1 ints in memory in canonical form, NReq=15530728.
          There are    36 degrees of freedom in the 1st order CPHF.  IDoFFX=6 NUNeed=     3.
     33 vectors produced by pass  0 Test12= 4.77D-15 2.78D-09 XBig12= 5.91D+01 5.48D+00.
 AX will form    33 AO Fock derivatives at one time.
     33 vectors produced by pass  1 Test12= 4.77D-15 2.78D-09 XBig12= 1.86D+01 1.24D+00.
     33 vectors produced by pass  2 Test12= 4.77D-15 2.78D-09 XBig12= 1.44D-01 7.24D-02.
     33 vectors produced by pass  3 Test12= 4.77D-15 2.78D-09 XBig12= 5.46D-04 4.47D-03.
     33 vectors produced by pass  4 Test12= 4.77D-15 2.78D-09 XBig12= 8.10D-07 1.24D-04.
     25 vectors produced by pass  5 Test12= 4.77D-15 2.78D-09 XBig12= 5.07D-10 3.06D-06.
      3 vectors produced by pass  6 Test12= 4.77D-15 2.78D-09 XBig12= 3.54D-13 1.07D-07.
      1 vectors produced by pass  7 Test12= 4.77D-15 2.78D-09 XBig12= 2.13D-16 2.91D-09.
 InvSVY:  IOpt=1 It=  1 EMax= 2.66D-15
 Solved reduced A of dimension   194 with    36 vectors.
 Isotropic polarizability for W=    0.000000       45.84 Bohr**3.
 End of Minotr F.D. properties file   721 does not exist.
 End of Minotr F.D. properties file   722 does not exist.
 End of Minotr F.D. properties file   788 does not exist.
 Calling FoFJK, ICntrl=    100127 FMM=F ISym2X=0 I1Cent= 0 IOpClX= 0 NMat=1 NMatS=1 NMatT=0.
 ***** Axes restored to original set *****
 -------------------------------------------------------------------
 Center     Atomic                   Forces (Hartrees/Bohr)
 Number     Number              X              Y              Z
 -------------------------------------------------------------------
      1        6           0.000000274    0.000000271   -0.000000050
      2        6           0.000000224    0.000000208   -0.000000027
      3        1          -0.000000475   -0.000000114    0.000000018
      4        6          -0.000000644   -0.000000620   -0.000000023
      5        1          -0.000000154   -0.000000715    0.000000006
      6        7          -0.000000581   -0.000000393    0.000000032
      7        8           0.000001005   -0.000000605    0.000000021
      8        6           0.000000127    0.000000355    0.000000031
      9        1          -0.000000164    0.000000501    0.000000015
     10        1           0.000000190    0.000000568    0.000000031
     11        1           0.000000198    0.000000544   -0.000000053
 -------------------------------------------------------------------
 Cartesian Forces:  Max     0.000001005 RMS     0.000000382
 FormGI is forming the generalized inverse of G from B-inverse, IUseBI=4.

 GradGradGradGradGradGradGradGradGradGradGradGradGradGradGradGradGradGrad
 Berny optimization.
 Using GEDIIS/GDIIS optimizer.
 Internal  Forces:  Max     0.000000850 RMS     0.000000168
 Search for a local minimum.
 Step number   2 out of a maximum of   57
 All quantities printed in internal units (Hartrees-Bohrs-Radians)
 Mixed Optimization -- En-DIIS/RFO-DIIS
 Swapping is turned off.
 Second derivative matrix not updated -- analytic derivatives used.
 DE= -6.47D-07 DEPred=-6.46D-07 R= 1.00D+00
 Trust test= 1.00D+00 RLast= 7.15D-03 DXMaxT set to 3.00D-01
 ITU=  0  0
     Eigenvalues ---    0.00071   0.01117   0.01506   0.02734   0.04776
     Eigenvalues ---    0.05821   0.05870   0.06059   0.09587   0.10942
     Eigenvalues ---    0.12223   0.12938   0.15172   0.16228   0.19236
     Eigenvalues ---    0.27134   0.29608   0.32597   0.33727   0.34478
     Eigenvalues ---    0.35130   0.36238   0.37911   0.38579   0.45104
     Eigenvalues ---    0.52235   0.57908
 En-DIIS/RFO-DIIS/Sim-DIIS IScMMF=       -3 using points:     2    1
 RFO step:  Lambda=-3.69621587D-12.
 DidBck=F Rises=F RFO-DIIS coefs:    1.00660   -0.00660
 Iteration  1 RMS(Cart)=  0.00000832 RMS(Int)=  0.00000000
 Iteration  2 RMS(Cart)=  0.00000000 RMS(Int)=  0.00000000
 Variable       Old X    -DE/DX   Delta X   Delta X   Delta X     New X
                                 (Linear)    (Quad)   (Total)
    R1        2.57852   0.00000   0.00000  -0.00000   0.00000   2.57852
    R2        2.55345   0.00000  -0.00001   0.00001   0.00000   2.55345
    R3        2.81616   0.00000  -0.00000   0.00000   0.00000   2.81616
    R4        2.04027  -0.00000   0.00000  -0.00000  -0.00000   2.04027
    R5        2.68671   0.00000  -0.00001   0.00001   0.00000   2.68671
    R6        2.04694  -0.00000   0.00000  -0.00000  -0.00000   2.04694
    R7        2.47909   0.00000   0.00000  -0.00000  -0.00000   2.47909
    R8        2.65016   0.00000   0.00001  -0.00001   0.00000   2.65016
    R9        2.06504  -0.00000   0.00000  -0.00000  -0.00000   2.06504
   R10        2.07110  -0.00000   0.00000  -0.00000  -0.00000   2.07110
   R11        2.07110  -0.00000   0.00000  -0.00000  -0.00000   2.07110
    A1        1.90904   0.00000   0.00000  -0.00000   0.00000   1.90905
    A2        2.33550  -0.00000  -0.00000   0.00000  -0.00000   2.33550
    A3        2.03864  -0.00000   0.00000  -0.00000  -0.00000   2.03864
    A4        2.23255  -0.00000  -0.00000   0.00000   0.00000   2.23255
    A5        1.80933   0.00000   0.00000  -0.00000   0.00000   1.80933
    A6        2.24131  -0.00000  -0.00000   0.00000  -0.00000   2.24131
    A7        2.24602  -0.00000   0.00000  -0.00000  -0.00000   2.24602
    A8        1.96435   0.00000   0.00000  -0.00000   0.00000   1.96435
    A9        2.07282   0.00000  -0.00000   0.00000  -0.00000   2.07282
   A10        1.82941  -0.00000  -0.00000   0.00000  -0.00000   1.82941
   A11        1.91264  -0.00000  -0.00000  -0.00000  -0.00000   1.91264
   A12        1.92339   0.00000  -0.00000   0.00000   0.00000   1.92339
   A13        1.93674   0.00000   0.00000  -0.00000   0.00000   1.93674
   A14        1.93674   0.00000   0.00000  -0.00000  -0.00000   1.93674
   A15        1.89440  -0.00000  -0.00000   0.00000  -0.00000   1.89439
   A16        1.89439  -0.00000  -0.00000   0.00000   0.00000   1.89439
   A17        1.87673  -0.00000  -0.00000   0.00000   0.00000   1.87673
    D1       -3.14159  -0.00000   0.00000  -0.00000  -0.00000   3.14159
    D2        0.00000  -0.00000   0.00000  -0.00000  -0.00000   0.00000
    D3        0.00000   0.00000  -0.00000   0.00000  -0.00000   0.00000
    D4       -3.14159   0.00000  -0.00000   0.00000  -0.00000  -3.14159
    D5        0.00000  -0.00000  -0.00000   0.00000  -0.00000  -0.00000
    D6        3.14159  -0.00000   0.00000  -0.00000   0.00000   3.14159
    D7       -0.00002   0.00000   0.00002   0.00000   0.00002  -0.00000
    D8       -2.09888   0.00000   0.00002   0.00000   0.00002  -2.09886
    D9        2.09884   0.00000   0.00002   0.00000   0.00002   2.09886
   D10        3.14157   0.00000   0.00002   0.00000   0.00002   3.14159
   D11        1.04272   0.00000   0.00002   0.00000   0.00002   1.04274
   D12       -1.04276   0.00000   0.00002   0.00000   0.00002  -1.04274
   D13       -3.14159  -0.00000  -0.00000   0.00000  -0.00000  -3.14159
   D14       -0.00000   0.00000  -0.00000   0.00000   0.00000   0.00000
   D15       -0.00000   0.00000   0.00000   0.00000   0.00000   0.00000
   D16        3.14159   0.00000  -0.00000   0.00000   0.00000  -3.14159
   D17        0.00000  -0.00000   0.00000  -0.00000  -0.00000  -0.00000
   D18        3.14159   0.00000   0.00000   0.00000   0.00000   3.14159
   D19       -0.00000   0.00000   0.00000   0.00000   0.00000   0.00000
         Item               Value     Threshold  Converged?
 Maximum Force            0.000001     0.000450     YES
 RMS     Force            0.000000     0.000300     YES
 Maximum Displacement     0.000028     0.001800     YES
 RMS     Displacement     0.000008     0.001200     YES
 Predicted change in Energy=-3.077311D-12
 Optimization completed.
    -- Stationary point found.
                           ----------------------------
                           !   Optimized Parameters   !
                           ! (Angstroms and Degrees)  !
 --------------------------                            --------------------------
 ! Name  Definition              Value          Derivative Info.                !
 --------------------------------------------------------------------------------
 ! R1    R(1,2)                  1.3645         -DE/DX =    0.0                 !
 ! R2    R(1,7)                  1.3512         -DE/DX =    0.0                 !
 ! R3    R(1,8)                  1.4902         -DE/DX =    0.0                 !
 ! R4    R(2,3)                  1.0797         -DE/DX =    0.0                 !
 ! R5    R(2,4)                  1.4217         -DE/DX =    0.0                 !
 ! R6    R(4,5)                  1.0832         -DE/DX =    0.0                 !
 ! R7    R(4,6)                  1.3119         -DE/DX =    0.0                 !
 ! R8    R(6,7)                  1.4024         -DE/DX =    0.0                 !
 ! R9    R(8,9)                  1.0928         -DE/DX =    0.0                 !
 ! R10   R(8,10)                 1.096          -DE/DX =    0.0                 !
 ! R11   R(8,11)                 1.096          -DE/DX =    0.0                 !
 ! A1    A(2,1,7)              109.3802         -DE/DX =    0.0                 !
 ! A2    A(2,1,8)              133.8145         -DE/DX =    0.0                 !
 ! A3    A(7,1,8)              116.8053         -DE/DX =    0.0                 !
 ! A4    A(1,2,3)              127.9156         -DE/DX =    0.0                 !
 ! A5    A(1,2,4)              103.6671         -DE/DX =    0.0                 !
 ! A6    A(3,2,4)              128.4173         -DE/DX =    0.0                 !
 ! A7    A(2,4,5)              128.6874         -DE/DX =    0.0                 !
 ! A8    A(2,4,6)              112.549          -DE/DX =    0.0                 !
 ! A9    A(5,4,6)              118.7636         -DE/DX =    0.0                 !
 ! A10   A(4,6,7)              104.8175         -DE/DX =    0.0                 !
 ! A11   A(1,7,6)              109.5863         -DE/DX =    0.0                 !
 ! A12   A(1,8,9)              110.2023         -DE/DX =    0.0                 !
 ! A13   A(1,8,10)             110.9669         -DE/DX =    0.0                 !
 ! A14   A(1,8,11)             110.9669         -DE/DX =    0.0                 !
 ! A15   A(9,8,10)             108.5408         -DE/DX =    0.0                 !
 ! A16   A(9,8,11)             108.5408         -DE/DX =    0.0                 !
 ! A17   A(10,8,11)            107.5287         -DE/DX =    0.0                 !
 ! D1    D(7,1,2,3)            180.0            -DE/DX =    0.0                 !
 ! D2    D(7,1,2,4)              0.0            -DE/DX =    0.0                 !
 ! D3    D(8,1,2,3)              0.0001         -DE/DX =    0.0                 !
 ! D4    D(8,1,2,4)           -179.9999         -DE/DX =    0.0                 !
 ! D5    D(2,1,7,6)              0.0            -DE/DX =    0.0                 !
 ! D6    D(8,1,7,6)            180.0            -DE/DX =    0.0                 !
 ! D7    D(2,1,8,9)             -0.0012         -DE/DX =    0.0                 !
 ! D8    D(2,1,8,10)          -120.2568         -DE/DX =    0.0                 !
 ! D9    D(2,1,8,11)           120.2544         -DE/DX =    0.0                 !
 ! D10   D(7,1,8,9)            179.9988         -DE/DX =    0.0                 !
 ! D11   D(7,1,8,10)            59.7432         -DE/DX =    0.0                 !
 ! D12   D(7,1,8,11)           -59.7456         -DE/DX =    0.0                 !
 ! D13   D(1,2,4,5)           -180.0            -DE/DX =    0.0                 !
 ! D14   D(1,2,4,6)              0.0            -DE/DX =    0.0                 !
 ! D15   D(3,2,4,5)              0.0            -DE/DX =    0.0                 !
 ! D16   D(3,2,4,6)           -180.0001         -DE/DX =    0.0                 !
 ! D17   D(2,4,6,7)              0.0            -DE/DX =    0.0                 !
 ! D18   D(5,4,6,7)            180.0            -DE/DX =    0.0                 !
 ! D19   D(4,6,7,1)              0.0            -DE/DX =    0.0                 !
 --------------------------------------------------------------------------------
 GradGradGradGradGradGradGradGradGradGradGradGradGradGradGradGradGradGrad

                          Input orientation:                          
 ---------------------------------------------------------------------
 Center     Atomic      Atomic             Coordinates (Angstroms)
 Number     Number       Type             X           Y           Z
 ---------------------------------------------------------------------
      1          6           0        0.621752    0.110556    0.000137
      2          6           0       -0.257635    1.153876   -0.000593
      3          1           0       -0.033938    2.210113   -0.001423
      4          6           0       -1.530450    0.520396   -0.000004
      5          1           0       -2.513329    0.975654   -0.000274
      6          7           0       -1.440981   -0.788429    0.000994
      7          8           0       -0.063909   -1.053783    0.001086
      8          6           0        2.108914    0.014700    0.000091
      9          1           0        2.551472    1.013848   -0.000733
     10          1           0        2.467033   -0.525808   -0.883520
     11          1           0        2.467178   -0.524414    0.884494
 ---------------------------------------------------------------------
                    Distance matrix (angstroms):
                    1          2          3          4          5
     1  C    0.000000
     2  C    1.364493   0.000000
     3  H    2.199562   1.079665   0.000000
     4  C    2.190877   1.421744   2.257143   0.000000
     5  H    3.252250   2.262724   2.769706   1.083195   0.000000
     6  N    2.250120   2.274392   3.312254   1.311880   2.064442
     7  O    1.351228   2.216144   3.264034   2.151461   3.180923
     8  C    1.490248   2.626457   3.067842   3.674329   4.721076
     9  H    2.130670   2.812594   2.848753   4.111639   5.064944
    10  H    2.142631   3.320349   3.810277   4.225519   5.276222
    11  H    2.142632   3.320338   3.810258   4.225517   5.276217
                    6          7          8          9         10
     6  N    0.000000
     7  O    1.402405   0.000000
     8  C    3.639611   2.421325   0.000000
     9  H    4.380397   3.333964   1.092774   0.000000
    10  H    4.015458   2.732573   1.095977   1.776790   0.000000
    11  H    4.015468   2.732589   1.095978   1.776790   1.768015
                   11
    11  H    0.000000
 Stoichiometry    C4H5NO
 Framework group  C1[X(C4H5NO)]
 Deg. of freedom    27
 Full point group                 C1      NOp   1
 Largest Abelian subgroup         C1      NOp   1
 Largest concise Abelian subgroup C1      NOp   1
                         Standard orientation:                         
 ---------------------------------------------------------------------
 Center     Atomic      Atomic             Coordinates (Angstroms)
 Number     Number       Type             X           Y           Z
 ---------------------------------------------------------------------
      1          6           0        0.621841    0.110661   -0.000000
      2          6           0       -0.257619    1.153920   -0.000000
      3          1           0       -0.033996    2.210172   -0.000001
      4          6           0       -1.530390    0.520351    0.000000
      5          1           0       -2.513301    0.975540    0.000000
      6          7           0       -1.440829   -0.788468    0.000000
      7          8           0       -0.063739   -1.053726   -0.000000
      8          6           0        2.109009    0.014909    0.000000
      9          1           0        2.551497    1.014088   -0.000021
     10          1           0        2.467237   -0.524896   -0.883996
     11          1           0        2.467240   -0.524859    0.884018
 ---------------------------------------------------------------------
 Rotational constants (GHZ):           9.2370141           3.5440966           2.6029070

 **********************************************************************

            Population analysis using the SCF density.

 **********************************************************************

 Orbital symmetries:
       Occupied  (A) (A) (A) (A) (A) (A) (A) (A) (A) (A) (A) (A)
                 (A) (A) (A) (A) (A) (A) (A) (A) (A) (A)
       Virtual   (A) (A) (A) (A) (A) (A) (A) (A) (A) (A) (A) (A)
                 (A) (A) (A) (A) (A) (A) (A) (A) (A) (A) (A) (A)
                 (A) (A) (A) (A) (A) (A) (A) (A) (A) (A) (A) (A)
                 (A) (A) (A) (A) (A) (A) (A) (A) (A) (A) (A) (A)
                 (A) (A) (A) (A) (A) (A) (A) (A) (A) (A) (A) (A)
                 (A) (A) (A) (A) (A) (A) (A) (A) (A) (A) (A) (A)
                 (A) (A) (A) (A) (A) (A)
 The electronic state is 1-A.
 Alpha  occ. eigenvalues --  -19.22874 -14.37522 -10.26051 -10.22247 -10.20764
 Alpha  occ. eigenvalues --  -10.19465  -1.13343  -0.86532  -0.80566  -0.72342
 Alpha  occ. eigenvalues --   -0.61560  -0.57613  -0.51157  -0.47294  -0.45329
 Alpha  occ. eigenvalues --   -0.42392  -0.41752  -0.39802  -0.38069  -0.30097
 Alpha  occ. eigenvalues --   -0.29582  -0.25381
 Alpha virt. eigenvalues --   -0.00877   0.06488   0.08926   0.11325   0.13717
 Alpha virt. eigenvalues --    0.14785   0.16719   0.16858   0.21612   0.23267
 Alpha virt. eigenvalues --    0.28328   0.38527   0.42982   0.49725   0.51438
 Alpha virt. eigenvalues --    0.54741   0.56302   0.57443   0.59151   0.63054
 Alpha virt. eigenvalues --    0.64600   0.66506   0.67767   0.72046   0.76264
 Alpha virt. eigenvalues --    0.79191   0.81944   0.82283   0.85543   0.85957
 Alpha virt. eigenvalues --    0.87908   0.92774   0.93635   0.99573   1.00849
 Alpha virt. eigenvalues --    1.07455   1.08014   1.13084   1.31354   1.37250
 Alpha virt. eigenvalues --    1.37543   1.38329   1.43298   1.48619   1.49772
 Alpha virt. eigenvalues --    1.57815   1.62883   1.64859   1.80436   1.83009
 Alpha virt. eigenvalues --    1.88896   1.93725   1.94965   2.00794   2.14867
 Alpha virt. eigenvalues --    2.16829   2.18736   2.18902   2.22999   2.30236
 Alpha virt. eigenvalues --    2.34511   2.37000   2.38830   2.48949   2.58812
 Alpha virt. eigenvalues --    2.64179   2.68859   2.73770   2.77722   2.94723
 Alpha virt. eigenvalues --    3.06040   3.11493   3.75609   4.01242   4.11936
 Alpha virt. eigenvalues --    4.18689   4.32373   4.51850
          Condensed to atoms (all electrons):
               1          2          3          4          5          6
     1  C    4.606236   0.589947  -0.035719  -0.041575   0.003588  -0.090399
     2  C    0.589947   5.042433   0.357946   0.458898  -0.040761  -0.027887
     3  H   -0.035719   0.357946   0.554985  -0.032388  -0.000434   0.004558
     4  C   -0.041575   0.458898  -0.032388   4.825930   0.367200   0.443230
     5  H    0.003588  -0.040761  -0.000434   0.367200   0.546846  -0.044346
     6  N   -0.090399  -0.027887   0.004558   0.443230  -0.044346   6.711979
     7  O    0.256773  -0.050438   0.004068  -0.080170   0.005100   0.161879
     8  C    0.372571  -0.060807  -0.001179   0.004783  -0.000142   0.004759
     9  H   -0.024633  -0.002283   0.001123   0.000126  -0.000006  -0.000133
    10  H   -0.025227   0.001093  -0.000003  -0.000061   0.000003   0.000039
    11  H   -0.025227   0.001093  -0.000003  -0.000061   0.000003   0.000039
               7          8          9         10         11
     1  C    0.256773   0.372571  -0.024633  -0.025227  -0.025227
     2  C   -0.050438  -0.060807  -0.002283   0.001093   0.001093
     3  H    0.004068  -0.001179   0.001123  -0.000003  -0.000003
     4  C   -0.080170   0.004783   0.000126  -0.000061  -0.000061
     5  H    0.005100  -0.000142  -0.000006   0.000003   0.000003
     6  N    0.161879   0.004759  -0.000133   0.000039   0.000039
     7  O    8.117488  -0.053457   0.002344  -0.000237  -0.000237
     8  C   -0.053457   5.164978   0.367725   0.362455   0.362455
     9  H    0.002344   0.367725   0.534927  -0.025744  -0.025744
    10  H   -0.000237   0.362455  -0.025744   0.532875  -0.030276
    11  H   -0.000237   0.362455  -0.025744  -0.030276   0.532875
 Mulliken charges:
               1
     1  C    0.413664
     2  C   -0.269237
     3  H    0.147046
     4  C    0.054089
     5  H    0.162950
     6  N   -0.163718
     7  O   -0.363114
     8  C   -0.524143
     9  H    0.172297
    10  H    0.185083
    11  H    0.185083
 Sum of Mulliken charges =  -0.00000
 Mulliken charges with hydrogens summed into heavy atoms:
               1
     1  C    0.413664
     2  C   -0.122190
     4  C    0.217038
     6  N   -0.163718
     7  O   -0.363114
     8  C    0.018320
 APT charges:
               1
     1  C    0.364355
     2  C   -0.232126
     3  H    0.079495
     4  C    0.208865
     5  H    0.061002
     6  N   -0.161708
     7  O   -0.384765
     8  C    0.063352
     9  H    0.007564
    10  H   -0.003016
    11  H   -0.003017
 Sum of APT charges =   0.00000
 APT charges with hydrogens summed into heavy atoms:
               1
     1  C    0.364355
     2  C   -0.152631
     4  C    0.269867
     6  N   -0.161708
     7  O   -0.384765
     8  C    0.064882
 Electronic spatial extent (au):  <R**2>=            486.1479
 Charge=              0.0000 electrons
 Dipole moment (field-independent basis, Debye):
    X=              1.8955    Y=              2.5832    Z=              0.0000  Tot=              3.2041
 Quadrupole moment (field-independent basis, Debye-Ang):
   XX=            -31.1148   YY=            -35.2029   ZZ=            -35.5488
   XY=             -3.5367   XZ=              0.0000   YZ=             -0.0000
 Traceless Quadrupole moment (field-independent basis, Debye-Ang):
   XX=              2.8407   YY=             -1.2474   ZZ=             -1.5933
   XY=             -3.5367   XZ=              0.0000   YZ=             -0.0000
 Octapole moment (field-independent basis, Debye-Ang**2):
  XXX=              2.3788  YYY=              3.8815  ZZZ=              0.0000  XYY=              2.7794
  XXY=              5.7334  XXZ=              0.0000  XZZ=              1.8711  YZZ=             -3.5219
  YYZ=             -0.0000  XYZ=             -0.0000
 Hexadecapole moment (field-independent basis, Debye-Ang**3):
 XXXX=           -404.8442 YYYY=           -160.7370 ZZZZ=            -39.9116 XXXY=            -17.7830
 XXXZ=              0.0000 YYYX=             -2.2118 YYYZ=             -0.0000 ZZZX=              0.0001
 ZZZY=             -0.0000 XXYY=            -99.4840 XXZZ=            -77.6662 YYZZ=            -36.5055
 XXYZ=             -0.0000 YYXZ=             -0.0001 ZZXY=             -1.4769
 N-N= 2.233950813812D+02 E-N=-1.111347921266D+03  KE= 2.827508316578D+02
  Exact polarizability:  62.933  -2.743  48.571   0.000  -0.000  26.010
 Approx polarizability:  93.014  -4.323  86.387   0.000  -0.000  37.813
 Rotating derivatives to standard orientation.
 Full mass-weighted force constant matrix:
 Low frequencies ---   -0.0009   -0.0008    0.0004    2.2732    2.6519    7.1483
 Low frequencies ---  102.7446  250.3593  333.4555
 Diagonal vibrational polarizability:
        1.6389061       1.6726047       4.6596809
 Harmonic frequencies (cm**-1), IR intensities (KM/Mole), Raman scattering
 activities (A**4/AMU), depolarization ratios for plane and unpolarized
 incident light, reduced masses (AMU), force constants (mDyne/A),
 and normal coordinates:
                      1                      2                      3
                      A                      A                      A
 Frequencies --    102.7444               250.3592               333.4555
 Red. masses --      1.0704                 3.2758                 2.7620
 Frc consts  --      0.0067                 0.1210                 0.1809
 IR Inten    --      0.8021                 1.7835                 2.0595
  Atom  AN      X      Y      Z        X      Y      Z        X      Y      Z
     1   6     0.00  -0.00   0.01     0.00  -0.00   0.24     0.00  -0.18  -0.00
     2   6     0.00  -0.00  -0.03    -0.00  -0.00   0.16     0.12  -0.10   0.00
     3   1     0.00  -0.00  -0.06    -0.00  -0.00   0.15     0.27  -0.13  -0.00
     4   6     0.00   0.00  -0.03    -0.00  -0.00  -0.15     0.05   0.06   0.00
     5   1     0.00   0.00  -0.06    -0.00   0.00  -0.39     0.11   0.18   0.00
     6   7    -0.00   0.00   0.02    -0.00  -0.00  -0.15    -0.10   0.05  -0.00
     7   8    -0.00  -0.00   0.05    -0.00   0.00   0.17    -0.10  -0.13  -0.00
     8   6    -0.00   0.00  -0.02     0.00   0.00  -0.19     0.03   0.22   0.00
     9   1    -0.00   0.00   0.54    -0.00  -0.00  -0.47    -0.38   0.40  -0.00
    10   1     0.02   0.50  -0.31    -0.35  -0.08  -0.28     0.26   0.38  -0.01
    11   1    -0.02  -0.50  -0.31     0.35   0.08  -0.28     0.26   0.38   0.01
                      4                      5                      6
                      A                      A                      A
 Frequencies --    638.8641               649.1254               661.1076
 Red. masses --      7.4430                 3.4898                 4.3237
 Frc consts  --      1.7898                 0.8664                 1.1134
 IR Inten    --      1.0493                 2.8035                 0.4135
  Atom  AN      X      Y      Z        X      Y      Z        X      Y      Z
     1   6     0.00   0.00   0.31     0.00   0.00   0.29     0.13   0.04  -0.00
     2   6    -0.00  -0.00  -0.00    -0.00  -0.00  -0.27    -0.11  -0.08   0.00
     3   1    -0.00  -0.00   0.09    -0.00  -0.00  -0.48    -0.32  -0.03   0.00
     4   6    -0.00  -0.00  -0.29    -0.00  -0.00   0.21    -0.18  -0.02  -0.00
     5   1    -0.00   0.00  -0.40    -0.00   0.00   0.55    -0.16   0.05  -0.00
     6   7    -0.00  -0.00   0.42    -0.00  -0.00  -0.13    -0.17  -0.00  -0.00
     7   8    -0.00   0.00  -0.37    -0.00   0.00  -0.07    -0.10   0.06   0.00
     8   6     0.00   0.00   0.05     0.00  -0.00   0.04     0.42  -0.02  -0.00
     9   1    -0.00  -0.00  -0.16    -0.00  -0.00  -0.12     0.46  -0.03   0.00
    10   1    -0.37   0.02  -0.12    -0.32   0.02  -0.11     0.43  -0.01  -0.00
    11   1     0.37  -0.02  -0.12     0.32  -0.02  -0.11     0.43  -0.01   0.00
                      7                      8                      9
                      A                      A                      A
 Frequencies --    801.7155               901.0678               904.5272
 Red. masses --      1.1869                 4.8931                 1.3050
 Frc consts  --      0.4495                 2.3407                 0.6291
 IR Inten    --     30.2274                16.6222                 3.8766
  Atom  AN      X      Y      Z        X      Y      Z        X      Y      Z
     1   6    -0.00  -0.00   0.00    -0.01  -0.06  -0.00    -0.00  -0.00  -0.00
     2   6     0.00  -0.00  -0.12    -0.05  -0.05  -0.00    -0.00  -0.00   0.06
     3   1     0.00   0.00   0.96     0.08  -0.08   0.00     0.00  -0.00  -0.19
     4   6     0.00   0.00  -0.02    -0.07   0.01   0.00    -0.00  -0.00  -0.15
     5   1     0.00   0.00   0.22    -0.25  -0.41  -0.00    -0.00  -0.00   0.97
     6   7     0.00   0.00   0.00     0.41   0.05  -0.00     0.00   0.00   0.00
     7   8     0.00  -0.00   0.03    -0.29   0.11  -0.00    -0.00   0.00   0.02
     8   6    -0.00   0.00   0.01     0.03  -0.09   0.00     0.00  -0.00  -0.00
     9   1    -0.00  -0.00  -0.04    -0.44   0.12  -0.00    -0.00   0.00   0.00
    10   1    -0.05   0.01  -0.02     0.32   0.17  -0.04     0.02  -0.00   0.01
    11   1     0.05  -0.01  -0.02     0.32   0.17   0.04    -0.02   0.00   0.01
                     10                     11                     12
                      A                      A                      A
 Frequencies --    940.9639              1007.6567              1032.2772
 Red. masses --      6.8006                 3.0817                 2.0509
 Frc consts  --      3.5477                 1.8436                 1.2876
 IR Inten    --      9.0169                 1.9926                 7.9347
  Atom  AN      X      Y      Z        X      Y      Z        X      Y      Z
     1   6    -0.01  -0.14   0.00     0.06  -0.07   0.00    -0.07  -0.03   0.00
     2   6    -0.18  -0.20   0.00     0.01  -0.16  -0.00    -0.07   0.19  -0.00
     3   1     0.38  -0.32  -0.00    -0.09  -0.15   0.00    -0.42   0.28   0.00
     4   6    -0.34   0.25  -0.00    -0.01  -0.02  -0.00     0.04   0.04  -0.00
     5   1    -0.50  -0.08   0.00     0.14   0.32   0.00    -0.03  -0.10  -0.00
     6   7     0.13   0.27  -0.00    -0.09  -0.04   0.00    -0.02   0.02   0.00
     7   8     0.31  -0.14  -0.00     0.12   0.27  -0.00     0.07  -0.11  -0.00
     8   6    -0.01  -0.01  -0.00    -0.08  -0.12  -0.00     0.04  -0.14  -0.00
     9   1     0.07  -0.05  -0.00    -0.71   0.16   0.00    -0.52   0.12   0.00
    10   1    -0.06  -0.06   0.01     0.21   0.18  -0.06     0.38   0.18  -0.06
    11   1    -0.06  -0.06  -0.01     0.21   0.18   0.06     0.38   0.18   0.06
                     13                     14                     15
                      A                      A                      A
 Frequencies --   1063.0530              1081.2988              1224.1999
 Red. masses --      1.5150                 1.5040                 1.5860
 Frc consts  --      1.0088                 1.0361                 1.4004
 IR Inten    --      3.3689                 4.1060                 8.2220
  Atom  AN      X      Y      Z        X      Y      Z        X      Y      Z
     1   6    -0.03   0.01   0.00     0.00   0.00  -0.14    -0.12  -0.00  -0.00
     2   6     0.09   0.11  -0.00     0.00   0.00   0.03    -0.11   0.03   0.00
     3   1     0.82  -0.03   0.00     0.00   0.00  -0.06     0.50  -0.09  -0.00
     4   6    -0.10  -0.04   0.00    -0.00  -0.00   0.00     0.01   0.05   0.00
     5   1    -0.29  -0.42  -0.00    -0.00  -0.00  -0.01     0.33   0.74  -0.00
     6   7    -0.06  -0.06   0.00    -0.00  -0.00  -0.00     0.06  -0.11  -0.00
     7   8     0.02   0.04  -0.00     0.00  -0.00   0.02     0.00  -0.00   0.00
     8   6     0.02  -0.03  -0.00    -0.00  -0.00   0.16     0.05  -0.01   0.00
     9   1    -0.10   0.03   0.00    -0.00  -0.00  -0.32     0.12  -0.03   0.00
    10   1     0.09   0.04  -0.01    -0.61   0.14  -0.19     0.11   0.01   0.01
    11   1     0.09   0.04   0.01     0.61  -0.14  -0.19     0.11   0.01  -0.01
                     16                     17                     18
                      A                      A                      A
 Frequencies --   1270.6102              1384.8983              1441.7192
 Red. masses --      3.7465                 3.2813                 1.2552
 Frc consts  --      3.5637                 3.7079                 1.5372
 IR Inten    --     22.4418                 6.6262                 1.2361
  Atom  AN      X      Y      Z        X      Y      Z        X      Y      Z
     1   6     0.24   0.26   0.00     0.02   0.24   0.00    -0.01   0.02  -0.00
     2   6     0.12  -0.00  -0.00    -0.19  -0.13   0.00     0.03  -0.02   0.00
     3   1     0.02   0.04   0.00     0.62  -0.33   0.00    -0.05  -0.00   0.00
     4   6    -0.23  -0.00  -0.00     0.20  -0.10  -0.00    -0.02  -0.02   0.00
     5   1     0.08   0.70   0.00     0.13  -0.33  -0.00     0.00   0.01  -0.00
     6   7     0.04  -0.06   0.00    -0.06   0.15   0.00    -0.00   0.02   0.00
     7   8    -0.05  -0.16  -0.00    -0.02  -0.06  -0.00     0.01  -0.00   0.00
     8   6    -0.09  -0.07  -0.00     0.00  -0.08  -0.00    -0.14   0.00  -0.00
     9   1    -0.42   0.08   0.00    -0.13  -0.01   0.00     0.49  -0.27   0.00
    10   1    -0.03   0.16  -0.11     0.08   0.23  -0.15     0.53   0.09   0.20
    11   1    -0.03   0.16   0.11     0.08   0.23   0.15     0.53   0.09  -0.20
                     19                     20                     21
                      A                      A                      A
 Frequencies --   1504.1674              1516.4426              1531.6556
 Red. masses --      1.0423                 1.1143                 5.4625
 Frc consts  --      1.3894                 1.5098                 7.5502
 IR Inten    --      7.3519                10.9935                41.2309
  Atom  AN      X      Y      Z        X      Y      Z        X      Y      Z
     1   6     0.00  -0.00  -0.02    -0.06  -0.02   0.00     0.26  -0.01   0.00
     2   6    -0.00   0.00   0.00     0.05  -0.01  -0.00    -0.18  -0.01  -0.00
     3   1     0.00  -0.00   0.01    -0.11   0.02   0.00     0.09  -0.07  -0.00
     4   6     0.00   0.00  -0.00    -0.02  -0.00  -0.00     0.14   0.41  -0.00
     5   1    -0.00  -0.00  -0.00    -0.01   0.02   0.00    -0.34  -0.58   0.00
     6   7    -0.00  -0.00   0.00     0.01  -0.00   0.00    -0.05  -0.29  -0.00
     7   8    -0.00   0.00   0.00     0.01   0.01   0.00    -0.04  -0.01  -0.00
     8   6    -0.00  -0.00  -0.05     0.01  -0.05   0.00    -0.11  -0.01   0.00
     9   1    -0.00   0.00   0.72     0.35  -0.18   0.00     0.19  -0.14  -0.00
    10   1    -0.34  -0.35   0.05    -0.16   0.49  -0.38    -0.00   0.20  -0.08
    11   1     0.34   0.35   0.05    -0.16   0.49   0.38    -0.00   0.20   0.08
                     22                     23                     24
                      A                      A                      A
 Frequencies --   1654.1675              3058.2297              3114.1746
 Red. masses --      5.7974                 1.0372                 1.1015
 Frc consts  --      9.3464                 5.7152                 6.2940
 IR Inten    --     32.2419                14.2447                 9.3589
  Atom  AN      X      Y      Z        X      Y      Z        X      Y      Z
     1   6     0.36  -0.30   0.00     0.00   0.00   0.00    -0.00   0.00  -0.00
     2   6    -0.24   0.26  -0.00     0.00  -0.00  -0.00     0.00  -0.00  -0.00
     3   1     0.41   0.19   0.00    -0.00  -0.00   0.00     0.00   0.00   0.00
     4   6    -0.02  -0.24  -0.00    -0.00  -0.00  -0.00    -0.00  -0.00   0.00
     5   1     0.24   0.31  -0.00    -0.00  -0.00   0.00     0.00  -0.00   0.00
     6   7    -0.01   0.13   0.00    -0.00  -0.00  -0.00     0.00   0.00  -0.00
     7   8    -0.03   0.03   0.00     0.00   0.00   0.00    -0.00  -0.00   0.00
     8   6    -0.10   0.03   0.00    -0.05   0.02  -0.00     0.00  -0.00  -0.09
     9   1     0.26  -0.14   0.00     0.17   0.39  -0.00    -0.00  -0.00  -0.02
    10   1    -0.15   0.17  -0.11     0.20  -0.31  -0.52    -0.23   0.36   0.56
    11   1    -0.15   0.17   0.11     0.20  -0.31   0.52     0.23  -0.36   0.56
                     25                     26                     27
                      A                      A                      A
 Frequencies --   3151.0077              3255.7593              3290.9706
 Red. masses --      1.1013                 1.0944                 1.1005
 Frc consts  --      6.4425                 6.8347                 7.0223
 IR Inten    --      9.3001                 4.9918                 0.3538
  Atom  AN      X      Y      Z        X      Y      Z        X      Y      Z
     1   6     0.00  -0.00  -0.00    -0.00   0.00   0.00    -0.00   0.00   0.00
     2   6    -0.00   0.00  -0.00     0.00  -0.02   0.00    -0.02  -0.09   0.00
     3   1    -0.00  -0.00   0.00     0.04   0.20  -0.00     0.20   0.96  -0.00
     4   6     0.00  -0.00  -0.00    -0.08   0.04   0.00     0.02  -0.01  -0.00
     5   1    -0.00   0.00   0.00     0.88  -0.41   0.00    -0.18   0.08  -0.00
     6   7     0.00   0.00   0.00    -0.00  -0.00  -0.00     0.00   0.00   0.00
     7   8     0.00   0.00   0.00     0.00  -0.00  -0.00     0.00   0.00   0.00
     8   6    -0.02  -0.09   0.00    -0.00  -0.00   0.00    -0.00  -0.00   0.00
     9   1     0.37   0.83  -0.00     0.00   0.00  -0.00     0.00   0.01  -0.00
    10   1    -0.10   0.13   0.24    -0.00   0.00   0.00     0.00  -0.00  -0.00
    11   1    -0.10   0.13  -0.24    -0.00   0.00  -0.00     0.00  -0.00   0.00

 -------------------
 - Thermochemistry -
 -------------------
 Temperature   298.150 Kelvin.  Pressure   1.00000 Atm.
 Atom     1 has atomic number  6 and mass  12.00000
 Atom     2 has atomic number  6 and mass  12.00000
 Atom     3 has atomic number  1 and mass   1.00783
 Atom     4 has atomic number  6 and mass  12.00000
 Atom     5 has atomic number  1 and mass   1.00783
 Atom     6 has atomic number  7 and mass  14.00307
 Atom     7 has atomic number  8 and mass  15.99491
 Atom     8 has atomic number  6 and mass  12.00000
 Atom     9 has atomic number  1 and mass   1.00783
 Atom    10 has atomic number  1 and mass   1.00783
 Atom    11 has atomic number  1 and mass   1.00783
 Molecular mass:    83.03711 amu.
 Principal axes and moments of inertia in atomic units:
                           1         2         3
     Eigenvalues --   195.38145 509.22460 693.35600
           X            0.99965  -0.02650   0.00000
           Y            0.02650   0.99965  -0.00000
           Z           -0.00000   0.00000   1.00000
 This molecule is an asymmetric top.
 Rotational symmetry number  1.
 Rotational temperatures (Kelvin)      0.44331     0.17009     0.12492
 Rotational constants (GHZ):           9.23701     3.54410     2.60291
 Zero-point vibrational energy     225892.2 (Joules/Mol)
                                   53.98952 (Kcal/Mol)
 Warning -- explicit consideration of   3 degrees of freedom as
           vibrations may cause significant error
 Vibrational temperatures:    147.83   360.21   479.77   919.18   933.95
          (Kelvin)            951.19  1153.49  1296.44  1301.41  1353.84
                             1449.79  1485.22  1529.50  1555.75  1761.35
                             1828.12  1992.56  2074.31  2164.16  2181.82
                             2203.71  2379.98  4400.11  4480.60  4533.60
                             4684.31  4734.97
 
 Zero-point correction=                           0.086038 (Hartree/Particle)
 Thermal correction to Energy=                    0.091283
 Thermal correction to Enthalpy=                  0.092227
 Thermal correction to Gibbs Free Energy=         0.057331
 Sum of electronic and zero-point Energies=           -285.273271
 Sum of electronic and thermal Energies=              -285.268026
 Sum of electronic and thermal Enthalpies=            -285.267082
 Sum of electronic and thermal Free Energies=         -285.301977
 
                     E (Thermal)             CV                S
                      KCal/Mol        Cal/Mol-Kelvin    Cal/Mol-Kelvin
 Total                   57.281             18.285             73.444
 Electronic               0.000              0.000              0.000
 Translational            0.889              2.981             39.164
 Rotational               0.889              2.981             25.737
 Vibrational             55.503             12.323              8.543
 Vibration     1          0.605              1.947              3.402
 Vibration     2          0.663              1.762              1.728
 Vibration     3          0.715              1.609              1.243
                       Q            Log10(Q)             Ln(Q)
 Total Bot       0.425968D-26        -26.370623        -60.720603
 Total V=0       0.159946D+14         13.203973         30.403271
 Vib (Bot)       0.152333D-38        -38.817205        -89.379917
 Vib (Bot)    1  0.199638D+01          0.300244          0.691337
 Vib (Bot)    2  0.779433D+00         -0.108221         -0.249189
 Vib (Bot)    3  0.559138D+00         -0.252481         -0.581360
 Vib (V=0)       0.571993D+01          0.757390          1.743956
 Vib (V=0)    1  0.255804D+01          0.407908          0.939243
 Vib (V=0)    2  0.142602D+01          0.154126          0.354888
 Vib (V=0)    3  0.125009D+01          0.096941          0.223215
 Electronic      0.100000D+01          0.000000          0.000000
 Translational   0.297415D+08          7.473362         17.208053
 Rotational      0.940200D+05          4.973220         11.451262
 ***** Axes restored to original set *****
 -------------------------------------------------------------------
[...]
         9        -0.0000     -0.0000     -0.0008      0.0008      0.0005
        10        -0.1353     -0.0094     -0.0000      0.1447      0.0965

 Excitation energies and oscillator strengths:
 
 Excited State   1:      Singlet-A      6.3818 eV  194.28 nm  f=0.1573  <S**2>=0.000
      21 -> 23         0.15339
      22 -> 23         0.67306
 This state for optimization and/or second-order correction.
 Total Energy, E(TD-HF/TD-DFT) =  -285.124781653    
 Copying the excited state density for this state as the 1-particle RhoCI density.
 
 Excited State   2:      Singlet-A      6.5498 eV  189.29 nm  f=0.0078  <S**2>=0.000
      20 -> 23         0.70369
 
 Excited State   3:      Singlet-A      7.1592 eV  173.18 nm  f=0.0279  <S**2>=0.000
      21 -> 23         0.58498
      22 -> 23        -0.18201
      22 -> 24         0.34058
 
 Excited State   4:      Singlet-A      8.0315 eV  154.37 nm  f=0.0001  <S**2>=0.000
      22 -> 25         0.68305
      22 -> 26        -0.12168
 
 Excited State   5:      Singlet-A      8.5000 eV  145.86 nm  f=0.0002  <S**2>=0.000
      19 -> 23         0.69164
      20 -> 24        -0.12093
 
 Excited State   6:      Singlet-A      8.5995 eV  144.18 nm  f=0.0025  <S**2>=0.000
      19 -> 23         0.11969
      20 -> 24         0.68522
 
 Excited State   7:      Singlet-A      8.6419 eV  143.47 nm  f=0.2071  <S**2>=0.000
      20 -> 25         0.21823
      21 -> 23        -0.31442
      22 -> 24         0.56290
 
 Excited State   8:      Singlet-A      8.9744 eV  138.15 nm  f=0.0063  <S**2>=0.000
      22 -> 25         0.11517
      22 -> 26         0.68652
 
 Excited State   9:      Singlet-A      9.1321 eV  135.77 nm  f=0.0004  <S**2>=0.000
      18 -> 23         0.14219
      21 -> 25         0.59905
      21 -> 26        -0.13602
      21 -> 27         0.10157
      22 -> 27        -0.26968
 
 Excited State  10:      Singlet-A      9.1933 eV  134.86 nm  f=0.0964  <S**2>=0.000
      21 -> 24         0.68685
 SavETr:  write IOETrn=   770 NScale= 10 NData=  16 NLR=1 NState=   10 LETran=     190.
          Differentiating once with respect to electric field.
                with respect to dipole field.
          Electric field/nuclear overlap derivatives assumed to be zero.
 Keep R1 ints in memory in canonical form, NReq=15532480.
          There are     1 degrees of freedom in the 1st order CPHF.  IDoFFX=0 NUNeed=     1.
 LinEq1:  Iter=  0 NonCon=     1 RMS=2.29D-02 Max=5.71D-01 NDo=     1
 AX will form     1 AO Fock derivatives at one time.
 LinEq1:  Iter=  1 NonCon=     1 RMS=1.30D-02 Max=3.65D-01 NDo=     1
 LinEq1:  Iter=  2 NonCon=     1 RMS=1.06D-02 Max=2.06D-01 NDo=     1
 LinEq1:  Iter=  3 NonCon=     1 RMS=2.26D-03 Max=2.47D-02 NDo=     1
 LinEq1:  Iter=  4 NonCon=     1 RMS=7.18D-04 Max=1.45D-02 NDo=     1
 LinEq1:  Iter=  5 NonCon=     1 RMS=6.94D-04 Max=1.62D-02 NDo=     1
 LinEq1:  Iter=  6 NonCon=     1 RMS=2.72D-04 Max=2.68D-03 NDo=     1
 LinEq1:  Iter=  7 NonCon=     1 RMS=2.20D-04 Max=4.12D-03 NDo=     1
 LinEq1:  Iter=  8 NonCon=     1 RMS=9.03D-05 Max=1.12D-03 NDo=     1
 LinEq1:  Iter=  9 NonCon=     1 RMS=3.38D-05 Max=3.26D-04 NDo=     1
 LinEq1:  Iter= 10 NonCon=     1 RMS=1.13D-05 Max=1.06D-04 NDo=     1
 LinEq1:  Iter= 11 NonCon=     1 RMS=4.89D-06 Max=5.47D-05 NDo=     1
 LinEq1:  Iter= 12 NonCon=     1 RMS=1.09D-06 Max=9.68D-06 NDo=     1
 LinEq1:  Iter= 13 NonCon=     1 RMS=2.33D-07 Max=1.98D-06 NDo=     1
 LinEq1:  Iter= 14 NonCon=     1 RMS=4.19D-08 Max=4.16D-07 NDo=     1
 LinEq1:  Iter= 15 NonCon=     1 RMS=6.28D-09 Max=6.74D-08 NDo=     1
 LinEq1:  Iter= 16 NonCon=     1 RMS=1.43D-09 Max=2.12D-08 NDo=     1
 LinEq1:  Iter= 17 NonCon=     1 RMS=2.22D-10 Max=1.86D-09 NDo=     1
 LinEq1:  Iter= 18 NonCon=     0 RMS=3.85D-11 Max=4.62D-10 NDo=     1
 Linear equations converged to 1.000D-10 1.000D-09 after    18 iterations.
 End of Minotr F.D. properties file   721 does not exist.
 End of Minotr F.D. properties file   722 does not exist.
 End of Minotr F.D. properties file   788 does not exist.

 **********************************************************************

            Population analysis using the CI density.

 **********************************************************************

 Orbital symmetries:
       Occupied  (A) (A) (A) (A) (A) (A) (A) (A) (A) (A) (A) (A)
                 (A) (A) (A) (A) (A) (A) (A) (A) (A) (A)
       Virtual   (A) (A) (A) (A) (A) (A) (A) (A) (A) (A) (A) (A)
                 (A) (A) (A) (A) (A) (A) (A) (A) (A) (A) (A) (A)
                 (A) (A) (A) (A) (A) (A) (A) (A) (A) (A) (A) (A)
                 (A) (A) (A) (A) (A) (A) (A) (A) (A) (A) (A) (A)
                 (A) (A) (A) (A) (A) (A) (A) (A) (A) (A) (A) (A)
                 (A) (A) (A) (A) (A) (A) (A) (A) (A) (A) (A) (A)
                 (A) (A) (A) (A) (A) (A)
 The electronic state is 1-A.
 Alpha  occ. eigenvalues --  -19.22874 -14.37522 -10.26051 -10.22247 -10.20764
 Alpha  occ. eigenvalues --  -10.19465  -1.13343  -0.86532  -0.80566  -0.72342
 Alpha  occ. eigenvalues --   -0.61560  -0.57613  -0.51157  -0.47294  -0.45329
 Alpha  occ. eigenvalues --   -0.42392  -0.41752  -0.39802  -0.38069  -0.30097
 Alpha  occ. eigenvalues --   -0.29582  -0.25381
 Alpha virt. eigenvalues --   -0.00877   0.06488   0.08926   0.11325   0.13717
 Alpha virt. eigenvalues --    0.14785   0.16719   0.16858   0.21612   0.23267
 Alpha virt. eigenvalues --    0.28328   0.38527   0.42982   0.49725   0.51438
 Alpha virt. eigenvalues --    0.54741   0.56302   0.57443   0.59151   0.63054
 Alpha virt. eigenvalues --    0.64600   0.66506   0.67767   0.72046   0.76264
 Alpha virt. eigenvalues --    0.79191   0.81944   0.82283   0.85543   0.85957
 Alpha virt. eigenvalues --    0.87908   0.92774   0.93635   0.99573   1.00849
 Alpha virt. eigenvalues --    1.07455   1.08014   1.13084   1.31354   1.37250
 Alpha virt. eigenvalues --    1.37543   1.38329   1.43298   1.48619   1.49772
 Alpha virt. eigenvalues --    1.57815   1.62883   1.64859   1.80436   1.83009
 Alpha virt. eigenvalues --    1.88896   1.93725   1.94965   2.00794   2.14867
 Alpha virt. eigenvalues --    2.16829   2.18736   2.18902   2.22999   2.30236
 Alpha virt. eigenvalues --    2.34511   2.37000   2.38830   2.48949   2.58812
 Alpha virt. eigenvalues --    2.64179   2.68859   2.73770   2.77722   2.94723
 Alpha virt. eigenvalues --    3.06040   3.11493   3.75609   4.01242   4.11936
 Alpha virt. eigenvalues --    4.18689   4.32373   4.51850
          Condensed to atoms (all electrons):
               1          2          3          4          5          6
     1  C    4.861071   0.420210  -0.038639  -0.113771   0.003781  -0.024151
     2  C    0.420210   5.158101   0.350756   0.456788  -0.043443  -0.021207
     3  H   -0.038639   0.350756   0.527117  -0.024316  -0.000527   0.004280
     4  C   -0.113771   0.456788  -0.024316   5.023123   0.373308   0.316849
     5  H    0.003781  -0.043443  -0.000527   0.373308   0.555208  -0.042787
     6  N   -0.024151  -0.021207   0.004280   0.316849  -0.042787   6.942752
     7  O    0.177194  -0.051109   0.004195  -0.041829   0.005041   0.019815
     8  C    0.403607  -0.065404  -0.000535   0.004386  -0.000147   0.005107
     9  H   -0.024235  -0.001800   0.000905   0.000103  -0.000006  -0.000134
    10  H   -0.040192   0.003044   0.000010   0.000339   0.000003  -0.000490
    11  H   -0.040193   0.003044   0.000010   0.000339   0.000003  -0.000490
               7          8          9         10         11
     1  C    0.177194   0.403607  -0.024235  -0.040192  -0.040193
     2  C   -0.051109  -0.065404  -0.001800   0.003044   0.003044
     3  H    0.004195  -0.000535   0.000905   0.000010   0.000010
     4  C   -0.041829   0.004386   0.000103   0.000339   0.000339
     5  H    0.005041  -0.000147  -0.000006   0.000003   0.000003
     6  N    0.019815   0.005107  -0.000134  -0.000490  -0.000490
     7  O    8.295876  -0.055149   0.002244   0.002984   0.002984
     8  C   -0.055149   5.197572   0.362569   0.335508   0.335508
     9  H    0.002244   0.362569   0.542901  -0.026121  -0.026122
    10  H    0.002984   0.335508  -0.026121   0.591147  -0.055128
    11  H    0.002984   0.335508  -0.026122  -0.055128   0.591148
 Mulliken charges:
               1
     1  C    0.415317
     2  C   -0.208982
     3  H    0.176743
     4  C    0.004681
     5  H    0.149565
     6  N   -0.199545
     7  O   -0.362246
     8  C   -0.523022
     9  H    0.169697
    10  H    0.188896
    11  H    0.188896
 Sum of Mulliken charges =  -0.00000
 Mulliken charges with hydrogens summed into heavy atoms:
               1
     1  C    0.415317
     2  C   -0.032240
     4  C    0.154246
     6  N   -0.199545
     7  O   -0.362246
     8  C    0.024467
 Electronic spatial extent (au):  <R**2>=            487.3895
 Charge=             -0.0000 electrons
 Dipole moment (field-independent basis, Debye):
    X=              2.7550    Y=              3.2553    Z=              0.0000  Tot=              4.2646
 Quadrupole moment (field-independent basis, Debye-Ang):
   XX=            -33.1071   YY=            -34.8520   ZZ=            -35.5775
   XY=             -3.0486   XZ=              0.0000   YZ=             -0.0000
 Traceless Quadrupole moment (field-independent basis, Debye-Ang):
   XX=              1.4051   YY=             -0.3398   ZZ=             -1.0653
   XY=             -3.0486   XZ=              0.0000   YZ=             -0.0000
 Octapole moment (field-independent basis, Debye-Ang**2):
  XXX=              5.8529  YYY=              6.1055  ZZZ=              0.0000  XYY=              3.5923
  XXY=              4.8345  XXZ=             -0.0000  XZZ=              2.4932  YZZ=             -2.9569
  YYZ=             -0.0000  XYZ=             -0.0000
 Hexadecapole moment (field-independent basis, Debye-Ang**3):
 XXXX=           -414.4209 YYYY=           -157.5248 ZZZZ=            -40.2813 XXXY=            -15.1581
 XXXZ=             -0.0000 YYYX=             -1.6915 YYYZ=             -0.0000 ZZZX=              0.0001
 ZZZY=              0.0000 XXYY=           -102.2532 XXZZ=            -80.2626 YYZZ=            -36.3677
 XXYZ=             -0.0000 YYXZ=             -0.0001 ZZXY=             -0.7422
 N-N= 2.233950813812D+02 E-N=-1.111443325845D+03  KE= 2.831043753025D+02
 Evaluate density.
 Using the total density.
 Monte-Carlo method of calculating molar volume:
 based on  0.001 e/bohr**3 density envelope.
 Number of points per bohr**3 =   20 CutOff= 1.00D-04
 Using the CI density.
 There are       319 points.  Will hold       319 in memory.
 LenV=   805263092 MDV=   805306368.
 Box volume = 4061.498 fraction occupied=0.213
 Integrated density= 3.0143967296173464D+01 error=-1.3856032703826536D+01
 Molar volume =  865.774 bohr**3/mol ( 77.261 cm**3/mol)
 Recommended a0 for SCRF calculation =  3.94 angstrom (  7.45 bohr)
 ******************************Gaussian NBO Version 3.1******************************
             N A T U R A L   A T O M I C   O R B I T A L   A N D
          N A T U R A L   B O N D   O R B I T A L   A N A L Y S I S
 ******************************Gaussian NBO Version 3.1******************************
       /RESON  / : Allow strongly delocalized NBO set

 Analyzing the CI density

 Job title: Title Card Required                                             

 Storage needed:     30484 in NPA ( 805305653 available)


 NATURAL POPULATIONS:  Natural atomic orbital occupancies 
                                                          
   NAO  Atom  No  lang   Type(AO)    Occupancy
 --------------------------------------------
     1    C    1  S      Cor( 1S)     1.99910
     2    C    1  S      Val( 2S)     0.87683
     3    C    1  S      Ryd( 3S)     0.00196
     4    C    1  S      Ryd( 4S)     0.00019
     5    C    1  px     Val( 2p)     0.98430
     6    C    1  px     Ryd( 3p)     0.00384
     7    C    1  py     Val( 2p)     0.82181
     8    C    1  py     Ryd( 3p)     0.00927
     9    C    1  pz     Val( 2p)     0.94455
    10    C    1  pz     Ryd( 3p)     0.00543
    11    C    1  dxy    Ryd( 3d)     0.00196
    12    C    1  dxz    Ryd( 3d)     0.00125
    13    C    1  dyz    Ryd( 3d)     0.00182
    14    C    1  dx2y2  Ryd( 3d)     0.00165
    15    C    1  dz2    Ryd( 3d)     0.00060
 
    16    C    2  S      Cor( 1S)     1.99894
    17    C    2  S      Val( 2S)     1.01542
    18    C    2  S      Ryd( 3S)     0.00080
    19    C    2  S      Ryd( 4S)     0.00004
    20    C    2  px     Val( 2p)     1.05951
    21    C    2  px     Ryd( 3p)     0.00361
    22    C    2  py     Val( 2p)     1.19493
    23    C    2  py     Ryd( 3p)     0.00283
    24    C    2  pz     Val( 2p)     0.87624
    25    C    2  pz     Ryd( 3p)     0.00246
    26    C    2  dxy    Ryd( 3d)     0.00091
    27    C    2  dxz    Ryd( 3d)     0.00117
    28    C    2  dyz    Ryd( 3d)     0.00064
    29    C    2  dx2y2  Ryd( 3d)     0.00071
    30    C    2  dz2    Ryd( 3d)     0.00044
 
    31    H    3  S      Val( 1S)     0.75468
    32    H    3  S      Ryd( 2S)     0.00055
 
    33    C    4  S      Cor( 1S)     1.99941
    34    C    4  S      Val( 2S)     0.95687
    35    C    4  S      Ryd( 3S)     0.00245
    36    C    4  S      Ryd( 4S)     0.00009
    37    C    4  px     Val( 2p)     1.13893
    38    C    4  px     Ryd( 3p)     0.00363
    39    C    4  py     Val( 2p)     0.93181
    40    C    4  py     Ryd( 3p)     0.01199
    41    C    4  pz     Val( 2p)     1.13725
    42    C    4  pz     Ryd( 3p)     0.00715
    43    C    4  dxy    Ryd( 3d)     0.00128
    44    C    4  dxz    Ryd( 3d)     0.00050
    45    C    4  dyz    Ryd( 3d)     0.00199
    46    C    4  dx2y2  Ryd( 3d)     0.00133
    47    C    4  dz2    Ryd( 3d)     0.00055
 
    48    H    5  S      Val( 1S)     0.76193
    49    H    5  S      Ryd( 2S)     0.00051
 
    50    N    6  S      Cor( 1S)     1.99948
    51    N    6  S      Val( 2S)     1.50504
    52    N    6  S      Ryd( 3S)     0.00217
    53    N    6  S      Ryd( 4S)     0.00002
    54    N    6  px     Val( 2p)     0.93375
    55    N    6  px     Ryd( 3p)     0.00651
    56    N    6  py     Val( 2p)     1.41424
    57    N    6  py     Ryd( 3p)     0.00639
    58    N    6  pz     Val( 2p)     1.27846
    59    N    6  pz     Ryd( 3p)     0.00565
    60    N    6  dxy    Ryd( 3d)     0.00196
    61    N    6  dxz    Ryd( 3d)     0.00146
    62    N    6  dyz    Ryd( 3d)     0.00213
    63    N    6  dx2y2  Ryd( 3d)     0.00222
    64    N    6  dz2    Ryd( 3d)     0.00118
 
    65    O    7  S      Cor( 1S)     1.99974
    66    O    7  S      Val( 2S)     1.64179
    67    O    7  S      Ryd( 3S)     0.00099
    68    O    7  S      Ryd( 4S)     0.00006
    69    O    7  px     Val( 2p)     1.27957
    70    O    7  px     Ryd( 3p)     0.00215
    71    O    7  py     Val( 2p)     1.66589
    72    O    7  py     Ryd( 3p)     0.00249
    73    O    7  pz     Val( 2p)     1.74433
    74    O    7  pz     Ryd( 3p)     0.00241
    75    O    7  dxy    Ryd( 3d)     0.00218
    76    O    7  dxz    Ryd( 3d)     0.00096
    77    O    7  dyz    Ryd( 3d)     0.00228
    78    O    7  dx2y2  Ryd( 3d)     0.00182
    79    O    7  dz2    Ryd( 3d)     0.00113
 
    80    C    8  S      Cor( 1S)     1.99935
    81    C    8  S      Val( 2S)     1.11441
    82    C    8  S      Ryd( 3S)     0.00061
    83    C    8  S      Ryd( 4S)     0.00001
    84    C    8  px     Val( 2p)     1.09089
    85    C    8  px     Ryd( 3p)     0.00120
    86    C    8  py     Val( 2p)     1.26552
    87    C    8  py     Ryd( 3p)     0.00251
    88    C    8  pz     Val( 2p)     1.25274
    89    C    8  pz     Ryd( 3p)     0.00051
    90    C    8  dxy    Ryd( 3d)     0.00047
    91    C    8  dxz    Ryd( 3d)     0.00074
    92    C    8  dyz    Ryd( 3d)     0.00078
    93    C    8  dx2y2  Ryd( 3d)     0.00078
    94    C    8  dz2    Ryd( 3d)     0.00070
 
    95    H    9  S      Val( 1S)     0.74908
    96    H    9  S      Ryd( 2S)     0.00074
 
    97    H   10  S      Val( 1S)     0.73735
    98    H   10  S      Ryd( 2S)     0.00485
 
    99    H   11  S      Val( 1S)     0.73735
   100    H   11  S      Ryd( 2S)     0.00485

 WARNING:  1 low occupancy (<1.9990e) core orbital  found on  C    2


 Summary of Natural Population Analysis:                  
                                                          
                                       Natural Population 
                Natural  -----------------------------------------------
    Atom  No    Charge         Core      Valence    Rydberg      Total
 -----------------------------------------------------------------------
      C    1    0.34547      1.99910     3.62748    0.02796     5.65453
      C    2   -0.15868      1.99894     4.14611    0.01363     6.15868
      H    3    0.24477      0.00000     0.75468    0.00055     0.75523
      C    4   -0.19522      1.99941     4.16486    0.03096     6.19522
      H    5    0.23757      0.00000     0.76193    0.00051     0.76243
      N    6   -0.16066      1.99948     5.13149    0.02968     7.16066
      O    7   -0.34781      1.99974     6.33158    0.01649     8.34781
      C    8   -0.73120      1.99935     4.72356    0.00829     6.73120
      H    9    0.25018      0.00000     0.74908    0.00074     0.74982
      H   10    0.25780      0.00000     0.73735    0.00485     0.74220
      H   11    0.25780      0.00000     0.73735    0.00485     0.74220
 =======================================================================
   * Total *    0.00000     11.99603    31.86546    0.13851    44.00000

                                 Natural Population      
 --------------------------------------------------------
   Core                      11.99603 ( 99.9669% of  12)
   Valence                   31.86546 ( 99.5796% of  32)
   Natural Minimal Basis     43.86149 ( 99.6852% of  44)
   Natural Rydberg Basis      0.13851 (  0.3148% of  44)
 --------------------------------------------------------

    Atom  No          Natural Electron Configuration
 ----------------------------------------------------------------------------
      C    1      [core]2S( 0.88)2p( 2.75)3p( 0.02)3d( 0.01)
      C    2      [core]2S( 1.02)2p( 3.13)3p( 0.01)
      H    3            1S( 0.75)
      C    4      [core]2S( 0.96)2p( 3.21)3p( 0.02)3d( 0.01)
      H    5            1S( 0.76)
      N    6      [core]2S( 1.51)2p( 3.63)3p( 0.02)3d( 0.01)
      O    7      [core]2S( 1.64)2p( 4.69)3p( 0.01)3d( 0.01)
      C    8      [core]2S( 1.11)2p( 3.61)
      H    9            1S( 0.75)
      H   10            1S( 0.74)
      H   11            1S( 0.74)


 NBO analysis skipped by request.
 1\1\GINC-DELLA-R4C3N5\SP\RB3LYP TD-FC\6-31G(d)\C4H5N1O1\BJS4\30-Dec-20
 19\0\\# TD(NStates=10, Root=1) B3LYP/6-31G* scf=qc volume pop=NPA dens
 ity=current Geom=AllCheck Guess=Read\\Title Card Required\\0,1\C,0,0.6
 217518738,0.1105555649,0.0001366393\C,0,-0.2576349583,1.153876473,-0.0
 005934419\H,0,-0.0339377693,2.2101127592,-0.0014232594\C,0,-1.53045010
 58,0.5203964511,-0.0000039551\H,0,-2.5133288431,0.9756542825,-0.000274
 3522\N,0,-1.4409807075,-0.7884286298,0.0009936474\O,0,-0.0639092278,-1
 .0537829531,0.0010861281\C,0,2.1089135654,0.0146999226,0.0000908604\H,
 0,2.5514715539,1.0138476546,-0.0007329053\H,0,2.4670328767,-0.52580839
 97,-0.8835197656\H,0,2.467177742,-0.5244141255,0.8844944044\\Version=E
 S64L-G16RevA.03\State=1-A\HF=-285.359309\RMSD=2.288e-09\Dipole=1.08399
 15,1.28065,-0.0010706\Quadrupole=1.0443292,-0.2523213,-0.7920079,-2.26
 66439,0.0015948,-0.0002324\PG=C01 [X(C4H5N1O1)]\\@


 A HARD FALL SHOULD MEAN A HIGH BOUNCE 
 IF ONE IS MADE OF THE RIGHT MATERIAL.

                -- THE CHEMIST ANALYST, MARCH 1950
 Job cpu time:       0 days  0 hours  4 minutes 47.0 seconds.
 Elapsed time:       0 days  0 hours  1 minutes 36.0 seconds.
 File lengths (MBytes):  RWF=    142 Int=      0 D2E=      0 Chk=     12 Scr=      1
 Normal termination of Gaussian 16 at Mon Dec 30 18:35:50 2019.
