 Entering Gaussian System, Link 0=g16
 Input=7_123.com
 Output=7_123.log
 Initial command:
 /opt/export/g16/l1.exe "/scratch/bjs4/job.18347/Gau-18349.inp" -scrdir="/scratch/bjs4/job.18347/"
 Entering Link 1 = /opt/export/g16/l1.exe PID=     18350.
  
 Copyright (c) 1988,1990,1992,1993,1995,1998,2003,2009,2016,
            Gaussian, Inc.  All Rights Reserved.
  
 This is part of the Gaussian(R) 16 program.  It is based on
 the Gaussian(R) 09 system (copyright 2009, Gaussian, Inc.),
 the Gaussian(R) 03 system (copyright 2003, Gaussian, Inc.),
 the Gaussian(R) 98 system (copyright 1998, Gaussian, Inc.),
 the Gaussian(R) 94 system (copyright 1995, Gaussian, Inc.),
 the Gaussian 92(TM) system (copyright 1992, Gaussian, Inc.),
 the Gaussian 90(TM) system (copyright 1990, Gaussian, Inc.),
 the Gaussian 88(TM) system (copyright 1988, Gaussian, Inc.),
 the Gaussian 86(TM) system (copyright 1986, Carnegie Mellon
 University), and the Gaussian 82(TM) system (copyright 1983,
 Carnegie Mellon University). Gaussian is a federally registered
 trademark of Gaussian, Inc.
  
 This software contains proprietary and confidential information,
 including trade secrets, belonging to Gaussian, Inc.
  
 This software is provided under written license and may be
 used, copied, transmitted, or stored only in accord with that
 written license.
  
 The following legend is applicable only to US Government
 contracts under FAR:
  
                    RESTRICTED RIGHTS LEGEND
  
 Use, reproduction and disclosure by the US Government is
 subject to restrictions as set forth in subparagraphs (a)
 and (c) of the Commercial Computer Software - Restricted
 Rights clause in FAR 52.227-19.
  
 Gaussian, Inc.
 340 Quinnipiac St., Bldg. 40, Wallingford CT 06492
  
  
 ---------------------------------------------------------------
 Warning -- This program may not be used in any manner that
 competes with the business of Gaussian, Inc. or will provide
 assistance to any competitor of Gaussian, Inc.  The licensee
 of this program is prohibited from giving any competitor of
 Gaussian, Inc. access to this program.  By using this program,
 the user acknowledges that Gaussian, Inc. is engaged in the
 business of creating and licensing software in the field of
 computational chemistry and represents and warrants to the
 licensee that it is not a competitor of Gaussian, Inc. and that
 it will not use this program in any manner prohibited above.
 ---------------------------------------------------------------
  

 Cite this work as:
 Gaussian 16, Revision A.03,
 M. J. Frisch, G. W. Trucks, H. B. Schlegel, G. E. Scuseria, 
 M. A. Robb, J. R. Cheeseman, G. Scalmani, V. Barone, 
 G. A. Petersson, H. Nakatsuji, X. Li, M. Caricato, A. V. Marenich, 
 J. Bloino, B. G. Janesko, R. Gomperts, B. Mennucci, H. P. Hratchian, 
 J. V. Ortiz, A. F. Izmaylov, J. L. Sonnenberg, D. Williams-Young, 
 F. Ding, F. Lipparini, F. Egidi, J. Goings, B. Peng, A. Petrone, 
 T. Henderson, D. Ranasinghe, V. G. Zakrzewski, J. Gao, N. Rega, 
 G. Zheng, W. Liang, M. Hada, M. Ehara, K. Toyota, R. Fukuda, 
 J. Hasegawa, M. Ishida, T. Nakajima, Y. Honda, O. Kitao, H. Nakai, 
 T. Vreven, K. Throssell, J. A. Montgomery, Jr., J. E. Peralta, 
 F. Ogliaro, M. J. Bearpark, J. J. Heyd, E. N. Brothers, K. N. Kudin, 
 V. N. Staroverov, T. A. Keith, R. Kobayashi, J. Normand, 
 K. Raghavachari, A. P. Rendell, J. C. Burant, S. S. Iyengar, 
 J. Tomasi, M. Cossi, J. M. Millam, M. Klene, C. Adamo, R. Cammi, 
 J. W. Ochterski, R. L. Martin, K. Morokuma, O. Farkas, 
 J. B. Foresman, and D. J. Fox, Gaussian, Inc., Wallingford CT, 2016.
 
 ******************************************
 Gaussian 16:  ES64L-G16RevA.03 25-Dec-2016
                30-Dec-2019 
 ******************************************
 %nprocshared=5
 Will use up to    5 processors via shared memory.
 %Mem=10GB
 %Chk=7_1.chk
 ---------------------------------
 # opt=CalcAll B3LYP/6-31G* scf=qc
 ---------------------------------
 1/10=4,18=20,19=15,26=3,38=1/1,3;
 2/9=110,12=2,17=6,18=5,40=1/2;
 3/5=1,6=6,7=1,11=2,25=1,30=1,71=2,74=-5,140=1/1,2,3;
 4//1;
 5/5=2,8=3,38=5/8;
 8/6=4,10=90,11=11/1;
 11/6=1,8=1,9=11,15=111,16=1/1,2,10;
 10/6=1/2;
 6/7=2,8=2,9=2,10=2,18=1,28=1/1;
 7/10=1,25=1/1,2,3,16;
 1/10=4,18=20,19=15,26=3/3(3);
 2/9=110/2;
 7/8=1,9=1,25=1,44=-1/16;
 99//99;
 2/9=110/2;
 3/5=1,6=6,7=1,11=2,25=1,30=1,71=2,74=-5,140=1/1,2,3;
 4/5=5,16=3,69=1/1;
 5/5=2,8=3,38=5/8;
 8/6=4,10=90,11=11/1;
 11/6=1,8=1,9=11,15=111,16=1/1,2,10;
 10/6=1/2;
 7/10=1,25=1/1,2,3,16;
 1/10=4,18=20,19=15,26=3/3(-8);
 2/9=110/2;
 6/7=2,8=2,9=2,10=2,18=1,19=2,28=1/1;
 7/8=1,9=1,25=1,44=-1/16;
 99//99;
 -------------------
 Title Card Required
 -------------------
 Symbolic Z-matrix:
 Charge =  0 Multiplicity = 1
 C5                    2.64911   0.09993   0.09332 
 C4                    1.56562   0.91998   0.01326 
 H                     1.52556   1.99764   0.03554 
 C3                    0.46848   0.02176  -0.11015 
 N2                    0.8516   -1.23949  -0.10501 
 O1                    2.23402  -1.19138   0.0241 
 C                    -0.95775   0.43068  -0.23053 
 O                    -1.29575   1.59813  -0.22693 
 O                    -1.78665  -0.617    -0.34428 
 C                    -3.19957  -0.31501  -0.46464 
 C                    -3.8438   -0.1351    0.90142 
 C                     4.11449   0.32473   0.23373 
 H                    -3.60977  -1.17901  -0.99219 
 H                    -3.3167    0.57901  -1.08188 
 H                    -3.68077  -1.01836   1.52718 
 H                    -4.92385   0.01033   0.78418 
 H                    -3.43311   0.74151   1.41023 
 H                     4.32725   1.39546   0.2787 
 H                     4.66003  -0.10414  -0.61446 
 H                     4.49776  -0.14586   1.14623 
 

 GradGradGradGradGradGradGradGradGradGradGradGradGradGradGradGradGradGrad
 Berny optimization.
 Initialization pass.
                           ----------------------------
                           !    Initial Parameters    !
                           ! (Angstroms and Degrees)  !
 --------------------------                            --------------------------
 ! Name  Definition              Value          Derivative Info.                !
 --------------------------------------------------------------------------------
 ! R1    R(1,2)                  1.3612         calculate D2E/DX2 analytically  !
 ! R2    R(1,6)                  1.3582         calculate D2E/DX2 analytically  !
 ! R3    R(1,12)                 1.4892         calculate D2E/DX2 analytically  !
 ! R4    R(2,3)                  1.0786         calculate D2E/DX2 analytically  !
 ! R5    R(2,4)                  1.4233         calculate D2E/DX2 analytically  !
 ! R6    R(4,5)                  1.3182         calculate D2E/DX2 analytically  !
 ! R7    R(4,7)                  1.4886         calculate D2E/DX2 analytically  !
 ! R8    R(5,6)                  1.3893         calculate D2E/DX2 analytically  !
 ! R9    R(7,8)                  1.2154         calculate D2E/DX2 analytically  !
 ! R10   R(7,9)                  1.3408         calculate D2E/DX2 analytically  !
 ! R11   R(9,10)                 1.4498         calculate D2E/DX2 analytically  !
 ! R12   R(10,11)                1.521          calculate D2E/DX2 analytically  !
 ! R13   R(10,13)                1.0923         calculate D2E/DX2 analytically  !
 ! R14   R(10,14)                1.0927         calculate D2E/DX2 analytically  !
 ! R15   R(11,15)                1.0947         calculate D2E/DX2 analytically  !
 ! R16   R(11,16)                1.0961         calculate D2E/DX2 analytically  !
 ! R17   R(11,17)                1.0936         calculate D2E/DX2 analytically  !
 ! R18   R(12,18)                1.0926         calculate D2E/DX2 analytically  !
 ! R19   R(12,19)                1.0959         calculate D2E/DX2 analytically  !
 ! R20   R(12,20)                1.0959         calculate D2E/DX2 analytically  !
 ! A1    A(2,1,6)              109.0575         calculate D2E/DX2 analytically  !
 ! A2    A(2,1,12)             134.2573         calculate D2E/DX2 analytically  !
 ! A3    A(6,1,12)             116.6852         calculate D2E/DX2 analytically  !
 ! A4    A(1,2,3)              129.0687         calculate D2E/DX2 analytically  !
 ! A5    A(1,2,4)              103.7976         calculate D2E/DX2 analytically  !
 ! A6    A(3,2,4)              127.1337         calculate D2E/DX2 analytically  !
 ! A7    A(2,4,5)              112.3            calculate D2E/DX2 analytically  !
 ! A8    A(2,4,7)              124.9051         calculate D2E/DX2 analytically  !
 ! A9    A(5,4,7)              122.7949         calculate D2E/DX2 analytically  !
 ! A10   A(4,5,6)              104.859          calculate D2E/DX2 analytically  !
 ! A11   A(1,6,5)              109.9858         calculate D2E/DX2 analytically  !
 ! A12   A(4,7,8)              122.0106         calculate D2E/DX2 analytically  !
 ! A13   A(4,7,9)              112.6157         calculate D2E/DX2 analytically  !
 ! A14   A(8,7,9)              125.3732         calculate D2E/DX2 analytically  !
 ! A15   A(7,9,10)             116.537          calculate D2E/DX2 analytically  !
 ! A16   A(9,10,11)            111.2746         calculate D2E/DX2 analytically  !
 ! A17   A(9,10,13)            103.9648         calculate D2E/DX2 analytically  !
 ! A18   A(9,10,14)            108.7709         calculate D2E/DX2 analytically  !
 ! A19   A(11,10,13)           111.6089         calculate D2E/DX2 analytically  !
 ! A20   A(11,10,14)           111.4165         calculate D2E/DX2 analytically  !
 ! A21   A(13,10,14)           109.5184         calculate D2E/DX2 analytically  !
 ! A22   A(10,11,15)           110.7865         calculate D2E/DX2 analytically  !
 ! A23   A(10,11,16)           109.6933         calculate D2E/DX2 analytically  !
 ! A24   A(10,11,17)           110.7084         calculate D2E/DX2 analytically  !
 ! A25   A(15,11,16)           108.3578         calculate D2E/DX2 analytically  !
 ! A26   A(15,11,17)           108.9579         calculate D2E/DX2 analytically  !
 ! A27   A(16,11,17)           108.2671         calculate D2E/DX2 analytically  !
 ! A28   A(1,12,18)            110.0867         calculate D2E/DX2 analytically  !
 ! A29   A(1,12,19)            110.965          calculate D2E/DX2 analytically  !
 ! A30   A(1,12,20)            110.9672         calculate D2E/DX2 analytically  !
 ! A31   A(18,12,19)           108.5683         calculate D2E/DX2 analytically  !
 ! A32   A(18,12,20)           108.569          calculate D2E/DX2 analytically  !
 ! A33   A(19,12,20)           107.5959         calculate D2E/DX2 analytically  !
 ! D1    D(6,1,2,3)            179.9932         calculate D2E/DX2 analytically  !
 ! D2    D(6,1,2,4)             -0.0344         calculate D2E/DX2 analytically  !
 ! D3    D(12,1,2,3)            -0.0008         calculate D2E/DX2 analytically  !
 ! D4    D(12,1,2,4)           179.9716         calculate D2E/DX2 analytically  !
 ! D5    D(2,1,6,5)              0.0299         calculate D2E/DX2 analytically  !
 ! D6    D(12,1,6,5)          -179.975          calculate D2E/DX2 analytically  !
 ! D7    D(2,1,12,18)           -0.0238         calculate D2E/DX2 analytically  !
 ! D8    D(2,1,12,19)         -120.2365         calculate D2E/DX2 analytically  !
 ! D9    D(2,1,12,20)          120.1913         calculate D2E/DX2 analytically  !
 ! D10   D(6,1,12,18)          179.9826         calculate D2E/DX2 analytically  !
 ! D11   D(6,1,12,19)           59.7699         calculate D2E/DX2 analytically  !
 ! D12   D(6,1,12,20)          -59.8023         calculate D2E/DX2 analytically  !
 ! D13   D(1,2,4,5)              0.0289         calculate D2E/DX2 analytically  !
 ! D14   D(1,2,4,7)            179.9333         calculate D2E/DX2 analytically  !
 ! D15   D(3,2,4,5)           -179.998          calculate D2E/DX2 analytically  !
 ! D16   D(3,2,4,7)             -0.0935         calculate D2E/DX2 analytically  !
 ! D17   D(2,4,5,6)             -0.0115         calculate D2E/DX2 analytically  !
 ! D18   D(7,4,5,6)           -179.9182         calculate D2E/DX2 analytically  !
 ! D19   D(2,4,7,8)             -0.2734         calculate D2E/DX2 analytically  !
 ! D20   D(2,4,7,9)            179.4866         calculate D2E/DX2 analytically  !
 ! D21   D(5,4,7,8)            179.6214         calculate D2E/DX2 analytically  !
 ! D22   D(5,4,7,9)             -0.6186         calculate D2E/DX2 analytically  !
 ! D23   D(4,5,6,1)             -0.0109         calculate D2E/DX2 analytically  !
 ! D24   D(4,7,9,10)           179.8943         calculate D2E/DX2 analytically  !
 ! D25   D(8,7,9,10)            -0.3553         calculate D2E/DX2 analytically  !
 ! D26   D(7,9,10,11)          -85.2611         calculate D2E/DX2 analytically  !
 ! D27   D(7,9,10,13)          154.4696         calculate D2E/DX2 analytically  !
 ! D28   D(7,9,10,14)           37.8452         calculate D2E/DX2 analytically  !
 ! D29   D(9,10,11,15)         -55.8207         calculate D2E/DX2 analytically  !
 ! D30   D(9,10,11,16)        -175.4028         calculate D2E/DX2 analytically  !
 ! D31   D(9,10,11,17)          65.1764         calculate D2E/DX2 analytically  !
 ! D32   D(13,10,11,15)         59.8237         calculate D2E/DX2 analytically  !
 ! D33   D(13,10,11,16)        -59.7584         calculate D2E/DX2 analytically  !
 ! D34   D(13,10,11,17)       -179.1792         calculate D2E/DX2 analytically  !
 ! D35   D(14,10,11,15)       -177.3983         calculate D2E/DX2 analytically  !
 ! D36   D(14,10,11,16)         63.0196         calculate D2E/DX2 analytically  !
 ! D37   D(14,10,11,17)        -56.4013         calculate D2E/DX2 analytically  !
 --------------------------------------------------------------------------------
 Trust Radius=3.00D-01 FncErr=1.00D-07 GrdErr=1.00D-06 EigMax=2.50D+02 EigMin=1.00D-04
 Number of steps in this run=    100 maximum allowed number of steps=    120.
 GradGradGradGradGradGradGradGradGradGradGradGradGradGradGradGradGradGrad

                          Input orientation:                          
 ---------------------------------------------------------------------
 Center     Atomic      Atomic             Coordinates (Angstroms)
 Number     Number       Type             X           Y           Z
 ---------------------------------------------------------------------
      1          6           0        2.649113    0.099933    0.093317
      2          6           0        1.565618    0.919978    0.013255
      3          1           0        1.525555    1.997635    0.035539
      4          6           0        0.468477    0.021760   -0.110149
      5          7           0        0.851596   -1.239489   -0.105008
      6          8           0        2.234015   -1.191380    0.024100
      7          6           0       -0.957749    0.430675   -0.230531
      8          8           0       -1.295747    1.598134   -0.226934
      9          8           0       -1.786652   -0.616999   -0.344276
     10          6           0       -3.199567   -0.315012   -0.464642
     11          6           0       -3.843795   -0.135101    0.901417
     12          6           0        4.114488    0.324734    0.233733
     13          1           0       -3.609771   -1.179009   -0.992185
     14          1           0       -3.316701    0.579011   -1.081879
     15          1           0       -3.680769   -1.018357    1.527177
     16          1           0       -4.923852    0.010332    0.784181
     17          1           0       -3.433107    0.741507    1.410231
     18          1           0        4.327248    1.395459    0.278702
     19          1           0        4.660027   -0.104139   -0.614462
     20          1           0        4.497756   -0.145857    1.146225
 ---------------------------------------------------------------------
                    Distance matrix (angstroms):
                    1          2          3          4          5
     1  C    0.000000
     2  C    1.361193   0.000000
     3  H    2.206126   1.078632   0.000000
     4  C    2.191502   1.423286   2.245600   0.000000
     5  N    2.250434   2.277523   3.309524   1.318164   0.000000
     6  O    1.358156   2.214657   3.266782   2.146359   1.389268
     7  C    3.636443   2.581904   2.948382   1.488564   2.465549
     8  O    4.231913   2.950423   2.861510   2.368772   3.560625
     9  O    4.514586   3.705110   4.236896   2.355512   2.721231
    10  C    5.889869   4.945763   5.284439   3.700490   4.170841
    11  C    6.547222   5.582452   5.841937   4.432106   4.927399
    12  C    1.489153   2.626721   3.088762   3.674703   3.634282
    13  H    6.479787   5.674620   6.125264   4.341882   4.549125
    14  H    6.099306   5.015238   5.168033   3.947450   4.651443
    15  H    6.585889   5.794280   6.198952   4.580275   4.822371
    16  H    7.604941   6.598106   6.790043   5.466001   5.975660
    17  H    6.256139   5.193327   5.296788   4.248759   4.957719
    18  H    2.128119   2.814808   2.875974   4.114410   4.378395
    19  H    2.141582   3.319369   3.829474   4.223656   4.006583
    20  H    2.141614   3.319195   3.829120   4.223939   4.007006
                    6          7          8          9         10
     6  O    0.000000
     7  C    3.589325   0.000000
     8  O    4.505955   1.215408   0.000000
     9  O    4.078159   1.340761   2.271909   0.000000
    10  C    5.525460   2.374154   2.709458   1.449832   0.000000
    11  C    6.230986   3.151297   3.281742   2.452716   1.521024
    12  C    2.424608   5.094541   5.577132   6.003700   7.375121
    13  H    5.931511   3.194436   3.694975   2.014796   1.092273
    14  H    5.930255   2.512260   2.419462   2.077390   1.092693
    15  H    6.105231   3.550221   3.951109   2.692787   2.166470
    16  H    7.297732   4.115374   4.087373   3.392489   2.153733
    17  H    6.146030   2.985986   2.825319   2.763087   2.164699
    18  H    3.337392   5.396417   5.649320   6.466673   7.754432
    19  H    2.734116   5.656221   6.206380   6.472688   7.863850
    20  H    2.734375   5.656004   6.204172   6.475905   7.865894
                   11         12         13         14         15
    11  C    0.000000
    12  C    7.999470   0.000000
    13  H    2.174911   7.964188   0.000000
    14  H    2.172843   7.551031   1.784536   0.000000
    15  H    1.094666   8.015168   2.525477   3.080796   0.000000
    16  H    1.096092   9.060543   2.509346   2.527550   1.776373
    17  H    1.093617   7.650100   3.080778   2.500114   1.781049
    18  H    8.336446   1.092585   8.440338   7.806902   8.456567
    19  H    8.637930   1.095892   8.347909   8.019561   8.659751
    20  H    8.345149   1.095898   8.448207   8.158163   8.233751
                   16         17         18         19         20
    16  H    0.000000
    17  H    1.774507   0.000000
    18  H    9.367867   7.869633   0.000000
    19  H    9.686075   8.385304   1.776873   0.000000
    20  H    9.429855   7.984717   1.776886   1.768641   0.000000
 Stoichiometry    C7H9NO3
 Framework group  C1[X(C7H9NO3)]
 Deg. of freedom    54
 Full point group                 C1      NOp   1
 Largest Abelian subgroup         C1      NOp   1
 Largest concise Abelian subgroup C1      NOp   1
                         Standard orientation:                         
 ---------------------------------------------------------------------
 Center     Atomic      Atomic             Coordinates (Angstroms)
 Number     Number       Type             X           Y           Z
 ---------------------------------------------------------------------
      1          6           0        2.649113    0.099933    0.093317
      2          6           0        1.565618    0.919978    0.013255
      3          1           0        1.525555    1.997635    0.035539
      4          6           0        0.468477    0.021760   -0.110149
      5          7           0        0.851596   -1.239489   -0.105008
      6          8           0        2.234015   -1.191380    0.024100
      7          6           0       -0.957749    0.430675   -0.230531
      8          8           0       -1.295747    1.598134   -0.226934
      9          8           0       -1.786652   -0.616999   -0.344276
     10          6           0       -3.199567   -0.315012   -0.464642
     11          6           0       -3.843795   -0.135101    0.901417
     12          6           0        4.114488    0.324734    0.233733
     13          1           0       -3.609771   -1.179009   -0.992185
     14          1           0       -3.316701    0.579011   -1.081879
     15          1           0       -3.680769   -1.018357    1.527177
     16          1           0       -4.923852    0.010332    0.784181
     17          1           0       -3.433107    0.741507    1.410231
     18          1           0        4.327248    1.395459    0.278702
     19          1           0        4.660027   -0.104139   -0.614462
     20          1           0        4.497756   -0.145857    1.146225
 ---------------------------------------------------------------------
 Rotational constants (GHZ):           3.5803477           0.5254253           0.4805303
 Standard basis: 6-31G(d) (6D, 7F)
 There are   183 symmetry adapted cartesian basis functions of A   symmetry.
 There are   183 symmetry adapted basis functions of A   symmetry.
   183 basis functions,   344 primitive gaussians,   183 cartesian basis functions
    41 alpha electrons       41 beta electrons
       nuclear repulsion energy       600.5284180585 Hartrees.
 NAtoms=   20 NActive=   20 NUniq=   20 SFac= 1.00D+00 NAtFMM=   60 NAOKFM=F Big=F
 Integral buffers will be    131072 words long.
 Raffenetti 2 integral format.
 Two-electron integral symmetry is turned on.
 One-electron integrals computed using PRISM.
 NBasis=   183 RedAO= T EigKep=  1.06D-03  NBF=   183
 NBsUse=   183 1.00D-06 EigRej= -1.00D+00 NBFU=   183
 ExpMin= 1.61D-01 ExpMax= 5.48D+03 ExpMxC= 8.25D+02 IAcc=3 IRadAn=         5 AccDes= 0.00D+00
 Harris functional with IExCor=  402 and IRadAn=       5 diagonalized for initial guess.
 HarFok:  IExCor=  402 AccDes= 0.00D+00 IRadAn=         5 IDoV= 1 UseB2=F ITyADJ=14
 ICtDFT=  3500011 ScaDFX=  1.000000  1.000000  1.000000  1.000000
 FoFCou: FMM=F IPFlag=           0 FMFlag=      100000 FMFlg1=           0
         NFxFlg=           0 DoJE=T BraDBF=F KetDBF=T FulRan=T
         wScrn=  0.000000 ICntrl=       500 IOpCl=  0 I1Cent=   200000004 NGrid=           0
         NMat0=    1 NMatS0=      1 NMatT0=    0 NMatD0=    1 NMtDS0=    0 NMtDT0=    0
 Petite list used in FoFCou.
 Keep R1 ints in memory in canonical form, NReq=146778576.
 Gradient too large for Newton-Raphson -- use scaled steepest descent instead.
     Accept linear search using points  2 and  3.
 Gradient too large for Newton-Raphson -- use scaled steepest descent instead.
     Accept linear search using points  2 and  3.
 Gradient too large for Newton-Raphson -- use scaled steepest descent instead.
     Accept linear search using points  2 and  3.
 Gradient too large for Newton-Raphson -- use scaled steepest descent instead.
     Accept linear search using points  1 and  2.
 Gradient too large for Newton-Raphson -- use scaled steepest descent instead.
     Accept linear search using points  2 and  3.
 LinEq1:  Iter=  0 NonCon=     1 RMS=3.80D-05 Max=1.51D-03 NDo=     1
 AX will form     1 AO Fock derivatives at one time.
 LinEq1:  Iter=  1 NonCon=     1 RMS=3.08D-05 Max=9.26D-04 NDo=     1
 LinEq1:  Iter=  2 NonCon=     1 RMS=1.71D-05 Max=3.68D-04 NDo=     1
 LinEq1:  Iter=  3 NonCon=     1 RMS=1.05D-05 Max=2.94D-04 NDo=     1
 LinEq1:  Iter=  4 NonCon=     1 RMS=8.72D-06 Max=2.05D-04 NDo=     1
 LinEq1:  Iter=  5 NonCon=     1 RMS=5.70D-06 Max=1.27D-04 NDo=     1
 LinEq1:  Iter=  6 NonCon=     1 RMS=2.86D-06 Max=6.96D-05 NDo=     1
 LinEq1:  Iter=  7 NonCon=     1 RMS=1.55D-06 Max=3.14D-05 NDo=     1
 LinEq1:  Iter=  8 NonCon=     1 RMS=7.80D-07 Max=1.44D-05 NDo=     1
 LinEq1:  Iter=  9 NonCon=     1 RMS=3.23D-07 Max=6.09D-06 NDo=     1
 LinEq1:  Iter= 10 NonCon=     1 RMS=1.68D-07 Max=3.83D-06 NDo=     1
 LinEq1:  Iter= 11 NonCon=     1 RMS=1.28D-07 Max=3.93D-06 NDo=     1
 LinEq1:  Iter= 12 NonCon=     1 RMS=9.57D-08 Max=1.78D-06 NDo=     1
 LinEq1:  Iter= 13 NonCon=     1 RMS=4.83D-08 Max=1.30D-06 NDo=     1
 LinEq1:  Iter= 14 NonCon=     1 RMS=2.65D-08 Max=5.05D-07 NDo=     1
 LinEq1:  Iter= 15 NonCon=     1 RMS=1.31D-08 Max=2.72D-07 NDo=     1
 LinEq1:  Iter= 16 NonCon=     0 RMS=5.48D-09 Max=7.56D-08 NDo=     1
 Linear equations converged to 1.079D-08 1.079D-07 after    16 iterations.
     Accept linear search using points  1 and  2.
     Minimum is close to point  2 DX= -4.94D-05 DF=  0.00D+00 DXR=  4.94D-05 DFR=  0.00D+00 which will be used.
 LinEq1:  Iter=  0 NonCon=     1 RMS=2.71D-08 Max=1.10D-06 NDo=     1
 LinEq1:  Iter=  1 NonCon=     1 RMS=2.43D-08 Max=9.54D-07 NDo=     1
 LinEq1:  Iter=  2 NonCon=     1 RMS=1.59D-08 Max=4.44D-07 NDo=     1
 LinEq1:  Iter=  3 NonCon=     1 RMS=5.05D-09 Max=1.15D-07 NDo=     1
 LinEq1:  Iter=  4 NonCon=     1 RMS=3.77D-09 Max=1.14D-07 NDo=     1
 LinEq1:  Iter=  5 NonCon=     1 RMS=2.14D-09 Max=6.31D-08 NDo=     1
 LinEq1:  Iter=  6 NonCon=     1 RMS=1.73D-09 Max=4.10D-08 NDo=     1
 LinEq1:  Iter=  7 NonCon=     1 RMS=9.99D-10 Max=1.64D-08 NDo=     1
 LinEq1:  Iter=  8 NonCon=     1 RMS=4.74D-10 Max=1.10D-08 NDo=     1
 LinEq1:  Iter=  9 NonCon=     1 RMS=2.63D-10 Max=7.24D-09 NDo=     1
 LinEq1:  Iter= 10 NonCon=     1 RMS=2.05D-10 Max=3.91D-09 NDo=     1
 LinEq1:  Iter= 11 NonCon=     1 RMS=9.52D-11 Max=2.34D-09 NDo=     1
 LinEq1:  Iter= 12 NonCon=     1 RMS=6.01D-11 Max=1.21D-09 NDo=     1
 LinEq1:  Iter= 13 NonCon=     1 RMS=3.08D-11 Max=7.55D-10 NDo=     1
 LinEq1:  Iter= 14 NonCon=     1 RMS=1.22D-11 Max=2.36D-10 NDo=     1
 LinEq1:  Iter= 15 NonCon=     0 RMS=5.38D-12 Max=1.17D-10 NDo=     1
 Linear equations converged to 1.574D-11 1.574D-10 after    15 iterations.
 SCF Done:  E(RB3LYP) =  -552.552370812     a.u. after    8 cycles
            Convg  =    0.3432D-10                    48 Fock formations.
              S**2 =  0.0000                  -V/T =  2.0091
 DoSCS=F DFT=T ScalE2(SS,OS)=  1.000000  1.000000
 Range of M.O.s used for correlation:     1   183
 NBasis=   183 NAE=    41 NBE=    41 NFC=     0 NFV=     0
 NROrb=    183 NOA=    41 NOB=    41 NVA=   142 NVB=   142
 Symmetrizing basis deriv contribution to polar:
 IMax=3 JMax=2 DiffMx= 0.00D+00
 G2DrvN: will do    21 centers at a time, making    1 passes.
 Calling FoFCou, ICntrl=  3107 FMM=F I1Cent=   0 AccDes= 0.00D+00.
 End of G2Drv F.D. properties file   721 does not exist.
 End of G2Drv F.D. properties file   722 does not exist.
 End of G2Drv F.D. properties file   788 does not exist.
          IDoAtm=11111111111111111111
          Differentiating once with respect to electric field.
                with respect to dipole field.
          Differentiating once with respect to nuclear coordinates.
 Keep R1 ints in memory in canonical form, NReq=146783151.
          There are    63 degrees of freedom in the 1st order CPHF.  IDoFFX=6 NUNeed=     3.
     60 vectors produced by pass  0 Test12= 9.24D-15 1.59D-09 XBig12= 9.56D+01 4.69D+00.
 AX will form    60 AO Fock derivatives at one time.
     60 vectors produced by pass  1 Test12= 9.24D-15 1.59D-09 XBig12= 3.74D+01 1.33D+00.
     60 vectors produced by pass  2 Test12= 9.24D-15 1.59D-09 XBig12= 4.62D-01 7.30D-02.
     60 vectors produced by pass  3 Test12= 9.24D-15 1.59D-09 XBig12= 1.47D-03 4.53D-03.
     60 vectors produced by pass  4 Test12= 9.24D-15 1.59D-09 XBig12= 2.19D-06 1.75D-04.
     42 vectors produced by pass  5 Test12= 9.24D-15 1.59D-09 XBig12= 1.64D-09 4.48D-06.
      7 vectors produced by pass  6 Test12= 9.24D-15 1.59D-09 XBig12= 1.45D-12 1.47D-07.
      2 vectors produced by pass  7 Test12= 9.24D-15 1.59D-09 XBig12= 1.26D-15 3.88D-09.
 InvSVY:  IOpt=1 It=  1 EMax= 1.60D-14
 Solved reduced A of dimension   351 with    63 vectors.
 Isotropic polarizability for W=    0.000000       86.18 Bohr**3.
 End of Minotr F.D. properties file   721 does not exist.
 End of Minotr F.D. properties file   722 does not exist.
 End of Minotr F.D. properties file   788 does not exist.

 **********************************************************************

            Population analysis using the SCF density.

 **********************************************************************

 Orbital symmetries:
       Occupied  (A) (A) (A) (A) (A) (A) (A) (A) (A) (A) (A) (A)
                 (A) (A) (A) (A) (A) (A) (A) (A) (A) (A) (A) (A)
                 (A) (A) (A) (A) (A) (A) (A) (A) (A) (A) (A) (A)
                 (A) (A) (A) (A) (A)
       Virtual   (A) (A) (A) (A) (A) (A) (A) (A) (A) (A) (A) (A)
                 (A) (A) (A) (A) (A) (A) (A) (A) (A) (A) (A) (A)
                 (A) (A) (A) (A) (A) (A) (A) (A) (A) (A) (A) (A)
                 (A) (A) (A) (A) (A) (A) (A) (A) (A) (A) (A) (A)
                 (A) (A) (A) (A) (A) (A) (A) (A) (A) (A) (A) (A)
                 (A) (A) (A) (A) (A) (A) (A) (A) (A) (A) (A) (A)
                 (A) (A) (A) (A) (A) (A) (A) (A) (A) (A) (A) (A)
                 (A) (A) (A) (A) (A) (A) (A) (A) (A) (A) (A) (A)
                 (A) (A) (A) (A) (A) (A) (A) (A) (A) (A) (A) (A)
                 (A) (A) (A) (A) (A) (A) (A) (A) (A) (A) (A) (A)
                 (A) (A) (A) (A) (A) (A) (A) (A) (A) (A) (A) (A)
                 (A) (A) (A) (A) (A) (A) (A) (A) (A) (A)
 The electronic state is 1-A.
 Alpha  occ. eigenvalues --  -19.24225 -19.19498 -19.14243 -14.38991 -10.32714
 Alpha  occ. eigenvalues --  -10.26801 -10.24621 -10.23723 -10.21205 -10.20139
 Alpha  occ. eigenvalues --  -10.18461  -1.14862  -1.10615  -1.01991  -0.88026
 Alpha  occ. eigenvalues --   -0.81727  -0.77469  -0.73069  -0.68445  -0.62670
 Alpha  occ. eigenvalues --   -0.60448  -0.55399  -0.52237  -0.48955  -0.48826
 Alpha  occ. eigenvalues --   -0.47870  -0.46081  -0.44701  -0.42835  -0.42526
 Alpha  occ. eigenvalues --   -0.41542  -0.40644  -0.39373  -0.38848  -0.37296
 Alpha  occ. eigenvalues --   -0.34449  -0.31040  -0.30411  -0.30030  -0.28271
 Alpha  occ. eigenvalues --   -0.26323
 Alpha virt. eigenvalues --   -0.04756   0.01117   0.08768   0.10632   0.11228
 Alpha virt. eigenvalues --    0.11416   0.11961   0.14144   0.14542   0.15461
 Alpha virt. eigenvalues --    0.16180   0.16436   0.17363   0.18732   0.20543
 Alpha virt. eigenvalues --    0.22163   0.22733   0.27166   0.28036   0.33606
 Alpha virt. eigenvalues --    0.37618   0.42347   0.43960   0.48525   0.50474
 Alpha virt. eigenvalues --    0.51401   0.52119   0.53663   0.54588   0.55012
 Alpha virt. eigenvalues --    0.56504   0.58633   0.59264   0.61512   0.63464
 Alpha virt. eigenvalues --    0.64264   0.65829   0.66286   0.67684   0.70216
 Alpha virt. eigenvalues --    0.74031   0.75670   0.76443   0.78226   0.79704
 Alpha virt. eigenvalues --    0.80707   0.81899   0.84912   0.85644   0.87044
 Alpha virt. eigenvalues --    0.88395   0.88616   0.88802   0.90777   0.92351
 Alpha virt. eigenvalues --    0.95092   0.96882   0.97859   0.99793   1.01396
 Alpha virt. eigenvalues --    1.01997   1.06965   1.07355   1.08789   1.10713
 Alpha virt. eigenvalues --    1.16142   1.21018   1.25694   1.27583   1.32605
 Alpha virt. eigenvalues --    1.33000   1.35566   1.38338   1.39667   1.43194
 Alpha virt. eigenvalues --    1.46104   1.48820   1.52871   1.53864   1.56916
 Alpha virt. eigenvalues --    1.59823   1.60564   1.67619   1.68229   1.74571
 Alpha virt. eigenvalues --    1.78375   1.79798   1.82195   1.84930   1.85924
 Alpha virt. eigenvalues --    1.86815   1.89472   1.90749   1.93529   1.94180
 Alpha virt. eigenvalues --    1.97283   2.00617   2.03920   2.07341   2.08972
 Alpha virt. eigenvalues --    2.13965   2.15956   2.16345   2.17183   2.20205
 Alpha virt. eigenvalues --    2.21814   2.25677   2.27998   2.28440   2.30501
 Alpha virt. eigenvalues --    2.35740   2.37455   2.39977   2.45290   2.48256
 Alpha virt. eigenvalues --    2.51755   2.52436   2.56473   2.60526   2.64103
 Alpha virt. eigenvalues --    2.71584   2.73139   2.78564   2.80600   2.81132
 Alpha virt. eigenvalues --    2.91584   2.96872   2.99270   3.09849   3.22717
 Alpha virt. eigenvalues --    3.22934   3.76759   3.98616   4.05669   4.12756
 Alpha virt. eigenvalues --    4.17754   4.20242   4.30908   4.41273   4.46918
 Alpha virt. eigenvalues --    4.53055   4.61911
          Condensed to atoms (all electrons):
               1          2          3          4          5          6
     1  C    4.628840   0.569022  -0.036085  -0.038653  -0.073831   0.233988
     2  C    0.569022   5.113474   0.358287   0.439454  -0.064393  -0.045300
     3  H   -0.036085   0.358287   0.524440  -0.026136   0.005033   0.003514
     4  C   -0.038653   0.439454  -0.026136   4.919292   0.361337  -0.054449
     5  N   -0.073831  -0.064393   0.005033   0.361337   6.900597   0.124968
     6  O    0.233988  -0.045300   0.003514  -0.054449   0.124968   8.140156
     7  C    0.003672  -0.046568  -0.002710   0.312141  -0.051872   0.005586
     8  O    0.000676   0.003418   0.004220  -0.082279   0.002534  -0.000034
     9  O   -0.000027   0.003708   0.000063  -0.087542   0.001534   0.000005
    10  C   -0.000000  -0.000129  -0.000003   0.007752  -0.000273   0.000002
    11  C   -0.000000   0.000013   0.000000  -0.000709   0.000013  -0.000000
    12  C    0.367243  -0.054042  -0.000517   0.002880   0.005285  -0.053340
    13  H   -0.000000   0.000002  -0.000000  -0.000050  -0.000019  -0.000000
    14  H   -0.000000  -0.000016  -0.000002   0.000015   0.000003   0.000000
    15  H    0.000000  -0.000001  -0.000000  -0.000054   0.000002   0.000000
    16  H    0.000000  -0.000000  -0.000000   0.000008  -0.000000   0.000000
    17  H   -0.000000  -0.000000  -0.000000   0.000012  -0.000009   0.000000
    18  H   -0.024003  -0.002751   0.000995   0.000095  -0.000128   0.002326
    19  H   -0.024365   0.000904  -0.000009   0.000019   0.000025  -0.000294
    20  H   -0.024381   0.000894  -0.000009   0.000020   0.000025  -0.000292
               7          8          9         10         11         12
     1  C    0.003672   0.000676  -0.000027  -0.000000  -0.000000   0.367243
     2  C   -0.046568   0.003418   0.003708  -0.000129   0.000013  -0.054042
     3  H   -0.002710   0.004220   0.000063  -0.000003   0.000000  -0.000517
     4  C    0.312141  -0.082279  -0.087542   0.007752  -0.000709   0.002880
     5  N   -0.051872   0.002534   0.001534  -0.000273   0.000013   0.005285
     6  O    0.005586  -0.000034   0.000005   0.000002  -0.000000  -0.053340
     7  C    4.367697   0.548398   0.267789  -0.016860  -0.005002  -0.000201
     8  O    0.548398   8.080214  -0.083326  -0.001063  -0.003658  -0.000001
     9  O    0.267789  -0.083326   8.258267   0.200227  -0.037459   0.000000
    10  C   -0.016860  -0.001063   0.200227   4.823837   0.371301  -0.000000
    11  C   -0.005002  -0.003658  -0.037459   0.371301   5.111026   0.000000
    12  C   -0.000201  -0.000001   0.000000  -0.000000   0.000000   5.169064
    13  H    0.004012   0.000460  -0.035407   0.383804  -0.042930   0.000000
    14  H   -0.007110   0.015360  -0.032665   0.367140  -0.040990   0.000000
    15  H    0.000253   0.000090   0.000357  -0.033256   0.376004   0.000000
    16  H    0.000085   0.000010   0.002911  -0.025959   0.358682  -0.000000
    17  H    0.003494   0.004875  -0.003835  -0.029861   0.377652  -0.000000
    18  H   -0.000002   0.000000   0.000000  -0.000000   0.000000   0.368267
    19  H    0.000004  -0.000000  -0.000000   0.000000  -0.000000   0.362162
    20  H    0.000004  -0.000000  -0.000000   0.000000  -0.000000   0.362149
              13         14         15         16         17         18
     1  C   -0.000000  -0.000000   0.000000   0.000000  -0.000000  -0.024003
     2  C    0.000002  -0.000016  -0.000001  -0.000000  -0.000000  -0.002751
     3  H   -0.000000  -0.000002  -0.000000  -0.000000  -0.000000   0.000995
     4  C   -0.000050   0.000015  -0.000054   0.000008   0.000012   0.000095
     5  N   -0.000019   0.000003   0.000002  -0.000000  -0.000009  -0.000128
     6  O   -0.000000   0.000000   0.000000   0.000000   0.000000   0.002326
     7  C    0.004012  -0.007110   0.000253   0.000085   0.003494  -0.000002
     8  O    0.000460   0.015360   0.000090   0.000010   0.004875   0.000000
     9  O   -0.035407  -0.032665   0.000357   0.002911  -0.003835   0.000000
    10  C    0.383804   0.367140  -0.033256  -0.025959  -0.029861  -0.000000
    11  C   -0.042930  -0.040990   0.376004   0.358682   0.377652   0.000000
    12  C    0.000000   0.000000   0.000000  -0.000000  -0.000000   0.368267
    13  H    0.566557  -0.035658  -0.004881  -0.000591   0.004507   0.000000
    14  H   -0.035658   0.562096   0.004886   0.000555  -0.005422  -0.000000
    15  H   -0.004881   0.004886   0.548910  -0.026828  -0.029506  -0.000000
    16  H   -0.000591   0.000555  -0.026828   0.565035  -0.026019  -0.000000
    17  H    0.004507  -0.005422  -0.029506  -0.026019   0.527992  -0.000000
    18  H    0.000000  -0.000000  -0.000000  -0.000000  -0.000000   0.527667
    19  H   -0.000000   0.000000  -0.000000   0.000000  -0.000000  -0.025137
    20  H   -0.000000  -0.000000  -0.000000  -0.000000   0.000000  -0.025148
              19         20
     1  C   -0.024365  -0.024381
     2  C    0.000904   0.000894
     3  H   -0.000009  -0.000009
     4  C    0.000019   0.000020
     5  N    0.000025   0.000025
     6  O   -0.000294  -0.000292
     7  C    0.000004   0.000004
     8  O   -0.000000  -0.000000
     9  O   -0.000000  -0.000000
    10  C    0.000000   0.000000
    11  C   -0.000000  -0.000000
    12  C    0.362162   0.362149
    13  H   -0.000000  -0.000000
    14  H    0.000000  -0.000000
    15  H   -0.000000  -0.000000
    16  H    0.000000  -0.000000
    17  H   -0.000000   0.000000
    18  H   -0.025137  -0.025148
    19  H    0.529049  -0.029789
    20  H   -0.029789   0.529212
 Mulliken charges:
               1
     1  C    0.417905
     2  C   -0.275974
     3  H    0.168920
     4  C    0.246846
     5  N   -0.210832
     6  O   -0.356836
     7  C    0.617190
     8  O   -0.489895
     9  O   -0.454599
    10  C   -0.046660
    11  C   -0.463942
    12  C   -0.528949
    13  H    0.160194
    14  H    0.171809
    15  H    0.164026
    16  H    0.152110
    17  H    0.176120
    18  H    0.177818
    19  H    0.187433
    20  H    0.187316
 Sum of Mulliken charges =   0.00000
 Mulliken charges with hydrogens summed into heavy atoms:
               1
     1  C    0.417905
     2  C   -0.107055
     4  C    0.246846
     5  N   -0.210832
     6  O   -0.356836
     7  C    0.617190
     8  O   -0.489895
     9  O   -0.454599
    10  C    0.285343
    11  C    0.028314
    12  C    0.023619
 APT charges:
               1
     1  C    0.365357
     2  C   -0.230780
     3  H    0.106891
     4  C    0.079665
     5  N   -0.065968
     6  O   -0.451274
     7  C    1.254627
     8  O   -0.717723
     9  O   -0.915888
    10  C    0.582474
    11  C    0.000693
    12  C    0.059166
    13  H   -0.043028
    14  H   -0.024293
    15  H   -0.002899
    16  H   -0.015531
    17  H    0.013887
    18  H    0.010685
    19  H   -0.003009
    20  H   -0.003052
 Sum of APT charges =   0.00000
 APT charges with hydrogens summed into heavy atoms:
               1
     1  C    0.365357
     2  C   -0.123889
     4  C    0.079665
     5  N   -0.065968
     6  O   -0.451274
     7  C    1.254627
     8  O   -0.717723
     9  O   -0.915888
    10  C    0.515153
    11  C   -0.003850
    12  C    0.063790
 Electronic spatial extent (au):  <R**2>=           2329.1574
 Charge=              0.0000 electrons
 Dipole moment (field-independent basis, Debye):
    X=              0.9660    Y=              1.0510    Z=              0.2804  Tot=              1.4548
 Quadrupole moment (field-independent basis, Debye-Ang):
   XX=            -43.5785   YY=            -70.0877   ZZ=            -62.4352
   XY=              6.7845   XZ=              1.2425   YZ=              0.2480
 Traceless Quadrupole moment (field-independent basis, Debye-Ang):
   XX=             15.1220   YY=            -11.3872   ZZ=             -3.7347
   XY=              6.7845   XZ=              1.2425   YZ=              0.2480
 Octapole moment (field-independent basis, Debye-Ang**2):
  XXX=              7.2984  YYY=              1.0046  ZZZ=             -2.4462  XYY=              3.8307
  XXY=              0.6862  XXZ=             -0.8018  XZZ=             -2.8647  YZZ=             -1.8365
  YYZ=              1.1830  XYZ=             -0.6410
 Hexadecapole moment (field-independent basis, Debye-Ang**3):
 XXXX=          -2222.5568 YYYY=           -338.8830 ZZZZ=           -137.4557 XXXY=             20.6711
 XXXZ=             27.3634 YYYX=             17.8581 YYYZ=              1.6681 ZZZX=              8.2098
 ZZZY=             -1.5216 XXYY=           -484.9034 XXZZ=           -439.3057 YYZZ=            -76.8124
 XXYZ=              3.6621 YYXZ=              1.4995 ZZXY=             -7.7994
 N-N= 6.005284180585D+02 E-N=-2.490520746753D+03  KE= 5.475818547939D+02
  Exact polarizability: 125.371   0.478  80.177   3.491   0.454  53.003
 Approx polarizability: 154.881  -6.804 150.758   6.768   1.076  75.618
 Calling FoFJK, ICntrl=    100127 FMM=F ISym2X=0 I1Cent= 0 IOpClX= 0 NMat=1 NMatS=1 NMatT=0.
 ***** Axes restored to original set *****
 -------------------------------------------------------------------
 Center     Atomic                   Forces (Hartrees/Bohr)
 Number     Number              X              Y              Z
 -------------------------------------------------------------------
      1        6          -0.000028846   -0.000048335    0.000002618
      2        6          -0.000007962    0.000004625   -0.000004712
      3        1          -0.000003299   -0.000000081   -0.000001437
      4        6           0.000034947    0.000013394    0.000004106
      5        7          -0.000049793   -0.000002289   -0.000001760
      6        8           0.000061731    0.000026842    0.000002852
      7        6          -0.000017824    0.000025505   -0.000001096
      8        8           0.000003509   -0.000012283    0.000000273
      9        8           0.000012671   -0.000017825    0.000003673
     10        6          -0.000028534    0.000010087    0.000003701
     11        6          -0.000005190   -0.000009131   -0.000004692
     12        6           0.000014684    0.000008288    0.000003524
     13        1           0.000001318    0.000001805   -0.000005376
     14        1           0.000006133   -0.000004041   -0.000003788
     15        1           0.000006362   -0.000000014   -0.000003401
     16        1           0.000002560    0.000002607    0.000004917
     17        1           0.000000202    0.000005522    0.000001996
     18        1          -0.000002267   -0.000000491    0.000000583
     19        1          -0.000001020   -0.000001740   -0.000000720
     20        1           0.000000619   -0.000002446   -0.000001264
 -------------------------------------------------------------------
 Cartesian Forces:  Max     0.000061731 RMS     0.000015794
 FormGI is forming the generalized inverse of G from B-inverse, IUseBI=4.

 GradGradGradGradGradGradGradGradGradGradGradGradGradGradGradGradGradGrad
 Berny optimization.
 Internal  Forces:  Max     0.000042635 RMS     0.000008064
 Search for a local minimum.
 Step number   1 out of a maximum of  100
 All quantities printed in internal units (Hartrees-Bohrs-Radians)
 Mixed Optimization -- En-DIIS/RFO-DIIS
 Second derivative matrix not updated -- analytic derivatives used.
 ITU=  0
     Eigenvalues ---    0.00071   0.00276   0.00319   0.00506   0.01147
     Eigenvalues ---    0.01518   0.01966   0.02073   0.04607   0.04634
     Eigenvalues ---    0.04689   0.04738   0.05287   0.05853   0.05890
     Eigenvalues ---    0.06070   0.06660   0.09302   0.09973   0.12054
     Eigenvalues ---    0.12609   0.12863   0.12945   0.13563   0.15209
     Eigenvalues ---    0.15800   0.16596   0.17072   0.19568   0.20884
     Eigenvalues ---    0.23093   0.24235   0.25609   0.27448   0.29808
     Eigenvalues ---    0.30103   0.32319   0.33649   0.33766   0.34086
     Eigenvalues ---    0.34152   0.34263   0.34471   0.34773   0.35045
     Eigenvalues ---    0.35377   0.36258   0.38245   0.39553   0.44989
     Eigenvalues ---    0.48361   0.51020   0.57458   0.86622
 RFO step:  Lambda=-4.70883806D-08 EMin= 7.05402184D-04
 Linear search not attempted -- first point.
 Iteration  1 RMS(Cart)=  0.00048564 RMS(Int)=  0.00000012
 Iteration  2 RMS(Cart)=  0.00000015 RMS(Int)=  0.00000000
 Variable       Old X    -DE/DX   Delta X   Delta X   Delta X     New X
                                 (Linear)    (Quad)   (Total)
    R1        2.57228   0.00001   0.00000   0.00003   0.00003   2.57231
    R2        2.56654  -0.00003   0.00000  -0.00014  -0.00014   2.56640
    R3        2.81409   0.00001   0.00000   0.00006   0.00006   2.81415
    R4        2.03832   0.00000   0.00000  -0.00000  -0.00000   2.03832
    R5        2.68962  -0.00001   0.00000  -0.00005  -0.00005   2.68957
    R6        2.49097   0.00000   0.00000   0.00000   0.00000   2.49097
    R7        2.81298   0.00002   0.00000   0.00008   0.00008   2.81306
    R8        2.62534   0.00004   0.00000   0.00022   0.00022   2.62556
    R9        2.29679  -0.00001   0.00000  -0.00002  -0.00002   2.29676
   R10        2.53367   0.00001   0.00000   0.00003   0.00003   2.53370
   R11        2.73979   0.00002   0.00000   0.00010   0.00010   2.73988
   R12        2.87432  -0.00000   0.00000  -0.00002  -0.00002   2.87430
   R13        2.06410   0.00000   0.00000   0.00000   0.00000   2.06410
   R14        2.06489  -0.00000   0.00000  -0.00001  -0.00001   2.06488
   R15        2.06862  -0.00000   0.00000  -0.00000  -0.00000   2.06862
   R16        2.07131  -0.00000   0.00000  -0.00001  -0.00001   2.07130
   R17        2.06664   0.00001   0.00000   0.00002   0.00002   2.06666
   R18        2.06469  -0.00000   0.00000  -0.00001  -0.00001   2.06468
   R19        2.07094   0.00000   0.00000   0.00001   0.00001   2.07095
   R20        2.07095  -0.00000   0.00000  -0.00001  -0.00001   2.07094
    A1        1.90341   0.00001   0.00000   0.00008   0.00008   1.90349
    A2        2.34323  -0.00001   0.00000  -0.00011  -0.00011   2.34312
    A3        2.03654  -0.00000   0.00000   0.00003   0.00003   2.03657
    A4        2.25267   0.00000   0.00000   0.00004   0.00004   2.25272
    A5        1.81161  -0.00000   0.00000  -0.00003  -0.00003   1.81158
    A6        2.21890  -0.00000   0.00000  -0.00001  -0.00001   2.21889
    A7        1.96000   0.00000   0.00000   0.00005   0.00005   1.96006
    A8        2.18000   0.00001   0.00000   0.00004   0.00004   2.18005
    A9        2.14317  -0.00001   0.00000  -0.00010  -0.00010   2.14308
   A10        1.83014  -0.00000   0.00000  -0.00006  -0.00006   1.83008
   A11        1.91961  -0.00001   0.00000  -0.00004  -0.00004   1.91957
   A12        2.12949   0.00000   0.00000   0.00001   0.00001   2.12950
   A13        1.96552  -0.00000   0.00000  -0.00003  -0.00003   1.96548
   A14        2.18817   0.00000   0.00000   0.00002   0.00002   2.18820
   A15        2.03395  -0.00000   0.00000  -0.00003  -0.00003   2.03392
   A16        1.94211  -0.00002   0.00000  -0.00014  -0.00014   1.94196
   A17        1.81453   0.00000   0.00000  -0.00001  -0.00001   1.81452
   A18        1.89841   0.00000   0.00000  -0.00004  -0.00004   1.89837
   A19        1.94794   0.00001   0.00000   0.00007   0.00007   1.94801
   A20        1.94459   0.00001   0.00000   0.00013   0.00013   1.94471
   A21        1.91146  -0.00001   0.00000  -0.00001  -0.00001   1.91144
   A22        1.93359  -0.00001   0.00000  -0.00010  -0.00010   1.93349
   A23        1.91451   0.00001   0.00000   0.00012   0.00012   1.91463
   A24        1.93223   0.00000   0.00000  -0.00002  -0.00002   1.93221
   A25        1.89120   0.00000   0.00000   0.00004   0.00004   1.89124
   A26        1.90167   0.00000   0.00000  -0.00002  -0.00002   1.90165
   A27        1.88962  -0.00000   0.00000  -0.00003  -0.00003   1.88959
   A28        1.92137  -0.00000   0.00000  -0.00002  -0.00002   1.92136
   A29        1.93670  -0.00000   0.00000  -0.00002  -0.00002   1.93669
   A30        1.93674   0.00000   0.00000  -0.00001  -0.00001   1.93674
   A31        1.89487   0.00000   0.00000   0.00001   0.00001   1.89488
   A32        1.89489   0.00000   0.00000   0.00005   0.00005   1.89493
   A33        1.87790  -0.00000   0.00000  -0.00001  -0.00001   1.87789
    D1        3.14147   0.00000   0.00000   0.00001   0.00001   3.14149
    D2       -0.00060   0.00000   0.00000   0.00002   0.00002  -0.00058
    D3       -0.00001  -0.00000   0.00000  -0.00014  -0.00014  -0.00015
    D4        3.14110   0.00000   0.00000  -0.00013  -0.00013   3.14097
    D5        0.00052  -0.00000   0.00000  -0.00003  -0.00003   0.00049
    D6       -3.14116  -0.00000   0.00000   0.00009   0.00009  -3.14107
    D7       -0.00042   0.00000   0.00000   0.00114   0.00114   0.00072
    D8       -2.09852   0.00000   0.00000   0.00115   0.00115  -2.09737
    D9        2.09773   0.00000   0.00000   0.00118   0.00118   2.09892
   D10        3.14129  -0.00000   0.00000   0.00098   0.00098  -3.14092
   D11        1.04318  -0.00000   0.00000   0.00099   0.00099   1.04417
   D12       -1.04375   0.00000   0.00000   0.00102   0.00102  -1.04273
   D13        0.00050  -0.00000   0.00000  -0.00000  -0.00000   0.00050
   D14        3.14043  -0.00000   0.00000  -0.00009  -0.00009   3.14034
   D15       -3.14156  -0.00000   0.00000   0.00000   0.00000  -3.14155
   D16       -0.00163  -0.00000   0.00000  -0.00008  -0.00008  -0.00172
   D17       -0.00020  -0.00000   0.00000  -0.00001  -0.00001  -0.00021
   D18       -3.14017  -0.00000   0.00000   0.00007   0.00007  -3.14009
   D19       -0.00477  -0.00000   0.00000  -0.00049  -0.00049  -0.00526
   D20        3.13263  -0.00000   0.00000  -0.00049  -0.00049   3.13215
   D21        3.13499  -0.00000   0.00000  -0.00058  -0.00058   3.13440
   D22       -0.01080  -0.00000   0.00000  -0.00058  -0.00058  -0.01138
   D23       -0.00019   0.00000   0.00000   0.00003   0.00003  -0.00016
   D24        3.13975  -0.00000   0.00000  -0.00020  -0.00020   3.13955
   D25       -0.00620  -0.00000   0.00000  -0.00020  -0.00020  -0.00640
   D26       -1.48809  -0.00000   0.00000  -0.00033  -0.00033  -1.48842
   D27        2.69600  -0.00000   0.00000  -0.00033  -0.00033   2.69567
   D28        0.66052   0.00000   0.00000  -0.00030  -0.00030   0.66023
   D29       -0.97426   0.00000   0.00000   0.00039   0.00039  -0.97387
   D30       -3.06136   0.00000   0.00000   0.00032   0.00032  -3.06104
   D31        1.13754  -0.00000   0.00000   0.00029   0.00029   1.13783
   D32        1.04412   0.00000   0.00000   0.00033   0.00033   1.04445
   D33       -1.04298  -0.00000   0.00000   0.00026   0.00026  -1.04272
   D34       -3.12727  -0.00000   0.00000   0.00023   0.00023  -3.12704
   D35       -3.09619   0.00001   0.00000   0.00045   0.00045  -3.09573
   D36        1.09990   0.00000   0.00000   0.00038   0.00038   1.10028
   D37       -0.98439   0.00000   0.00000   0.00035   0.00035  -0.98404
         Item               Value     Threshold  Converged?
 Maximum Force            0.000043     0.000450     YES
 RMS     Force            0.000008     0.000300     YES
 Maximum Displacement     0.002019     0.001800     NO 
 RMS     Displacement     0.000486     0.001200     YES
 Predicted change in Energy=-2.354419D-08
 GradGradGradGradGradGradGradGradGradGradGradGradGradGradGradGradGradGrad

                          Input orientation:                          
 ---------------------------------------------------------------------
 Center     Atomic      Atomic             Coordinates (Angstroms)
 Number     Number       Type             X           Y           Z
 ---------------------------------------------------------------------
      1          6           0        2.649057    0.099844    0.093514
      2          6           0        1.565690    0.920031    0.012868
      3          1           0        1.525761    1.997706    0.034470
      4          6           0        0.468456    0.021900   -0.110029
      5          7           0        0.851336   -1.239418   -0.104075
      6          8           0        2.233872   -1.191402    0.025075
      7          6           0       -0.957777    0.430879   -0.230652
      8          8           0       -1.295731    1.598338   -0.227221
      9          8           0       -1.786685   -0.616810   -0.344402
     10          6           0       -3.199646   -0.314777   -0.464737
     11          6           0       -3.843744   -0.135384    0.901438
     12          6           0        4.114479    0.324653    0.233741
     13          1           0       -3.609814   -1.178596   -0.992601
     14          1           0       -3.316712    0.579434   -1.081702
     15          1           0       -3.680271   -1.018760    1.526907
     16          1           0       -4.923864    0.009778    0.784505
     17          1           0       -3.433204    0.741213    1.410417
     18          1           0        4.327188    1.395370    0.279070
     19          1           0        4.659859   -0.103878   -0.614736
     20          1           0        4.497935   -0.146304    1.145960
 ---------------------------------------------------------------------
                    Distance matrix (angstroms):
                    1          2          3          4          5
     1  C    0.000000
     2  C    1.361210   0.000000
     3  H    2.206164   1.078631   0.000000
     4  C    2.191467   1.423259   2.245570   0.000000
     5  N    2.250436   2.277542   3.309534   1.318164   0.000000
     6  O    1.358079   2.214671   3.266791   2.146404   1.389385
     7  C    3.636471   2.581949   2.948423   1.488608   2.465524
     8  O    4.231985   2.950504   2.861607   2.368806   3.560607
     9  O    4.514551   3.705124   4.236926   2.355534   2.721132
    10  C    5.889897   4.945836   5.284530   3.700560   4.170791
    11  C    6.547101   5.582601   5.842370   4.432028   4.926838
    12  C    1.489183   2.626706   3.088734   3.674687   3.634356
    13  H    6.479777   5.674597   6.125186   4.341936   4.549180
    14  H    6.099307   5.015172   5.167870   3.947466   4.651517
    15  H    6.585308   5.794078   6.199130   4.579789   4.821230
    16  H    7.604914   6.598356   6.790587   5.466027   5.975199
    17  H    6.256156   5.193656   5.297484   4.248778   4.957204
    18  H    2.128131   2.814726   2.875871   4.114321   4.378408
    19  H    2.141599   3.319059   3.828929   4.223554   4.006878
    20  H    2.141630   3.319492   3.829622   4.224039   4.006890
                    6          7          8          9         10
     6  O    0.000000
     7  C    3.589404   0.000000
     8  O    4.506040   1.215395   0.000000
     9  O    4.078180   1.340776   2.271926   0.000000
    10  C    5.525533   2.374189   2.709486   1.449884   0.000000
    11  C    6.230619   3.151362   3.282078   2.452627   1.521012
    12  C    2.424592   5.094579   5.577197   6.003694   7.375173
    13  H    5.931652   3.194413   3.694882   2.014836   1.092274
    14  H    5.930414   2.512156   2.419229   2.077401   1.092686
    15  H    6.104293   3.549992   3.951228   2.692402   2.166389
    16  H    7.297449   4.115546   4.087844   3.392482   2.153803
    17  H    6.145724   2.986160   2.825830   2.763085   2.164686
    18  H    3.337346   5.396380   5.649313   6.466609   7.754424
    19  H    2.734498   5.656087   6.206187   6.472566   7.863765
    20  H    2.733970   5.656235   6.204511   6.476033   7.866097
                   11         12         13         14         15
    11  C    0.000000
    12  C    7.999423   0.000000
    13  H    2.174949   7.964193   0.000000
    14  H    2.172917   7.551021   1.784522   0.000000
    15  H    1.094664   8.014685   2.525557   3.080786   0.000000
    16  H    1.096086   9.060582   2.509396   2.527879   1.776394
    17  H    1.093629   7.650204   3.080804   2.500079   1.781044
    18  H    8.336347   1.092582   8.440287   7.806835   8.456035
    19  H    8.637769   1.095897   8.347772   8.019393   8.659181
    20  H    8.345269   1.095893   8.448352   8.158301   8.233429
                   16         17         18         19         20
    16  H    0.000000
    17  H    1.774494   0.000000
    18  H    9.367887   7.869661   0.000000
    19  H    9.685997   8.385291   1.776880   0.000000
    20  H    9.430022   7.985023   1.776910   1.768635   0.000000
 Stoichiometry    C7H9NO3
 Framework group  C1[X(C7H9NO3)]
 Deg. of freedom    54
 Full point group                 C1      NOp   1
 Largest Abelian subgroup         C1      NOp   1
 Largest concise Abelian subgroup C1      NOp   1
                         Standard orientation:                         
 ---------------------------------------------------------------------
 Center     Atomic      Atomic             Coordinates (Angstroms)
 Number     Number       Type             X           Y           Z
 ---------------------------------------------------------------------
      1          6           0        2.649099    0.099741    0.093333
      2          6           0        1.565726    0.919978    0.013288
      3          1           0        1.525795    1.997639    0.035603
      4          6           0        0.468487    0.021926   -0.110141
      5          7           0        0.851370   -1.239395   -0.105039
      6          8           0        2.233913   -1.191461    0.024065
      7          6           0       -0.957754    0.430981   -0.230415
      8          8           0       -1.295710    1.598437   -0.226196
      9          8           0       -1.786666   -0.616634   -0.344810
     10          6           0       -3.199634   -0.314525   -0.464868
     11          6           0       -3.843657   -0.136035    0.901460
     12          6           0        4.114529    0.324460    0.233627
     13          1           0       -3.609829   -1.177998   -0.993279
     14          1           0       -3.316737    0.580092   -1.081236
     15          1           0       -3.680148   -1.019823    1.526338
     16          1           0       -4.923784    0.009201    0.784683
     17          1           0       -3.433091    0.740227    1.410994
     18          1           0        4.327237    1.395148    0.279650
     19          1           0        4.659862   -0.103509   -0.615163
     20          1           0        4.498036   -0.147097    1.145514
 ---------------------------------------------------------------------
 Rotational constants (GHZ):           3.5800635           0.5254322           0.4805345
 Standard basis: 6-31G(d) (6D, 7F)
 There are   183 symmetry adapted cartesian basis functions of A   symmetry.
 There are   183 symmetry adapted basis functions of A   symmetry.
   183 basis functions,   344 primitive gaussians,   183 cartesian basis functions
    41 alpha electrons       41 beta electrons
       nuclear repulsion energy       600.5257023295 Hartrees.
 NAtoms=   20 NActive=   20 NUniq=   20 SFac= 1.00D+00 NAtFMM=   60 NAOKFM=F Big=F
 Integral buffers will be    131072 words long.
 Raffenetti 2 integral format.
 Two-electron integral symmetry is turned on.
 One-electron integrals computed using PRISM.
 NBasis=   183 RedAO= T EigKep=  1.06D-03  NBF=   183
 NBsUse=   183 1.00D-06 EigRej= -1.00D+00 NBFU=   183
 Initial guess from the checkpoint file:  "7_1.chk"
 B after Tr=    -0.000000    0.000000   -0.000000
         Rot=    1.000000   -0.000227   -0.000005    0.000007 Ang=  -0.03 deg.
 Keep R1 ints in memory in canonical form, NReq=146778576.
 LinEq1:  Iter=  0 NonCon=     1 RMS=7.86D-06 Max=1.99D-04 NDo=     1
 AX will form     1 AO Fock derivatives at one time.
 LinEq1:  Iter=  1 NonCon=     1 RMS=8.29D-07 Max=2.41D-05 NDo=     1
 LinEq1:  Iter=  2 NonCon=     1 RMS=8.93D-07 Max=1.87D-05 NDo=     1
 LinEq1:  Iter=  3 NonCon=     1 RMS=5.28D-07 Max=1.97D-05 NDo=     1
 LinEq1:  Iter=  4 NonCon=     1 RMS=3.79D-07 Max=1.23D-05 NDo=     1
 LinEq1:  Iter=  5 NonCon=     1 RMS=2.02D-07 Max=7.22D-06 NDo=     1
 LinEq1:  Iter=  6 NonCon=     1 RMS=1.24D-07 Max=2.23D-06 NDo=     1
 LinEq1:  Iter=  7 NonCon=     1 RMS=8.59D-08 Max=1.88D-06 NDo=     1
 LinEq1:  Iter=  8 NonCon=     1 RMS=3.96D-08 Max=1.02D-06 NDo=     1
 LinEq1:  Iter=  9 NonCon=     1 RMS=2.55D-08 Max=5.15D-07 NDo=     1
 LinEq1:  Iter= 10 NonCon=     1 RMS=1.69D-08 Max=2.97D-07 NDo=     1
 LinEq1:  Iter= 11 NonCon=     1 RMS=9.99D-09 Max=1.46D-07 NDo=     1
 LinEq1:  Iter= 12 NonCon=     0 RMS=3.91D-09 Max=6.29D-08 NDo=     1
 Linear equations converged to 7.392D-09 7.392D-08 after    12 iterations.
     Minimum is close to point  2 DX=  3.87D-06 DF=  0.00D+00 DXR=  3.87D-06 DFR=  0.00D+00 which will be used.
 SCF Done:  E(RB3LYP) =  -552.552370838     a.u. after    2 cycles
            Convg  =    0.4831D-07                    15 Fock formations.
              S**2 =  0.0000                  -V/T =  2.0091
 DoSCS=F DFT=T ScalE2(SS,OS)=  1.000000  1.000000
 Range of M.O.s used for correlation:     1   183
 NBasis=   183 NAE=    41 NBE=    41 NFC=     0 NFV=     0
 NROrb=    183 NOA=    41 NOB=    41 NVA=   142 NVB=   142
 Symmetrizing basis deriv contribution to polar:
 IMax=3 JMax=2 DiffMx= 0.00D+00
 G2DrvN: will do    21 centers at a time, making    1 passes.
 Calling FoFCou, ICntrl=  3107 FMM=F I1Cent=   0 AccDes= 0.00D+00.
 End of G2Drv F.D. properties file   721 does not exist.
 End of G2Drv F.D. properties file   722 does not exist.
 End of G2Drv F.D. properties file   788 does not exist.
          IDoAtm=11111111111111111111
          Differentiating once with respect to electric field.
                with respect to dipole field.
          Differentiating once with respect to nuclear coordinates.
 Keep R1 ints in memory in canonical form, NReq=146783151.
          There are    63 degrees of freedom in the 1st order CPHF.  IDoFFX=6 NUNeed=     3.
     60 vectors produced by pass  0 Test12= 9.24D-15 1.59D-09 XBig12= 9.56D+01 4.70D+00.
 AX will form    60 AO Fock derivatives at one time.
     60 vectors produced by pass  1 Test12= 9.24D-15 1.59D-09 XBig12= 3.74D+01 1.33D+00.
     60 vectors produced by pass  2 Test12= 9.24D-15 1.59D-09 XBig12= 4.63D-01 7.30D-02.
     60 vectors produced by pass  3 Test12= 9.24D-15 1.59D-09 XBig12= 1.47D-03 4.53D-03.
     60 vectors produced by pass  4 Test12= 9.24D-15 1.59D-09 XBig12= 2.19D-06 1.75D-04.
     42 vectors produced by pass  5 Test12= 9.24D-15 1.59D-09 XBig12= 1.64D-09 4.48D-06.
      7 vectors produced by pass  6 Test12= 9.24D-15 1.59D-09 XBig12= 1.46D-12 1.47D-07.
      2 vectors produced by pass  7 Test12= 9.24D-15 1.59D-09 XBig12= 1.26D-15 3.88D-09.
 InvSVY:  IOpt=1 It=  1 EMax= 1.07D-14
 Solved reduced A of dimension   351 with    63 vectors.
 Isotropic polarizability for W=    0.000000       86.18 Bohr**3.
 End of Minotr F.D. properties file   721 does not exist.
 End of Minotr F.D. properties file   722 does not exist.
 End of Minotr F.D. properties file   788 does not exist.
 Calling FoFJK, ICntrl=    100127 FMM=F ISym2X=0 I1Cent= 0 IOpClX= 0 NMat=1 NMatS=1 NMatT=0.
 ***** Axes restored to original set *****
 -------------------------------------------------------------------
 Center     Atomic                   Forces (Hartrees/Bohr)
 Number     Number              X              Y              Z
 -------------------------------------------------------------------
      1        6           0.000000016   -0.000000147    0.000000113
      2        6           0.000000049   -0.000000072    0.000000139
      3        1           0.000000102   -0.000000091    0.000000265
      4        6           0.000000002   -0.000000013    0.000000033
      5        7          -0.000000086   -0.000000023   -0.000000092
      6        8          -0.000000066   -0.000000149   -0.000000019
      7        6           0.000000042    0.000000054    0.000000014
      8        8           0.000000136    0.000000127    0.000000041
      9        8          -0.000000013    0.000000144   -0.000000132
     10        6          -0.000000067    0.000000245   -0.000000043
     11        6          -0.000000049    0.000000112   -0.000000241
     12        6           0.000000023   -0.000000252    0.000000214
     13        1          -0.000000021    0.000000297   -0.000000289
     14        1           0.000000087    0.000000287   -0.000000127
     15        1          -0.000000124    0.000000060   -0.000000255
     16        1          -0.000000030    0.000000199   -0.000000221
     17        1          -0.000000017    0.000000043   -0.000000089
     18        1           0.000000057   -0.000000266    0.000000317
     19        1           0.000000014   -0.000000195    0.000000194
     20        1          -0.000000053   -0.000000360    0.000000180
 -------------------------------------------------------------------
 Cartesian Forces:  Max     0.000000360 RMS     0.000000153
 FormGI is forming the generalized inverse of G from B-inverse, IUseBI=4.

 GradGradGradGradGradGradGradGradGradGradGradGradGradGradGradGradGradGrad
 Berny optimization.
 Using GEDIIS/GDIIS optimizer.
 Internal  Forces:  Max     0.000000130 RMS     0.000000023
 Search for a local minimum.
 Step number   2 out of a maximum of  100
 All quantities printed in internal units (Hartrees-Bohrs-Radians)
 Mixed Optimization -- En-DIIS/RFO-DIIS
 Swapping is turned off.
 Second derivative matrix not updated -- analytic derivatives used.
 DE= -2.60D-08 DEPred=-2.35D-08 R= 1.11D+00
 Trust test= 1.11D+00 RLast= 3.14D-03 DXMaxT set to 3.00D-01
 ITU=  0  0
     Eigenvalues ---    0.00071   0.00276   0.00319   0.00506   0.01147
     Eigenvalues ---    0.01518   0.01966   0.02073   0.04607   0.04634
     Eigenvalues ---    0.04689   0.04738   0.05287   0.05853   0.05890
     Eigenvalues ---    0.06070   0.06659   0.09302   0.09972   0.12054
     Eigenvalues ---    0.12608   0.12864   0.12945   0.13563   0.15209
     Eigenvalues ---    0.15800   0.16594   0.17072   0.19563   0.20883
     Eigenvalues ---    0.23090   0.24237   0.25606   0.27447   0.29805
     Eigenvalues ---    0.30104   0.32316   0.33647   0.33766   0.34087
     Eigenvalues ---    0.34153   0.34263   0.34471   0.34774   0.35044
     Eigenvalues ---    0.35377   0.36256   0.38246   0.39553   0.44989
     Eigenvalues ---    0.48359   0.51021   0.57455   0.86628
 En-DIIS/RFO-DIIS/Sim-DIIS IScMMF=       -3 using points:     2    1
 RFO step:  Lambda=-2.37974796D-13.
 DidBck=F Rises=F RFO-DIIS coefs:    1.00171   -0.00171
 Iteration  1 RMS(Cart)=  0.00000268 RMS(Int)=  0.00000000
 Iteration  2 RMS(Cart)=  0.00000000 RMS(Int)=  0.00000000
 Variable       Old X    -DE/DX   Delta X   Delta X   Delta X     New X
                                 (Linear)    (Quad)   (Total)
    R1        2.57231   0.00000   0.00000  -0.00000   0.00000   2.57231
    R2        2.56640   0.00000  -0.00000   0.00000   0.00000   2.56640
    R3        2.81415   0.00000   0.00000  -0.00000   0.00000   2.81415
    R4        2.03832  -0.00000  -0.00000  -0.00000  -0.00000   2.03832
    R5        2.68957   0.00000  -0.00000   0.00000   0.00000   2.68957
    R6        2.49097  -0.00000   0.00000  -0.00000  -0.00000   2.49097
    R7        2.81306  -0.00000   0.00000  -0.00000   0.00000   2.81306
    R8        2.62556   0.00000   0.00000  -0.00000   0.00000   2.62556
    R9        2.29676   0.00000  -0.00000   0.00000   0.00000   2.29676
   R10        2.53370   0.00000   0.00000  -0.00000   0.00000   2.53370
   R11        2.73988   0.00000   0.00000  -0.00000   0.00000   2.73988
   R12        2.87430  -0.00000  -0.00000  -0.00000  -0.00000   2.87430
   R13        2.06410   0.00000   0.00000   0.00000   0.00000   2.06410
   R14        2.06488   0.00000  -0.00000   0.00000   0.00000   2.06488
   R15        2.06862   0.00000  -0.00000   0.00000   0.00000   2.06862
   R16        2.07130  -0.00000  -0.00000  -0.00000  -0.00000   2.07130
   R17        2.06666  -0.00000   0.00000   0.00000   0.00000   2.06666
   R18        2.06468  -0.00000  -0.00000   0.00000  -0.00000   2.06468
   R19        2.07095  -0.00000   0.00000  -0.00000   0.00000   2.07095
   R20        2.07094   0.00000  -0.00000  -0.00000  -0.00000   2.07094
    A1        1.90349  -0.00000   0.00000  -0.00000  -0.00000   1.90349
    A2        2.34312  -0.00000  -0.00000   0.00000  -0.00000   2.34312
    A3        2.03657   0.00000   0.00000   0.00000   0.00000   2.03657
    A4        2.25272   0.00000   0.00000  -0.00000   0.00000   2.25272
    A5        1.81158   0.00000  -0.00000   0.00000   0.00000   1.81158
    A6        2.21889  -0.00000  -0.00000  -0.00000  -0.00000   2.21889
    A7        1.96006   0.00000   0.00000  -0.00000   0.00000   1.96006
    A8        2.18005   0.00000   0.00000  -0.00000   0.00000   2.18005
    A9        2.14308  -0.00000  -0.00000   0.00000  -0.00000   2.14308
   A10        1.83008   0.00000  -0.00000   0.00000   0.00000   1.83008
   A11        1.91957  -0.00000  -0.00000   0.00000  -0.00000   1.91957
   A12        2.12950  -0.00000   0.00000  -0.00000  -0.00000   2.12950
   A13        1.96548  -0.00000  -0.00000  -0.00000  -0.00000   1.96548
   A14        2.18820   0.00000   0.00000   0.00000   0.00000   2.18820
   A15        2.03392   0.00000  -0.00000   0.00000   0.00000   2.03393
   A16        1.94196   0.00000  -0.00000  -0.00000  -0.00000   1.94196
   A17        1.81452  -0.00000  -0.00000   0.00000   0.00000   1.81452
   A18        1.89837  -0.00000  -0.00000   0.00000  -0.00000   1.89837
   A19        1.94801  -0.00000   0.00000  -0.00000   0.00000   1.94801
   A20        1.94471   0.00000   0.00000   0.00000   0.00000   1.94471
   A21        1.91144  -0.00000  -0.00000  -0.00000  -0.00000   1.91144
   A22        1.93349   0.00000  -0.00000   0.00000   0.00000   1.93349
   A23        1.91463  -0.00000   0.00000  -0.00000   0.00000   1.91463
   A24        1.93221  -0.00000  -0.00000  -0.00000  -0.00000   1.93221
   A25        1.89124   0.00000   0.00000  -0.00000   0.00000   1.89124
   A26        1.90165  -0.00000  -0.00000  -0.00000  -0.00000   1.90165
   A27        1.88959   0.00000  -0.00000   0.00000   0.00000   1.88959
   A28        1.92136  -0.00000  -0.00000  -0.00000  -0.00000   1.92136
   A29        1.93669  -0.00000  -0.00000   0.00000   0.00000   1.93669
   A30        1.93674   0.00000  -0.00000   0.00000   0.00000   1.93674
   A31        1.89488   0.00000   0.00000  -0.00000  -0.00000   1.89488
   A32        1.89493   0.00000   0.00000   0.00000   0.00000   1.89493
   A33        1.87789  -0.00000  -0.00000   0.00000   0.00000   1.87789
    D1        3.14149  -0.00000   0.00000  -0.00000  -0.00000   3.14149
    D2       -0.00058   0.00000   0.00000   0.00000   0.00000  -0.00058
    D3       -0.00015  -0.00000  -0.00000  -0.00000  -0.00000  -0.00015
    D4        3.14097   0.00000  -0.00000   0.00000  -0.00000   3.14097
    D5        0.00049  -0.00000  -0.00000  -0.00000  -0.00000   0.00049
    D6       -3.14107  -0.00000   0.00000  -0.00000   0.00000  -3.14107
    D7        0.00072  -0.00000   0.00000   0.00000   0.00000   0.00073
    D8       -2.09737   0.00000   0.00000   0.00000   0.00000  -2.09737
    D9        2.09892   0.00000   0.00000   0.00000   0.00000   2.09892
   D10       -3.14092   0.00000   0.00000   0.00000   0.00000  -3.14091
   D11        1.04417   0.00000   0.00000   0.00000   0.00000   1.04418
   D12       -1.04273   0.00000   0.00000   0.00000   0.00000  -1.04272
   D13        0.00050   0.00000  -0.00000  -0.00000  -0.00000   0.00050
   D14        3.14034   0.00000  -0.00000   0.00000   0.00000   3.14034
   D15       -3.14155   0.00000   0.00000   0.00000   0.00000  -3.14155
   D16       -0.00172   0.00000  -0.00000   0.00000   0.00000  -0.00172
   D17       -0.00021  -0.00000  -0.00000   0.00000   0.00000  -0.00021
   D18       -3.14009  -0.00000   0.00000  -0.00000  -0.00000  -3.14009
   D19       -0.00526   0.00000  -0.00000   0.00001   0.00001  -0.00525
   D20        3.13215   0.00000  -0.00000   0.00001   0.00000   3.13215
   D21        3.13440   0.00000  -0.00000   0.00001   0.00001   3.13441
   D22       -0.01138   0.00000  -0.00000   0.00001   0.00001  -0.01137
   D23       -0.00016   0.00000   0.00000   0.00000   0.00000  -0.00016
   D24        3.13955  -0.00000  -0.00000   0.00000   0.00000   3.13955
   D25       -0.00640  -0.00000  -0.00000   0.00000   0.00000  -0.00640
   D26       -1.48842  -0.00000  -0.00000  -0.00001  -0.00001  -1.48843
   D27        2.69567  -0.00000  -0.00000  -0.00001  -0.00001   2.69566
   D28        0.66023  -0.00000  -0.00000  -0.00001  -0.00001   0.66022
   D29       -0.97387   0.00000   0.00000  -0.00000  -0.00000  -0.97387
   D30       -3.06104   0.00000   0.00000  -0.00000  -0.00000  -3.06104
   D31        1.13783   0.00000   0.00000  -0.00000  -0.00000   1.13783
   D32        1.04445  -0.00000   0.00000  -0.00000  -0.00000   1.04445
   D33       -1.04272  -0.00000   0.00000  -0.00000  -0.00000  -1.04272
   D34       -3.12704  -0.00000   0.00000  -0.00000  -0.00000  -3.12704
   D35       -3.09573  -0.00000   0.00000  -0.00000  -0.00000  -3.09574
   D36        1.10028  -0.00000   0.00000  -0.00000  -0.00000   1.10028
   D37       -0.98404  -0.00000   0.00000  -0.00000  -0.00000  -0.98404
         Item               Value     Threshold  Converged?
 Maximum Force            0.000000     0.000450     YES
 RMS     Force            0.000000     0.000300     YES
 Maximum Displacement     0.000017     0.001800     YES
 RMS     Displacement     0.000003     0.001200     YES
 Predicted change in Energy=-6.235095D-13
 Optimization completed.
    -- Stationary point found.
                           ----------------------------
                           !   Optimized Parameters   !
                           ! (Angstroms and Degrees)  !
 --------------------------                            --------------------------
 ! Name  Definition              Value          Derivative Info.                !
 --------------------------------------------------------------------------------
 ! R1    R(1,2)                  1.3612         -DE/DX =    0.0                 !
 ! R2    R(1,6)                  1.3581         -DE/DX =    0.0                 !
 ! R3    R(1,12)                 1.4892         -DE/DX =    0.0                 !
 ! R4    R(2,3)                  1.0786         -DE/DX =    0.0                 !
 ! R5    R(2,4)                  1.4233         -DE/DX =    0.0                 !
 ! R6    R(4,5)                  1.3182         -DE/DX =    0.0                 !
 ! R7    R(4,7)                  1.4886         -DE/DX =    0.0                 !
 ! R8    R(5,6)                  1.3894         -DE/DX =    0.0                 !
 ! R9    R(7,8)                  1.2154         -DE/DX =    0.0                 !
 ! R10   R(7,9)                  1.3408         -DE/DX =    0.0                 !
 ! R11   R(9,10)                 1.4499         -DE/DX =    0.0                 !
 ! R12   R(10,11)                1.521          -DE/DX =    0.0                 !
 ! R13   R(10,13)                1.0923         -DE/DX =    0.0                 !
 ! R14   R(10,14)                1.0927         -DE/DX =    0.0                 !
 ! R15   R(11,15)                1.0947         -DE/DX =    0.0                 !
 ! R16   R(11,16)                1.0961         -DE/DX =    0.0                 !
 ! R17   R(11,17)                1.0936         -DE/DX =    0.0                 !
 ! R18   R(12,18)                1.0926         -DE/DX =    0.0                 !
 ! R19   R(12,19)                1.0959         -DE/DX =    0.0                 !
 ! R20   R(12,20)                1.0959         -DE/DX =    0.0                 !
 ! A1    A(2,1,6)              109.062          -DE/DX =    0.0                 !
 ! A2    A(2,1,12)             134.2511         -DE/DX =    0.0                 !
 ! A3    A(6,1,12)             116.6869         -DE/DX =    0.0                 !
 ! A4    A(1,2,3)              129.0711         -DE/DX =    0.0                 !
 ! A5    A(1,2,4)              103.7957         -DE/DX =    0.0                 !
 ! A6    A(3,2,4)              127.1332         -DE/DX =    0.0                 !
 ! A7    A(2,4,5)              112.3031         -DE/DX =    0.0                 !
 ! A8    A(2,4,7)              124.9075         -DE/DX =    0.0                 !
 ! A9    A(5,4,7)              122.7893         -DE/DX =    0.0                 !
 ! A10   A(4,5,6)              104.8556         -DE/DX =    0.0                 !
 ! A11   A(1,6,5)              109.9835         -DE/DX =    0.0                 !
 ! A12   A(4,7,8)              122.0111         -DE/DX =    0.0                 !
 ! A13   A(4,7,9)              112.6138         -DE/DX =    0.0                 !
 ! A14   A(8,7,9)              125.3746         -DE/DX =    0.0                 !
 ! A15   A(7,9,10)             116.5353         -DE/DX =    0.0                 !
 ! A16   A(9,10,11)            111.2664         -DE/DX =    0.0                 !
 ! A17   A(9,10,13)            103.9644         -DE/DX =    0.0                 !
 ! A18   A(9,10,14)            108.7686         -DE/DX =    0.0                 !
 ! A19   A(11,10,13)           111.6127         -DE/DX =    0.0                 !
 ! A20   A(11,10,14)           111.4238         -DE/DX =    0.0                 !
 ! A21   A(13,10,14)           109.5175         -DE/DX =    0.0                 !
 ! A22   A(10,11,15)           110.781          -DE/DX =    0.0                 !
 ! A23   A(10,11,16)           109.7            -DE/DX =    0.0                 !
 ! A24   A(10,11,17)           110.7075         -DE/DX =    0.0                 !
 ! A25   A(15,11,16)           108.3603         -DE/DX =    0.0                 !
 ! A26   A(15,11,17)           108.9568         -DE/DX =    0.0                 !
 ! A27   A(16,11,17)           108.2655         -DE/DX =    0.0                 !
 ! A28   A(1,12,18)            110.0857         -DE/DX =    0.0                 !
 ! A29   A(1,12,19)            110.964          -DE/DX =    0.0                 !
 ! A30   A(1,12,20)            110.9668         -DE/DX =    0.0                 !
 ! A31   A(18,12,19)           108.5687         -DE/DX =    0.0                 !
 ! A32   A(18,12,20)           108.5717         -DE/DX =    0.0                 !
 ! A33   A(19,12,20)           107.5954         -DE/DX =    0.0                 !
 ! D1    D(6,1,2,3)            179.9939         -DE/DX =    0.0                 !
 ! D2    D(6,1,2,4)             -0.0332         -DE/DX =    0.0                 !
 ! D3    D(12,1,2,3)            -0.0087         -DE/DX =    0.0                 !
 ! D4    D(12,1,2,4)           179.9641         -DE/DX =    0.0                 !
 ! D5    D(2,1,6,5)              0.0281         -DE/DX =    0.0                 !
 ! D6    D(12,1,6,5)          -179.9698         -DE/DX =    0.0                 !
 ! D7    D(2,1,12,18)            0.0415         -DE/DX =    0.0                 !
 ! D8    D(2,1,12,19)         -120.1704         -DE/DX =    0.0                 !
 ! D9    D(2,1,12,20)          120.259          -DE/DX =    0.0                 !
 ! D10   D(6,1,12,18)         -179.9613         -DE/DX =    0.0                 !
 ! D11   D(6,1,12,19)           59.8268         -DE/DX =    0.0                 !
 ! D12   D(6,1,12,20)          -59.7438         -DE/DX =    0.0                 !
 ! D13   D(1,2,4,5)              0.0287         -DE/DX =    0.0                 !
 ! D14   D(1,2,4,7)            179.9281         -DE/DX =    0.0                 !
 ! D15   D(3,2,4,5)           -179.9977         -DE/DX =    0.0                 !
[...]
    17  H    0.000818   0.003882  -0.001635  -0.030301   0.374483  -0.000000
    18  H   -0.000005   0.000000   0.000000   0.000000  -0.000000   0.366823
    19  H    0.000006  -0.000000  -0.000000   0.000000  -0.000000   0.359532
    20  H    0.000005  -0.000000  -0.000000   0.000000   0.000000   0.359614
              13         14         15         16         17         18
     1  C   -0.000000   0.000000   0.000000   0.000000  -0.000000  -0.024343
     2  C    0.000003  -0.000003  -0.000000  -0.000000   0.000006  -0.002147
     3  H   -0.000000  -0.000000  -0.000000   0.000000   0.000000   0.001051
     4  C   -0.000061  -0.000480  -0.000086   0.000003  -0.000167   0.000065
     5  N   -0.000013   0.000008   0.000007   0.000000   0.000001  -0.000143
     6  O   -0.000000   0.000000  -0.000000  -0.000000  -0.000000   0.002357
     7  C    0.003539  -0.011123  -0.000298  -0.000101   0.000818  -0.000005
     8  O    0.000273   0.005152   0.000065   0.000019   0.003882   0.000000
     9  O   -0.033247  -0.029565   0.000776   0.003127  -0.001635   0.000000
    10  C    0.387589   0.374108  -0.031049  -0.023642  -0.030301   0.000000
    11  C   -0.041618  -0.046909   0.377398   0.352893   0.374483  -0.000000
    12  C    0.000000   0.000000   0.000000  -0.000000  -0.000000   0.366823
    13  H    0.536901  -0.032856  -0.004494  -0.000480   0.004419   0.000000
    14  H   -0.032856   0.571445   0.004781   0.000593  -0.005287  -0.000000
    15  H   -0.004494   0.004781   0.525617  -0.025045  -0.027793   0.000000
    16  H   -0.000480   0.000593  -0.025045   0.557077  -0.025068  -0.000000
    17  H    0.004419  -0.005287  -0.027793  -0.025068   0.536281   0.000000
    18  H    0.000000  -0.000000   0.000000  -0.000000   0.000000   0.543614
    19  H    0.000000   0.000000   0.000000   0.000000   0.000000  -0.026316
    20  H   -0.000000  -0.000000  -0.000000  -0.000000  -0.000000  -0.026316
              19         20
     1  C   -0.025926  -0.026036
     2  C    0.000670   0.000679
     3  H   -0.000014  -0.000011
     4  C    0.000125   0.000115
     5  N   -0.000054  -0.000053
     6  O    0.000521   0.000533
     7  C    0.000006   0.000005
     8  O   -0.000000  -0.000000
     9  O   -0.000000  -0.000000
    10  C    0.000000   0.000000
    11  C   -0.000000   0.000000
    12  C    0.359532   0.359614
    13  H    0.000000  -0.000000
    14  H    0.000000  -0.000000
    15  H    0.000000  -0.000000
    16  H    0.000000  -0.000000
    17  H    0.000000  -0.000000
    18  H   -0.026316  -0.026316
    19  H    0.549210  -0.034052
    20  H   -0.034052   0.549367
 Mulliken charges:
               1
     1  C    0.410736
     2  C   -0.297693
     3  H    0.138816
     4  C    0.229497
     5  N   -0.294071
     6  O   -0.375303
     7  C    0.583115
     8  O   -0.296924
     9  O   -0.417633
    10  C   -0.071239
    11  C   -0.461262
    12  C   -0.527136
    13  H    0.180045
    14  H    0.170135
    15  H    0.180120
    16  H    0.160624
    17  H    0.170362
    18  H    0.165360
    19  H    0.176297
    20  H    0.176155
 Sum of Mulliken charges =   0.00000
 Mulliken charges with hydrogens summed into heavy atoms:
               1
     1  C    0.410736
     2  C   -0.158877
     4  C    0.229497
     5  N   -0.294071
     6  O   -0.375303
     7  C    0.583115
     8  O   -0.296924
     9  O   -0.417633
    10  C    0.278941
    11  C    0.049844
    12  C   -0.009325
 Electronic spatial extent (au):  <R**2>=           2328.1149
 Charge=              0.0000 electrons
 Dipole moment (field-independent basis, Debye):
    X=             -2.7407    Y=              2.7695    Z=              0.0697  Tot=              3.8970
 Quadrupole moment (field-independent basis, Debye-Ang):
   XX=            -43.0304   YY=            -68.2151   ZZ=            -63.4735
   XY=              5.4082   XZ=              1.5440   YZ=             -0.1558
 Traceless Quadrupole moment (field-independent basis, Debye-Ang):
   XX=             15.2093   YY=             -9.9755   ZZ=             -5.2338
   XY=              5.4082   XZ=              1.5440   YZ=             -0.1558
 Octapole moment (field-independent basis, Debye-Ang**2):
  XXX=            -24.6939  YYY=              6.6333  ZZZ=             -1.9687  XYY=             -4.0426
  XXY=              0.5707  XXZ=             -1.7373  XZZ=             -5.4465  YZZ=             -2.1075
  YYZ=              0.3955  XYZ=             -0.2536
 Hexadecapole moment (field-independent basis, Debye-Ang**3):
 XXXX=          -2241.5273 YYYY=           -332.9989 ZZZZ=           -138.7981 XXXY=             18.2686
 XXXZ=             22.9497 YYYX=             12.8963 YYYZ=              0.3439 ZZZX=              6.8835
 ZZZY=             -1.7219 XXYY=           -481.1844 XXZZ=           -439.2774 YYZZ=            -77.5462
 XXYZ=              2.2478 YYXZ=              2.6416 ZZXY=             -6.4943
 N-N= 6.005257023295D+02 E-N=-2.490415836184D+03  KE= 5.477921725093D+02
 Evaluate density.
 Using the total density.
 Monte-Carlo method of calculating molar volume:
 based on  0.001 e/bohr**3 density envelope.
 Number of points per bohr**3 =   20 CutOff= 1.00D-04
 Using the CI density.
 There are       383 points.  Will hold       383 in memory.
 LenV=  1342071987 MDV=  1342177280.
 Box volume = 7041.766 fraction occupied=0.180
 Integrated density= 3.4266897593730818D+01 error=-4.7733102406269182D+01
 Molar volume = 1268.621 bohr**3/mol (113.210 cm**3/mol)
 Recommended a0 for SCRF calculation =  4.41 angstrom (  8.34 bohr)
 ******************************Gaussian NBO Version 3.1******************************
             N A T U R A L   A T O M I C   O R B I T A L   A N D
          N A T U R A L   B O N D   O R B I T A L   A N A L Y S I S
 ******************************Gaussian NBO Version 3.1******************************
       /RESON  / : Allow strongly delocalized NBO set

 Analyzing the CI density

 Job title: Title Card Required                                             

 Storage needed:    101870 in NPA (1342175080 available)


 NATURAL POPULATIONS:  Natural atomic orbital occupancies 
                                                          
   NAO  Atom  No  lang   Type(AO)    Occupancy
 --------------------------------------------
     1    C    1  S      Cor( 1S)     1.99902
     2    C    1  S      Val( 2S)     0.85674
     3    C    1  S      Ryd( 3S)     0.00180
     4    C    1  S      Ryd( 4S)     0.00016
     5    C    1  px     Val( 2p)     1.03931
     6    C    1  px     Ryd( 3p)     0.00409
     7    C    1  py     Val( 2p)     0.76377
     8    C    1  py     Ryd( 3p)     0.00868
     9    C    1  pz     Val( 2p)     0.99809
    10    C    1  pz     Ryd( 3p)     0.00215
    11    C    1  dxy    Ryd( 3d)     0.00141
    12    C    1  dxz    Ryd( 3d)     0.00096
    13    C    1  dyz    Ryd( 3d)     0.00182
    14    C    1  dx2y2  Ryd( 3d)     0.00187
    15    C    1  dz2    Ryd( 3d)     0.00061
 
    16    C    2  S      Cor( 1S)     1.99886
    17    C    2  S      Val( 2S)     0.96704
    18    C    2  S      Ryd( 3S)     0.00060
    19    C    2  S      Ryd( 4S)     0.00004
    20    C    2  px     Val( 2p)     1.05086
    21    C    2  px     Ryd( 3p)     0.00248
    22    C    2  py     Val( 2p)     1.21782
    23    C    2  py     Ryd( 3p)     0.00304
    24    C    2  pz     Val( 2p)     1.11255
    25    C    2  pz     Ryd( 3p)     0.00117
    26    C    2  dxy    Ryd( 3d)     0.00067
    27    C    2  dxz    Ryd( 3d)     0.00057
    28    C    2  dyz    Ryd( 3d)     0.00058
    29    C    2  dx2y2  Ryd( 3d)     0.00065
    30    C    2  dz2    Ryd( 3d)     0.00045
 
    31    H    3  S      Val( 1S)     0.75254
    32    H    3  S      Ryd( 2S)     0.00029
 
    33    C    4  S      Cor( 1S)     1.99908
    34    C    4  S      Val( 2S)     0.86763
    35    C    4  S      Ryd( 3S)     0.00304
    36    C    4  S      Ryd( 4S)     0.00013
    37    C    4  px     Val( 2p)     1.01653
    38    C    4  px     Ryd( 3p)     0.00402
    39    C    4  py     Val( 2p)     0.96748
    40    C    4  py     Ryd( 3p)     0.01192
    41    C    4  pz     Val( 2p)     1.14726
    42    C    4  pz     Ryd( 3p)     0.00214
    43    C    4  dxy    Ryd( 3d)     0.00096
    44    C    4  dxz    Ryd( 3d)     0.00109
    45    C    4  dyz    Ryd( 3d)     0.00190
    46    C    4  dx2y2  Ryd( 3d)     0.00133
    47    C    4  dz2    Ryd( 3d)     0.00051
 
    48    N    5  S      Cor( 1S)     1.99938
    49    N    5  S      Val( 2S)     1.47722
    50    N    5  S      Ryd( 3S)     0.00169
    51    N    5  S      Ryd( 4S)     0.00001
    52    N    5  px     Val( 2p)     0.84670
    53    N    5  px     Ryd( 3p)     0.00689
    54    N    5  py     Val( 2p)     1.50021
    55    N    5  py     Ryd( 3p)     0.00442
    56    N    5  pz     Val( 2p)     1.34149
    57    N    5  pz     Ryd( 3p)     0.00312
    58    N    5  dxy    Ryd( 3d)     0.00183
    59    N    5  dxz    Ryd( 3d)     0.00121
    60    N    5  dyz    Ryd( 3d)     0.00228
    61    N    5  dx2y2  Ryd( 3d)     0.00213
    62    N    5  dz2    Ryd( 3d)     0.00121
 
    63    O    6  S      Cor( 1S)     1.99974
    64    O    6  S      Val( 2S)     1.62270
    65    O    6  S      Ryd( 3S)     0.00065
    66    O    6  S      Ryd( 4S)     0.00005
    67    O    6  px     Val( 2p)     1.34470
    68    O    6  px     Ryd( 3p)     0.00183
    69    O    6  py     Val( 2p)     1.61358
    70    O    6  py     Ryd( 3p)     0.00237
    71    O    6  pz     Val( 2p)     1.72753
    72    O    6  pz     Ryd( 3p)     0.00117
    73    O    6  dxy    Ryd( 3d)     0.00208
    74    O    6  dxz    Ryd( 3d)     0.00130
    75    O    6  dyz    Ryd( 3d)     0.00190
    76    O    6  dx2y2  Ryd( 3d)     0.00169
    77    O    6  dz2    Ryd( 3d)     0.00109
 
    78    C    7  S      Cor( 1S)     1.99933
    79    C    7  S      Val( 2S)     0.76585
    80    C    7  S      Ryd( 3S)     0.00361
    81    C    7  S      Ryd( 4S)     0.00051
    82    C    7  px     Val( 2p)     0.90449
    83    C    7  px     Ryd( 3p)     0.00301
    84    C    7  py     Val( 2p)     0.68579
    85    C    7  py     Ryd( 3p)     0.01847
    86    C    7  pz     Val( 2p)     0.96100
    87    C    7  pz     Ryd( 3p)     0.00261
    88    C    7  dxy    Ryd( 3d)     0.00218
    89    C    7  dxz    Ryd( 3d)     0.00195
    90    C    7  dyz    Ryd( 3d)     0.00279
    91    C    7  dx2y2  Ryd( 3d)     0.00220
    92    C    7  dz2    Ryd( 3d)     0.00051
 
    93    O    8  S      Cor( 1S)     1.99982
    94    O    8  S      Val( 2S)     1.71760
    95    O    8  S      Ryd( 3S)     0.00031
    96    O    8  S      Ryd( 4S)     0.00000
    97    O    8  px     Val( 2p)     1.12637
    98    O    8  px     Ryd( 3p)     0.00082
    99    O    8  py     Val( 2p)     1.55614
   100    O    8  py     Ryd( 3p)     0.00032
   101    O    8  pz     Val( 2p)     1.82863
   102    O    8  pz     Ryd( 3p)     0.00280
   103    O    8  dxy    Ryd( 3d)     0.00338
   104    O    8  dxz    Ryd( 3d)     0.00043
   105    O    8  dyz    Ryd( 3d)     0.00486
   106    O    8  dx2y2  Ryd( 3d)     0.00419
   107    O    8  dz2    Ryd( 3d)     0.00151
 
   108    O    9  S      Cor( 1S)     1.99976
   109    O    9  S      Val( 2S)     1.62048
   110    O    9  S      Ryd( 3S)     0.00081
   111    O    9  S      Ryd( 4S)     0.00004
   112    O    9  px     Val( 2p)     1.41601
   113    O    9  px     Ryd( 3p)     0.00068
   114    O    9  py     Val( 2p)     1.61031
   115    O    9  py     Ryd( 3p)     0.00190
   116    O    9  pz     Val( 2p)     1.80843
   117    O    9  pz     Ryd( 3p)     0.00196
   118    O    9  dxy    Ryd( 3d)     0.00151
   119    O    9  dxz    Ryd( 3d)     0.00044
   120    O    9  dyz    Ryd( 3d)     0.00214
   121    O    9  dx2y2  Ryd( 3d)     0.00140
   122    O    9  dz2    Ryd( 3d)     0.00081
 
   123    C   10  S      Cor( 1S)     1.99927
   124    C   10  S      Val( 2S)     1.04281
   125    C   10  S      Ryd( 3S)     0.00142
   126    C   10  S      Ryd( 4S)     0.00004
   127    C   10  px     Val( 2p)     0.71145
   128    C   10  px     Ryd( 3p)     0.00319
   129    C   10  py     Val( 2p)     1.23070
   130    C   10  py     Ryd( 3p)     0.00494
   131    C   10  pz     Val( 2p)     1.11593
   132    C   10  pz     Ryd( 3p)     0.00126
   133    C   10  dxy    Ryd( 3d)     0.00107
   134    C   10  dxz    Ryd( 3d)     0.00135
   135    C   10  dyz    Ryd( 3d)     0.00134
   136    C   10  dx2y2  Ryd( 3d)     0.00186
   137    C   10  dz2    Ryd( 3d)     0.00086
 
   138    C   11  S      Cor( 1S)     1.99945
   139    C   11  S      Val( 2S)     1.11903
   140    C   11  S      Ryd( 3S)     0.00048
   141    C   11  S      Ryd( 4S)     0.00001
   142    C   11  px     Val( 2p)     1.21613
   143    C   11  px     Ryd( 3p)     0.00134
   144    C   11  py     Val( 2p)     1.25469
   145    C   11  py     Ryd( 3p)     0.00155
   146    C   11  pz     Val( 2p)     1.11460
   147    C   11  pz     Ryd( 3p)     0.00099
   148    C   11  dxy    Ryd( 3d)     0.00035
   149    C   11  dxz    Ryd( 3d)     0.00037
   150    C   11  dyz    Ryd( 3d)     0.00098
   151    C   11  dx2y2  Ryd( 3d)     0.00094
   152    C   11  dz2    Ryd( 3d)     0.00055
 
   153    C   12  S      Cor( 1S)     1.99934
   154    C   12  S      Val( 2S)     1.10468
   155    C   12  S      Ryd( 3S)     0.00055
   156    C   12  S      Ryd( 4S)     0.00000
   157    C   12  px     Val( 2p)     1.10037
   158    C   12  px     Ryd( 3p)     0.00087
   159    C   12  py     Val( 2p)     1.25404
   160    C   12  py     Ryd( 3p)     0.00228
   161    C   12  pz     Val( 2p)     1.25509
   162    C   12  pz     Ryd( 3p)     0.00034
   163    C   12  dxy    Ryd( 3d)     0.00030
   164    C   12  dxz    Ryd( 3d)     0.00076
   165    C   12  dyz    Ryd( 3d)     0.00058
   166    C   12  dx2y2  Ryd( 3d)     0.00095
   167    C   12  dz2    Ryd( 3d)     0.00070
 
   168    H   13  S      Val( 1S)     0.75694
   169    H   13  S      Ryd( 2S)     0.00109
 
   170    H   14  S      Val( 1S)     0.77721
   171    H   14  S      Ryd( 2S)     0.00180
 
   172    H   15  S      Val( 1S)     0.75162
   173    H   15  S      Ryd( 2S)     0.00118
 
   174    H   16  S      Val( 1S)     0.75483
   175    H   16  S      Ryd( 2S)     0.00094
 
   176    H   17  S      Val( 1S)     0.75959
   177    H   17  S      Ryd( 2S)     0.00124
 
   178    H   18  S      Val( 1S)     0.75102
   179    H   18  S      Ryd( 2S)     0.00056
 
   180    H   19  S      Val( 1S)     0.74662
   181    H   19  S      Ryd( 2S)     0.00144
 
   182    H   20  S      Val( 1S)     0.74669
   183    H   20  S      Ryd( 2S)     0.00143

 WARNING:  1 low occupancy (<1.9990e) core orbital  found on  C    2


 Summary of Natural Population Analysis:                  
                                                          
                                       Natural Population 
                Natural  -----------------------------------------------
    Atom  No    Charge         Core      Valence    Rydberg      Total
 -----------------------------------------------------------------------
      C    1    0.31953      1.99902     3.65791    0.02354     5.68047
      C    2   -0.35737      1.99886     4.34827    0.01025     6.35737
      H    3    0.24716      0.00000     0.75254    0.00029     0.75284
      C    4   -0.02500      1.99908     3.99890    0.02703     6.02500
      N    5   -0.18979      1.99938     5.16561    0.02480     7.18979
      O    6   -0.32238      1.99974     6.30851    0.01413     8.32238
      C    7    0.64571      1.99933     3.31712    0.03784     5.35429
      O    8   -0.24716      1.99982     6.22874    0.01860     8.24716
      O    9   -0.46670      1.99976     6.45523    0.01171     8.46670
      C   10   -0.11747      1.99927     4.10088    0.01732     6.11747
      C   11   -0.71146      1.99945     4.70446    0.00755     6.71146
      C   12   -0.72087      1.99934     4.71419    0.00734     6.72087
      H   13    0.24197      0.00000     0.75694    0.00109     0.75803
      H   14    0.22099      0.00000     0.77721    0.00180     0.77901
      H   15    0.24720      0.00000     0.75162    0.00118     0.75280
      H   16    0.24423      0.00000     0.75483    0.00094     0.75577
      H   17    0.23916      0.00000     0.75959    0.00124     0.76084
      H   18    0.24842      0.00000     0.75102    0.00056     0.75158
      H   19    0.25195      0.00000     0.74662    0.00144     0.74805
      H   20    0.25188      0.00000     0.74669    0.00143     0.74812
 =======================================================================
   * Total *   -0.00000     21.99302    59.79689    0.21009    82.00000

                                 Natural Population      
 --------------------------------------------------------
   Core                      21.99302 ( 99.9683% of  22)
   Valence                   59.79689 ( 99.6615% of  60)
   Natural Minimal Basis     81.78991 ( 99.7438% of  82)
   Natural Rydberg Basis      0.21009 (  0.2562% of  82)
 --------------------------------------------------------

    Atom  No          Natural Electron Configuration
 ----------------------------------------------------------------------------
      C    1      [core]2S( 0.86)2p( 2.80)3p( 0.01)3d( 0.01)
      C    2      [core]2S( 0.97)2p( 3.38)3p( 0.01)
      H    3            1S( 0.75)
      C    4      [core]2S( 0.87)2p( 3.13)3p( 0.02)3d( 0.01)
      N    5      [core]2S( 1.48)2p( 3.69)3p( 0.01)3d( 0.01)
      O    6      [core]2S( 1.62)2p( 4.69)3p( 0.01)3d( 0.01)
      C    7      [core]2S( 0.77)2p( 2.55)3p( 0.02)3d( 0.01)
      O    8      [core]2S( 1.72)2p( 4.51)3d( 0.01)
      O    9      [core]2S( 1.62)2p( 4.83)3d( 0.01)
      C   10      [core]2S( 1.04)2p( 3.06)3p( 0.01)3d( 0.01)
      C   11      [core]2S( 1.12)2p( 3.59)
      C   12      [core]2S( 1.10)2p( 3.61)
      H   13            1S( 0.76)
      H   14            1S( 0.78)
      H   15            1S( 0.75)
      H   16            1S( 0.75)
      H   17            1S( 0.76)
      H   18            1S( 0.75)
      H   19            1S( 0.75)
      H   20            1S( 0.75)


 NBO analysis skipped by request.
 1\1\GINC-DELLA-R4C3N5\SP\RB3LYP TD-FC\6-31G(d)\C7H9N1O3\BJS4\30-Dec-20
 19\0\\# TD(NStates=10, Root=1) B3LYP/6-31G* scf=qc volume pop=NPA dens
 ity=current Geom=AllCheck Guess=Read\\Title Card Required\\0,1\C,0,2.6
 490566676,0.0998440472,0.0935142723\C,0,1.5656902828,0.9200306382,0.01
 28680328\H,0,1.525760958,1.9977061529,0.0344703862\C,0,0.4684556416,0.
 0218995658,-0.1100292099\N,0,0.8513362476,-1.2394183676,-0.1040745123\
 O,0,2.2338720779,-1.1914024683,0.0250751499\C,0,-0.9577773722,0.430878
 9794,-0.2306517764\O,0,-1.2957305486,1.5983377316,-0.2272210299\O,0,-1
 .7866853998,-0.6168097165,-0.3444016507\C,0,-3.1996463349,-0.314776890
 5,-0.4647373\C,0,-3.8437442644,-0.1353836797,0.9014379778\C,0,4.114479
 3809,0.3246525747,0.2337411529\H,0,-3.6098137025,-1.1785964485,-0.9926
 013802\H,0,-3.3167124809,0.5794342535,-1.0817015611\H,0,-3.6802713873,
 -1.0187603812,1.5269073146\H,0,-4.9238643312,0.0097776427,0.7845048076
 \H,0,-3.433204358,0.741212862,1.4104166848\H,0,4.3271880976,1.39536982
 06,0.2790701315\H,0,4.6598590321,-0.1038775569,-0.6147363699\H,0,4.497
 9347937,-0.1463037594,1.1459598799\\Version=ES64L-G16RevA.03\State=1-A
 \HF=-552.5523708\RMSD=4.477e-10\Dipole=-1.078292,1.0896167,0.0266387\Q
 uadrupole=11.307621,-7.4166896,-3.8909314,4.0216153,1.1460897,-0.11325
 97\PG=C01 [X(C7H9N1O3)]\\@


 GROWING OLD ISN'T SO BAD -- WHEN YOU CONSIDER THE ALTERNATIVE.

                     -- MAURICE CHEVALIER
 Job cpu time:       0 days  0 hours 13 minutes 33.4 seconds.
 Elapsed time:       0 days  0 hours  2 minutes 47.1 seconds.
 File lengths (MBytes):  RWF=    330 Int=      0 D2E=      0 Chk=     20 Scr=      1
 Normal termination of Gaussian 16 at Mon Dec 30 18:23:27 2019.
