 Entering Gaussian System, Link 0=g16
 Input=science_add_23123.com
 Output=science_add_23123.log
 Initial command:
 /opt/export/g16/l1.exe "/scratch/bjs4/job.103121/Gau-103124.inp" -scrdir="/scratch/bjs4/job.103121/"
 Entering Link 1 = /opt/export/g16/l1.exe PID=    103126.
  
 Copyright (c) 1988,1990,1992,1993,1995,1998,2003,2009,2016,
            Gaussian, Inc.  All Rights Reserved.
  
 This is part of the Gaussian(R) 16 program.  It is based on
 the Gaussian(R) 09 system (copyright 2009, Gaussian, Inc.),
 the Gaussian(R) 03 system (copyright 2003, Gaussian, Inc.),
 the Gaussian(R) 98 system (copyright 1998, Gaussian, Inc.),
 the Gaussian(R) 94 system (copyright 1995, Gaussian, Inc.),
 the Gaussian 92(TM) system (copyright 1992, Gaussian, Inc.),
 the Gaussian 90(TM) system (copyright 1990, Gaussian, Inc.),
 the Gaussian 88(TM) system (copyright 1988, Gaussian, Inc.),
 the Gaussian 86(TM) system (copyright 1986, Carnegie Mellon
 University), and the Gaussian 82(TM) system (copyright 1983,
 Carnegie Mellon University). Gaussian is a federally registered
 trademark of Gaussian, Inc.
  
 This software contains proprietary and confidential information,
 including trade secrets, belonging to Gaussian, Inc.
  
 This software is provided under written license and may be
 used, copied, transmitted, or stored only in accord with that
 written license.
  
 The following legend is applicable only to US Government
 contracts under FAR:
  
                    RESTRICTED RIGHTS LEGEND
  
 Use, reproduction and disclosure by the US Government is
 subject to restrictions as set forth in subparagraphs (a)
 and (c) of the Commercial Computer Software - Restricted
 Rights clause in FAR 52.227-19.
  
 Gaussian, Inc.
 340 Quinnipiac St., Bldg. 40, Wallingford CT 06492
  
  
 ---------------------------------------------------------------
 Warning -- This program may not be used in any manner that
 competes with the business of Gaussian, Inc. or will provide
 assistance to any competitor of Gaussian, Inc.  The licensee
 of this program is prohibited from giving any competitor of
 Gaussian, Inc. access to this program.  By using this program,
 the user acknowledges that Gaussian, Inc. is engaged in the
 business of creating and licensing software in the field of
 computational chemistry and represents and warrants to the
 licensee that it is not a competitor of Gaussian, Inc. and that
 it will not use this program in any manner prohibited above.
 ---------------------------------------------------------------
  

 Cite this work as:
 Gaussian 16, Revision A.03,
 M. J. Frisch, G. W. Trucks, H. B. Schlegel, G. E. Scuseria, 
 M. A. Robb, J. R. Cheeseman, G. Scalmani, V. Barone, 
 G. A. Petersson, H. Nakatsuji, X. Li, M. Caricato, A. V. Marenich, 
 J. Bloino, B. G. Janesko, R. Gomperts, B. Mennucci, H. P. Hratchian, 
 J. V. Ortiz, A. F. Izmaylov, J. L. Sonnenberg, D. Williams-Young, 
 F. Ding, F. Lipparini, F. Egidi, J. Goings, B. Peng, A. Petrone, 
 T. Henderson, D. Ranasinghe, V. G. Zakrzewski, J. Gao, N. Rega, 
 G. Zheng, W. Liang, M. Hada, M. Ehara, K. Toyota, R. Fukuda, 
 J. Hasegawa, M. Ishida, T. Nakajima, Y. Honda, O. Kitao, H. Nakai, 
 T. Vreven, K. Throssell, J. A. Montgomery, Jr., J. E. Peralta, 
 F. Ogliaro, M. J. Bearpark, J. J. Heyd, E. N. Brothers, K. N. Kudin, 
 V. N. Staroverov, T. A. Keith, R. Kobayashi, J. Normand, 
 K. Raghavachari, A. P. Rendell, J. C. Burant, S. S. Iyengar, 
 J. Tomasi, M. Cossi, J. M. Millam, M. Klene, C. Adamo, R. Cammi, 
 J. W. Ochterski, R. L. Martin, K. Morokuma, O. Farkas, 
 J. B. Foresman, and D. J. Fox, Gaussian, Inc., Wallingford CT, 2016.
 
 ******************************************
 Gaussian 16:  ES64L-G16RevA.03 25-Dec-2016
                27-Aug-2018 
 ******************************************
 %nprocshared=4
 Will use up to    4 processors via shared memory.
 %Mem=8GB
 %Chk=science_add_231.chk
 -------------------------
 # opt b3lyp/6-31G* scf=qc
 -------------------------
 1/18=20,19=15,26=3,38=1/1,3;
 2/9=110,12=2,17=6,18=5,40=1/2;
 3/5=1,6=6,7=1,11=2,25=1,30=1,71=1,74=-5/1,2,3;
 4//1;
 5/5=2,8=3,38=5/8;
 6/7=2,8=2,9=2,10=2,28=1/1;
 7//1,2,3,16;
 1/18=20,19=15,26=3/3(2);
 2/9=110/2;
 99//99;
 2/9=110/2;
 3/5=1,6=6,7=1,11=2,25=1,30=1,71=1,74=-5/1,2,3;
 4/5=5,16=3,69=1/1;
 5/5=2,8=3,38=5/8;
 7//1,2,3,16;
 1/18=20,19=15,26=3/3(-5);
 2/9=110/2;
 6/7=2,8=2,9=2,10=2,19=2,28=1/1;
 99/9=1/99;
 -------------------
 Title Card Required
 -------------------
 Symbolic Z-matrix:
 Charge =  0 Multiplicity = 1
 C5                   -0.46257  -1.13038  -0.05165 
 C4                   -1.30892  -0.04205  -0.06029 
 H                    -2.38703  -0.07365  -0.0278 
 C3                   -0.44015   1.05961  -0.06052 
 N2                    0.84271   0.69793  -0.08082 
 O1                    0.82741  -0.68629  -0.08042 
 O                    -0.67092   2.3883   -0.02783 
 C                    -2.04686   2.73495  -0.00732 
 C                    -0.72618  -2.5373    0.04731 
 O                    -1.83895  -3.03744   0.15623 
 O                     0.44813  -3.22471   0.10683 
 C                     0.37411  -4.53264   0.68571 
 C                     0.49157  -4.38508   2.19272 
 H                    -2.11803   3.82684   0.00642 
 H                    -2.5394    2.35626   0.89502 
 H                    -2.55742   2.3772   -0.90802 
 H                     1.21896  -5.11214   0.30033 
 H                    -0.54325  -5.05846   0.39964 
 H                     1.41792  -3.85901   2.45153 
 H                     0.48468  -5.35852   2.68775 
 H                    -0.33123  -3.77986   2.5902 
 

 GradGradGradGradGradGradGradGradGradGradGradGradGradGradGradGradGradGrad
 Berny optimization.
 Initialization pass.
                           ----------------------------
                           !    Initial Parameters    !
                           ! (Angstroms and Degrees)  !
 --------------------------                            --------------------------
 ! Name  Definition              Value          Derivative Info.                !
 --------------------------------------------------------------------------------
 ! R1    R(1,2)                  1.3787         estimate D2E/DX2                !
 ! R2    R(1,6)                  1.3646         estimate D2E/DX2                !
 ! R3    R(1,9)                  1.4348         estimate D2E/DX2                !
 ! R4    R(2,3)                  1.0791         estimate D2E/DX2                !
 ! R5    R(2,4)                  1.403          estimate D2E/DX2                !
 ! R6    R(4,5)                  1.333          estimate D2E/DX2                !
 ! R7    R(4,7)                  1.349          estimate D2E/DX2                !
 ! R8    R(5,6)                  1.3843         estimate D2E/DX2                !
 ! R9    R(7,8)                  1.4191         estimate D2E/DX2                !
 ! R10   R(8,14)                 1.0943         estimate D2E/DX2                !
 ! R11   R(8,15)                 1.0955         estimate D2E/DX2                !
 ! R12   R(8,16)                 1.0954         estimate D2E/DX2                !
 ! R13   R(9,10)                 1.2249         estimate D2E/DX2                !
 ! R14   R(9,11)                 1.362          estimate D2E/DX2                !
 ! R15   R(11,12)                1.4322         estimate D2E/DX2                !
 ! R16   R(12,13)                1.5188         estimate D2E/DX2                !
 ! R17   R(12,17)                1.0946         estimate D2E/DX2                !
 ! R18   R(12,18)                1.0954         estimate D2E/DX2                !
 ! R19   R(13,19)                1.0963         estimate D2E/DX2                !
 ! R20   R(13,20)                1.0921         estimate D2E/DX2                !
 ! R21   R(13,21)                1.096          estimate D2E/DX2                !
 ! A1    A(2,1,6)              108.8614         estimate D2E/DX2                !
 ! A2    A(2,1,9)              131.4283         estimate D2E/DX2                !
 ! A3    A(6,1,9)              119.6199         estimate D2E/DX2                !
 ! A4    A(1,2,3)              126.1586         estimate D2E/DX2                !
 ! A5    A(1,2,4)              103.8697         estimate D2E/DX2                !
 ! A6    A(3,2,4)              129.9169         estimate D2E/DX2                !
 ! A7    A(2,4,5)              112.5119         estimate D2E/DX2                !
 ! A8    A(2,4,7)              131.8723         estimate D2E/DX2                !
 ! A9    A(5,4,7)              115.6101         estimate D2E/DX2                !
 ! A10   A(4,5,6)              105.1095         estimate D2E/DX2                !
 ! A11   A(1,6,5)              109.6257         estimate D2E/DX2                !
 ! A12   A(4,7,8)              114.0054         estimate D2E/DX2                !
 ! A13   A(7,8,14)             107.8775         estimate D2E/DX2                !
 ! A14   A(7,8,15)             111.3081         estimate D2E/DX2                !
 ! A15   A(7,8,16)             111.1161         estimate D2E/DX2                !
 ! A16   A(14,8,15)            107.7776         estimate D2E/DX2                !
 ! A17   A(14,8,16)            107.8114         estimate D2E/DX2                !
 ! A18   A(15,8,16)            110.7815         estimate D2E/DX2                !
 ! A19   A(1,9,10)             124.9899         estimate D2E/DX2                !
 ! A20   A(1,9,11)             109.8463         estimate D2E/DX2                !
 ! A21   A(10,9,11)            124.9822         estimate D2E/DX2                !
 ! A22   A(9,11,12)            115.722          estimate D2E/DX2                !
 ! A23   A(11,12,13)           107.9587         estimate D2E/DX2                !
 ! A24   A(11,12,17)           107.5348         estimate D2E/DX2                !
 ! A25   A(11,12,18)           112.0923         estimate D2E/DX2                !
 ! A26   A(13,12,17)           109.9438         estimate D2E/DX2                !
 ! A27   A(13,12,18)           111.7493         estimate D2E/DX2                !
 ! A28   A(17,12,18)           107.4764         estimate D2E/DX2                !
 ! A29   A(12,13,19)           110.2565         estimate D2E/DX2                !
 ! A30   A(12,13,20)           111.2651         estimate D2E/DX2                !
 ! A31   A(12,13,21)           110.8203         estimate D2E/DX2                !
 ! A32   A(19,13,20)           109.0289         estimate D2E/DX2                !
 ! A33   A(19,13,21)           106.4839         estimate D2E/DX2                !
 ! A34   A(20,13,21)           108.8489         estimate D2E/DX2                !
 ! D1    D(6,1,2,3)           -178.9995         estimate D2E/DX2                !
 ! D2    D(6,1,2,4)             -1.4783         estimate D2E/DX2                !
 ! D3    D(9,1,2,3)             -2.56           estimate D2E/DX2                !
 ! D4    D(9,1,2,4)            174.9611         estimate D2E/DX2                !
 ! D5    D(2,1,6,5)              1.2056         estimate D2E/DX2                !
 ! D6    D(9,1,6,5)           -175.724          estimate D2E/DX2                !
 ! D7    D(2,1,9,10)            -0.4464         estimate D2E/DX2                !
 ! D8    D(2,1,9,11)          -175.7443         estimate D2E/DX2                !
 ! D9    D(6,1,9,10)           175.6773         estimate D2E/DX2                !
 ! D10   D(6,1,9,11)             0.3795         estimate D2E/DX2                !
 ! D11   D(1,2,4,5)              1.3082         estimate D2E/DX2                !
 ! D12   D(1,2,4,7)           -177.7591         estimate D2E/DX2                !
 ! D13   D(3,2,4,5)            178.6987         estimate D2E/DX2                !
 ! D14   D(3,2,4,7)             -0.3686         estimate D2E/DX2                !
 ! D15   D(2,4,5,6)             -0.6043         estimate D2E/DX2                !
 ! D16   D(7,4,5,6)            178.6255         estimate D2E/DX2                !
 ! D17   D(2,4,7,8)             -0.9694         estimate D2E/DX2                !
 ! D18   D(5,4,7,8)            179.9861         estimate D2E/DX2                !
 ! D19   D(4,5,6,1)             -0.3684         estimate D2E/DX2                !
 ! D20   D(4,7,8,14)          -179.3375         estimate D2E/DX2                !
 ! D21   D(4,7,8,15)            62.6175         estimate D2E/DX2                !
 ! D22   D(4,7,8,16)           -61.3612         estimate D2E/DX2                !
 ! D23   D(1,9,11,12)          157.9621         estimate D2E/DX2                !
 ! D24   D(10,9,11,12)         -17.3362         estimate D2E/DX2                !
 ! D25   D(9,11,12,13)         -85.1264         estimate D2E/DX2                !
 ! D26   D(9,11,12,17)         156.2892         estimate D2E/DX2                !
 ! D27   D(9,11,12,18)          38.3746         estimate D2E/DX2                !
 ! D28   D(11,12,13,19)        -56.45           estimate D2E/DX2                !
 ! D29   D(11,12,13,20)       -177.5517         estimate D2E/DX2                !
 ! D30   D(11,12,13,21)         61.1903         estimate D2E/DX2                !
 ! D31   D(17,12,13,19)         60.5849         estimate D2E/DX2                !
 ! D32   D(17,12,13,20)        -60.5168         estimate D2E/DX2                !
 ! D33   D(17,12,13,21)        178.2253         estimate D2E/DX2                !
 ! D34   D(18,12,13,19)        179.8413         estimate D2E/DX2                !
 ! D35   D(18,12,13,20)         58.7397         estimate D2E/DX2                !
 ! D36   D(18,12,13,21)        -62.5183         estimate D2E/DX2                !
 --------------------------------------------------------------------------------
 Trust Radius=3.00D-01 FncErr=1.00D-07 GrdErr=1.00D-06 EigMax=2.50D+02 EigMin=1.00D-04
 Number of steps in this run=    101 maximum allowed number of steps=    126.
 GradGradGradGradGradGradGradGradGradGradGradGradGradGradGradGradGradGrad

                          Input orientation:                          
 ---------------------------------------------------------------------
 Center     Atomic      Atomic             Coordinates (Angstroms)
 Number     Number       Type             X           Y           Z
 ---------------------------------------------------------------------
      1          6           0       -0.462570   -1.130380   -0.051650
      2          6           0       -1.308920   -0.042050   -0.060290
      3          1           0       -2.387030   -0.073650   -0.027800
      4          6           0       -0.440150    1.059610   -0.060520
      5          7           0        0.842710    0.697930   -0.080820
      6          8           0        0.827410   -0.686290   -0.080420
      7          8           0       -0.670920    2.388300   -0.027830
      8          6           0       -2.046860    2.734950   -0.007320
      9          6           0       -0.726180   -2.537300    0.047310
     10          8           0       -1.838950   -3.037440    0.156230
     11          8           0        0.448130   -3.224710    0.106830
     12          6           0        0.374110   -4.532640    0.685710
     13          6           0        0.491570   -4.385080    2.192720
     14          1           0       -2.118030    3.826840    0.006420
     15          1           0       -2.539400    2.356260    0.895020
     16          1           0       -2.557420    2.377200   -0.908020
     17          1           0        1.218960   -5.112140    0.300330
     18          1           0       -0.543250   -5.058460    0.399640
     19          1           0        1.417920   -3.859010    2.451530
     20          1           0        0.484680   -5.358520    2.687750
     21          1           0       -0.331230   -3.779860    2.590200
 ---------------------------------------------------------------------
                    Distance matrix (angstroms):
                    1          2          3          4          5
     1  C    0.000000
     2  C    1.378711   0.000000
     3  H    2.195631   1.079062   0.000000
     4  C    2.190123   1.403003   2.252929   0.000000
     5  N    2.246625   2.275413   3.321049   1.333024   0.000000
     6  O    1.364585   2.231447   3.272724   2.157608   1.384305
     7  O    3.524924   2.512906   3.001038   1.348978   2.269633
     8  C    4.177645   2.873863   2.829199   2.321877   3.536166
     9  C    1.434820   2.564651   2.972143   3.609876   3.597853
    10  O    2.361041   3.049619   3.019654   4.334679   4.604398
    11  O    2.289259   3.639296   4.240924   4.378635   3.946899
    12  C    3.580378   4.853298   5.292975   5.700275   5.307167
    13  C    4.067020   5.213418   5.639634   5.965722   5.579361
    14  H    5.226658   3.953153   3.909905   3.236869   4.308558
    15  H    4.167261   2.859823   2.603704   2.645980   3.891143
    16  H    4.174312   2.851345   2.609691   2.633844   3.881378
    17  H    4.336571   5.676798   6.204612   6.401043   5.834702
    18  H    3.954742   5.095307   5.332032   6.136217   5.940350
    19  H    4.153020   5.321098   5.912163   5.827147   5.244937
    20  H    5.126282   6.247686   6.599302   7.042776   6.668864
    21  H    3.743844   4.685317   4.981589   5.518936   5.344444
                    6          7          8          9         10
     6  O    0.000000
     7  O    3.420652   0.000000
     8  C    4.468966   1.419083   0.000000
     9  C    2.419958   4.926483   5.435421   0.000000
    10  O    3.562778   5.553092   5.778448   1.224851   0.000000
    11  O    2.573420   5.725058   6.461854   1.362013   2.295266
    12  C    3.948018   7.035669   7.691505   2.366342   2.722794
    13  C    4.354423   7.222250   7.872651   3.082205   3.375611
    14  H    5.389944   2.040759   1.094293   6.514691   6.871584
    15  H    4.641552   2.084202   1.095545   5.287089   5.488938
    16  H    4.639716   2.081764   1.095407   5.330892   5.564814
    17  H    4.459420   7.741830   8.505119   3.236880   3.698102
    18  H    4.607064   7.460112   7.947559   2.552224   2.413008
    19  H    4.101905   7.038420   7.844167   3.482005   4.068241
    20  H    5.441504   8.289934   8.898110   4.049369   4.146717
    21  H    4.247921   6.709372   7.220336   2.857662   2.957806
                   11         12         13         14         15
    11  O    0.000000
    12  C    1.432223   0.000000
    13  C    2.387317   1.518766   0.000000
    14  H    7.504640   8.749463   8.889632   0.000000
    15  H    6.379170   7.482599   7.504430   1.769115   0.000000
    16  H    6.437752   7.673313   8.039861   1.769384   1.803252
    17  H    2.047929   1.094582   2.153800   9.546059   8.381881
    18  H    2.105044   1.095387   2.177023   9.032337   7.694679
    19  H    2.615425   2.159036   1.096292   8.806463   7.530783
    20  H    3.348974   2.168517   1.092102   9.916374   8.478017
    21  H    2.661338   2.165933   1.096030   8.229852   6.738072
                   16         17         18         19         20
    16  H    0.000000
    17  H    8.474159   0.000000
    18  H    7.813827   1.765822   0.000000
    19  H    8.122821   2.497515   3.081415   0.000000
    20  H    9.056782   2.509909   2.526286   1.781928   0.000000
    21  H    7.423130   3.069457   2.545255   1.756422   1.779717
                   21
    21  H    0.000000
 Stoichiometry    C7H9NO4
 Framework group  C1[X(C7H9NO4)]
 Deg. of freedom    57
 Full point group                 C1      NOp   1
 Largest Abelian subgroup         C1      NOp   1
 Largest concise Abelian subgroup C1      NOp   1
                         Standard orientation:                         
 ---------------------------------------------------------------------
 Center     Atomic      Atomic             Coordinates (Angstroms)
 Number     Number       Type             X           Y           Z
 ---------------------------------------------------------------------
      1          6           0        0.041553    0.080481   -0.330053
      2          6           0        1.255246    0.694716   -0.105309
      3          1           0        1.421804    1.755437    0.001946
      4          6           0        2.158129   -0.373768    0.002216
      5          7           0        1.570464   -1.557834   -0.169803
      6          8           0        0.233733   -1.269391   -0.384862
      7          8           0        3.481806   -0.411657    0.259481
      8          6           0        4.072382    0.866529    0.436278
      9          6           0       -1.287036    0.612397   -0.433123
     10          8           0       -1.580217    1.796377   -0.321329
     11          8           0       -2.182923   -0.404405   -0.569421
     12          6           0       -3.531942   -0.098161   -0.198444
     13          6           0       -3.664306   -0.306526    1.300127
     14          1           0        5.140093    0.719924    0.625955
     15          1           0        3.646933    1.385295    1.302358
     16          1           0        3.973386    1.475589   -0.468798
     17          1           0       -4.186776   -0.794675   -0.731520
     18          1           0       -3.820361    0.916336   -0.494221
     19          1           0       -3.372757   -1.328716    1.568427
     20          1           0       -4.688165   -0.128540    1.635867
     21          1           0       -2.990757    0.362796    1.847504
 ---------------------------------------------------------------------
 Rotational constants (GHZ):           2.5455847           0.4463314           0.4098898
 Standard basis: 6-31G(d) (6D, 7F)
 There are   198 symmetry adapted cartesian basis functions of A   symmetry.
 There are   198 symmetry adapted basis functions of A   symmetry.
   198 basis functions,   372 primitive gaussians,   198 cartesian basis functions
    45 alpha electrons       45 beta electrons
       nuclear repulsion energy       705.0837043139 Hartrees.
 NAtoms=   21 NActive=   21 NUniq=   21 SFac= 1.00D+00 NAtFMM=   60 NAOKFM=F Big=F
 Integral buffers will be    131072 words long.
 Raffenetti 2 integral format.
 Two-electron integral symmetry is turned on.
 One-electron integrals computed using PRISM.
 NBasis=   198 RedAO= T EigKep=  9.72D-04  NBF=   198
 NBsUse=   198 1.00D-06 EigRej= -1.00D+00 NBFU=   198
 ExpMin= 1.61D-01 ExpMax= 5.48D+03 ExpMxC= 8.25D+02 IAcc=3 IRadAn=         5 AccDes= 0.00D+00
 Harris functional with IExCor=  402 and IRadAn=       5 diagonalized for initial guess.
 HarFok:  IExCor=  402 AccDes= 0.00D+00 IRadAn=         5 IDoV= 1 UseB2=F ITyADJ=14
 ICtDFT=  3500011 ScaDFX=  1.000000  1.000000  1.000000  1.000000
 FoFCou: FMM=F IPFlag=           0 FMFlag=      100000 FMFlg1=           0
         NFxFlg=           0 DoJE=T BraDBF=F KetDBF=T FulRan=T
         wScrn=  0.000000 ICntrl=       500 IOpCl=  0 I1Cent=   200000004 NGrid=           0
         NMat0=    1 NMatS0=      1 NMatT0=    0 NMatD0=    1 NMtDS0=    0 NMtDT0=    0
 Petite list used in FoFCou.
 Keep R1 ints in memory in canonical form, NReq=198177116.
 Gradient too large for Newton-Raphson -- use scaled steepest descent instead.
     Accept linear search using points  2 and  3.
 Gradient too large for Newton-Raphson -- use scaled steepest descent instead.
     Accept linear search using points  2 and  3.
 Gradient too large for Newton-Raphson -- use scaled steepest descent instead.
     Minimum is close to point  2 DX=  5.81D-04 DF= -8.28D-09 DXR=  1.45D-03 DFR=  2.10D-06 which will be used.
 Gradient too large for Newton-Raphson -- use scaled steepest descent instead.
 Gradient too large for Newton-Raphson -- use scaled steepest descent instead.
     Minimum is close to point  2 DX=  9.50D-03 DF= -1.55D-07 DXR=  2.32D-02 DFR=  5.39D-04 which will be used.
 Gradient too large for Newton-Raphson -- use scaled steepest descent instead.
 Gradient too large for Newton-Raphson -- use scaled steepest descent instead.
     Minimum is close to point  2 DX= -4.61D-03 DF= -3.63D-09 DXR=  1.17D-02 DFR=  1.36D-04 which will be used.
 LinEq1:  Iter=  0 NonCon=     1 RMS=4.21D-05 Max=1.12D-03 NDo=     1
 AX will form     1 AO Fock derivatives at one time.
 LinEq1:  Iter=  1 NonCon=     1 RMS=5.51D-05 Max=1.81D-03 NDo=     1
 LinEq1:  Iter=  2 NonCon=     1 RMS=9.09D-06 Max=1.98D-04 NDo=     1
 LinEq1:  Iter=  3 NonCon=     1 RMS=9.11D-06 Max=4.04D-04 NDo=     1
 LinEq1:  Iter=  4 NonCon=     1 RMS=4.05D-06 Max=7.62D-05 NDo=     1
 LinEq1:  Iter=  5 NonCon=     1 RMS=3.02D-06 Max=7.34D-05 NDo=     1
 LinEq1:  Iter=  6 NonCon=     1 RMS=1.92D-06 Max=4.17D-05 NDo=     1
 LinEq1:  Iter=  7 NonCon=     1 RMS=1.32D-06 Max=4.07D-05 NDo=     1
 LinEq1:  Iter=  8 NonCon=     1 RMS=1.03D-06 Max=2.74D-05 NDo=     1
 LinEq1:  Iter=  9 NonCon=     1 RMS=5.10D-07 Max=1.43D-05 NDo=     1
 LinEq1:  Iter= 10 NonCon=     1 RMS=1.96D-07 Max=5.47D-06 NDo=     1
 LinEq1:  Iter= 11 NonCon=     1 RMS=9.85D-08 Max=2.36D-06 NDo=     1
 LinEq1:  Iter= 12 NonCon=     1 RMS=5.78D-08 Max=1.07D-06 NDo=     1
 LinEq1:  Iter= 13 NonCon=     1 RMS=2.47D-08 Max=4.62D-07 NDo=     1
 LinEq1:  Iter= 14 NonCon=     1 RMS=1.32D-08 Max=3.07D-07 NDo=     1
 LinEq1:  Iter= 15 NonCon=     0 RMS=4.94D-09 Max=8.27D-08 NDo=     1
 Linear equations converged to 1.173D-08 1.173D-07 after    15 iterations.
     Minimum is close to point  2 DX=  2.61D-06 DF=  0.00D+00 DXR=  2.61D-06 DFR=  0.00D+00 which will be used.
 LinEq1:  Iter=  0 NonCon=     1 RMS=2.17D-08 Max=6.12D-07 NDo=     1
 LinEq1:  Iter=  1 NonCon=     1 RMS=2.04D-08 Max=7.15D-07 NDo=     1
 LinEq1:  Iter=  2 NonCon=     1 RMS=1.29D-08 Max=3.49D-07 NDo=     1
 LinEq1:  Iter=  3 NonCon=     1 RMS=4.66D-09 Max=1.20D-07 NDo=     1
 LinEq1:  Iter=  4 NonCon=     1 RMS=3.74D-09 Max=1.05D-07 NDo=     1
 LinEq1:  Iter=  5 NonCon=     1 RMS=2.99D-09 Max=9.49D-08 NDo=     1
 LinEq1:  Iter=  6 NonCon=     1 RMS=2.06D-09 Max=5.51D-08 NDo=     1
 LinEq1:  Iter=  7 NonCon=     1 RMS=1.04D-09 Max=3.06D-08 NDo=     1
 LinEq1:  Iter=  8 NonCon=     1 RMS=6.08D-10 Max=2.33D-08 NDo=     1
 LinEq1:  Iter=  9 NonCon=     1 RMS=4.78D-10 Max=1.65D-08 NDo=     1
 LinEq1:  Iter= 10 NonCon=     1 RMS=2.59D-10 Max=4.63D-09 NDo=     1
 LinEq1:  Iter= 11 NonCon=     1 RMS=1.70D-10 Max=2.83D-09 NDo=     1
 LinEq1:  Iter= 12 NonCon=     1 RMS=1.03D-10 Max=2.20D-09 NDo=     1
 LinEq1:  Iter= 13 NonCon=     1 RMS=3.85D-11 Max=7.89D-10 NDo=     1
 LinEq1:  Iter= 14 NonCon=     1 RMS=2.07D-11 Max=5.23D-10 NDo=     1
 LinEq1:  Iter= 15 NonCon=     0 RMS=8.80D-12 Max=1.54D-10 NDo=     1
 Linear equations converged to 1.563D-11 1.563D-10 after    15 iterations.
 QCLLim is confused:  Bigger=T Turned=T
 NLin=  4 IMin12=  1  3 I12=  0  2 IX=  1 XLMin= 0.000D+00 XLMax= 0.000D+00
 X = 0.000D+00 1.000D+00 2.000D+00 4.000D+00
 DE= 0.000D+00 2.956D-12 0.000D+00 2.274D-11
 QCLLim is confused:  Bigger=T Turned=T
 NLin=  5 IMin12=  1  3 I12=  0  2 IX=  1 XLMin= 0.000D+00 XLMax= 0.000D+00
 X = 0.000D+00 1.000D+00 2.000D+00 4.000D+00 8.000D+00
 DE= 0.000D+00 2.956D-12 0.000D+00 2.274D-11 1.264D-10
 QCLLim is confused:  Bigger=T Turned=T
 NLin=  6 IMin12=  1  3 I12=  0  2 IX=  1 XLMin= 0.000D+00 XLMax= 0.000D+00
 X = 0.000D+00 1.000D+00 2.000D+00 4.000D+00 8.000D+00 1.600D+01
 DE= 0.000D+00 2.956D-12 0.000D+00 2.274D-11 1.264D-10 5.946D-10
 QCLLim is confused:  Bigger=T Turned=T
 NLin=  7 IMin12=  1  3 I12=  0  2 IX=  1 XLMin= 0.000D+00 XLMax= 0.000D+00
 X = 0.000D+00 1.000D+00 2.000D+00 4.000D+00 8.000D+00 1.600D+01 3.200D+01
 DE= 0.000D+00 2.956D-12 0.000D+00 2.274D-11 1.264D-10 5.946D-10 2.523D-09
 Search did not lower the energy significantly.
 No lower point found -- using Newton-Raphson step.
 SCF Done:  E(RB3LYP) =  -627.741829448     a.u. after   10 cycles
            Convg  =    0.6452D-10                    67 Fock formations.
              S**2 =  0.0000                  -V/T =  2.0089

 **********************************************************************

            Population analysis using the SCF density.

 **********************************************************************

 Orbital symmetries:
       Occupied  (A) (A) (A) (A) (A) (A) (A) (A) (A) (A) (A) (A)
                 (A) (A) (A) (A) (A) (A) (A) (A) (A) (A) (A) (A)
                 (A) (A) (A) (A) (A) (A) (A) (A) (A) (A) (A) (A)
                 (A) (A) (A) (A) (A) (A) (A) (A) (A)
       Virtual   (A) (A) (A) (A) (A) (A) (A) (A) (A) (A) (A) (A)
                 (A) (A) (A) (A) (A) (A) (A) (A) (A) (A) (A) (A)
                 (A) (A) (A) (A) (A) (A) (A) (A) (A) (A) (A) (A)
                 (A) (A) (A) (A) (A) (A) (A) (A) (A) (A) (A) (A)
                 (A) (A) (A) (A) (A) (A) (A) (A) (A) (A) (A) (A)
                 (A) (A) (A) (A) (A) (A) (A) (A) (A) (A) (A) (A)
                 (A) (A) (A) (A) (A) (A) (A) (A) (A) (A) (A) (A)
                 (A) (A) (A) (A) (A) (A) (A) (A) (A) (A) (A) (A)
                 (A) (A) (A) (A) (A) (A) (A) (A) (A) (A) (A) (A)
                 (A) (A) (A) (A) (A) (A) (A) (A) (A) (A) (A) (A)
                 (A) (A) (A) (A) (A) (A) (A) (A) (A) (A) (A) (A)
                 (A) (A) (A) (A) (A) (A) (A) (A) (A) (A) (A) (A)
                 (A) (A) (A) (A) (A) (A) (A) (A) (A)
 The electronic state is 1-A.
 Alpha  occ. eigenvalues --  -19.25106 -19.20404 -19.19928 -19.15266 -14.38748
 Alpha  occ. eigenvalues --  -10.33647 -10.29166 -10.27592 -10.25824 -10.24817
 Alpha  occ. eigenvalues --  -10.22293 -10.18643  -1.15808  -1.10835  -1.09400
 Alpha  occ. eigenvalues --   -1.02531  -0.87235  -0.82477  -0.77656  -0.73230
 Alpha  occ. eigenvalues --   -0.69426  -0.63320  -0.61366  -0.58173  -0.55542
 Alpha  occ. eigenvalues --   -0.50988  -0.50621  -0.49733  -0.48683  -0.47077
 Alpha  occ. eigenvalues --   -0.46170  -0.45309  -0.44264  -0.40793  -0.40109
 Alpha  occ. eigenvalues --   -0.39588  -0.38346  -0.36832  -0.36725  -0.34561
 Alpha  occ. eigenvalues --   -0.31943  -0.30566  -0.29032  -0.28620  -0.25838
 Alpha virt. eigenvalues --   -0.07412   0.03765   0.07205   0.08771   0.09422
 Alpha virt. eigenvalues --    0.10430   0.12609   0.13467   0.13885   0.14507
 Alpha virt. eigenvalues --    0.14658   0.15504   0.16063   0.17293   0.18037
 Alpha virt. eigenvalues --    0.19093   0.22684   0.24416   0.25942   0.28303
 Alpha virt. eigenvalues --    0.35002   0.36173   0.42710   0.45826   0.48729
 Alpha virt. eigenvalues --    0.50012   0.50565   0.51540   0.52003   0.53703
 Alpha virt. eigenvalues --    0.54161   0.55436   0.56716   0.56989   0.58895
 Alpha virt. eigenvalues --    0.61318   0.62766   0.63804   0.65578   0.67285
 Alpha virt. eigenvalues --    0.67985   0.71178   0.72359   0.73376   0.78130
 Alpha virt. eigenvalues --    0.78991   0.80141   0.81732   0.82661   0.83773
 Alpha virt. eigenvalues --    0.84241   0.86513   0.87342   0.88320   0.89446
 Alpha virt. eigenvalues --    0.90599   0.91961   0.94023   0.95724   0.96604
 Alpha virt. eigenvalues --    0.97293   0.98228   1.00905   1.04084   1.05692
 Alpha virt. eigenvalues --    1.05902   1.08650   1.10020   1.16124   1.19067
 Alpha virt. eigenvalues --    1.20176   1.25021   1.27088   1.30920   1.33378
 Alpha virt. eigenvalues --    1.35103   1.36996   1.40361   1.42975   1.44722
 Alpha virt. eigenvalues --    1.47548   1.48291   1.50653   1.51790   1.54265
 Alpha virt. eigenvalues --    1.59782   1.61080   1.62625   1.63442   1.73599
 Alpha virt. eigenvalues --    1.74478   1.77810   1.81920   1.82616   1.83610
 Alpha virt. eigenvalues --    1.86302   1.87734   1.89828   1.91467   1.93508
 Alpha virt. eigenvalues --    1.96783   1.98733   1.99178   2.00240   2.05082
 Alpha virt. eigenvalues --    2.07195   2.08853   2.10676   2.10857   2.15446
 Alpha virt. eigenvalues --    2.17051   2.18975   2.20951   2.22549   2.23737
 Alpha virt. eigenvalues --    2.27106   2.31133   2.34063   2.36608   2.38976
 Alpha virt. eigenvalues --    2.41212   2.43541   2.51381   2.53135   2.55311
 Alpha virt. eigenvalues --    2.56740   2.59761   2.61279   2.63262   2.70194
 Alpha virt. eigenvalues --    2.70925   2.75663   2.80336   2.83032   2.86818
 Alpha virt. eigenvalues --    2.92416   2.96418   3.10418   3.11744   3.24408
 Alpha virt. eigenvalues --    3.28078   3.76543   3.97395   4.06081   4.11964
 Alpha virt. eigenvalues --    4.15071   4.17625   4.28668   4.31541   4.41249
 Alpha virt. eigenvalues --    4.53770   4.58394   4.73811
          Condensed to atoms (all electrons):
               1          2          3          4          5          6
     1  C    4.864744   0.525202  -0.026813  -0.046075  -0.070252   0.228461
     2  C    0.525202   5.259623   0.356444   0.376368  -0.068660  -0.078633
     3  H   -0.026813   0.356444   0.509829  -0.032392   0.003841   0.003471
     4  C   -0.046075   0.376368  -0.032392   4.550012   0.396433  -0.036182
     5  N   -0.070252  -0.068660   0.003841   0.396433   6.869521   0.128898
     6  O    0.228461  -0.078633   0.003471  -0.036182   0.128898   8.149077
     7  O    0.000130  -0.059492  -0.001673   0.305620  -0.066371   0.002779
     8  C    0.000508  -0.005702   0.002038  -0.039491   0.003365  -0.000125
     9  C    0.312226  -0.059254  -0.001071   0.003684   0.002688  -0.027894
    10  O   -0.083906   0.002004   0.002254   0.000426  -0.000033   0.001124
    11  O   -0.084895   0.004842   0.000047  -0.000058   0.000090  -0.003310
    12  C    0.007681  -0.000244  -0.000001  -0.000000   0.000009  -0.000163
    13  C   -0.000851   0.000050  -0.000000  -0.000000  -0.000003   0.000040
    14  H    0.000000  -0.000050  -0.000051   0.003956  -0.000060   0.000001
    15  H   -0.000083   0.005981   0.001101  -0.007051  -0.000069  -0.000002
    16  H   -0.000047   0.005890   0.000992  -0.007516  -0.000089  -0.000000
    17  H   -0.000153   0.000003  -0.000000  -0.000000  -0.000000  -0.000009
    18  H    0.000535  -0.000003  -0.000001  -0.000000   0.000001  -0.000015
    19  H    0.000030  -0.000002  -0.000000   0.000000   0.000001   0.000020
    20  H    0.000006  -0.000000  -0.000000   0.000000   0.000000   0.000000
    21  H   -0.000439  -0.000008  -0.000001  -0.000001   0.000001  -0.000020
               7          8          9         10         11         12
     1  C    0.000130   0.000508   0.312226  -0.083906  -0.084895   0.007681
     2  C   -0.059492  -0.005702  -0.059254   0.002004   0.004842  -0.000244
     3  H   -0.001673   0.002038  -0.001071   0.002254   0.000047  -0.000001
     4  C    0.305620  -0.039491   0.003684   0.000426  -0.000058  -0.000000
     5  N   -0.066371   0.003365   0.002688  -0.000033   0.000090   0.000009
     6  O    0.002779  -0.000125  -0.027894   0.001124  -0.003310  -0.000163
     7  O    8.147939   0.244540  -0.000060  -0.000000   0.000000  -0.000000
     8  C    0.244540   4.904195  -0.000006   0.000000   0.000000  -0.000000
     9  C   -0.000060  -0.000006   4.407049   0.563255   0.236485  -0.013919
    10  O   -0.000000   0.000000   0.563255   8.069444  -0.079812  -0.002596
    11  O    0.000000   0.000000   0.236485  -0.079812   8.286103   0.202227
    12  C   -0.000000  -0.000000  -0.013919  -0.002596   0.202227   4.829661
    13  C    0.000000  -0.000000  -0.004441  -0.002345  -0.046646   0.373907
    14  H   -0.029794   0.386430  -0.000000  -0.000000  -0.000000  -0.000000
    15  H   -0.035102   0.366910   0.000002  -0.000000  -0.000000   0.000000
    16  H   -0.034783   0.367211   0.000001  -0.000000  -0.000000   0.000000
    17  H    0.000000  -0.000000   0.003703   0.000319  -0.031898   0.382303
    18  H    0.000000  -0.000000  -0.008197   0.015622  -0.028646   0.366123
    19  H    0.000000  -0.000000  -0.000120   0.000080   0.000928  -0.033309
    20  H   -0.000000   0.000000  -0.000023  -0.000051   0.003580  -0.026002
    21  H   -0.000000  -0.000000   0.005628   0.002505  -0.004716  -0.031499
              13         14         15         16         17         18
     1  C   -0.000851   0.000000  -0.000083  -0.000047  -0.000153   0.000535
     2  C    0.000050  -0.000050   0.005981   0.005890   0.000003  -0.000003
     3  H   -0.000000  -0.000051   0.001101   0.000992  -0.000000  -0.000001
     4  C   -0.000000   0.003956  -0.007051  -0.007516  -0.000000  -0.000000
     5  N   -0.000003  -0.000060  -0.000069  -0.000089  -0.000000   0.000001
     6  O    0.000040   0.000001  -0.000002  -0.000000  -0.000009  -0.000015
     7  O    0.000000  -0.029794  -0.035102  -0.034783   0.000000   0.000000
     8  C   -0.000000   0.386430   0.366910   0.367211  -0.000000  -0.000000
     9  C   -0.004441  -0.000000   0.000002   0.000001   0.003703  -0.008197
    10  O   -0.002345  -0.000000  -0.000000  -0.000000   0.000319   0.015622
    11  O   -0.046646  -0.000000  -0.000000  -0.000000  -0.031898  -0.028646
    12  C    0.373907  -0.000000   0.000000   0.000000   0.382303   0.366123
    13  C    5.112544  -0.000000  -0.000000   0.000000  -0.043980  -0.039978
    14  H   -0.000000   0.520133  -0.031678  -0.031247  -0.000000   0.000000
    15  H   -0.000000  -0.031678   0.583894  -0.044424   0.000000   0.000000
    16  H    0.000000  -0.031247  -0.044424   0.583031  -0.000000  -0.000000
    17  H   -0.043980  -0.000000   0.000000  -0.000000   0.570033  -0.039260
    18  H   -0.039978   0.000000   0.000000  -0.000000  -0.039260   0.556899
    19  H    0.376922  -0.000000  -0.000000   0.000000  -0.005941   0.004855
    20  H    0.358858  -0.000000   0.000000  -0.000000  -0.000031   0.000768
    21  H    0.378166  -0.000000   0.000000  -0.000000   0.004775  -0.005206
              19         20         21
     1  C    0.000030   0.000006  -0.000439
     2  C   -0.000002  -0.000000  -0.000008
     3  H   -0.000000  -0.000000  -0.000001
     4  C    0.000000   0.000000  -0.000001
     5  N    0.000001   0.000000   0.000001
     6  O    0.000020   0.000000  -0.000020
     7  O    0.000000  -0.000000  -0.000000
     8  C   -0.000000   0.000000  -0.000000
     9  C   -0.000120  -0.000023   0.005628
    10  O    0.000080  -0.000051   0.002505
    11  O    0.000928   0.003580  -0.004716
    12  C   -0.033309  -0.026002  -0.031499
    13  C    0.376922   0.358858   0.378166
    14  H   -0.000000  -0.000000  -0.000000
    15  H   -0.000000   0.000000   0.000000
    16  H    0.000000  -0.000000  -0.000000
    17  H   -0.005941  -0.000031   0.004775
    18  H    0.004855   0.000768  -0.005206
    19  H    0.548664  -0.025779  -0.033110
    20  H   -0.025779   0.561504  -0.025846
    21  H   -0.033110  -0.025846   0.544726
 Mulliken charges:
               1
     1  C    0.373988
     2  C   -0.264359
     3  H    0.181988
     4  C    0.532266
     5  N   -0.199313
     6  O   -0.367521
     7  O   -0.473732
     8  C   -0.229871
     9  C    0.580264
    10  O   -0.488292
    11  O   -0.454322
    12  C   -0.054178
    13  C   -0.462243
    14  H    0.182360
    15  H    0.160522
    16  H    0.160982
    17  H    0.160135
    18  H    0.176504
    19  H    0.166761
    20  H    0.153016
    21  H    0.165045
 Sum of Mulliken charges =   0.00000
 Mulliken charges with hydrogens summed into heavy atoms:
               1
     1  C    0.373988
     2  C   -0.082371
     4  C    0.532266
     5  N   -0.199313
     6  O   -0.367521
     7  O   -0.473732
     8  C    0.273994
     9  C    0.580264
    10  O   -0.488292
    11  O   -0.454322
    12  C    0.282460
    13  C    0.022579
 Electronic spatial extent (au):  <R**2>=           2710.0716
 Charge=              0.0000 electrons
 Dipole moment (field-independent basis, Debye):
    X=              0.3257    Y=              2.4489    Z=              0.9460  Tot=              2.6454
 Quadrupole moment (field-independent basis, Debye-Ang):
   XX=            -51.8059   YY=            -76.9857   ZZ=            -67.9435
   XY=             12.8650   XZ=              0.3968   YZ=              0.2053
 Traceless Quadrupole moment (field-independent basis, Debye-Ang):
   XX=             13.7725   YY=            -11.4073   ZZ=             -2.3651
   XY=             12.8650   XZ=              0.3968   YZ=              0.2053
 Octapole moment (field-independent basis, Debye-Ang**2):
  XXX=             -0.9552  YYY=              0.2337  ZZZ=             -3.1385  XYY=              5.9477
  XXY=             23.9735  XXZ=              7.2860  XZZ=             -0.3530  YZZ=              0.4476
  YYZ=              2.2319  XYZ=              1.7844
 Hexadecapole moment (field-independent basis, Debye-Ang**3):
 XXXX=          -2414.0209 YYYY=           -445.2138 ZZZZ=           -203.0314 XXXY=            111.9924
 XXXZ=             41.8412 YYYX=             31.8595 YYYZ=              1.7461 ZZZX=             13.0482
 ZZZY=              1.8600 XXYY=           -553.8890 XXZZ=           -498.7880 YYZZ=           -102.1264
 XXYZ=              9.7989 YYXZ=              3.4955 ZZXY=             -1.1822
 N-N= 7.050837043139D+02 E-N=-2.876602462924D+03  KE= 6.222136521522D+02
 Calling FoFJK, ICntrl=      2127 FMM=F ISym2X=0 I1Cent= 0 IOpClX= 0 NMat=1 NMatS=1 NMatT=0.
 ***** Axes restored to original set *****
 -------------------------------------------------------------------
 Center     Atomic                   Forces (Hartrees/Bohr)
 Number     Number              X              Y              Z
 -------------------------------------------------------------------
      1        6           0.006728634    0.040780060   -0.007345626
      2        6          -0.006787145   -0.018126667    0.002544735
      3        1           0.000360488    0.000193952   -0.000328063
      4        6           0.025002154    0.013799804   -0.000218218
      5        7          -0.007676559   -0.002917225   -0.000430361
      6        8          -0.008634133   -0.003125647    0.001373631
      7        8          -0.004662112   -0.006138992   -0.000911091
      8        6          -0.006195972    0.008693391   -0.000184928
      9        6          -0.004918148   -0.036157930    0.008691442
     10        8           0.013445116    0.010864133   -0.003083613
     11        8          -0.009538760    0.003197530   -0.006152113
     12        6           0.001640742   -0.012812029    0.006254802
     13        6           0.000478115    0.004762340    0.004603171
     14        1           0.004482836   -0.001363134   -0.000070818
     15        1          -0.001127239   -0.002522412   -0.000350067
     16        1          -0.001490395   -0.002301686    0.000378337
     17        1           0.000762448    0.005006579   -0.003544980
     18        1          -0.000614664    0.005487454   -0.001238119
     19        1           0.000823120   -0.002539268   -0.000599485
     20        1          -0.000212878   -0.001800171    0.000883848
     21        1          -0.001865649   -0.002980080   -0.000272485
 -------------------------------------------------------------------
 Cartesian Forces:  Max     0.040780060 RMS     0.009363444

 GradGradGradGradGradGradGradGradGradGradGradGradGradGradGradGradGradGrad
 Berny optimization.
 FormGI is forming the generalized inverse of G from B-inverse, IUseBI=4.
 Internal  Forces:  Max     0.026829149 RMS     0.005318630
 Search for a local minimum.
 Step number   1 out of a maximum of  101
 All quantities printed in internal units (Hartrees-Bohrs-Radians)
 Mixed Optimization -- RFO/linear search
 Second derivative matrix not updated -- first step.
 ITU=  0
     Eigenvalues ---    0.00518   0.01266   0.01439   0.01628   0.01848
     Eigenvalues ---    0.01981   0.02100   0.02179   0.02194   0.02271
     Eigenvalues ---    0.02291   0.02367   0.05248   0.05559   0.05766
     Eigenvalues ---    0.05914   0.10005   0.10531   0.11205   0.13650
     Eigenvalues ---    0.15972   0.16000   0.16000   0.16000   0.16000
     Eigenvalues ---    0.16000   0.16000   0.21947   0.23795   0.24949
     Eigenvalues ---    0.24953   0.24992   0.24998   0.25000   0.25000
     Eigenvalues ---    0.25000   0.30486   0.34096   0.34125   0.34180
     Eigenvalues ---    0.34195   0.34197   0.34288   0.34321   0.34571
     Eigenvalues ---    0.36108   0.40305   0.40672   0.42093   0.42599
     Eigenvalues ---    0.45338   0.48007   0.50297   0.52543   0.55239
     Eigenvalues ---    0.56929   0.93266
 RFO step:  Lambda=-1.13524996D-02 EMin= 5.17710270D-03
 Linear search not attempted -- first point.
 Iteration  1 RMS(Cart)=  0.22359167 RMS(Int)=  0.01281996
 Iteration  2 RMS(Cart)=  0.04489098 RMS(Int)=  0.00126459
 Iteration  3 RMS(Cart)=  0.00135643 RMS(Int)=  0.00117845
 Iteration  4 RMS(Cart)=  0.00000116 RMS(Int)=  0.00117845
 Iteration  5 RMS(Cart)=  0.00000000 RMS(Int)=  0.00117845
 Variable       Old X    -DE/DX   Delta X   Delta X   Delta X     New X
                                 (Linear)    (Quad)   (Total)
    R1        2.60539  -0.00948   0.00000  -0.01910  -0.01910   2.58629
    R2        2.57869  -0.00912   0.00000  -0.01844  -0.01845   2.56024
    R3        2.71142   0.02683   0.00000   0.06474   0.06474   2.77616
    R4        2.03913  -0.00038   0.00000  -0.00101  -0.00101   2.03812
    R5        2.65129   0.01084   0.00000   0.02476   0.02478   2.67607
    R6        2.51905  -0.00673   0.00000  -0.01034  -0.01033   2.50872
    R7        2.54920  -0.00207   0.00000  -0.00367  -0.00367   2.54553
    R8        2.61596  -0.00008   0.00000  -0.00074  -0.00075   2.61521
    R9        2.68168   0.00481   0.00000   0.01099   0.01099   2.69267
   R10        2.06791  -0.00165   0.00000  -0.00466  -0.00466   2.06325
   R11        2.07028   0.00109   0.00000   0.00309   0.00309   2.07337
   R12        2.07002   0.00114   0.00000   0.00321   0.00321   2.07323
   R13        2.31463  -0.01693   0.00000  -0.01793  -0.01793   2.29670
   R14        2.57383  -0.00651   0.00000  -0.01213  -0.01213   2.56171
   R15        2.70651   0.00686   0.00000   0.01641   0.01641   2.72292
   R16        2.87005   0.00427   0.00000   0.01351   0.01351   2.88356
   R17        2.06846  -0.00081   0.00000  -0.00230  -0.00230   2.06616
   R18        2.06998  -0.00180   0.00000  -0.00508  -0.00508   2.06490
   R19        2.07169  -0.00066   0.00000  -0.00189  -0.00189   2.06981
   R20        2.06377   0.00201   0.00000   0.00562   0.00562   2.06939
   R21        2.07120  -0.00034   0.00000  -0.00097  -0.00097   2.07022
    A1        1.89999   0.00381   0.00000   0.01229   0.01220   1.91219
    A2        2.29386  -0.00621   0.00000  -0.02235  -0.02235   2.27151
    A3        2.08776   0.00241   0.00000   0.01068   0.01070   2.09846
    A4        2.20188   0.00115   0.00000   0.00475   0.00449   2.20637
    A5        1.81287  -0.00188   0.00000  -0.00559  -0.00593   1.80694
    A6        2.26748   0.00079   0.00000   0.00266   0.00239   2.26987
    A7        1.96370  -0.00313   0.00000  -0.00785  -0.00791   1.95580
    A8        2.30161  -0.00550   0.00000  -0.02305  -0.02305   2.27855
    A9        2.01778   0.00864   0.00000   0.03105   0.03106   2.04883
   A10        1.83451   0.00045   0.00000   0.00359   0.00349   1.83800
   A11        1.91333   0.00078   0.00000  -0.00141  -0.00153   1.91180
   A12        1.98977   0.00999   0.00000   0.03821   0.03821   2.02798
   A13        1.88282  -0.00593   0.00000  -0.03320  -0.03318   1.84964
   A14        1.94269   0.00051   0.00000   0.00213   0.00214   1.94483
   A15        1.93934   0.00131   0.00000   0.00702   0.00705   1.94639
   A16        1.88107   0.00321   0.00000   0.01990   0.01990   1.90098
   A17        1.88166   0.00303   0.00000   0.01931   0.01935   1.90102
   A18        1.93350  -0.00208   0.00000  -0.01465  -0.01464   1.91887
   A19        2.18149  -0.01059   0.00000  -0.03614  -0.04206   2.13943
   A20        1.91718   0.01168   0.00000   0.04920   0.04316   1.96034
   A21        2.18135  -0.00064   0.00000   0.00217  -0.00402   2.17733
   A22        2.01973   0.00538   0.00000   0.02058   0.02058   2.04031
   A23        1.88423   0.01320   0.00000   0.05365   0.05377   1.93800
   A24        1.87684  -0.00791   0.00000  -0.05161  -0.05241   1.82442
   A25        1.95638  -0.00716   0.00000  -0.04604  -0.04642   1.90996
   A26        1.91888   0.00113   0.00000   0.02249   0.02279   1.94167
   A27        1.95039  -0.00183   0.00000   0.00258   0.00292   1.95331
   A28        1.87582   0.00220   0.00000   0.01695   0.01575   1.89157
   A29        1.92434  -0.00021   0.00000   0.00303   0.00297   1.92731
   A30        1.94194  -0.00058   0.00000  -0.01026  -0.01032   1.93162
   A31        1.93418  -0.00047   0.00000  -0.00029  -0.00038   1.93379
   A32        1.90291  -0.00031   0.00000  -0.00665  -0.00667   1.89624
   A33        1.85850   0.00230   0.00000   0.02706   0.02697   1.88546
   A34        1.89977  -0.00061   0.00000  -0.01159  -0.01168   1.88809
    D1       -3.12413  -0.00023   0.00000  -0.00635  -0.00624  -3.13037
    D2       -0.02580   0.00120   0.00000   0.03482   0.03485   0.00905
    D3       -0.04468   0.00026   0.00000   0.00633   0.00631  -0.03837
    D4        3.05365   0.00169   0.00000   0.04750   0.04740   3.10105
    D5        0.02104  -0.00097   0.00000  -0.02947  -0.02958  -0.00854
    D6       -3.06696  -0.00103   0.00000  -0.03902  -0.03930  -3.10626
    D7       -0.00779   0.00249   0.00000   0.08194   0.08091   0.07312
    D8       -3.06732  -0.00357   0.00000  -0.11553  -0.11439   3.10148
    D9        3.06615   0.00302   0.00000   0.09562   0.09448  -3.12256
   D10        0.00662  -0.00304   0.00000  -0.10185  -0.10083  -0.09420
   D11        0.02283  -0.00105   0.00000  -0.02973  -0.02959  -0.00675
   D12       -3.10248  -0.00149   0.00000  -0.04236  -0.04212   3.13858
   D13        3.11888   0.00046   0.00000   0.01367   0.01367   3.13255
   D14       -0.00643   0.00002   0.00000   0.00104   0.00114  -0.00530
   D15       -0.01055   0.00044   0.00000   0.01236   0.01237   0.00182
   D16        3.11760   0.00068   0.00000   0.02231   0.02261   3.14021
   D17       -0.01692   0.00005   0.00000   0.00273   0.00280  -0.01412
   D18        3.14135  -0.00031   0.00000  -0.00991  -0.00997   3.13138
   D19       -0.00643   0.00041   0.00000   0.01068   0.01046   0.00403
   D20       -3.13003  -0.00014   0.00000  -0.00287  -0.00284  -3.13287
   D21        1.09288  -0.00070   0.00000  -0.00793  -0.00794   1.08494
   D22       -1.07096   0.00067   0.00000   0.00438   0.00435  -1.06660
   D23        2.75696   0.00813   0.00000   0.25948   0.26096   3.01792
   D24       -0.30257   0.00265   0.00000   0.06423   0.06275  -0.23982
   D25       -1.48574   0.00033   0.00000  -0.00716  -0.00733  -1.49306
   D26        2.72776  -0.00381   0.00000  -0.03454  -0.03302   2.69474
   D27        0.66976   0.00257   0.00000   0.00345   0.00209   0.67185
   D28       -0.98524  -0.00089   0.00000  -0.00762  -0.00775  -0.99299
   D29       -3.09886   0.00003   0.00000   0.00556   0.00547  -3.09340
   D30        1.06797   0.00153   0.00000   0.02749   0.02737   1.09535
   D31        1.05741  -0.00218   0.00000  -0.02633  -0.02619   1.03121
   D32       -1.05622  -0.00126   0.00000  -0.01315  -0.01298  -1.06919
   D33        3.11062   0.00024   0.00000   0.00878   0.00893   3.11955
   D34        3.13882   0.00015   0.00000   0.01140   0.01134  -3.13302
   D35        1.02520   0.00108   0.00000   0.02458   0.02456   1.04976
   D36       -1.09115   0.00257   0.00000   0.04650   0.04647  -1.04468
         Item               Value     Threshold  Converged?
 Maximum Force            0.026829     0.000450     NO 
 RMS     Force            0.005319     0.000300     NO 
 Maximum Displacement     0.843143     0.001800     NO 
 RMS     Displacement     0.257098     0.001200     NO 
 Predicted change in Energy=-6.536533D-03
 GradGradGradGradGradGradGradGradGradGradGradGradGradGradGradGradGradGrad

                          Input orientation:                          
 ---------------------------------------------------------------------
 Center     Atomic      Atomic             Coordinates (Angstroms)
 Number     Number       Type             X           Y           Z
 ---------------------------------------------------------------------
      1          6           0       -0.406683   -0.990756    0.141406
      2          6           0       -1.285398    0.056587    0.078084
      3          1           0       -2.359340   -0.002989    0.157596
      4          6           0       -0.446401    1.182223   -0.107401
      5          7           0        0.837436    0.846400   -0.144696
      6          8           0        0.860454   -0.527944    0.016072
      7          8           0       -0.749573    2.487820   -0.241609
      8          6           0       -2.135312    2.818155   -0.210778
      9          6           0       -0.652635   -2.421105    0.369014
     10          8           0       -1.771554   -2.885069    0.468337
     11          8           0        0.485791   -3.154791    0.311304
     12          6           0        0.384360   -4.545340    0.675032
     13          6           0        0.520636   -4.728282    2.183799
     14          1           0       -2.189129    3.900841   -0.341082
     15          1           0       -2.589367    2.552752    0.752132
     16          1           0       -2.682808    2.333742   -1.028849
     17          1           0        1.206818   -5.029221    0.141300
     18          1           0       -0.557326   -4.951894    0.298299
     19          1           0        1.467460   -4.305182    2.536190
     20          1           0        0.491688   -5.790459    2.448630
     21          1           0       -0.294537   -4.221928    2.712240
 ---------------------------------------------------------------------
                    Distance matrix (angstroms):
                    1          2          3          4          5
     1  C    0.000000
     2  C    1.368605   0.000000
     3  H    2.188337   1.078528   0.000000
     4  C    2.187537   1.416114   2.265897   0.000000
     5  N    2.237147   2.275931   3.321479   1.327556   0.000000
     6  O    1.354820   2.224905   3.265376   2.155873   1.383907
     7  O    3.516356   2.510021   2.992465   1.347037   2.285224
     8  C    4.197618   2.903799   2.853899   2.353589   3.567830
     9  C    1.469080   2.573711   2.967293   3.640532   3.627781
    10  O    2.357579   3.006990   2.957776   4.316291   4.594181
    11  O    2.347003   3.674841   4.248795   4.455782   4.042415
    12  C    3.680431   4.931751   5.331846   5.840149   5.472485
    13  C    4.358944   5.530893   5.893060   6.412397   6.049739
    14  H    5.228540   3.971237   3.939231   3.237683   4.304448
    15  H    4.206370   2.895775   2.634046   2.685042   3.931783
    16  H    4.195537   2.891969   2.640567   2.678914   3.922503
    17  H    4.348860   5.663973   6.162853   6.432498   5.894164
    18  H    3.967105   5.065912   5.268654   6.148519   5.980118
    19  H    4.498091   5.713628   6.229845   6.384595   5.841479
    20  H    5.400694   6.554805   6.846313   7.485426   7.133917
    21  H    4.130646   5.121160   5.346874   6.097400   5.927175
                    6          7          8          9         10
     6  O    0.000000
     7  O    3.428326   0.000000
     8  C    4.496938   1.424901   0.000000
     9  C    2.449094   4.947706   5.475795   0.000000
    10  O    3.562028   5.515107   5.755022   1.215364   0.000000
    11  O    2.669805   5.802663   6.543611   1.355596   2.278820
    12  C    4.098824   7.182713   7.832909   2.383564   2.728953
    13  C    4.738919   7.718041   8.350855   3.161183   3.405052
    14  H    5.389031   2.019615   1.091827   6.544620   6.846759
    15  H    4.683347   2.092028   1.097179   5.351352   5.506292
    16  H    4.672880   2.093056   1.097108   5.355762   5.505265
    17  H    4.516320   7.776888   8.536692   3.211182   3.684432
    18  H    4.654146   7.461755   7.944989   2.533570   2.403129
    19  H    4.581154   7.666568   8.442021   3.569482   4.096821
    20  H    5.809250   8.792497   9.385191   4.121508   4.181520
    21  H    4.716868   7.345270   7.841891   2.976896   3.000645
                   11         12         13         14         15
    11  O    0.000000
    12  C    1.440906   0.000000
    13  C    2.446084   1.525915   0.000000
    14  H    7.573821   8.887818   9.390401   0.000000
    15  H    6.498229   7.696226   8.045822   1.781194   0.000000
    16  H    6.477656   7.722208   8.393768   1.781163   1.796827
    17  H    2.015507   1.093366   2.175595   9.566147   8.501203
    18  H    2.077941   1.092696   2.183372   9.024550   7.788123
    19  H    2.690203   2.166723   1.095294   9.433353   8.165290
    20  H    3.393367   2.169675   1.095076  10.435064   9.054290
    21  H    2.740837   2.171569   1.095514   8.882096   7.416506
                   16         17         18         19         20
    16  H    0.000000
    17  H    8.409023   0.000000
    18  H    7.704511   1.772803   0.000000
    19  H    8.602879   2.515485   3.086446   0.000000
    20  H    9.390044   2.532719   2.535260   1.779282   0.000000
    21  H    7.916842   3.084724   2.535551   1.772726   1.774240
                   21
    21  H    0.000000
 Stoichiometry    C7H9NO4
 Framework group  C1[X(C7H9NO4)]
 Deg. of freedom    57
 Full point group                 C1      NOp   1
 Largest Abelian subgroup         C1      NOp   1
 Largest concise Abelian subgroup C1      NOp   1
                         Standard orientation:                         
 ---------------------------------------------------------------------
 Center     Atomic      Atomic             Coordinates (Angstroms)
 Number     Number       Type             X           Y           Z
 ---------------------------------------------------------------------
      1          6           0        0.093399   -0.006842   -0.175085
      2          6           0        1.281856    0.657645   -0.036864
      3          1           0        1.416880    1.727026    0.000744
      4          6           0        2.237020   -0.384825    0.042490
      5          7           0        1.673236   -1.584377   -0.032523
      6          8           0        0.317175   -1.343029   -0.166859
      7          8           0        3.576062   -0.337018    0.181017
      8          6           0        4.155668    0.963053    0.245947
      9          6           0       -1.277826    0.512991   -0.262891
     10          8           0       -1.526171    1.702330   -0.292987
     11          8           0       -2.191038   -0.471959   -0.446078
     12          6           0       -3.579830   -0.092243   -0.388773
     13          6           0       -4.089059   -0.093017    1.049664
     14          1           0        5.231620    0.807676    0.347296
     15          1           0        3.793007    1.520527    1.118587
     16          1           0        3.963631    1.535506   -0.670058
     17          1           0       -4.095081   -0.844666   -0.991953
     18          1           0       -3.710534    0.881424   -0.867181
     19          1           0       -3.938518   -1.076373    1.507940
     20          1           0       -5.156663    0.148584    1.081972
     21          1           0       -3.552580    0.647772    1.652635
 ---------------------------------------------------------------------
 Rotational constants (GHZ):           2.8016532           0.4215538           0.3843926
 Standard basis: 6-31G(d) (6D, 7F)
 There are   198 symmetry adapted cartesian basis functions of A   symmetry.
 There are   198 symmetry adapted basis functions of A   symmetry.
   198 basis functions,   372 primitive gaussians,   198 cartesian basis functions
    45 alpha electrons       45 beta electrons
       nuclear repulsion energy       698.7637177855 Hartrees.
 NAtoms=   21 NActive=   21 NUniq=   21 SFac= 1.00D+00 NAtFMM=   60 NAOKFM=F Big=F
 Integral buffers will be    131072 words long.
 Raffenetti 2 integral format.
 Two-electron integral symmetry is turned on.
 One-electron integrals computed using PRISM.
 NBasis=   198 RedAO= T EigKep=  1.01D-03  NBF=   198
 NBsUse=   198 1.00D-06 EigRej= -1.00D+00 NBFU=   198
 Initial guess from the checkpoint file:  "science_add_231.chk"
 B after Tr=     0.000000   -0.000000    0.000000
         Rot=    0.999091    0.041807    0.008345    0.000169 Ang=   4.89 deg.
 ExpMin= 1.61D-01 ExpMax= 5.48D+03 ExpMxC= 8.25D+02 IAcc=2 IRadAn=         4 AccDes= 0.00D+00
 Harris functional with IExCor=  402 and IRadAn=       4 diagonalized for initial guess.
 HarFok:  IExCor=  402 AccDes= 0.00D+00 IRadAn=         4 IDoV= 1 UseB2=F ITyADJ=14
 ICtDFT=  3500011 ScaDFX=  1.000000  1.000000  1.000000  1.000000
 FoFCou: FMM=F IPFlag=           0 FMFlag=      100000 FMFlg1=           0
         NFxFlg=           0 DoJE=T BraDBF=F KetDBF=T FulRan=T
         wScrn=  0.000000 ICntrl=       500 IOpCl=  0 I1Cent=   200000004 NGrid=           0
         NMat0=    1 NMatS0=      1 NMatT0=    0 NMatD0=    1 NMtDS0=    0 NMtDT0=    0
 Petite list used in FoFCou.
 Keep R1 ints in memory in canonical form, NReq=198177116.
 Gradient too large for Newton-Raphson -- use scaled steepest descent instead.
 Gradient too large for Newton-Raphson -- use scaled steepest descent instead.
 Gradient too large for Newton-Raphson -- use scaled steepest descent instead.
     Accept linear search using points  1 and  2.
 Gradient too large for Newton-Raphson -- use scaled steepest descent instead.
     Accept linear search using points  1 and  2.
 Gradient too large for Newton-Raphson -- use scaled steepest descent instead.
 Gradient too large for Newton-Raphson -- use scaled steepest descent instead.
     Accept linear search using points  1 and  2.
 Gradient too large for Newton-Raphson -- use scaled steepest descent instead.
     Minimum is close to point  3 DX=  2.01D-02 DF= -9.14D-08 DXR=  1.33D-02 DFR=  1.76D-04 which will be used.
 Gradient too large for Newton-Raphson -- use scaled steepest descent instead.
     Accept linear search using points  1 and  2.
 Gradient too large for Newton-Raphson -- use scaled steepest descent instead.
     Accept linear search using points  2 and  3.
 Gradient too large for Newton-Raphson -- use scaled steepest descent instead.
     Accept linear search using points  1 and  2.
 LinEq1:  Iter=  0 NonCon=     1 RMS=1.72D-04 Max=8.52D-03 NDo=     1
 AX will form     1 AO Fock derivatives at one time.
 LinEq1:  Iter=  1 NonCon=     1 RMS=3.14D-05 Max=1.49D-03 NDo=     1
 LinEq1:  Iter=  2 NonCon=     1 RMS=2.73D-05 Max=6.96D-04 NDo=     1
 LinEq1:  Iter=  3 NonCon=     1 RMS=1.24D-05 Max=3.67D-04 NDo=     1
 LinEq1:  Iter=  4 NonCon=     1 RMS=8.74D-06 Max=2.92D-04 NDo=     1
 LinEq1:  Iter=  5 NonCon=     1 RMS=3.16D-06 Max=8.60D-05 NDo=     1
 LinEq1:  Iter=  6 NonCon=     1 RMS=2.81D-06 Max=5.25D-05 NDo=     1
 LinEq1:  Iter=  7 NonCon=     1 RMS=2.02D-06 Max=4.31D-05 NDo=     1
 LinEq1:  Iter=  8 NonCon=     1 RMS=1.13D-06 Max=2.98D-05 NDo=     1
 LinEq1:  Iter=  9 NonCon=     1 RMS=9.33D-07 Max=2.24D-05 NDo=     1
 LinEq1:  Iter= 10 NonCon=     1 RMS=5.05D-07 Max=8.88D-06 NDo=     1
 LinEq1:  Iter= 11 NonCon=     1 RMS=2.78D-07 Max=5.34D-06 NDo=     1
 LinEq1:  Iter= 12 NonCon=     1 RMS=1.57D-07 Max=2.55D-06 NDo=     1
 LinEq1:  Iter= 13 NonCon=     1 RMS=6.78D-08 Max=9.41D-07 NDo=     1
 LinEq1:  Iter= 14 NonCon=     1 RMS=2.63D-08 Max=2.93D-07 NDo=     1
 LinEq1:  Iter= 15 NonCon=     1 RMS=1.60D-08 Max=2.86D-07 NDo=     1
 LinEq1:  Iter= 16 NonCon=     0 RMS=8.60D-09 Max=1.13D-07 NDo=     1
 Linear equations converged to 1.173D-08 1.173D-07 after    16 iterations.
     Accept linear search using points  1 and  2.
     Minimum is close to point  2 DX= -3.42D-04 DF= -1.89D-11 DXR=  3.42D-04 DFR=  1.17D-07 which will be used.
 LinEq1:  Iter=  0 NonCon=     1 RMS=7.82D-07 Max=2.21D-05 NDo=     1
 LinEq1:  Iter=  1 NonCon=     1 RMS=5.03D-07 Max=1.78D-05 NDo=     1
 LinEq1:  Iter=  2 NonCon=     1 RMS=4.47D-07 Max=1.27D-05 NDo=     1
 LinEq1:  Iter=  3 NonCon=     1 RMS=1.97D-07 Max=6.17D-06 NDo=     1
 LinEq1:  Iter=  4 NonCon=     1 RMS=1.41D-07 Max=4.27D-06 NDo=     1
 LinEq1:  Iter=  5 NonCon=     1 RMS=1.10D-07 Max=2.92D-06 NDo=     1
 LinEq1:  Iter=  6 NonCon=     1 RMS=6.44D-08 Max=1.75D-06 NDo=     1
 LinEq1:  Iter=  7 NonCon=     1 RMS=3.73D-08 Max=8.18D-07 NDo=     1
 LinEq1:  Iter=  8 NonCon=     1 RMS=2.71D-08 Max=7.29D-07 NDo=     1
 LinEq1:  Iter=  9 NonCon=     1 RMS=1.88D-08 Max=6.61D-07 NDo=     1
 LinEq1:  Iter= 10 NonCon=     1 RMS=1.11D-08 Max=1.68D-07 NDo=     1
 LinEq1:  Iter= 11 NonCon=     1 RMS=4.99D-09 Max=7.06D-08 NDo=     1
 LinEq1:  Iter= 12 NonCon=     1 RMS=2.05D-09 Max=2.78D-08 NDo=     1
 LinEq1:  Iter= 13 NonCon=     1 RMS=9.27D-10 Max=1.09D-08 NDo=     1
 LinEq1:  Iter= 14 NonCon=     1 RMS=5.64D-10 Max=1.15D-08 NDo=     1
 LinEq1:  Iter= 15 NonCon=     0 RMS=2.47D-10 Max=4.99D-09 NDo=     1
 Linear equations converged to 5.796D-10 5.796D-09 after    15 iterations.
 SCF Done:  E(RB3LYP) =  -627.747416567     a.u. after   13 cycles
            Convg  =    0.6645D-09                    61 Fock formations.
              S**2 =  0.0000                  -V/T =  2.0090
 Calling FoFJK, ICntrl=      2127 FMM=F ISym2X=0 I1Cent= 0 IOpClX= 0 NMat=1 NMatS=1 NMatT=0.
 ***** Axes restored to original set *****
 -------------------------------------------------------------------
 Center     Atomic                   Forces (Hartrees/Bohr)
 Number     Number              X              Y              Z
 -------------------------------------------------------------------
      1        6           0.005867752    0.010985093    0.003271238
      2        6          -0.004861319   -0.007536306    0.000564574
      3        1           0.000047537    0.000417968   -0.000235525
      4        6           0.008317157    0.005409680   -0.000973641
      5        7          -0.003139251    0.003162199   -0.000673893
      6        8          -0.003447852   -0.004353493    0.000638349
      7        8          -0.000506240   -0.004109321    0.000322040
      8        6          -0.001251357    0.002323747   -0.000051096
      9        6           0.001929089   -0.015752094   -0.015278743
     10        8           0.000289214    0.003712444    0.006997112
     11        8          -0.003203342    0.010977261    0.006600417
     12        6          -0.000226152   -0.006848555   -0.000154722
     13        6          -0.000183486    0.003745396   -0.000532073
     14        1           0.000849381   -0.000552846    0.000046999
     15        1           0.000099926   -0.000906480   -0.000293536
     16        1           0.000280844   -0.000878086    0.000445644
     17        1           0.000395711    0.001177350    0.000344851
     18        1          -0.000973093    0.001160704    0.000832727
     19        1           0.000081050   -0.000824139   -0.000177871
     20        1           0.000072158   -0.000372610   -0.001011638
     21        1          -0.000437729   -0.000937911   -0.000681213
 -------------------------------------------------------------------
 Cartesian Forces:  Max     0.015752094 RMS     0.004394753

 GradGradGradGradGradGradGradGradGradGradGradGradGradGradGradGradGradGrad
 Berny optimization.
 Using GEDIIS/GDIIS optimizer.
 FormGI is forming the generalized inverse of G from B-inverse, IUseBI=4.
 Internal  Forces:  Max     0.008353569 RMS     0.001957873
 Search for a local minimum.
 Step number   2 out of a maximum of  101
 All quantities printed in internal units (Hartrees-Bohrs-Radians)
 Mixed Optimization -- RFO/linear search
 Update second derivatives using D2CorX and points    1    2
 DE= -5.59D-03 DEPred=-6.54D-03 R= 8.55D-01
 TightC=F SS=  1.41D+00  RLast= 3.91D-01 DXNew= 5.0454D-01 1.1726D+00
 Trust test= 8.55D-01 RLast= 3.91D-01 DXMaxT set to 5.05D-01
 ITU=  1  0
 Use linear search instead of GDIIS.
     Eigenvalues ---    0.00518   0.01267   0.01439   0.01621   0.01778
     Eigenvalues ---    0.01975   0.02103   0.02180   0.02258   0.02292
     Eigenvalues ---    0.02367   0.03315   0.04969   0.05570   0.05671
     Eigenvalues ---    0.05689   0.09969   0.10669   0.11730   0.13831
     Eigenvalues ---    0.15605   0.16000   0.16000   0.16000   0.16000
     Eigenvalues ---    0.16000   0.16098   0.20675   0.23321   0.24116
     Eigenvalues ---    0.24948   0.24982   0.24998   0.25000   0.25000
     Eigenvalues ---    0.26523   0.30837   0.34082   0.34118   0.34179
     Eigenvalues ---    0.34192   0.34196   0.34273   0.34303   0.34557
     Eigenvalues ---    0.36105   0.36950   0.40692   0.41870   0.42601
     Eigenvalues ---    0.45007   0.47989   0.50311   0.52664   0.55305
     Eigenvalues ---    0.56450   0.92758
 RFO step:  Lambda=-4.71931308D-03 EMin= 5.17549217D-03
 Quartic linear search produced a step of  0.00171.
 Iteration  1 RMS(Cart)=  0.08760930 RMS(Int)=  0.00838526
 Iteration  2 RMS(Cart)=  0.02115641 RMS(Int)=  0.00147354
 Iteration  3 RMS(Cart)=  0.00036682 RMS(Int)=  0.00146026
 Iteration  4 RMS(Cart)=  0.00000088 RMS(Int)=  0.00146026
 Variable       Old X    -DE/DX   Delta X   Delta X   Delta X     New X
                                 (Linear)    (Quad)   (Total)
    R1        2.58629  -0.00345  -0.00003  -0.01595  -0.01593   2.57035
    R2        2.56024  -0.00366  -0.00003  -0.01600  -0.01600   2.54424
    R3        2.77616   0.00376   0.00011   0.03934   0.03946   2.81561
    R4        2.03812  -0.00009  -0.00000  -0.00071  -0.00071   2.03741
    R5        2.67607   0.00440   0.00004   0.02161   0.02165   2.69771
    R6        2.50872  -0.00357  -0.00002  -0.01053  -0.01059   2.49813
    R7        2.54553  -0.00392  -0.00001  -0.00874  -0.00875   2.53678
    R8        2.61521   0.00229  -0.00000   0.00417   0.00414   2.61934
    R9        2.69267   0.00002   0.00002   0.00517   0.00519   2.69786
   R10        2.06325  -0.00060  -0.00001  -0.00387  -0.00388   2.05937
   R11        2.07337  -0.00008   0.00001   0.00120   0.00121   2.07458
   R12        2.07323  -0.00008   0.00001   0.00125   0.00126   2.07449
   R13        2.29670  -0.00111  -0.00003  -0.00958  -0.00961   2.28709
   R14        2.56171  -0.00835  -0.00002  -0.02139  -0.02141   2.54030
   R15        2.72292   0.00254   0.00003   0.01380   0.01383   2.73675
   R16        2.88356  -0.00261   0.00002  -0.00215  -0.00213   2.88144
   R17        2.06616  -0.00039  -0.00000  -0.00219  -0.00220   2.06397
   R18        2.06490   0.00012  -0.00001  -0.00202  -0.00203   2.06287
   R19        2.06981  -0.00031  -0.00000  -0.00176  -0.00176   2.06804
   R20        2.06939   0.00011   0.00001   0.00294   0.00295   2.07234
   R21        2.07022  -0.00044  -0.00000  -0.00171  -0.00171   2.06851
    A1        1.91219   0.00247   0.00002   0.01476   0.01476   1.92695
    A2        2.27151  -0.00277  -0.00004  -0.02050  -0.02070   2.25081
    A3        2.09846   0.00033   0.00002   0.00693   0.00679   2.10525
    A4        2.20637   0.00149   0.00001   0.00889   0.00878   2.21515
    A5        1.80694  -0.00208  -0.00001  -0.01138  -0.01139   1.79555
    A6        2.26987   0.00059   0.00000   0.00254   0.00242   2.27229
    A7        1.95580   0.00072  -0.00001   0.00060   0.00056   1.95636
    A8        2.27855  -0.00239  -0.00004  -0.02074  -0.02080   2.25776
    A9        2.04883   0.00167   0.00005   0.02018   0.02022   2.06905
   A10        1.83800  -0.00104   0.00001  -0.00168  -0.00172   1.83628
   A11        1.91180  -0.00008  -0.00000  -0.00240  -0.00235   1.90945
   A12        2.02798  -0.00038   0.00007   0.01619   0.01625   2.04423
   A13        1.84964  -0.00064  -0.00006  -0.01769  -0.01775   1.83189
   A14        1.94483  -0.00037   0.00000  -0.00193  -0.00195   1.94288
   A15        1.94639  -0.00068   0.00001  -0.00162  -0.00162   1.94477
   A16        1.90098   0.00102   0.00003   0.01673   0.01675   1.91773
   A17        1.90102   0.00109   0.00003   0.01673   0.01676   1.91777
   A18        1.91887  -0.00034  -0.00003  -0.01111  -0.01117   1.90770
   A19        2.13943  -0.00165  -0.00007  -0.01871  -0.02635   2.11308
   A20        1.96034  -0.00239   0.00007   0.01802   0.01039   1.97073
   A21        2.17733   0.00477  -0.00001   0.02449   0.01658   2.19391
   A22        2.04031  -0.00179   0.00004   0.00249   0.00252   2.04283
   A23        1.93800   0.00009   0.00009   0.02240   0.02256   1.96056
   A24        1.82442  -0.00051  -0.00009  -0.02844  -0.02869   1.79573
   A25        1.90996  -0.00018  -0.00008  -0.02703  -0.02712   1.88284
   A26        1.94167   0.00040   0.00004   0.01519   0.01527   1.95694
   A27        1.95331  -0.00070   0.00001  -0.00405  -0.00399   1.94932
   A28        1.89157   0.00094   0.00003   0.01994   0.01962   1.91119
   A29        1.92731   0.00058   0.00001   0.00675   0.00669   1.93400
   A30        1.93162  -0.00174  -0.00002  -0.01853  -0.01862   1.91300
   A31        1.93379  -0.00032  -0.00000  -0.00084  -0.00096   1.93283
   A32        1.89624   0.00026  -0.00001  -0.00401  -0.00404   1.89220
   A33        1.88546   0.00070   0.00005   0.02271   0.02266   1.90812
   A34        1.88809   0.00059  -0.00002  -0.00543  -0.00558   1.88251
    D1       -3.13037  -0.00024  -0.00001  -0.01235  -0.01236   3.14046
    D2        0.00905  -0.00009   0.00006   0.00887   0.00888   0.01793
    D3       -0.03837   0.00038   0.00001   0.01700   0.01692  -0.02145
    D4        3.10105   0.00052   0.00008   0.03822   0.03815   3.13920
    D5       -0.00854   0.00001  -0.00005  -0.00915  -0.00917  -0.01771
    D6       -3.10626  -0.00042  -0.00007  -0.03417  -0.03468  -3.14094
    D7        0.07312  -0.00411   0.00014  -0.14165  -0.14008  -0.06696
    D8        3.10148   0.00295  -0.00020   0.08069   0.07920  -3.10250
    D9       -3.12256  -0.00341   0.00016  -0.10957  -0.10812   3.05251
   D10       -0.09420   0.00366  -0.00017   0.11277   0.11117   0.01696
   D11       -0.00675   0.00014  -0.00005  -0.00581  -0.00580  -0.01256
   D12        3.13858  -0.00003  -0.00007  -0.01696  -0.01686   3.12172
   D13        3.13255   0.00029   0.00002   0.01651   0.01643  -3.13420
   D14       -0.00530   0.00012   0.00000   0.00536   0.00538   0.00008
   D15        0.00182  -0.00012   0.00002   0.00060   0.00065   0.00248
   D16        3.14021   0.00002   0.00004   0.01005   0.01029  -3.13268
   D17       -0.01412   0.00013   0.00000   0.00569   0.00570  -0.00842
   D18        3.13138  -0.00005  -0.00002  -0.00590  -0.00592   3.12545
   D19        0.00403   0.00005   0.00002   0.00508   0.00499   0.00901
   D20       -3.13287   0.00001  -0.00000  -0.00156  -0.00156  -3.13443
   D21        1.08494  -0.00063  -0.00001  -0.00999  -0.00999   1.07495
   D22       -1.06660   0.00058   0.00001   0.00702   0.00701  -1.05959
   D23        3.01792  -0.00039   0.00045   0.06203   0.06065   3.07857
   D24       -0.23982   0.00635   0.00011   0.28675   0.28867   0.04886
   D25       -1.49306   0.00060  -0.00001   0.01460   0.01452  -1.47854
   D26        2.69474   0.00038  -0.00006   0.00170   0.00199   2.69673
   D27        0.67185  -0.00036   0.00000   0.00581   0.00552   0.67737
   D28       -0.99299  -0.00051  -0.00001  -0.00620  -0.00628  -0.99927
   D29       -3.09340  -0.00008   0.00001   0.00649   0.00649  -3.08691
   D30        1.09535   0.00054   0.00005   0.02601   0.02600   1.12135
   D31        1.03121  -0.00084  -0.00004  -0.01814  -0.01819   1.01302
   D32       -1.06919  -0.00041  -0.00002  -0.00545  -0.00542  -1.07462
   D33        3.11955   0.00021   0.00002   0.01407   0.01409   3.13364
   D34       -3.13302   0.00016   0.00002   0.01543   0.01546  -3.11756
   D35        1.04976   0.00059   0.00004   0.02812   0.02823   1.07799
   D36       -1.04468   0.00121   0.00008   0.04764   0.04775  -0.99694
         Item               Value     Threshold  Converged?
 Maximum Force            0.008354     0.000450     NO 
 RMS     Force            0.001958     0.000300     NO 
 Maximum Displacement     0.391555     0.001800     NO 
 RMS     Displacement     0.105926     0.001200     NO 
 Predicted change in Energy=-2.747457D-03
 GradGradGradGradGradGradGradGradGradGradGradGradGradGradGradGradGradGrad

                          Input orientation:                          
 ---------------------------------------------------------------------
 Center     Atomic      Atomic             Coordinates (Angstroms)
 Number     Number       Type             X           Y           Z
 ---------------------------------------------------------------------
      1          6           0       -0.353141   -0.948355    0.131199
      2          6           0       -1.249570    0.074447    0.112237
      3          1           0       -2.315081    0.004595    0.261302
      4          6           0       -0.431693    1.209084   -0.173468
      5          7           0        0.843807    0.884217   -0.296428
      6          8           0        0.891053   -0.486366   -0.095100
      7          8           0       -0.784373    2.494669   -0.331407
      8          6           0       -2.172025    2.808334   -0.212211
      9          6           0       -0.590715   -2.397863    0.381124
     10          8           0       -1.690315   -2.808919    0.675540
     11          8           0        0.541043   -3.123171    0.370632
     12          6           0        0.423121   -4.532162    0.683991
     13          6           0        0.443782   -4.795404    2.185744
     14          1           0       -2.232886    3.883340   -0.380329
     15          1           0       -2.551686    2.564973    0.788707
     16          1           0       -2.769143    2.278276   -0.965599
     17          1           0        1.287753   -4.967413    0.178149
     18          1           0       -0.493967   -4.902604    0.222074
     19          1           0        1.357379   -4.397089    2.637752
     20          1           0        0.408436   -5.875788    2.370491
     21          1           0       -0.427200   -4.343240    2.670621
 ---------------------------------------------------------------------
                    Distance matrix (angstroms):
                    1          2          3          4          5
     1  C    0.000000
     2  C    1.360172   0.000000
     3  H    2.185005   1.078152   0.000000
     4  C    2.180260   1.427569   2.277492   0.000000
     5  N    2.230218   2.281439   3.326164   1.321952   0.000000
     6  O    1.346353   2.222559   3.263029   2.151825   1.386097
     7  O    3.500626   2.504137   2.982421   1.342407   2.290360
     8  C    4.187957   2.903503   2.847039   2.363866   3.578347
     9  C    1.489959   2.572685   2.959662   3.652797   3.645406
    10  O    2.355003   2.970751   2.911664   4.295264   4.583203
    11  O    2.363624   3.673938   4.237017   4.473331   4.073794
    12  C    3.708347   4.934131   5.315880   5.867525   5.520450
    13  C    4.433511   5.557186   5.861296   6.510469   6.211223
    14  H    5.209643   3.964492   3.932315   3.230903   4.297420
    15  H    4.196354   2.890647   2.624819   2.694177   3.941045
    16  H    4.177461   2.885774   2.623182   2.689668   3.929961
    17  H    4.341379   5.644706   6.140700   6.421001   5.887605
    18  H    3.957799   5.035279   5.234367   6.124791   5.962028
    19  H    4.593740   5.759257   6.205586   6.521726   6.063445
    20  H    5.465714   6.576777   6.815067   7.574494   7.280088
    21  H    4.240211   5.170839   5.317197   6.238363   6.143708
                    6          7          8          9         10
     6  O    0.000000
     7  O    3.427749   0.000000
     8  C    4.500135   1.427646   0.000000
     9  C    2.465005   4.947936   5.473306   0.000000
    10  O    3.556909   5.473821   5.707336   1.210276   0.000000
    11  O    2.700399   5.814612   6.548527   1.344269   2.273913
    12  C    4.146614   7.201766   7.837146   2.382189   2.726949
    13  C    4.895928   7.809582   8.391035   3.174120   3.283475
    14  H    5.379097   2.007234   1.089772   6.536822   6.796732
    15  H    4.684468   2.093560   1.097818   5.351754   5.443664
    16  H    4.668838   2.094835   1.097772   5.331555   5.453142
    17  H    4.506864   7.761187   8.519666   3.189425   3.711520
    18  H    4.639185   7.423633   7.903357   2.511650   2.453650
[...]
    17  H   -0.041559  -0.000000   0.000000  -0.000000   0.537334  -0.032847
    18  H   -0.046042   0.000000   0.000000  -0.000000  -0.032847   0.567250
    19  H    0.377378   0.000000   0.000000  -0.000000  -0.004509   0.004751
    20  H    0.353834  -0.000000   0.000000  -0.000000  -0.000487   0.000555
    21  H    0.374865  -0.000000   0.000000  -0.000000   0.004407  -0.005273
              19         20         21
     1  C   -0.000077   0.000002  -0.000175
     2  C    0.000000  -0.000000   0.000006
     3  H   -0.000000   0.000000   0.000000
     4  C    0.000000   0.000000  -0.000000
     5  N    0.000000  -0.000000  -0.000000
     6  O    0.000002   0.000000   0.000001
     7  O    0.000000  -0.000000  -0.000000
     8  C   -0.000000  -0.000000  -0.000000
     9  C   -0.000249  -0.000093   0.001132
    10  O    0.000063   0.000019   0.003886
    11  O    0.000688   0.003115  -0.001848
    12  C   -0.031237  -0.023863  -0.030299
    13  C    0.377378   0.353834   0.374865
    14  H    0.000000  -0.000000  -0.000000
    15  H    0.000000   0.000000   0.000000
    16  H   -0.000000  -0.000000  -0.000000
    17  H   -0.004509  -0.000487   0.004407
    18  H    0.004751   0.000555  -0.005273
    19  H    0.526935  -0.025014  -0.027894
    20  H   -0.025014   0.554894  -0.024939
    21  H   -0.027894  -0.024939   0.534314
 Mulliken charges:
               1
     1  C    0.343822
     2  C   -0.325187
     3  H    0.143357
     4  C    0.533320
     5  N   -0.227523
     6  O   -0.411522
     7  O   -0.486716
     8  C   -0.215103
     9  C    0.566929
    10  O   -0.315287
    11  O   -0.425805
    12  C   -0.068508
    13  C   -0.462075
    14  H    0.174704
    15  H    0.155038
    16  H    0.155308
    17  H    0.180093
    18  H    0.172199
    19  H    0.179162
    20  H    0.161978
    21  H    0.171817
 Sum of Mulliken charges =   0.00000
 Mulliken charges with hydrogens summed into heavy atoms:
               1
     1  C    0.343822
     2  C   -0.181830
     4  C    0.533320
     5  N   -0.227523
     6  O   -0.411522
     7  O   -0.486716
     8  C    0.269947
     9  C    0.566929
    10  O   -0.315287
    11  O   -0.425805
    12  C    0.283784
    13  C    0.050881
 Electronic spatial extent (au):  <R**2>=           2854.0992
 Charge=              0.0000 electrons
 Dipole moment (field-independent basis, Debye):
    X=             -3.5390    Y=              3.9869    Z=             -0.1077  Tot=              5.3321
 Quadrupole moment (field-independent basis, Debye-Ang):
   XX=            -48.0203   YY=            -74.1274   ZZ=            -68.6848
   XY=             10.7370   XZ=              0.9158   YZ=              0.3703
 Traceless Quadrupole moment (field-independent basis, Debye-Ang):
   XX=             15.5905   YY=            -10.5166   ZZ=             -5.0739
   XY=             10.7370   XZ=              0.9158   YZ=              0.3703
 Octapole moment (field-independent basis, Debye-Ang**2):
  XXX=            -37.4717  YYY=              7.7278  ZZZ=             -1.7918  XYY=             -1.4255
  XXY=             28.1073  XXZ=             -2.3961  XZZ=             -4.6623  YZZ=             -0.8864
  YYZ=              0.1141  XYZ=              0.8573
 Hexadecapole moment (field-independent basis, Debye-Ang**3):
 XXXX=          -2620.3760 YYYY=           -434.1560 ZZZZ=           -144.3129 XXXY=            122.3994
 XXXZ=             28.8023 YYYX=             26.3490 YYYZ=              1.0525 ZZZX=              8.1519
 ZZZY=             -1.1677 XXYY=           -580.2011 XXZZ=           -530.7237 YYZZ=            -91.6949
 XXYZ=              6.0191 YYXZ=              2.0781 ZZXY=              0.7917
 N-N= 6.990284287785D+02 E-N=-2.864631155628D+03  KE= 6.223752946047D+02
 Evaluate density.
 Using the total density.
 Monte-Carlo method of calculating molar volume:
 based on  0.001 e/bohr**3 density envelope.
 Number of points per bohr**3 =   20 CutOff= 1.00D-04
 Using the CI density.
 There are       393 points.  Will hold       393 in memory.
 LenV=  1073623036 MDV=  1073741824.
 Box volume = 7604.955 fraction occupied=0.158
 Integrated density= 4.8035811304866009D+01 error=-4.1964188695133991D+01
 Molar volume = 1199.764 bohr**3/mol (107.066 cm**3/mol)
 Recommended a0 for SCRF calculation =  4.34 angstrom (  8.20 bohr)
 ******************************Gaussian NBO Version 3.1******************************
             N A T U R A L   A T O M I C   O R B I T A L   A N D
          N A T U R A L   B O N D   O R B I T A L   A N A L Y S I S
 ******************************Gaussian NBO Version 3.1******************************
       /RESON  / : Allow strongly delocalized NBO set

 Analyzing the CI density

 Job title: Title Card Required                                             

 Storage needed:    119154 in NPA (1073739409 available)


 NATURAL POPULATIONS:  Natural atomic orbital occupancies 
                                                          
   NAO  Atom  No  lang   Type(AO)    Occupancy
 --------------------------------------------
     1    C    1  S      Cor( 1S)     1.99882
     2    C    1  S      Val( 2S)     0.85466
     3    C    1  S      Ryd( 3S)     0.00214
     4    C    1  S      Ryd( 4S)     0.00016
     5    C    1  px     Val( 2p)     1.03336
     6    C    1  px     Ryd( 3p)     0.00431
     7    C    1  py     Val( 2p)     0.77329
     8    C    1  py     Ryd( 3p)     0.01015
     9    C    1  pz     Val( 2p)     1.14851
    10    C    1  pz     Ryd( 3p)     0.00239
    11    C    1  dxy    Ryd( 3d)     0.00123
    12    C    1  dxz    Ryd( 3d)     0.00128
    13    C    1  dyz    Ryd( 3d)     0.00197
    14    C    1  dx2y2  Ryd( 3d)     0.00175
    15    C    1  dz2    Ryd( 3d)     0.00063
 
    16    C    2  S      Cor( 1S)     1.99885
    17    C    2  S      Val( 2S)     0.97512
    18    C    2  S      Ryd( 3S)     0.00086
    19    C    2  S      Ryd( 4S)     0.00004
    20    C    2  px     Val( 2p)     1.05768
    21    C    2  px     Ryd( 3p)     0.00259
    22    C    2  py     Val( 2p)     1.21786
    23    C    2  py     Ryd( 3p)     0.00252
    24    C    2  pz     Val( 2p)     1.19368
    25    C    2  pz     Ryd( 3p)     0.00342
    26    C    2  dxy    Ryd( 3d)     0.00065
    27    C    2  dxz    Ryd( 3d)     0.00047
    28    C    2  dyz    Ryd( 3d)     0.00062
    29    C    2  dx2y2  Ryd( 3d)     0.00059
    30    C    2  dz2    Ryd( 3d)     0.00049
 
    31    H    3  S      Val( 1S)     0.74951
    32    H    3  S      Ryd( 2S)     0.00035
 
    33    C    4  S      Cor( 1S)     1.99905
    34    C    4  S      Val( 2S)     0.80624
    35    C    4  S      Ryd( 3S)     0.00393
    36    C    4  S      Ryd( 4S)     0.00031
    37    C    4  px     Val( 2p)     0.76817
    38    C    4  px     Ryd( 3p)     0.00611
    39    C    4  py     Val( 2p)     0.95082
    40    C    4  py     Ryd( 3p)     0.01016
    41    C    4  pz     Val( 2p)     0.97581
    42    C    4  pz     Ryd( 3p)     0.00128
    43    C    4  dxy    Ryd( 3d)     0.00173
    44    C    4  dxz    Ryd( 3d)     0.00272
    45    C    4  dyz    Ryd( 3d)     0.00215
    46    C    4  dx2y2  Ryd( 3d)     0.00247
    47    C    4  dz2    Ryd( 3d)     0.00060
 
    48    N    5  S      Cor( 1S)     1.99932
    49    N    5  S      Val( 2S)     1.48176
    50    N    5  S      Ryd( 3S)     0.00215
    51    N    5  S      Ryd( 4S)     0.00002
    52    N    5  px     Val( 2p)     0.80947
    53    N    5  px     Ryd( 3p)     0.00713
    54    N    5  py     Val( 2p)     1.47240
    55    N    5  py     Ryd( 3p)     0.00373
    56    N    5  pz     Val( 2p)     1.37822
    57    N    5  pz     Ryd( 3p)     0.00188
    58    N    5  dxy    Ryd( 3d)     0.00184
    59    N    5  dxz    Ryd( 3d)     0.00111
    60    N    5  dyz    Ryd( 3d)     0.00270
    61    N    5  dx2y2  Ryd( 3d)     0.00200
    62    N    5  dz2    Ryd( 3d)     0.00113
 
    63    O    6  S      Cor( 1S)     1.99972
    64    O    6  S      Val( 2S)     1.61592
    65    O    6  S      Ryd( 3S)     0.00051
    66    O    6  S      Ryd( 4S)     0.00005
    67    O    6  px     Val( 2p)     1.37905
    68    O    6  px     Ryd( 3p)     0.00206
    69    O    6  py     Val( 2p)     1.55222
    70    O    6  py     Ryd( 3p)     0.00227
    71    O    6  pz     Val( 2p)     1.76195
    72    O    6  pz     Ryd( 3p)     0.00173
    73    O    6  dxy    Ryd( 3d)     0.00201
    74    O    6  dxz    Ryd( 3d)     0.00150
    75    O    6  dyz    Ryd( 3d)     0.00181
    76    O    6  dx2y2  Ryd( 3d)     0.00170
    77    O    6  dz2    Ryd( 3d)     0.00116
 
    78    O    7  S      Cor( 1S)     1.99972
    79    O    7  S      Val( 2S)     1.58754
    80    O    7  S      Ryd( 3S)     0.00127
    81    O    7  S      Ryd( 4S)     0.00007
    82    O    7  px     Val( 2p)     1.49378
    83    O    7  px     Ryd( 3p)     0.00153
    84    O    7  py     Val( 2p)     1.58027
    85    O    7  py     Ryd( 3p)     0.00130
    86    O    7  pz     Val( 2p)     1.84014
    87    O    7  pz     Ryd( 3p)     0.00241
    88    O    7  dxy    Ryd( 3d)     0.00141
    89    O    7  dxz    Ryd( 3d)     0.00113
    90    O    7  dyz    Ryd( 3d)     0.00114
    91    O    7  dx2y2  Ryd( 3d)     0.00137
    92    O    7  dz2    Ryd( 3d)     0.00083
 
    93    C    8  S      Cor( 1S)     1.99942
    94    C    8  S      Val( 2S)     1.10344
    95    C    8  S      Ryd( 3S)     0.00128
    96    C    8  S      Ryd( 4S)     0.00002
    97    C    8  px     Val( 2p)     1.16174
    98    C    8  px     Ryd( 3p)     0.00199
    99    C    8  py     Val( 2p)     0.80817
   100    C    8  py     Ryd( 3p)     0.00313
   101    C    8  pz     Val( 2p)     1.22678
   102    C    8  pz     Ryd( 3p)     0.00027
   103    C    8  dxy    Ryd( 3d)     0.00127
   104    C    8  dxz    Ryd( 3d)     0.00049
   105    C    8  dyz    Ryd( 3d)     0.00196
   106    C    8  dx2y2  Ryd( 3d)     0.00180
   107    C    8  dz2    Ryd( 3d)     0.00108
 
   108    C    9  S      Cor( 1S)     1.99932
   109    C    9  S      Val( 2S)     0.76643
   110    C    9  S      Ryd( 3S)     0.00344
   111    C    9  S      Ryd( 4S)     0.00043
   112    C    9  px     Val( 2p)     0.89910
   113    C    9  px     Ryd( 3p)     0.00272
   114    C    9  py     Val( 2p)     0.70411
   115    C    9  py     Ryd( 3p)     0.01892
   116    C    9  pz     Val( 2p)     0.95852
   117    C    9  pz     Ryd( 3p)     0.00225
   118    C    9  dxy    Ryd( 3d)     0.00230
   119    C    9  dxz    Ryd( 3d)     0.00204
   120    C    9  dyz    Ryd( 3d)     0.00286
   121    C    9  dx2y2  Ryd( 3d)     0.00217
   122    C    9  dz2    Ryd( 3d)     0.00049
 
   123    O   10  S      Cor( 1S)     1.99982
   124    O   10  S      Val( 2S)     1.71652
   125    O   10  S      Ryd( 3S)     0.00033
   126    O   10  S      Ryd( 4S)     0.00000
   127    O   10  px     Val( 2p)     1.16030
   128    O   10  px     Ryd( 3p)     0.00095
   129    O   10  py     Val( 2p)     1.57277
   130    O   10  py     Ryd( 3p)     0.00031
   131    O   10  pz     Val( 2p)     1.80759
   132    O   10  pz     Ryd( 3p)     0.00275
   133    O   10  dxy    Ryd( 3d)     0.00332
   134    O   10  dxz    Ryd( 3d)     0.00028
   135    O   10  dyz    Ryd( 3d)     0.00504
   136    O   10  dx2y2  Ryd( 3d)     0.00441
   137    O   10  dz2    Ryd( 3d)     0.00150
 
   138    O   11  S      Cor( 1S)     1.99976
   139    O   11  S      Val( 2S)     1.62047
   140    O   11  S      Ryd( 3S)     0.00088
   141    O   11  S      Ryd( 4S)     0.00004
   142    O   11  px     Val( 2p)     1.40218
   143    O   11  px     Ryd( 3p)     0.00071
   144    O   11  py     Val( 2p)     1.63189
   145    O   11  py     Ryd( 3p)     0.00197
   146    O   11  pz     Val( 2p)     1.81198
   147    O   11  pz     Ryd( 3p)     0.00193
   148    O   11  dxy    Ryd( 3d)     0.00146
   149    O   11  dxz    Ryd( 3d)     0.00043
   150    O   11  dyz    Ryd( 3d)     0.00211
   151    O   11  dx2y2  Ryd( 3d)     0.00140
   152    O   11  dz2    Ryd( 3d)     0.00079
 
   153    C   12  S      Cor( 1S)     1.99927
   154    C   12  S      Val( 2S)     1.04361
   155    C   12  S      Ryd( 3S)     0.00141
   156    C   12  S      Ryd( 4S)     0.00004
   157    C   12  px     Val( 2p)     0.72405
   158    C   12  px     Ryd( 3p)     0.00317
   159    C   12  py     Val( 2p)     1.21554
   160    C   12  py     Ryd( 3p)     0.00490
   161    C   12  pz     Val( 2p)     1.11735
   162    C   12  pz     Ryd( 3p)     0.00121
   163    C   12  dxy    Ryd( 3d)     0.00119
   164    C   12  dxz    Ryd( 3d)     0.00130
   165    C   12  dyz    Ryd( 3d)     0.00135
   166    C   12  dx2y2  Ryd( 3d)     0.00171
   167    C   12  dz2    Ryd( 3d)     0.00087
 
   168    C   13  S      Cor( 1S)     1.99945
   169    C   13  S      Val( 2S)     1.11891
   170    C   13  S      Ryd( 3S)     0.00048
   171    C   13  S      Ryd( 4S)     0.00001
   172    C   13  px     Val( 2p)     1.21977
   173    C   13  px     Ryd( 3p)     0.00135
   174    C   13  py     Val( 2p)     1.25098
   175    C   13  py     Ryd( 3p)     0.00156
   176    C   13  pz     Val( 2p)     1.11498
   177    C   13  pz     Ryd( 3p)     0.00100
   178    C   13  dxy    Ryd( 3d)     0.00043
   179    C   13  dxz    Ryd( 3d)     0.00036
   180    C   13  dyz    Ryd( 3d)     0.00097
   181    C   13  dx2y2  Ryd( 3d)     0.00085
   182    C   13  dz2    Ryd( 3d)     0.00057
 
   183    H   14  S      Val( 1S)     0.77014
   184    H   14  S      Ryd( 2S)     0.00051
 
   185    H   15  S      Val( 1S)     0.79402
   186    H   15  S      Ryd( 2S)     0.00184
 
   187    H   16  S      Val( 1S)     0.79387
   188    H   16  S      Ryd( 2S)     0.00183
 
   189    H   17  S      Val( 1S)     0.75704
   190    H   17  S      Ryd( 2S)     0.00110
 
   191    H   18  S      Val( 1S)     0.77531
   192    H   18  S      Ryd( 2S)     0.00182
 
   193    H   19  S      Val( 1S)     0.75216
   194    H   19  S      Ryd( 2S)     0.00118
 
   195    H   20  S      Val( 1S)     0.75400
   196    H   20  S      Ryd( 2S)     0.00092
 
   197    H   21  S      Val( 1S)     0.75862
   198    H   21  S      Ryd( 2S)     0.00122

 WARNING:  1 low occupancy (<1.9990e) core orbital  found on  C    1
           1 low occupancy (<1.9990e) core orbital  found on  C    2


 Summary of Natural Population Analysis:                  
                                                          
                                       Natural Population 
                Natural  -----------------------------------------------
    Atom  No    Charge         Core      Valence    Rydberg      Total
 -----------------------------------------------------------------------
      C    1    0.16536      1.99882     3.80981    0.02601     5.83464
      C    2   -0.45542      1.99885     4.44433    0.01224     6.45542
      H    3    0.25014      0.00000     0.74951    0.00035     0.74986
      C    4    0.46845      1.99905     3.50103    0.03146     5.53155
      N    5   -0.16486      1.99932     5.14183    0.02370     7.16486
      O    6   -0.32368      1.99972     6.30914    0.01482     8.32368
      O    7   -0.51392      1.99972     6.50172    0.01248     8.51392
      C    8   -0.31286      1.99942     4.30012    0.01331     6.31286
      C    9    0.63489      1.99932     3.32816    0.03762     5.36511
      O   10   -0.27589      1.99982     6.25718    0.01889     8.27589
      O   11   -0.47799      1.99976     6.46652    0.01171     8.47799
      C   12   -0.11699      1.99927     4.10056    0.01716     6.11699
      C   13   -0.71167      1.99945     4.70464    0.00758     6.71167
      H   14    0.22935      0.00000     0.77014    0.00051     0.77065
      H   15    0.20414      0.00000     0.79402    0.00184     0.79586
      H   16    0.20430      0.00000     0.79387    0.00183     0.79570
      H   17    0.24186      0.00000     0.75704    0.00110     0.75814
      H   18    0.22287      0.00000     0.77531    0.00182     0.77713
      H   19    0.24666      0.00000     0.75216    0.00118     0.75334
      H   20    0.24508      0.00000     0.75400    0.00092     0.75492
      H   21    0.24016      0.00000     0.75862    0.00122     0.75984
 =======================================================================
   * Total *   -0.00000     23.99253    65.76974    0.23773    90.00000

                                 Natural Population      
 --------------------------------------------------------
   Core                      23.99253 ( 99.9689% of  24)
   Valence                   65.76974 ( 99.6511% of  66)
   Natural Minimal Basis     89.76227 ( 99.7359% of  90)
   Natural Rydberg Basis      0.23773 (  0.2641% of  90)
 --------------------------------------------------------

    Atom  No          Natural Electron Configuration
 ----------------------------------------------------------------------------
      C    1      [core]2S( 0.85)2p( 2.96)3p( 0.02)3d( 0.01)
      C    2      [core]2S( 0.98)2p( 3.47)3p( 0.01)
      H    3            1S( 0.75)
      C    4      [core]2S( 0.81)2p( 2.69)3p( 0.02)3d( 0.01)
      N    5      [core]2S( 1.48)2p( 3.66)3p( 0.01)3d( 0.01)
      O    6      [core]2S( 1.62)2p( 4.69)3p( 0.01)3d( 0.01)
      O    7      [core]2S( 1.59)2p( 4.91)3p( 0.01)3d( 0.01)
      C    8      [core]2S( 1.10)2p( 3.20)3p( 0.01)3d( 0.01)
      C    9      [core]2S( 0.77)2p( 2.56)3p( 0.02)3d( 0.01)
      O   10      [core]2S( 1.72)2p( 4.54)3d( 0.01)
      O   11      [core]2S( 1.62)2p( 4.85)3d( 0.01)
      C   12      [core]2S( 1.04)2p( 3.06)3p( 0.01)3d( 0.01)
      C   13      [core]2S( 1.12)2p( 3.59)
      H   14            1S( 0.77)
      H   15            1S( 0.79)
      H   16            1S( 0.79)
      H   17            1S( 0.76)
      H   18            1S( 0.78)
      H   19            1S( 0.75)
      H   20            1S( 0.75)
      H   21            1S( 0.76)


 NBO analysis skipped by request.
 1\1\GINC-DELLA-R4C4N5\SP\RB3LYP TD-FC\6-31G(d)\C7H9N1O4\BJS4\27-Aug-20
 18\0\\# TD(NStates=10, Root=1) b3lyp/6-31G* volume pop=NPA density=cur
 rent Geom=AllCheck Guess=Read\\Title Card Required\\0,1\C,0,-0.3583763
 183,-0.9467408556,0.173913027\C,0,-1.2571016864,0.0776023151,0.1183281
 033\H,0,-2.3225462592,0.0158699434,0.2698253595\C,0,-0.4368541283,1.20
 44023262,-0.1824438523\N,0,0.8402319912,0.8806406647,-0.2958200955\O,0
 ,0.8867141112,-0.4929715872,-0.0679786792\O,0,-0.7761632773,2.49146830
 49,-0.3570230778\C,0,-2.1615406244,2.8033088478,-0.2293879849\C,0,-0.5
 949311884,-2.3815705654,0.4500897888\O,0,-1.7063497553,-2.8194737862,0
 .6730105012\O,0,0.5391985111,-3.0951264456,0.4151816654\C,0,0.41766293
 94,-4.5178834136,0.6764502859\C,0,0.450695829,-4.8076379117,2.16892241
 35\H,0,-2.2408769208,3.8770103654,-0.402848151\H,0,-2.5308907984,2.567
 3316955,0.7762139602\H,0,-2.7599033757,2.267231605,-0.9763093881\H,0,1
 .2762541912,-4.9537927343,0.1612816607\H,0,-0.5059835326,-4.8797208273
 ,0.2185736951\H,0,1.3585682648,-4.3995701502,2.624314243\H,0,0.4388536
 784,-5.8910516208,2.3339978461\H,0,-0.4220816512,-4.3757661699,2.66672
 86791\\Version=ES64L-G16RevA.03\State=1-A\HF=-627.7492205\RMSD=1.337e-
 09\Dipole=-1.2608689,-1.585789,0.5442968\Quadrupole=-4.1277872,8.09770
 38,-3.9699166,-10.6450066,2.3931828,-0.9449986\PG=C01 [X(C7H9N1O4)]\\@


 The juvenile sea squirt wanders through the sea searching
 for a suitable rock or hunk of coral to cling to and make
 its home for life.  For this task it has a rudimentary
 nervous system.  When it finds its spot and takes root, it
 doesn't need its brain any more so it eats it.
 It's rather like getting tenure.

                               -- source unknown
 Job cpu time:       0 days  0 hours 16 minutes 57.3 seconds.
 Elapsed time:       0 days  0 hours  4 minutes 21.9 seconds.
 File lengths (MBytes):  RWF=    381 Int=      0 D2E=      0 Chk=     67 Scr=      1
 Normal termination of Gaussian 16 at Mon Aug 27 11:53:36 2018.
