 Entering Gaussian System, Link 0=g16
 Input=8_123.com
 Output=8_123.log
 Initial command:
 /opt/export/g16/l1.exe "/scratch/bjs4/job.9024/Gau-9026.inp" -scrdir="/scratch/bjs4/job.9024/"
 Entering Link 1 = /opt/export/g16/l1.exe PID=      9027.
  
 Copyright (c) 1988,1990,1992,1993,1995,1998,2003,2009,2016,
            Gaussian, Inc.  All Rights Reserved.
  
 This is part of the Gaussian(R) 16 program.  It is based on
 the Gaussian(R) 09 system (copyright 2009, Gaussian, Inc.),
 the Gaussian(R) 03 system (copyright 2003, Gaussian, Inc.),
 the Gaussian(R) 98 system (copyright 1998, Gaussian, Inc.),
 the Gaussian(R) 94 system (copyright 1995, Gaussian, Inc.),
 the Gaussian 92(TM) system (copyright 1992, Gaussian, Inc.),
 the Gaussian 90(TM) system (copyright 1990, Gaussian, Inc.),
 the Gaussian 88(TM) system (copyright 1988, Gaussian, Inc.),
 the Gaussian 86(TM) system (copyright 1986, Carnegie Mellon
 University), and the Gaussian 82(TM) system (copyright 1983,
 Carnegie Mellon University). Gaussian is a federally registered
 trademark of Gaussian, Inc.
  
 This software contains proprietary and confidential information,
 including trade secrets, belonging to Gaussian, Inc.
  
 This software is provided under written license and may be
 used, copied, transmitted, or stored only in accord with that
 written license.
  
 The following legend is applicable only to US Government
 contracts under FAR:
  
                    RESTRICTED RIGHTS LEGEND
  
 Use, reproduction and disclosure by the US Government is
 subject to restrictions as set forth in subparagraphs (a)
 and (c) of the Commercial Computer Software - Restricted
 Rights clause in FAR 52.227-19.
  
 Gaussian, Inc.
 340 Quinnipiac St., Bldg. 40, Wallingford CT 06492
  
  
 ---------------------------------------------------------------
 Warning -- This program may not be used in any manner that
 competes with the business of Gaussian, Inc. or will provide
 assistance to any competitor of Gaussian, Inc.  The licensee
 of this program is prohibited from giving any competitor of
 Gaussian, Inc. access to this program.  By using this program,
 the user acknowledges that Gaussian, Inc. is engaged in the
 business of creating and licensing software in the field of
 computational chemistry and represents and warrants to the
 licensee that it is not a competitor of Gaussian, Inc. and that
 it will not use this program in any manner prohibited above.
 ---------------------------------------------------------------
  

 Cite this work as:
 Gaussian 16, Revision A.03,
 M. J. Frisch, G. W. Trucks, H. B. Schlegel, G. E. Scuseria, 
 M. A. Robb, J. R. Cheeseman, G. Scalmani, V. Barone, 
 G. A. Petersson, H. Nakatsuji, X. Li, M. Caricato, A. V. Marenich, 
 J. Bloino, B. G. Janesko, R. Gomperts, B. Mennucci, H. P. Hratchian, 
 J. V. Ortiz, A. F. Izmaylov, J. L. Sonnenberg, D. Williams-Young, 
 F. Ding, F. Lipparini, F. Egidi, J. Goings, B. Peng, A. Petrone, 
 T. Henderson, D. Ranasinghe, V. G. Zakrzewski, J. Gao, N. Rega, 
 G. Zheng, W. Liang, M. Hada, M. Ehara, K. Toyota, R. Fukuda, 
 J. Hasegawa, M. Ishida, T. Nakajima, Y. Honda, O. Kitao, H. Nakai, 
 T. Vreven, K. Throssell, J. A. Montgomery, Jr., J. E. Peralta, 
 F. Ogliaro, M. J. Bearpark, J. J. Heyd, E. N. Brothers, K. N. Kudin, 
 V. N. Staroverov, T. A. Keith, R. Kobayashi, J. Normand, 
 K. Raghavachari, A. P. Rendell, J. C. Burant, S. S. Iyengar, 
 J. Tomasi, M. Cossi, J. M. Millam, M. Klene, C. Adamo, R. Cammi, 
 J. W. Ochterski, R. L. Martin, K. Morokuma, O. Farkas, 
 J. B. Foresman, and D. J. Fox, Gaussian, Inc., Wallingford CT, 2016.
 
 ******************************************
 Gaussian 16:  ES64L-G16RevA.03 25-Dec-2016
                30-Dec-2019 
 ******************************************
 %nprocshared=5
 Will use up to    5 processors via shared memory.
 %Mem=10GB
 %Chk=8_1.chk
 ---------------------------------
 # opt=CalcAll B3LYP/6-31G* scf=qc
 ---------------------------------
 1/10=4,18=20,19=15,26=3,38=1/1,3;
 2/9=110,12=2,17=6,18=5,40=1/2;
 3/5=1,6=6,7=1,11=2,25=1,30=1,71=2,74=-5,140=1/1,2,3;
 4//1;
 5/5=2,8=3,38=5/8;
 8/6=4,10=90,11=11/1;
 11/6=1,8=1,9=11,15=111,16=1/1,2,10;
 10/6=1/2;
 6/7=2,8=2,9=2,10=2,18=1,28=1/1;
 7/10=1,25=1/1,2,3,16;
 1/10=4,18=20,19=15,26=3/3(3);
 2/9=110/2;
 7/8=1,9=1,25=1,44=-1/16;
 99//99;
 2/9=110/2;
 3/5=1,6=6,7=1,11=2,25=1,30=1,71=2,74=-5,140=1/1,2,3;
 4/5=5,16=3,69=1/1;
 5/5=2,8=3,38=5/8;
 8/6=4,10=90,11=11/1;
 11/6=1,8=1,9=11,15=111,16=1/1,2,10;
 10/6=1/2;
 7/10=1,25=1/1,2,3,16;
 1/10=4,18=20,19=15,26=3/3(-8);
 2/9=110/2;
 6/7=2,8=2,9=2,10=2,18=1,19=2,28=1/1;
 7/8=1,9=1,25=1,44=-1/16;
 99//99;
 -------------------
 Title Card Required
 -------------------
 Symbolic Z-matrix:
 Charge =  0 Multiplicity = 1
 C5                    1.50434  -1.1199   -0.05797 
 H                     1.12415  -2.12585  -0.16117 
 C4                    0.90349   0.10736  -0.05902 
 C3                    2.00043   1.00244   0.12367 
 H                     1.96847   2.08262   0.18182 
 N2                    3.14459   0.37758   0.22443 
 O1                    2.82333  -0.99239   0.10722 
 C                    -0.51265   0.47295  -0.20665 
 O                    -0.92033   1.61738  -0.1909 
 O                    -1.29038  -0.62184  -0.36494 
 C                    -2.71348  -0.38728  -0.51773 
 C                    -3.40361  -0.26986   0.83247 
 H                    -3.06803  -1.25626  -1.07713 
 H                    -2.85633   0.51448  -1.11761 
 H                    -3.21849  -1.15885   1.44421 
 H                    -4.48552  -0.17136   0.68743 
 H                    -3.04848   0.61265   1.37185 
 

 GradGradGradGradGradGradGradGradGradGradGradGradGradGradGradGradGradGrad
 Berny optimization.
 Initialization pass.
                           ----------------------------
                           !    Initial Parameters    !
                           ! (Angstroms and Degrees)  !
 --------------------------                            --------------------------
 ! Name  Definition              Value          Derivative Info.                !
 --------------------------------------------------------------------------------
 ! R1    R(1,2)                  1.0803         calculate D2E/DX2 analytically  !
 ! R2    R(1,3)                  1.3664         calculate D2E/DX2 analytically  !
 ! R3    R(1,7)                  1.3354         calculate D2E/DX2 analytically  !
 ! R4    R(3,4)                  1.4275         calculate D2E/DX2 analytically  !
 ! R5    R(3,8)                  1.47           calculate D2E/DX2 analytically  !
 ! R6    R(4,5)                  1.0822         calculate D2E/DX2 analytically  !
 ! R7    R(4,6)                  1.3076         calculate D2E/DX2 analytically  !
 ! R8    R(6,7)                  1.412          calculate D2E/DX2 analytically  !
 ! R9    R(8,9)                  1.215          calculate D2E/DX2 analytically  !
 ! R10   R(8,10)                 1.3522         calculate D2E/DX2 analytically  !
 ! R11   R(10,11)                1.4504         calculate D2E/DX2 analytically  !
 ! R12   R(11,12)                1.5209         calculate D2E/DX2 analytically  !
 ! R13   R(11,13)                1.0926         calculate D2E/DX2 analytically  !
 ! R14   R(11,14)                1.0924         calculate D2E/DX2 analytically  !
 ! R15   R(12,15)                1.0949         calculate D2E/DX2 analytically  !
 ! R16   R(12,16)                1.096          calculate D2E/DX2 analytically  !
 ! R17   R(12,17)                1.0936         calculate D2E/DX2 analytically  !
 ! A1    A(2,1,3)              132.9595         calculate D2E/DX2 analytically  !
 ! A2    A(2,1,7)              116.636          calculate D2E/DX2 analytically  !
 ! A3    A(3,1,7)              110.4045         calculate D2E/DX2 analytically  !
 ! A4    A(1,3,4)              103.0125         calculate D2E/DX2 analytically  !
 ! A5    A(1,3,8)              130.3189         calculate D2E/DX2 analytically  !
 ! A6    A(4,3,8)              126.6686         calculate D2E/DX2 analytically  !
 ! A7    A(3,4,5)              127.5907         calculate D2E/DX2 analytically  !
 ! A8    A(3,4,6)              112.4961         calculate D2E/DX2 analytically  !
 ! A9    A(5,4,6)              119.9132         calculate D2E/DX2 analytically  !
 ! A10   A(4,6,7)              104.9616         calculate D2E/DX2 analytically  !
 ! A11   A(1,7,6)              109.1254         calculate D2E/DX2 analytically  !
 ! A12   A(3,8,9)              123.7935         calculate D2E/DX2 analytically  !
 ! A13   A(3,8,10)             111.3762         calculate D2E/DX2 analytically  !
 ! A14   A(9,8,10)             124.83           calculate D2E/DX2 analytically  !
 ! A15   A(8,10,11)            116.4704         calculate D2E/DX2 analytically  !
 ! A16   A(10,11,12)           111.3582         calculate D2E/DX2 analytically  !
 ! A17   A(10,11,13)           104.1054         calculate D2E/DX2 analytically  !
 ! A18   A(10,11,14)           108.6413         calculate D2E/DX2 analytically  !
 ! A19   A(12,11,13)           111.6348         calculate D2E/DX2 analytically  !
 ! A20   A(12,11,14)           111.3728         calculate D2E/DX2 analytically  !
 ! A21   A(13,11,14)           109.447          calculate D2E/DX2 analytically  !
 ! A22   A(11,12,15)           110.8919         calculate D2E/DX2 analytically  !
 ! A23   A(11,12,16)           109.7169         calculate D2E/DX2 analytically  !
 ! A24   A(11,12,17)           110.6601         calculate D2E/DX2 analytically  !
 ! A25   A(15,12,16)           108.2887         calculate D2E/DX2 analytically  !
 ! A26   A(15,12,17)           108.9511         calculate D2E/DX2 analytically  !
 ! A27   A(16,12,17)           108.259          calculate D2E/DX2 analytically  !
 ! D1    D(2,1,3,4)            179.984          calculate D2E/DX2 analytically  !
 ! D2    D(2,1,3,8)              0.0105         calculate D2E/DX2 analytically  !
 ! D3    D(7,1,3,4)              0.0097         calculate D2E/DX2 analytically  !
 ! D4    D(7,1,3,8)           -179.9638         calculate D2E/DX2 analytically  !
 ! D5    D(2,1,7,6)           -179.9924         calculate D2E/DX2 analytically  !
 ! D6    D(3,1,7,6)             -0.0135         calculate D2E/DX2 analytically  !
 ! D7    D(1,3,4,5)            179.9802         calculate D2E/DX2 analytically  !
 ! D8    D(1,3,4,6)             -0.0024         calculate D2E/DX2 analytically  !
 ! D9    D(8,3,4,5)             -0.045          calculate D2E/DX2 analytically  !
 ! D10   D(8,3,4,6)            179.9724         calculate D2E/DX2 analytically  !
 ! D11   D(1,3,8,9)           -179.919          calculate D2E/DX2 analytically  !
 ! D12   D(1,3,8,10)            -0.126          calculate D2E/DX2 analytically  !
 ! D13   D(4,3,8,9)              0.1131         calculate D2E/DX2 analytically  !
 ! D14   D(4,3,8,10)           179.9062         calculate D2E/DX2 analytically  !
 ! D15   D(3,4,6,7)             -0.0052         calculate D2E/DX2 analytically  !
 ! D16   D(5,4,6,7)           -179.9894         calculate D2E/DX2 analytically  !
 ! D17   D(4,6,7,1)              0.0113         calculate D2E/DX2 analytically  !
 ! D18   D(3,8,10,11)          179.8476         calculate D2E/DX2 analytically  !
 ! D19   D(9,8,10,11)           -0.3619         calculate D2E/DX2 analytically  !
 ! D20   D(8,10,11,12)         -85.3367         calculate D2E/DX2 analytically  !
 ! D21   D(8,10,11,13)         154.2358         calculate D2E/DX2 analytically  !
 ! D22   D(8,10,11,14)          37.6806         calculate D2E/DX2 analytically  !
 ! D23   D(10,11,12,15)        -56.0485         calculate D2E/DX2 analytically  !
 ! D24   D(10,11,12,16)       -175.6262         calculate D2E/DX2 analytically  !
 ! D25   D(10,11,12,17)         64.9781         calculate D2E/DX2 analytically  !
 ! D26   D(13,11,12,15)         59.8394         calculate D2E/DX2 analytically  !
 ! D27   D(13,11,12,16)        -59.7383         calculate D2E/DX2 analytically  !
 ! D28   D(13,11,12,17)       -179.134          calculate D2E/DX2 analytically  !
 ! D29   D(14,11,12,15)       -177.4881         calculate D2E/DX2 analytically  !
 ! D30   D(14,11,12,16)         62.9342         calculate D2E/DX2 analytically  !
 ! D31   D(14,11,12,17)        -56.4615         calculate D2E/DX2 analytically  !
 --------------------------------------------------------------------------------
 Trust Radius=3.00D-01 FncErr=1.00D-07 GrdErr=1.00D-06 EigMax=2.50D+02 EigMin=1.00D-04
 Number of steps in this run=     85 maximum allowed number of steps=    102.
 GradGradGradGradGradGradGradGradGradGradGradGradGradGradGradGradGradGrad

                          Input orientation:                          
 ---------------------------------------------------------------------
 Center     Atomic      Atomic             Coordinates (Angstroms)
 Number     Number       Type             X           Y           Z
 ---------------------------------------------------------------------
      1          6           0        1.504337   -1.119897   -0.057970
      2          1           0        1.124148   -2.125849   -0.161174
      3          6           0        0.903494    0.107361   -0.059019
      4          6           0        2.000431    1.002436    0.123668
      5          1           0        1.968467    2.082620    0.181823
      6          7           0        3.144592    0.377577    0.224425
      7          8           0        2.823334   -0.992385    0.107217
      8          6           0       -0.512650    0.472945   -0.206651
      9          8           0       -0.920328    1.617382   -0.190895
     10          8           0       -1.290384   -0.621839   -0.364944
     11          6           0       -2.713482   -0.387275   -0.517732
     12          6           0       -3.403611   -0.269858    0.832473
     13          1           0       -3.068028   -1.256256   -1.077133
     14          1           0       -2.856326    0.514476   -1.117612
     15          1           0       -3.218495   -1.158855    1.444207
     16          1           0       -4.485519   -0.171356    0.687426
     17          1           0       -3.048481    0.612647    1.371853
 ---------------------------------------------------------------------
                    Distance matrix (angstroms):
                    1          2          3          4          5
     1  C    0.000000
     2  H    1.080340   0.000000
     3  C    1.366446   2.246408   0.000000
     4  C    2.187098   3.261161   1.427517   0.000000
     5  H    3.244847   4.306011   2.256949   1.082220   0.000000
     6  N    2.238886   3.240065   2.275055   1.307557   2.071776
     7  O    1.335402   2.060099   2.218752   2.157951   3.192494
     8  C    2.574391   3.071629   1.470004   2.589411   2.982936
     9  O    3.659148   4.265272   2.371472   3.001323   2.949661
    10  O    2.855304   2.851935   2.332043   3.702226   4.270031
    11  C    4.305591   4.228141   3.679347   4.956175   5.339514
    12  C    5.059981   4.993259   4.414545   5.596857   5.900569
    13  H    4.686556   4.378300   4.320763   5.677402   6.172467
    14  H    4.775919   4.871372   3.927163   5.036563   5.237006
    15  H    4.956127   4.729786   4.566594   5.801051   6.245426
    16  H    6.110133   6.000711   5.447598   6.615373   6.854924
    17  H    5.076835   5.221146   4.233298   5.215497   5.361600
                    6          7          8          9         10
     6  N    0.000000
     7  O    1.411999   0.000000
     8  C    3.683794   3.657116   0.000000
     9  O    4.270033   4.573266   1.214984   0.000000
    10  O    4.584234   4.157273   1.352213   2.276257   0.000000
    11  C    5.954228   5.604735   2.383361   2.709405   1.450370
    12  C    6.608166   6.310538   3.160568   3.282629   2.454267
    13  H    6.554396   6.015019   3.205906   3.695379   2.017354
    14  H    6.150677   6.002447   2.514834   2.413150   2.076029
    15  H    6.658631   6.190230   3.565067   3.957603   2.697967
    16  H    7.663830   7.377673   4.122886   4.084314   3.394010
    17  H    6.302857   6.217205   2.990256   2.825015   2.762485
                   11         12         13         14         15
    11  C    0.000000
    12  C    1.520894   0.000000
    13  H    1.092593   2.175360   0.000000
    14  H    1.092435   2.171988   1.783802   0.000000
    15  H    2.167851   1.094898   2.527703   3.081253   0.000000
    16  H    2.153867   1.096023   2.509972   2.526420   1.775731
    17  H    2.163932   1.093555   3.080700   2.498799   1.781112
                   16         17
    16  H    0.000000
    17  H    1.774311   0.000000
 Stoichiometry    C6H7NO3
 Framework group  C1[X(C6H7NO3)]
 Deg. of freedom    45
 Full point group                 C1      NOp   1
 Largest Abelian subgroup         C1      NOp   1
 Largest concise Abelian subgroup C1      NOp   1
                         Standard orientation:                         
 ---------------------------------------------------------------------
 Center     Atomic      Atomic             Coordinates (Angstroms)
 Number     Number       Type             X           Y           Z
 ---------------------------------------------------------------------
      1          6           0        1.504337   -1.119897   -0.057970
      2          1           0        1.124148   -2.125849   -0.161174
      3          6           0        0.903494    0.107361   -0.059019
      4          6           0        2.000431    1.002436    0.123668
      5          1           0        1.968467    2.082620    0.181823
      6          7           0        3.144592    0.377577    0.224425
      7          8           0        2.823334   -0.992385    0.107217
      8          6           0       -0.512650    0.472945   -0.206651
      9          8           0       -0.920328    1.617382   -0.190895
     10          8           0       -1.290384   -0.621839   -0.364944
     11          6           0       -2.713482   -0.387275   -0.517732
     12          6           0       -3.403611   -0.269858    0.832473
     13          1           0       -3.068028   -1.256256   -1.077133
     14          1           0       -2.856326    0.514476   -1.117612
     15          1           0       -3.218495   -1.158855    1.444207
     16          1           0       -4.485519   -0.171356    0.687426
     17          1           0       -3.048481    0.612647    1.371853
 ---------------------------------------------------------------------
 Rotational constants (GHZ):           3.7814119           0.7155621           0.6362725
 Standard basis: 6-31G(d) (6D, 7F)
 There are   164 symmetry adapted cartesian basis functions of A   symmetry.
 There are   164 symmetry adapted basis functions of A   symmetry.
   164 basis functions,   308 primitive gaussians,   164 cartesian basis functions
    37 alpha electrons       37 beta electrons
       nuclear repulsion energy       512.4364297511 Hartrees.
 NAtoms=   17 NActive=   17 NUniq=   17 SFac= 1.00D+00 NAtFMM=   60 NAOKFM=F Big=F
 Integral buffers will be    131072 words long.
 Raffenetti 2 integral format.
 Two-electron integral symmetry is turned on.
 One-electron integrals computed using PRISM.
 NBasis=   164 RedAO= T EigKep=  1.05D-03  NBF=   164
 NBsUse=   164 1.00D-06 EigRej= -1.00D+00 NBFU=   164
 ExpMin= 1.61D-01 ExpMax= 5.48D+03 ExpMxC= 8.25D+02 IAcc=3 IRadAn=         5 AccDes= 0.00D+00
 Harris functional with IExCor=  402 and IRadAn=       5 diagonalized for initial guess.
 HarFok:  IExCor=  402 AccDes= 0.00D+00 IRadAn=         5 IDoV= 1 UseB2=F ITyADJ=14
 ICtDFT=  3500011 ScaDFX=  1.000000  1.000000  1.000000  1.000000
 FoFCou: FMM=F IPFlag=           0 FMFlag=      100000 FMFlg1=           0
         NFxFlg=           0 DoJE=T BraDBF=F KetDBF=T FulRan=T
         wScrn=  0.000000 ICntrl=       500 IOpCl=  0 I1Cent=   200000004 NGrid=           0
         NMat0=    1 NMatS0=      1 NMatT0=    0 NMatD0=    1 NMtDS0=    0 NMtDT0=    0
 Petite list used in FoFCou.
 Keep R1 ints in memory in canonical form, NReq=96497449.
 Gradient too large for Newton-Raphson -- use scaled steepest descent instead.
     Accept linear search using points  2 and  3.
 Gradient too large for Newton-Raphson -- use scaled steepest descent instead.
     Accept linear search using points  2 and  3.
 Gradient too large for Newton-Raphson -- use scaled steepest descent instead.
 Gradient too large for Newton-Raphson -- use scaled steepest descent instead.
     Accept linear search using points  1 and  2.
 Gradient too large for Newton-Raphson -- use scaled steepest descent instead.
 LinEq1:  Iter=  0 NonCon=     1 RMS=5.00D-05 Max=1.18D-03 NDo=     1
 AX will form     1 AO Fock derivatives at one time.
 LinEq1:  Iter=  1 NonCon=     1 RMS=6.00D-05 Max=1.85D-03 NDo=     1
 LinEq1:  Iter=  2 NonCon=     1 RMS=1.96D-05 Max=3.79D-04 NDo=     1
 LinEq1:  Iter=  3 NonCon=     1 RMS=7.15D-06 Max=1.44D-04 NDo=     1
 LinEq1:  Iter=  4 NonCon=     1 RMS=6.35D-06 Max=1.21D-04 NDo=     1
 LinEq1:  Iter=  5 NonCon=     1 RMS=3.52D-06 Max=6.77D-05 NDo=     1
 LinEq1:  Iter=  6 NonCon=     1 RMS=2.45D-06 Max=4.15D-05 NDo=     1
 LinEq1:  Iter=  7 NonCon=     1 RMS=1.39D-06 Max=3.11D-05 NDo=     1
 LinEq1:  Iter=  8 NonCon=     1 RMS=9.16D-07 Max=1.84D-05 NDo=     1
 LinEq1:  Iter=  9 NonCon=     1 RMS=6.28D-07 Max=1.06D-05 NDo=     1
 LinEq1:  Iter= 10 NonCon=     1 RMS=2.84D-07 Max=3.66D-06 NDo=     1
 LinEq1:  Iter= 11 NonCon=     1 RMS=1.22D-07 Max=1.97D-06 NDo=     1
 LinEq1:  Iter= 12 NonCon=     1 RMS=5.92D-08 Max=1.24D-06 NDo=     1
 LinEq1:  Iter= 13 NonCon=     1 RMS=3.19D-08 Max=4.80D-07 NDo=     1
 LinEq1:  Iter= 14 NonCon=     1 RMS=1.16D-08 Max=1.97D-07 NDo=     1
 LinEq1:  Iter= 15 NonCon=     1 RMS=5.68D-09 Max=1.06D-07 NDo=     1
 LinEq1:  Iter= 16 NonCon=     0 RMS=2.22D-09 Max=3.32D-08 NDo=     1
 Linear equations converged to 9.694D-09 9.694D-08 after    16 iterations.
     Minimum is close to point  2 DX=  3.39D-04 DF= -1.14D-12 DXR=  3.39D-04 DFR=  1.18D-07 which will be used.
 LinEq1:  Iter=  0 NonCon=     1 RMS=4.51D-08 Max=1.87D-06 NDo=     1
 LinEq1:  Iter=  1 NonCon=     1 RMS=4.60D-08 Max=1.48D-06 NDo=     1
 LinEq1:  Iter=  2 NonCon=     1 RMS=1.52D-08 Max=2.80D-07 NDo=     1
 LinEq1:  Iter=  3 NonCon=     1 RMS=1.01D-08 Max=2.13D-07 NDo=     1
 LinEq1:  Iter=  4 NonCon=     1 RMS=4.13D-09 Max=6.30D-08 NDo=     1
 LinEq1:  Iter=  5 NonCon=     1 RMS=2.80D-09 Max=7.17D-08 NDo=     1
 LinEq1:  Iter=  6 NonCon=     1 RMS=2.02D-09 Max=3.42D-08 NDo=     1
 LinEq1:  Iter=  7 NonCon=     1 RMS=1.02D-09 Max=1.41D-08 NDo=     1
 LinEq1:  Iter=  8 NonCon=     1 RMS=5.71D-10 Max=1.90D-08 NDo=     1
 LinEq1:  Iter=  9 NonCon=     1 RMS=3.48D-10 Max=7.98D-09 NDo=     1
 LinEq1:  Iter= 10 NonCon=     1 RMS=1.88D-10 Max=3.14D-09 NDo=     1
 LinEq1:  Iter= 11 NonCon=     1 RMS=1.36D-10 Max=2.87D-09 NDo=     1
 LinEq1:  Iter= 12 NonCon=     1 RMS=6.20D-11 Max=1.45D-09 NDo=     1
 LinEq1:  Iter= 13 NonCon=     1 RMS=3.42D-11 Max=5.21D-10 NDo=     1
 LinEq1:  Iter= 14 NonCon=     0 RMS=1.24D-11 Max=1.32D-10 NDo=     1
 Linear equations converged to 1.961D-11 1.961D-10 after    14 iterations.
 SCF Done:  E(RB3LYP) =  -513.232447736     a.u. after    8 cycles
            Convg  =    0.4739D-10                    49 Fock formations.
              S**2 =  0.0000                  -V/T =  2.0090
 DoSCS=F DFT=T ScalE2(SS,OS)=  1.000000  1.000000
 Range of M.O.s used for correlation:     1   164
 NBasis=   164 NAE=    37 NBE=    37 NFC=     0 NFV=     0
 NROrb=    164 NOA=    37 NOB=    37 NVA=   127 NVB=   127
 Symmetrizing basis deriv contribution to polar:
 IMax=3 JMax=2 DiffMx= 0.00D+00
 G2DrvN: will do    18 centers at a time, making    1 passes.
 Calling FoFCou, ICntrl=  3107 FMM=F I1Cent=   0 AccDes= 0.00D+00.
 End of G2Drv F.D. properties file   721 does not exist.
 End of G2Drv F.D. properties file   722 does not exist.
 End of G2Drv F.D. properties file   788 does not exist.
          IDoAtm=11111111111111111
          Differentiating once with respect to electric field.
                with respect to dipole field.
          Differentiating once with respect to nuclear coordinates.
 Keep R1 ints in memory in canonical form, NReq=96497748.
          There are    54 degrees of freedom in the 1st order CPHF.  IDoFFX=6 NUNeed=     3.
     51 vectors produced by pass  0 Test12= 8.70D-15 1.85D-09 XBig12= 8.36D+01 4.84D+00.
 AX will form    51 AO Fock derivatives at one time.
     51 vectors produced by pass  1 Test12= 8.70D-15 1.85D-09 XBig12= 2.98D+01 1.72D+00.
     51 vectors produced by pass  2 Test12= 8.70D-15 1.85D-09 XBig12= 2.89D-01 7.31D-02.
     51 vectors produced by pass  3 Test12= 8.70D-15 1.85D-09 XBig12= 1.38D-03 6.71D-03.
     51 vectors produced by pass  4 Test12= 8.70D-15 1.85D-09 XBig12= 2.45D-06 2.98D-04.
     40 vectors produced by pass  5 Test12= 8.70D-15 1.85D-09 XBig12= 2.26D-09 6.20D-06.
      7 vectors produced by pass  6 Test12= 8.70D-15 1.85D-09 XBig12= 1.81D-12 1.52D-07.
      2 vectors produced by pass  7 Test12= 8.70D-15 1.85D-09 XBig12= 1.05D-15 4.30D-09.
 InvSVY:  IOpt=1 It=  1 EMax= 8.88D-15
 Solved reduced A of dimension   304 with    54 vectors.
 Isotropic polarizability for W=    0.000000       73.11 Bohr**3.
 End of Minotr F.D. properties file   721 does not exist.
 End of Minotr F.D. properties file   722 does not exist.
 End of Minotr F.D. properties file   788 does not exist.

 **********************************************************************

            Population analysis using the SCF density.

 **********************************************************************

 Orbital symmetries:
       Occupied  (A) (A) (A) (A) (A) (A) (A) (A) (A) (A) (A) (A)
                 (A) (A) (A) (A) (A) (A) (A) (A) (A) (A) (A) (A)
                 (A) (A) (A) (A) (A) (A) (A) (A) (A) (A) (A) (A)
                 (A)
       Virtual   (A) (A) (A) (A) (A) (A) (A) (A) (A) (A) (A) (A)
                 (A) (A) (A) (A) (A) (A) (A) (A) (A) (A) (A) (A)
                 (A) (A) (A) (A) (A) (A) (A) (A) (A) (A) (A) (A)
                 (A) (A) (A) (A) (A) (A) (A) (A) (A) (A) (A) (A)
                 (A) (A) (A) (A) (A) (A) (A) (A) (A) (A) (A) (A)
                 (A) (A) (A) (A) (A) (A) (A) (A) (A) (A) (A) (A)
                 (A) (A) (A) (A) (A) (A) (A) (A) (A) (A) (A) (A)
                 (A) (A) (A) (A) (A) (A) (A) (A) (A) (A) (A) (A)
                 (A) (A) (A) (A) (A) (A) (A) (A) (A) (A) (A) (A)
                 (A) (A) (A) (A) (A) (A) (A) (A) (A) (A) (A) (A)
                 (A) (A) (A) (A) (A) (A) (A)
 The electronic state is 1-A.
 Alpha  occ. eigenvalues --  -19.25511 -19.20110 -19.14552 -14.39687 -10.33250
 Alpha  occ. eigenvalues --  -10.28001 -10.25262 -10.24124 -10.22111 -10.19050
 Alpha  occ. eigenvalues --   -1.15730  -1.10930  -1.02378  -0.88709  -0.82442
 Alpha  occ. eigenvalues --   -0.77567  -0.68629  -0.63947  -0.61564  -0.58409
 Alpha  occ. eigenvalues --   -0.55139  -0.50663  -0.49013  -0.48281  -0.46470
 Alpha  occ. eigenvalues --   -0.45164  -0.43322  -0.41543  -0.40736  -0.39488
 Alpha  occ. eigenvalues --   -0.38263  -0.35179  -0.32114  -0.31736  -0.30803
 Alpha  occ. eigenvalues --   -0.28727  -0.28064
 Alpha virt. eigenvalues --   -0.04589  -0.01114   0.08073   0.10016   0.10861
 Alpha virt. eigenvalues --    0.11017   0.11814   0.13941   0.14564   0.16250
 Alpha virt. eigenvalues --    0.17095   0.17472   0.18730   0.22101   0.25688
 Alpha virt. eigenvalues --    0.26263   0.31951   0.35569   0.37547   0.43197
 Alpha virt. eigenvalues --    0.47579   0.50110   0.50508   0.52564   0.53514
 Alpha virt. eigenvalues --    0.54506   0.55924   0.56731   0.60007   0.61432
 Alpha virt. eigenvalues --    0.63092   0.64530   0.66642   0.66828   0.70562
 Alpha virt. eigenvalues --    0.73893   0.74889   0.77085   0.77499   0.78685
 Alpha virt. eigenvalues --    0.79652   0.82688   0.84037   0.87734   0.87983
 Alpha virt. eigenvalues --    0.89137   0.91032   0.94039   0.94380   0.95000
 Alpha virt. eigenvalues --    0.95863   1.00216   1.00995   1.02604   1.05437
 Alpha virt. eigenvalues --    1.08434   1.13353   1.14800   1.22174   1.23825
 Alpha virt. eigenvalues --    1.25621   1.31690   1.34122   1.36449   1.36824
 Alpha virt. eigenvalues --    1.39108   1.45937   1.46903   1.48107   1.50356
 Alpha virt. eigenvalues --    1.54690   1.55911   1.61855   1.67267   1.68036
 Alpha virt. eigenvalues --    1.73433   1.77691   1.78176   1.80300   1.82774
 Alpha virt. eigenvalues --    1.87011   1.87596   1.90967   1.92987   1.96942
 Alpha virt. eigenvalues --    2.03132   2.03506   2.07920   2.08700   2.12900
 Alpha virt. eigenvalues --    2.13620   2.17085   2.18805   2.19634   2.26254
 Alpha virt. eigenvalues --    2.29117   2.29767   2.33656   2.37315   2.38359
 Alpha virt. eigenvalues --    2.39301   2.44891   2.51287   2.55527   2.59051
 Alpha virt. eigenvalues --    2.62838   2.66498   2.69312   2.71208   2.72672
 Alpha virt. eigenvalues --    2.81134   2.89182   2.92570   2.97932   3.01925
 Alpha virt. eigenvalues --    3.21013   3.21913   3.73700   3.96571   3.97887
 Alpha virt. eigenvalues --    4.07345   4.16608   4.18974   4.28831   4.41656
 Alpha virt. eigenvalues --    4.45905   4.61387
          Condensed to atoms (all electrons):
               1          2          3          4          5          6
     1  C    5.005552   0.362425   0.486098  -0.080866   0.006363  -0.106735
     2  H    0.362425   0.489670  -0.028674   0.003995  -0.000091   0.003285
     3  C    0.486098  -0.028674   5.044266   0.449789  -0.036469  -0.000920
     4  C   -0.080866   0.003995   0.449789   4.912593   0.368752   0.406569
     5  H    0.006363  -0.000091  -0.036469   0.368752   0.505395  -0.043165
     6  N   -0.106735   0.003285  -0.000920   0.406569  -0.043165   6.729126
     7  O    0.227856  -0.033058  -0.010898  -0.084992   0.003982   0.160629
     8  C   -0.044624  -0.000759   0.306065  -0.034039  -0.002441   0.007315
     9  O    0.004149  -0.000003  -0.080941   0.003050   0.003824   0.000181
    10  O    0.004931   0.003124  -0.096249   0.003426   0.000046  -0.000029
    11  C   -0.000380  -0.000082   0.007585  -0.000127  -0.000001   0.000001
    12  C    0.000033   0.000005  -0.000656   0.000011   0.000000  -0.000000
    13  H   -0.000056   0.000001  -0.000112   0.000002  -0.000000  -0.000000
    14  H    0.000058   0.000007   0.000370  -0.000010  -0.000002  -0.000000
    15  H    0.000012   0.000004  -0.000051  -0.000001  -0.000000   0.000000
    16  H   -0.000000  -0.000000   0.000008  -0.000000  -0.000000   0.000000
    17  H   -0.000018  -0.000000  -0.000039  -0.000000  -0.000001  -0.000000
               7          8          9         10         11         12
     1  C    0.227856  -0.044624   0.004149   0.004931  -0.000380   0.000033
     2  H   -0.033058  -0.000759  -0.000003   0.003124  -0.000082   0.000005
     3  C   -0.010898   0.306065  -0.080941  -0.096249   0.007585  -0.000656
     4  C   -0.084992  -0.034039   0.003050   0.003426  -0.000127   0.000011
     5  H    0.003982  -0.002441   0.003824   0.000046  -0.000001   0.000000
     6  N    0.160629   0.007315   0.000181  -0.000029   0.000001  -0.000000
     7  O    8.049375   0.004570  -0.000023   0.000023   0.000001  -0.000000
     8  C    0.004570   4.388085   0.547286   0.260288  -0.016581  -0.004574
     9  O   -0.000023   0.547286   8.081544  -0.085260  -0.000641  -0.003822
    10  O    0.000023   0.260288  -0.085260   8.299102   0.198628  -0.038051
    11  C    0.000001  -0.016581  -0.000641   0.198628   4.822872   0.371898
    12  C   -0.000000  -0.004574  -0.003822  -0.038051   0.371898   5.110658
    13  H   -0.000000   0.003973   0.000469  -0.035546   0.382693  -0.043661
    14  H    0.000000  -0.006143   0.015502  -0.033210   0.368371  -0.040629
    15  H    0.000000   0.000297   0.000094   0.000391  -0.033551   0.374927
    16  H    0.000000   0.000062   0.000012   0.002931  -0.025815   0.358990
    17  H    0.000000   0.003495   0.004964  -0.003772  -0.029695   0.377807
              13         14         15         16         17
     1  C   -0.000056   0.000058   0.000012  -0.000000  -0.000018
     2  H    0.000001   0.000007   0.000004  -0.000000  -0.000000
     3  C   -0.000112   0.000370  -0.000051   0.000008  -0.000039
     4  C    0.000002  -0.000010  -0.000001  -0.000000  -0.000000
     5  H   -0.000000  -0.000002  -0.000000  -0.000000  -0.000001
     6  N   -0.000000  -0.000000   0.000000   0.000000  -0.000000
     7  O   -0.000000   0.000000   0.000000   0.000000   0.000000
     8  C    0.003973  -0.006143   0.000297   0.000062   0.003495
     9  O    0.000469   0.015502   0.000094   0.000012   0.004964
    10  O   -0.035546  -0.033210   0.000391   0.002931  -0.003772
    11  C    0.382693   0.368371  -0.033551  -0.025815  -0.029695
    12  C   -0.043661  -0.040629   0.374927   0.358990   0.377807
    13  H    0.572422  -0.035443  -0.004877  -0.000556   0.004546
    14  H   -0.035443   0.555724   0.004888   0.000528  -0.005372
    15  H   -0.004877   0.004888   0.555726  -0.026964  -0.029607
    16  H   -0.000556   0.000528  -0.026964   0.562000  -0.025521
    17  H    0.004546  -0.005372  -0.029607  -0.025521   0.524328
 Mulliken charges:
               1
     1  C    0.135202
     2  H    0.200152
     3  C   -0.039172
     4  C    0.051850
     5  H    0.193807
     6  N   -0.156258
     7  O   -0.317465
     8  C    0.587725
     9  O   -0.490384
    10  O   -0.480774
    11  C   -0.045176
    12  C   -0.462936
    13  H    0.156145
    14  H    0.175362
    15  H    0.158712
    16  H    0.154325
    17  H    0.178886
 Sum of Mulliken charges =   0.00000
 Mulliken charges with hydrogens summed into heavy atoms:
               1
     1  C    0.335354
     3  C   -0.039172
     4  C    0.245657
     6  N   -0.156258
     7  O   -0.317465
     8  C    0.587725
     9  O   -0.490384
    10  O   -0.480774
    11  C    0.286332
    12  C    0.028987
 APT charges:
               1
     1  C    0.339159
     2  H    0.105572
     3  C   -0.338647
     4  C    0.220017
     5  H    0.097720
     6  N   -0.151457
     7  O   -0.439773
     8  C    1.294958
     9  O   -0.720190
    10  O   -0.913109
    11  C    0.573169
    12  C    0.001119
    13  H   -0.044813
    14  H   -0.019840
    15  H   -0.006953
    16  H   -0.012682
    17  H    0.015749
 Sum of APT charges =   0.00000
 APT charges with hydrogens summed into heavy atoms:
               1
     1  C    0.444731
     3  C   -0.338647
     4  C    0.317737
     6  N   -0.151457
     7  O   -0.439773
     8  C    1.294958
     9  O   -0.720190
    10  O   -0.913109
    11  C    0.508516
    12  C   -0.002767
 Electronic spatial extent (au):  <R**2>=           1735.6058
 Charge=              0.0000 electrons
 Dipole moment (field-independent basis, Debye):
    X=             -2.8824    Y=             -1.8609    Z=             -0.2726  Tot=              3.4418
 Quadrupole moment (field-independent basis, Debye-Ang):
   XX=            -61.3846   YY=            -56.0598   ZZ=            -56.3874
   XY=              3.2538   XZ=             -0.3905   YZ=              0.7608
 Traceless Quadrupole moment (field-independent basis, Debye-Ang):
   XX=             -3.4407   YY=              1.8841   ZZ=              1.5565
   XY=              3.2538   XZ=             -0.3905   YZ=              0.7608
 Octapole moment (field-independent basis, Debye-Ang**2):
  XXX=            -74.9471  YYY=            -10.3725  ZZZ=             -2.3898  XYY=             11.5291
  XXY=             -2.4240  XXZ=             -7.0857  XZZ=             -2.5679  YZZ=             -0.2270
  YYZ=              0.3112  XYZ=             -0.1711
 Hexadecapole moment (field-independent basis, Debye-Ang**3):
 XXXX=          -1886.4768 YYYY=           -297.9989 ZZZZ=           -120.9208 XXXY=             -2.1304
 XXXZ=              0.2860 YYYX=              5.5247 YYYZ=              4.5709 ZZZX=              6.1801
 ZZZY=             -0.8839 XXYY=           -343.6567 XXZZ=           -315.6735 YYZZ=            -71.3776
 XXYZ=              2.6345 YYXZ=              1.3771 ZZXY=             -4.7709
 N-N= 5.124364297511D+02 E-N=-2.223262573900D+03  KE= 5.086506218533D+02
  Exact polarizability:  98.764  -0.036  76.892   3.508   1.583  43.676
 Approx polarizability: 134.615  -9.488 140.341   7.742   3.092  62.455
 Calling FoFJK, ICntrl=    100127 FMM=F ISym2X=0 I1Cent= 0 IOpClX= 0 NMat=1 NMatS=1 NMatT=0.
 ***** Axes restored to original set *****
 -------------------------------------------------------------------
 Center     Atomic                   Forces (Hartrees/Bohr)
 Number     Number              X              Y              Z
 -------------------------------------------------------------------
      1        6          -0.000007744   -0.000003971   -0.000005320
      2        1          -0.000002539   -0.000007169   -0.000000615
      3        6           0.000000117    0.000029176   -0.000010323
      4        6          -0.000057133    0.000060757    0.000018957
      5        1          -0.000000648    0.000012771    0.000003753
      6        7           0.000012796   -0.000066209   -0.000020546
      7        8           0.000053288   -0.000024973    0.000012819
      8        6          -0.000032432    0.000079469    0.000008190
      9        8           0.000021920   -0.000063625   -0.000012024
     10        8          -0.000012404   -0.000022949    0.000005195
     11        6           0.000073064   -0.000009674    0.000010709
     12        6          -0.000008297   -0.000009101    0.000005120
     13        1          -0.000011365    0.000002500   -0.000002736
     14        1          -0.000021265    0.000011716   -0.000012179
     15        1          -0.000003680    0.000007991   -0.000003799
     16        1          -0.000002069    0.000008922    0.000004295
     17        1          -0.000001610   -0.000005633   -0.000001496
 -------------------------------------------------------------------
 Cartesian Forces:  Max     0.000079469 RMS     0.000026884
 FormGI is forming the generalized inverse of G from B-inverse, IUseBI=4.

 GradGradGradGradGradGradGradGradGradGradGradGradGradGradGradGradGradGrad
 Berny optimization.
 Internal  Forces:  Max     0.000067385 RMS     0.000017102
 Search for a local minimum.
 Step number   1 out of a maximum of   85
 All quantities printed in internal units (Hartrees-Bohrs-Radians)
 Mixed Optimization -- En-DIIS/RFO-DIIS
 Second derivative matrix not updated -- analytic derivatives used.
 ITU=  0
     Eigenvalues ---    0.00275   0.00490   0.00563   0.00968   0.01951
     Eigenvalues ---    0.01970   0.02583   0.04600   0.04685   0.04730
     Eigenvalues ---    0.05401   0.05771   0.06069   0.06873   0.09768
     Eigenvalues ---    0.09985   0.10912   0.12607   0.12692   0.12861
     Eigenvalues ---    0.13537   0.16707   0.17057   0.20184   0.23337
     Eigenvalues ---    0.24390   0.26297   0.27305   0.29853   0.30097
     Eigenvalues ---    0.33438   0.34075   0.34223   0.34362   0.35043
     Eigenvalues ---    0.36077   0.36982   0.37836   0.38773   0.39346
     Eigenvalues ---    0.43705   0.47101   0.52103   0.58715   0.86636
 RFO step:  Lambda=-1.34608679D-07 EMin= 2.75245293D-03
 Linear search not attempted -- first point.
 Iteration  1 RMS(Cart)=  0.00078159 RMS(Int)=  0.00000023
 Iteration  2 RMS(Cart)=  0.00000032 RMS(Int)=  0.00000001
 Variable       Old X    -DE/DX   Delta X   Delta X   Delta X     New X
                                 (Linear)    (Quad)   (Total)
    R1        2.04155   0.00001   0.00000   0.00002   0.00002   2.04156
    R2        2.58221   0.00004   0.00000   0.00005   0.00005   2.58226
    R3        2.52354   0.00002   0.00000   0.00005   0.00005   2.52360
    R4        2.69762  -0.00001   0.00000  -0.00002  -0.00002   2.69760
    R5        2.77790  -0.00000   0.00000   0.00001   0.00001   2.77792
    R6        2.04510   0.00001   0.00000   0.00003   0.00003   2.04513
    R7        2.47092   0.00007   0.00000   0.00013   0.00013   2.47106
    R8        2.66829  -0.00001   0.00000  -0.00010  -0.00010   2.66819
    R9        2.29599  -0.00007   0.00000  -0.00010  -0.00010   2.29588
   R10        2.55531   0.00001   0.00000   0.00009   0.00009   2.55540
   R11        2.74080  -0.00002   0.00000  -0.00016  -0.00016   2.74065
   R12        2.87407   0.00001   0.00000   0.00005   0.00005   2.87413
   R13        2.06470   0.00000   0.00000   0.00002   0.00002   2.06472
   R14        2.06440   0.00002   0.00000   0.00006   0.00006   2.06447
   R15        2.06906  -0.00001   0.00000  -0.00003  -0.00003   2.06903
   R16        2.07118   0.00000   0.00000   0.00000   0.00000   2.07119
   R17        2.06652  -0.00001   0.00000  -0.00001  -0.00001   2.06651
    A1        2.32058  -0.00001   0.00000  -0.00002  -0.00002   2.32056
    A2        2.03568  -0.00001   0.00000   0.00001   0.00001   2.03569
    A3        1.92692   0.00002   0.00000   0.00002   0.00002   1.92694
    A4        1.79791   0.00001   0.00000   0.00004   0.00004   1.79795
    A5        2.27449  -0.00003   0.00000  -0.00023  -0.00023   2.27426
    A6        2.21078   0.00002   0.00000   0.00019   0.00019   2.21097
    A7        2.22688   0.00002   0.00000   0.00012   0.00012   2.22699
    A8        1.96343  -0.00004   0.00000  -0.00012  -0.00012   1.96330
    A9        2.09288   0.00002   0.00000   0.00001   0.00001   2.09289
   A10        1.83192   0.00004   0.00000   0.00013   0.00013   1.83205
   A11        1.90460  -0.00003   0.00000  -0.00006  -0.00006   1.90453
   A12        2.16060   0.00001   0.00000   0.00011   0.00011   2.16072
   A13        1.94388  -0.00002   0.00000  -0.00013  -0.00013   1.94375
   A14        2.17869   0.00001   0.00000   0.00002   0.00002   2.17871
   A15        2.03279  -0.00003   0.00000  -0.00007  -0.00007   2.03272
   A16        1.94357   0.00000   0.00000   0.00007   0.00007   1.94364
   A17        1.81698   0.00001   0.00000   0.00012   0.00012   1.81710
   A18        1.89615   0.00001   0.00000   0.00016   0.00016   1.89631
   A19        1.94839  -0.00001   0.00000  -0.00009  -0.00009   1.94831
   A20        1.94382  -0.00001   0.00000  -0.00012  -0.00012   1.94371
   A21        1.91021  -0.00000   0.00000  -0.00014  -0.00014   1.91007
   A22        1.93543   0.00000   0.00000   0.00007   0.00007   1.93550
   A23        1.91492   0.00001   0.00000   0.00003   0.00003   1.91495
   A24        1.93138  -0.00000   0.00000  -0.00003  -0.00003   1.93135
   A25        1.88999  -0.00000   0.00000   0.00004   0.00004   1.89003
   A26        1.90156  -0.00000   0.00000  -0.00002  -0.00002   1.90153
   A27        1.88948  -0.00001   0.00000  -0.00008  -0.00008   1.88940
    D1        3.14131  -0.00000   0.00000  -0.00001  -0.00001   3.14130
    D2        0.00018  -0.00000   0.00000  -0.00018  -0.00018   0.00000
    D3        0.00017  -0.00000   0.00000  -0.00006  -0.00006   0.00011
    D4       -3.14096  -0.00000   0.00000  -0.00023  -0.00023  -3.14119
    D5       -3.14146  -0.00000   0.00000  -0.00003  -0.00003  -3.14149
    D6       -0.00023  -0.00000   0.00000   0.00001   0.00001  -0.00023
    D7        3.14125   0.00000   0.00000   0.00004   0.00004   3.14128
    D8       -0.00004   0.00001   0.00000   0.00011   0.00011   0.00006
    D9       -0.00078   0.00000   0.00000   0.00019   0.00019  -0.00059
   D10        3.14111   0.00001   0.00000   0.00026   0.00026   3.14137
   D11       -3.14018   0.00001   0.00000   0.00149   0.00149  -3.13869
   D12       -0.00220   0.00000   0.00000   0.00140   0.00140  -0.00080
   D13        0.00197   0.00001   0.00000   0.00129   0.00129   0.00326
   D14        3.13996   0.00001   0.00000   0.00120   0.00120   3.14115
   D15       -0.00009  -0.00001   0.00000  -0.00010  -0.00010  -0.00019
   D16       -3.14141  -0.00000   0.00000  -0.00004  -0.00004  -3.14145
   D17        0.00020   0.00001   0.00000   0.00006   0.00006   0.00026
   D18        3.13893   0.00000   0.00000   0.00031   0.00031   3.13925
   D19       -0.00632  -0.00000   0.00000   0.00023   0.00023  -0.00609
   D20       -1.48941  -0.00000   0.00000  -0.00016  -0.00016  -1.48957
   D21        2.69192   0.00000   0.00000  -0.00017  -0.00017   2.69175
   D22        0.65765  -0.00000   0.00000  -0.00015  -0.00015   0.65750
   D23       -0.97823  -0.00000   0.00000  -0.00078  -0.00078  -0.97901
   D24       -3.06526  -0.00000   0.00000  -0.00088  -0.00088  -3.06614
   D25        1.13408  -0.00000   0.00000  -0.00078  -0.00078   1.13330
   D26        1.04439   0.00001   0.00000  -0.00063  -0.00063   1.04377
   D27       -1.04263   0.00000   0.00000  -0.00073  -0.00073  -1.04336
   D28       -3.12648   0.00001   0.00000  -0.00063  -0.00063  -3.12711
   D29       -3.09775  -0.00001   0.00000  -0.00095  -0.00095  -3.09870
   D30        1.09841  -0.00001   0.00000  -0.00106  -0.00106   1.09735
   D31       -0.98544  -0.00001   0.00000  -0.00096  -0.00096  -0.98639
         Item               Value     Threshold  Converged?
 Maximum Force            0.000067     0.000450     YES
 RMS     Force            0.000017     0.000300     YES
 Maximum Displacement     0.002704     0.001800     NO 
 RMS     Displacement     0.000782     0.001200     YES
 Predicted change in Energy=-6.730434D-08
 GradGradGradGradGradGradGradGradGradGradGradGradGradGradGradGradGradGrad

                          Input orientation:                          
 ---------------------------------------------------------------------
 Center     Atomic      Atomic             Coordinates (Angstroms)
 Number     Number       Type             X           Y           Z
 ---------------------------------------------------------------------
      1          6           0        1.504357   -1.119727   -0.058719
      2          1           0        1.124124   -2.125601   -0.162605
      3          6           0        0.903530    0.107570   -0.059018
      4          6           0        2.000424    1.002544    0.124346
      5          1           0        1.968552    2.082705    0.183246
      6          7           0        3.144591    0.377477    0.224661
      7          8           0        2.823382   -0.992368    0.106589
      8          6           0       -0.512659    0.472966   -0.206747
      9          8           0       -0.920509    1.617294   -0.191798
     10          8           0       -1.290219   -0.622115   -0.364246
     11          6           0       -2.713234   -0.387823   -0.517446
     12          6           0       -3.403735   -0.269549    0.832526
     13          1           0       -3.067709   -1.257175   -1.076336
     14          1           0       -2.856244    0.513507   -1.117979
     15          1           0       -3.219373   -1.158404    1.444666
     16          1           0       -4.485536   -0.170360    0.687126
     17          1           0       -3.048244    0.612934    1.371693
 ---------------------------------------------------------------------
                    Distance matrix (angstroms):
                    1          2          3          4          5
     1  C    0.000000
     2  H    1.080348   0.000000
     3  C    1.366474   2.246429   0.000000
     4  C    2.187150   3.261216   1.427507   0.000000
     5  H    3.244933   4.306101   2.257015   1.082235   0.000000
     6  N    2.238814   3.240009   2.275011   1.307627   2.071855
     7  O    1.335431   2.060136   2.218811   2.158066   3.192598
     8  C    2.574283   3.071410   1.470010   2.589530   2.983247
     9  O    3.659093   4.265048   2.371501   3.001619   2.950244
    10  O    2.854929   2.851347   2.331982   3.702239   4.270291
    11  C    4.305134   4.227422   3.679205   4.956167   5.339812
    12  C    5.060285   4.993669   4.414703   5.596846   5.900519
    13  H    4.685960   4.377274   4.320672   5.677494   6.172946
    14  H    4.775387   4.870416   3.927096   5.036840   5.237769
    15  H    4.957347   4.731253   4.567504   5.801657   6.245841
    16  H    6.110351   6.001108   5.447569   6.615142   6.854593
    17  H    5.076845   5.221331   4.233065   5.215047   5.361051
                    6          7          8          9         10
     6  N    0.000000
     7  O    1.411946   0.000000
     8  C    3.683844   3.657124   0.000000
     9  O    4.270319   4.573411   1.214928   0.000000
    10  O    4.584052   4.156980   1.352260   2.276263   0.000000
    11  C    5.954033   5.604374   2.383279   2.709317   1.450287
    12  C    6.608231   6.310820   3.160654   3.282655   2.454285
    13  H    6.554185   6.014514   3.205909   3.695327   2.017385
    14  H    6.150707   6.002114   2.514831   2.413136   2.076098
    15  H    6.659383   6.191357   3.565787   3.958193   2.698408
    16  H    7.663735   7.377872   4.122696   4.083825   3.394041
    17  H    6.302564   6.217191   2.990025   2.824977   2.762151
                   11         12         13         14         15
    11  C    0.000000
    12  C    1.520922   0.000000
    13  H    1.092604   2.175332   0.000000
    14  H    1.092468   2.171955   1.783751   0.000000
    15  H    2.167915   1.094884   2.527491   3.081282   0.000000
    16  H    2.153912   1.096025   2.510219   2.525998   1.775744
    17  H    2.163929   1.093550   3.080670   2.499043   1.781081
                   16         17
    16  H    0.000000
    17  H    1.774258   0.000000
 Stoichiometry    C6H7NO3
 Framework group  C1[X(C6H7NO3)]
 Deg. of freedom    45
 Full point group                 C1      NOp   1
 Largest Abelian subgroup         C1      NOp   1
 Largest concise Abelian subgroup C1      NOp   1
                         Standard orientation:                         
 ---------------------------------------------------------------------
 Center     Atomic      Atomic             Coordinates (Angstroms)
 Number     Number       Type             X           Y           Z
 ---------------------------------------------------------------------
      1          6           0        1.504330   -1.119738   -0.058351
      2          1           0        1.124088   -2.125630   -0.162028
      3          6           0        0.903521    0.107567   -0.058953
      4          6           0        2.000419    1.002566    0.124260
      5          1           0        1.968559    2.082741    0.182915
      6          7           0        3.144572    0.377506    0.224768
      7          8           0        2.823349   -0.992361    0.106989
      8          6           0       -0.512657    0.472949   -0.206829
      9          8           0       -0.920492    1.617286   -0.192156
     10          8           0       -1.290225   -0.622156   -0.364117
     11          6           0       -2.713229   -0.387879   -0.517435
     12          6           0       -3.403791   -0.269291    0.832478
     13          1           0       -3.067691   -1.257352   -1.076145
     14          1           0       -2.856200    0.513318   -1.118177
     15          1           0       -3.219469   -1.158012    1.444828
     16          1           0       -4.485583   -0.170120    0.687007
     17          1           0       -3.048312    0.613307    1.371463
 ---------------------------------------------------------------------
 Rotational constants (GHZ):           3.7814190           0.7155642           0.6362724
 Standard basis: 6-31G(d) (6D, 7F)
 There are   164 symmetry adapted cartesian basis functions of A   symmetry.
 There are   164 symmetry adapted basis functions of A   symmetry.
   164 basis functions,   308 primitive gaussians,   164 cartesian basis functions
    37 alpha electrons       37 beta electrons
       nuclear repulsion energy       512.4366433146 Hartrees.
 NAtoms=   17 NActive=   17 NUniq=   17 SFac= 1.00D+00 NAtFMM=   60 NAOKFM=F Big=F
 Integral buffers will be    131072 words long.
 Raffenetti 2 integral format.
 Two-electron integral symmetry is turned on.
 One-electron integrals computed using PRISM.
 NBasis=   164 RedAO= T EigKep=  1.05D-03  NBF=   164
 NBsUse=   164 1.00D-06 EigRej= -1.00D+00 NBFU=   164
 Initial guess from the checkpoint file:  "8_1.chk"
 B after Tr=    -0.000000    0.000000   -0.000000
         Rot=    1.000000    0.000145    0.000009   -0.000005 Ang=   0.02 deg.
 Keep R1 ints in memory in canonical form, NReq=96497449.
 LinEq1:  Iter=  0 NonCon=     1 RMS=1.40D-05 Max=2.31D-04 NDo=     1
 AX will form     1 AO Fock derivatives at one time.
 LinEq1:  Iter=  1 NonCon=     1 RMS=1.14D-06 Max=1.43D-05 NDo=     1
 LinEq1:  Iter=  2 NonCon=     1 RMS=9.70D-07 Max=1.51D-05 NDo=     1
 LinEq1:  Iter=  3 NonCon=     1 RMS=5.98D-07 Max=1.95D-05 NDo=     1
 LinEq1:  Iter=  4 NonCon=     1 RMS=5.00D-07 Max=1.48D-05 NDo=     1
 LinEq1:  Iter=  5 NonCon=     1 RMS=1.70D-07 Max=3.35D-06 NDo=     1
 LinEq1:  Iter=  6 NonCon=     1 RMS=1.31D-07 Max=3.39D-06 NDo=     1
 LinEq1:  Iter=  7 NonCon=     1 RMS=9.70D-08 Max=1.53D-06 NDo=     1
 LinEq1:  Iter=  8 NonCon=     1 RMS=3.83D-08 Max=4.78D-07 NDo=     1
 LinEq1:  Iter=  9 NonCon=     1 RMS=1.58D-08 Max=3.82D-07 NDo=     1
 LinEq1:  Iter= 10 NonCon=     1 RMS=1.02D-08 Max=2.44D-07 NDo=     1
 LinEq1:  Iter= 11 NonCon=     1 RMS=8.73D-09 Max=1.96D-07 NDo=     1
 LinEq1:  Iter= 12 NonCon=     0 RMS=4.11D-09 Max=7.43D-08 NDo=     1
 Linear equations converged to 9.694D-09 9.694D-08 after    12 iterations.
     Accept linear search using points  2 and  3.
     Minimum is close to point  2 DX=  2.52D-06 DF=  0.00D+00 DXR=  2.52D-06 DFR=  0.00D+00 which will be used.
 SCF Done:  E(RB3LYP) =  -513.232447804     a.u. after    2 cycles
            Convg  =    0.1663D-06                    15 Fock formations.
              S**2 =  0.0000                  -V/T =  2.0090
 DoSCS=F DFT=T ScalE2(SS,OS)=  1.000000  1.000000
 Range of M.O.s used for correlation:     1   164
 NBasis=   164 NAE=    37 NBE=    37 NFC=     0 NFV=     0
 NROrb=    164 NOA=    37 NOB=    37 NVA=   127 NVB=   127
 Symmetrizing basis deriv contribution to polar:
 IMax=3 JMax=2 DiffMx= 0.00D+00
 G2DrvN: will do    18 centers at a time, making    1 passes.
 Calling FoFCou, ICntrl=  3107 FMM=F I1Cent=   0 AccDes= 0.00D+00.
 End of G2Drv F.D. properties file   721 does not exist.
 End of G2Drv F.D. properties file   722 does not exist.
 End of G2Drv F.D. properties file   788 does not exist.
          IDoAtm=11111111111111111
          Differentiating once with respect to electric field.
                with respect to dipole field.
          Differentiating once with respect to nuclear coordinates.
 Keep R1 ints in memory in canonical form, NReq=96497748.
          There are    54 degrees of freedom in the 1st order CPHF.  IDoFFX=6 NUNeed=     3.
     51 vectors produced by pass  0 Test12= 8.70D-15 1.85D-09 XBig12= 8.36D+01 4.84D+00.
 AX will form    51 AO Fock derivatives at one time.
     51 vectors produced by pass  1 Test12= 8.70D-15 1.85D-09 XBig12= 2.98D+01 1.72D+00.
     51 vectors produced by pass  2 Test12= 8.70D-15 1.85D-09 XBig12= 2.89D-01 7.31D-02.
     51 vectors produced by pass  3 Test12= 8.70D-15 1.85D-09 XBig12= 1.38D-03 6.71D-03.
     51 vectors produced by pass  4 Test12= 8.70D-15 1.85D-09 XBig12= 2.45D-06 2.97D-04.
     40 vectors produced by pass  5 Test12= 8.70D-15 1.85D-09 XBig12= 2.26D-09 6.21D-06.
      7 vectors produced by pass  6 Test12= 8.70D-15 1.85D-09 XBig12= 1.81D-12 1.52D-07.
      2 vectors produced by pass  7 Test12= 8.70D-15 1.85D-09 XBig12= 1.05D-15 4.30D-09.
 InvSVY:  IOpt=1 It=  1 EMax= 3.55D-15
 Solved reduced A of dimension   304 with    54 vectors.
 Isotropic polarizability for W=    0.000000       73.11 Bohr**3.
 End of Minotr F.D. properties file   721 does not exist.
 End of Minotr F.D. properties file   722 does not exist.
 End of Minotr F.D. properties file   788 does not exist.
 Calling FoFJK, ICntrl=    100127 FMM=F ISym2X=0 I1Cent= 0 IOpClX= 0 NMat=1 NMatS=1 NMatT=0.
 ***** Axes restored to original set *****
 -------------------------------------------------------------------
 Center     Atomic                   Forces (Hartrees/Bohr)
 Number     Number              X              Y              Z
 -------------------------------------------------------------------
      1        6          -0.000000198   -0.000000384   -0.000000009
      2        1          -0.000000355   -0.000000311   -0.000000058
      3        6           0.000000045   -0.000000271    0.000000035
      4        6           0.000000184   -0.000000485    0.000000076
      5        1           0.000000381   -0.000000475    0.000000126
      6        7           0.000000081   -0.000000688    0.000000069
      7        8          -0.000000140   -0.000000611    0.000000013
      8        6           0.000000095   -0.000000046    0.000000019
      9        8           0.000000294    0.000000063    0.000000067
     10        8          -0.000000065    0.000000123   -0.000000026
     11        6          -0.000000077    0.000000377   -0.000000043
     12        6          -0.000000049    0.000000446   -0.000000042
     13        1          -0.000000187    0.000000463   -0.000000083
     14        1           0.000000124    0.000000424   -0.000000004
     15        1          -0.000000214    0.000000387   -0.000000075
     16        1          -0.000000024    0.000000639   -0.000000052
     17        1           0.000000105    0.000000350   -0.000000013
 -------------------------------------------------------------------
 Cartesian Forces:  Max     0.000000688 RMS     0.000000270
 FormGI is forming the generalized inverse of G from B-inverse, IUseBI=4.

 GradGradGradGradGradGradGradGradGradGradGradGradGradGradGradGradGradGrad
 Berny optimization.
 Using GEDIIS/GDIIS optimizer.
 Internal  Forces:  Max     0.000000029 RMS     0.000000006
 Search for a local minimum.
 Step number   2 out of a maximum of   85
 All quantities printed in internal units (Hartrees-Bohrs-Radians)
 Mixed Optimization -- En-DIIS/RFO-DIIS
 Swapping is turned off.
 Second derivative matrix not updated -- analytic derivatives used.
 DE= -6.79D-08 DEPred=-6.73D-08 R= 1.01D+00
 Trust test= 1.01D+00 RLast= 3.79D-03 DXMaxT set to 3.00D-01
 ITU=  0  0
     Eigenvalues ---    0.00275   0.00490   0.00563   0.00968   0.01951
     Eigenvalues ---    0.01970   0.02583   0.04601   0.04685   0.04731
     Eigenvalues ---    0.05401   0.05771   0.06069   0.06873   0.09767
     Eigenvalues ---    0.09987   0.10912   0.12608   0.12693   0.12860
     Eigenvalues ---    0.13536   0.16710   0.17058   0.20184   0.23340
     Eigenvalues ---    0.24391   0.26297   0.27304   0.29852   0.30094
     Eigenvalues ---    0.33439   0.34076   0.34222   0.34359   0.35044
     Eigenvalues ---    0.36077   0.36978   0.37836   0.38773   0.39343
     Eigenvalues ---    0.43705   0.47102   0.52095   0.58696   0.86664
 En-DIIS/RFO-DIIS/Sim-DIIS IScMMF=       -3 using points:     2    1
 RFO step:  Lambda=-1.22776758D-14.
 DidBck=F Rises=F RFO-DIIS coefs:    1.00019   -0.00019
 Iteration  1 RMS(Cart)=  0.00000038 RMS(Int)=  0.00000000
 Variable       Old X    -DE/DX   Delta X   Delta X   Delta X     New X
                                 (Linear)    (Quad)   (Total)
    R1        2.04156  -0.00000   0.00000  -0.00000  -0.00000   2.04156
    R2        2.58226  -0.00000   0.00000  -0.00000  -0.00000   2.58226
    R3        2.52360   0.00000   0.00000   0.00000   0.00000   2.52360
    R4        2.69760  -0.00000  -0.00000  -0.00000  -0.00000   2.69760
    R5        2.77792   0.00000   0.00000   0.00000   0.00000   2.77792
    R6        2.04513  -0.00000   0.00000  -0.00000  -0.00000   2.04513
    R7        2.47106   0.00000   0.00000  -0.00000   0.00000   2.47106
    R8        2.66819  -0.00000  -0.00000  -0.00000  -0.00000   2.66819
    R9        2.29588   0.00000  -0.00000   0.00000   0.00000   2.29588
   R10        2.55540  -0.00000   0.00000  -0.00000  -0.00000   2.55540
   R11        2.74065   0.00000  -0.00000   0.00000   0.00000   2.74065
   R12        2.87413   0.00000   0.00000  -0.00000  -0.00000   2.87413
   R13        2.06472  -0.00000   0.00000  -0.00000  -0.00000   2.06472
   R14        2.06447  -0.00000   0.00000  -0.00000  -0.00000   2.06447
   R15        2.06903  -0.00000  -0.00000   0.00000  -0.00000   2.06903
   R16        2.07119  -0.00000   0.00000  -0.00000  -0.00000   2.07119
   R17        2.06651  -0.00000  -0.00000  -0.00000  -0.00000   2.06651
    A1        2.32056   0.00000  -0.00000   0.00000   0.00000   2.32056
    A2        2.03569  -0.00000   0.00000  -0.00000  -0.00000   2.03569
    A3        1.92694   0.00000   0.00000  -0.00000  -0.00000   1.92694
    A4        1.79795  -0.00000   0.00000  -0.00000  -0.00000   1.79795
    A5        2.27426   0.00000  -0.00000   0.00000  -0.00000   2.27426
    A6        2.21097   0.00000   0.00000  -0.00000   0.00000   2.21097
    A7        2.22699  -0.00000   0.00000   0.00000   0.00000   2.22699
    A8        1.96330   0.00000  -0.00000   0.00000   0.00000   1.96330
    A9        2.09289  -0.00000   0.00000  -0.00000  -0.00000   2.09289
   A10        1.83205  -0.00000   0.00000  -0.00000   0.00000   1.83205
   A11        1.90453  -0.00000  -0.00000   0.00000  -0.00000   1.90453
   A12        2.16072  -0.00000   0.00000  -0.00000  -0.00000   2.16072
   A13        1.94375   0.00000  -0.00000   0.00000   0.00000   1.94375
   A14        2.17871  -0.00000   0.00000  -0.00000  -0.00000   2.17871
   A15        2.03272  -0.00000  -0.00000  -0.00000  -0.00000   2.03272
   A16        1.94364   0.00000   0.00000   0.00000   0.00000   1.94364
   A17        1.81710  -0.00000   0.00000  -0.00000  -0.00000   1.81710
   A18        1.89631  -0.00000   0.00000  -0.00000  -0.00000   1.89631
   A19        1.94831   0.00000  -0.00000   0.00000   0.00000   1.94831
   A20        1.94371  -0.00000  -0.00000  -0.00000  -0.00000   1.94371
   A21        1.91007  -0.00000  -0.00000   0.00000   0.00000   1.91007
   A22        1.93550   0.00000   0.00000   0.00000   0.00000   1.93550
   A23        1.91495   0.00000   0.00000   0.00000   0.00000   1.91495
   A24        1.93135  -0.00000  -0.00000  -0.00000  -0.00000   1.93135
   A25        1.89003  -0.00000   0.00000  -0.00000  -0.00000   1.89003
   A26        1.90153  -0.00000  -0.00000   0.00000  -0.00000   1.90153
   A27        1.88940   0.00000  -0.00000   0.00000  -0.00000   1.88940
    D1        3.14130   0.00000  -0.00000   0.00000   0.00000   3.14130
    D2        0.00000  -0.00000  -0.00000  -0.00000  -0.00000   0.00000
    D3        0.00011  -0.00000  -0.00000   0.00000   0.00000   0.00011
    D4       -3.14119  -0.00000  -0.00000  -0.00000  -0.00000  -3.14119
    D5       -3.14149  -0.00000  -0.00000  -0.00000  -0.00000  -3.14149
    D6       -0.00023   0.00000   0.00000  -0.00000  -0.00000  -0.00023
    D7        3.14128   0.00000   0.00000   0.00000   0.00000   3.14128
    D8        0.00006   0.00000   0.00000  -0.00000   0.00000   0.00006
    D9       -0.00059   0.00000   0.00000   0.00000   0.00000  -0.00059
   D10        3.14137   0.00000   0.00000   0.00000   0.00000   3.14137
   D11       -3.13869   0.00000   0.00000  -0.00000   0.00000  -3.13869
   D12       -0.00080  -0.00000   0.00000  -0.00000  -0.00000  -0.00080
   D13        0.00326  -0.00000   0.00000  -0.00000  -0.00000   0.00326
   D14        3.14115  -0.00000   0.00000  -0.00000  -0.00000   3.14115
   D15       -0.00019  -0.00000  -0.00000   0.00000  -0.00000  -0.00019
   D16       -3.14145  -0.00000  -0.00000  -0.00000  -0.00000  -3.14145
   D17        0.00026  -0.00000   0.00000  -0.00000   0.00000   0.00026
   D18        3.13925   0.00000   0.00000   0.00000   0.00000   3.13925
   D19       -0.00609   0.00000   0.00000   0.00000   0.00000  -0.00609
   D20       -1.48957   0.00000  -0.00000  -0.00000  -0.00000  -1.48957
   D21        2.69175  -0.00000  -0.00000  -0.00000  -0.00000   2.69175
   D22        0.65750   0.00000  -0.00000  -0.00000  -0.00000   0.65750
   D23       -0.97901  -0.00000  -0.00000  -0.00000  -0.00000  -0.97901
   D24       -3.06614  -0.00000  -0.00000  -0.00000  -0.00000  -3.06614
   D25        1.13330  -0.00000  -0.00000  -0.00000  -0.00000   1.13330
   D26        1.04377   0.00000  -0.00000  -0.00000  -0.00000   1.04377
   D27       -1.04336  -0.00000  -0.00000  -0.00000  -0.00000  -1.04336
   D28       -3.12711  -0.00000  -0.00000  -0.00000  -0.00000  -3.12711
   D29       -3.09870   0.00000  -0.00000  -0.00000  -0.00000  -3.09870
   D30        1.09735  -0.00000  -0.00000  -0.00000  -0.00000   1.09735
   D31       -0.98639   0.00000  -0.00000  -0.00000  -0.00000  -0.98639
         Item               Value     Threshold  Converged?
 Maximum Force            0.000000     0.000450     YES
 RMS     Force            0.000000     0.000300     YES
 Maximum Displacement     0.000002     0.001800     YES
 RMS     Displacement     0.000000     0.001200     YES
 Predicted change in Energy=-1.298108D-14
 Optimization completed.
    -- Stationary point found.
                           ----------------------------
                           !   Optimized Parameters   !
                           ! (Angstroms and Degrees)  !
 --------------------------                            --------------------------
 ! Name  Definition              Value          Derivative Info.                !
 --------------------------------------------------------------------------------
 ! R1    R(1,2)                  1.0803         -DE/DX =    0.0                 !
 ! R2    R(1,3)                  1.3665         -DE/DX =    0.0                 !
 ! R3    R(1,7)                  1.3354         -DE/DX =    0.0                 !
 ! R4    R(3,4)                  1.4275         -DE/DX =    0.0                 !
 ! R5    R(3,8)                  1.47           -DE/DX =    0.0                 !
 ! R6    R(4,5)                  1.0822         -DE/DX =    0.0                 !
 ! R7    R(4,6)                  1.3076         -DE/DX =    0.0                 !
 ! R8    R(6,7)                  1.4119         -DE/DX =    0.0                 !
 ! R9    R(8,9)                  1.2149         -DE/DX =    0.0                 !
 ! R10   R(8,10)                 1.3523         -DE/DX =    0.0                 !
 ! R11   R(10,11)                1.4503         -DE/DX =    0.0                 !
 ! R12   R(11,12)                1.5209         -DE/DX =    0.0                 !
 ! R13   R(11,13)                1.0926         -DE/DX =    0.0                 !
 ! R14   R(11,14)                1.0925         -DE/DX =    0.0                 !
 ! R15   R(12,15)                1.0949         -DE/DX =    0.0                 !
 ! R16   R(12,16)                1.096          -DE/DX =    0.0                 !
 ! R17   R(12,17)                1.0935         -DE/DX =    0.0                 !
 ! A1    A(2,1,3)              132.9581         -DE/DX =    0.0                 !
 ! A2    A(2,1,7)              116.6365         -DE/DX =    0.0                 !
 ! A3    A(3,1,7)              110.4055         -DE/DX =    0.0                 !
 ! A4    A(1,3,4)              103.0151         -DE/DX =    0.0                 !
 ! A5    A(1,3,8)              130.3056         -DE/DX =    0.0                 !
 ! A6    A(4,3,8)              126.6793         -DE/DX =    0.0                 !
 ! A7    A(3,4,5)              127.5973         -DE/DX =    0.0                 !
 ! A8    A(3,4,6)              112.4891         -DE/DX =    0.0                 !
 ! A9    A(5,4,6)              119.9136         -DE/DX =    0.0                 !
 ! A10   A(4,6,7)              104.9687         -DE/DX =    0.0                 !
 ! A11   A(1,7,6)              109.1217         -DE/DX =    0.0                 !
 ! A12   A(3,8,9)              123.7999         -DE/DX =    0.0                 !
 ! A13   A(3,8,10)             111.3686         -DE/DX =    0.0                 !
 ! A14   A(9,8,10)             124.8311         -DE/DX =    0.0                 !
 ! A15   A(8,10,11)            116.4664         -DE/DX =    0.0                 !
 ! A16   A(10,11,12)           111.3624         -DE/DX =    0.0                 !
 ! A17   A(10,11,13)           104.1124         -DE/DX =    0.0                 !
 ! A18   A(10,11,14)           108.6506         -DE/DX =    0.0                 !
 ! A19   A(12,11,13)           111.6298         -DE/DX =    0.0                 !
 ! A20   A(12,11,14)           111.3661         -DE/DX =    0.0                 !
 ! A21   A(13,11,14)           109.4391         -DE/DX =    0.0                 !
 ! A22   A(11,12,15)           110.8959         -DE/DX =    0.0                 !
 ! A23   A(11,12,16)           109.7184         -DE/DX =    0.0                 !
 ! A24   A(11,12,17)           110.6583         -DE/DX =    0.0                 !
 ! A25   A(15,12,16)           108.2907         -DE/DX =    0.0                 !
 ! A26   A(15,12,17)           108.9498         -DE/DX =    0.0                 !
 ! A27   A(16,12,17)           108.2545         -DE/DX =    0.0                 !
 ! D1    D(2,1,3,4)            179.9831         -DE/DX =    0.0                 !
 ! D2    D(2,1,3,8)              0.0001         -DE/DX =    0.0                 !
 ! D3    D(7,1,3,4)              0.0061         -DE/DX =    0.0                 !
 ! D4    D(7,1,3,8)           -179.9769         -DE/DX =    0.0                 !
 ! D5    D(2,1,7,6)           -179.9943         -DE/DX =    0.0                 !
 ! D6    D(3,1,7,6)             -0.0131         -DE/DX =    0.0                 !
 ! D7    D(1,3,4,5)            179.9823         -DE/DX =    0.0                 !
 ! D8    D(1,3,4,6)              0.0036         -DE/DX =    0.0                 !
 ! D9    D(8,3,4,5)             -0.0338         -DE/DX =    0.0                 !
 ! D10   D(8,3,4,6)            179.9875         -DE/DX =    0.0                 !
 ! D11   D(1,3,8,9)           -179.8339         -DE/DX =    0.0                 !
 ! D12   D(1,3,8,10)            -0.0458         -DE/DX =    0.0                 !
 ! D13   D(4,3,8,9)              0.1868         -DE/DX =    0.0                 !
 ! D14   D(4,3,8,10)           179.9749         -DE/DX =    0.0                 !
 ! D15   D(3,4,6,7)             -0.0111         -DE/DX =    0.0                 !
 ! D16   D(5,4,6,7)           -179.9916         -DE/DX =    0.0                 !
 ! D17   D(4,6,7,1)              0.0147         -DE/DX =    0.0                 !
 ! D18   D(3,8,10,11)          179.8655         -DE/DX =    0.0                 !
 ! D19   D(9,8,10,11)           -0.349          -DE/DX =    0.0                 !
 ! D20   D(8,10,11,12)         -85.346          -DE/DX =    0.0                 !
 ! D21   D(8,10,11,13)         154.2258         -DE/DX =    0.0                 !
 ! D22   D(8,10,11,14)          37.672          -DE/DX =    0.0                 !
 ! D23   D(10,11,12,15)        -56.093          -DE/DX =    0.0                 !
 ! D24   D(10,11,12,16)       -175.6767         -DE/DX =    0.0                 !
 ! D25   D(10,11,12,17)         64.9334         -DE/DX =    0.0                 !
 ! D26   D(13,11,12,15)         59.8034         -DE/DX =    0.0                 !
 ! D27   D(13,11,12,16)        -59.7803         -DE/DX =    0.0                 !
 ! D28   D(13,11,12,17)       -179.1703         -DE/DX =    0.0                 !
 ! D29   D(14,11,12,15)       -177.5426         -DE/DX =    0.0                 !
 ! D30   D(14,11,12,16)         62.8737         -DE/DX =    0.0                 !
 ! D31   D(14,11,12,17)        -56.5162         -DE/DX =    0.0                 !
 --------------------------------------------------------------------------------
 GradGradGradGradGradGradGradGradGradGradGradGradGradGradGradGradGradGrad

                          Input orientation:                          
 ---------------------------------------------------------------------
 Center     Atomic      Atomic             Coordinates (Angstroms)
 Number     Number       Type             X           Y           Z
 ---------------------------------------------------------------------
      1          6           0        1.504357   -1.119727   -0.058719
      2          1           0        1.124124   -2.125601   -0.162605
      3          6           0        0.903530    0.107570   -0.059018
      4          6           0        2.000424    1.002544    0.124346
      5          1           0        1.968552    2.082705    0.183246
      6          7           0        3.144591    0.377477    0.224661
      7          8           0        2.823382   -0.992368    0.106589
      8          6           0       -0.512659    0.472966   -0.206747
      9          8           0       -0.920509    1.617294   -0.191798
     10          8           0       -1.290219   -0.622115   -0.364246
     11          6           0       -2.713234   -0.387823   -0.517446
     12          6           0       -3.403735   -0.269549    0.832526
     13          1           0       -3.067709   -1.257175   -1.076336
     14          1           0       -2.856244    0.513507   -1.117979
     15          1           0       -3.219373   -1.158404    1.444666
     16          1           0       -4.485536   -0.170360    0.687126
     17          1           0       -3.048244    0.612934    1.371693
 ---------------------------------------------------------------------
                    Distance matrix (angstroms):
                    1          2          3          4          5
     1  C    0.000000
     2  H    1.080348   0.000000
     3  C    1.366474   2.246429   0.000000
     4  C    2.187150   3.261216   1.427507   0.000000
     5  H    3.244933   4.306101   2.257015   1.082235   0.000000
     6  N    2.238814   3.240009   2.275011   1.307627   2.071855
     7  O    1.335431   2.060136   2.218811   2.158066   3.192598
     8  C    2.574283   3.071410   1.470010   2.589530   2.983247
     9  O    3.659093   4.265048   2.371501   3.001619   2.950244
    10  O    2.854929   2.851347   2.331982   3.702239   4.270291
    11  C    4.305134   4.227422   3.679205   4.956167   5.339812
    12  C    5.060285   4.993669   4.414703   5.596846   5.900519
    13  H    4.685960   4.377274   4.320672   5.677494   6.172946
    14  H    4.775387   4.870416   3.927096   5.036840   5.237769
    15  H    4.957347   4.731253   4.567504   5.801657   6.245841
    16  H    6.110351   6.001108   5.447569   6.615142   6.854593
    17  H    5.076845   5.221331   4.233065   5.215047   5.361051
                    6          7          8          9         10
     6  N    0.000000
     7  O    1.411946   0.000000
     8  C    3.683844   3.657124   0.000000
     9  O    4.270319   4.573411   1.214928   0.000000
    10  O    4.584052   4.156980   1.352260   2.276263   0.000000
    11  C    5.954033   5.604374   2.383279   2.709317   1.450287
    12  C    6.608231   6.310820   3.160654   3.282655   2.454285
    13  H    6.554185   6.014514   3.205909   3.695327   2.017385
    14  H    6.150707   6.002114   2.514831   2.413136   2.076098
    15  H    6.659383   6.191357   3.565787   3.958193   2.698408
    16  H    7.663735   7.377872   4.122696   4.083825   3.394041
    17  H    6.302564   6.217191   2.990025   2.824977   2.762151
                   11         12         13         14         15
    11  C    0.000000
    12  C    1.520922   0.000000
    13  H    1.092604   2.175332   0.000000
    14  H    1.092468   2.171955   1.783751   0.000000
    15  H    2.167915   1.094884   2.527491   3.081282   0.000000
    16  H    2.153912   1.096025   2.510219   2.525998   1.775744
    17  H    2.163929   1.093550   3.080670   2.499043   1.781081
                   16         17
    16  H    0.000000
    17  H    1.774258   0.000000
 Stoichiometry    C6H7NO3
 Framework group  C1[X(C6H7NO3)]
 Deg. of freedom    45
 Full point group                 C1      NOp   1
 Largest Abelian subgroup         C1      NOp   1
 Largest concise Abelian subgroup C1      NOp   1
                         Standard orientation:                         
 ---------------------------------------------------------------------
 Center     Atomic      Atomic             Coordinates (Angstroms)
 Number     Number       Type             X           Y           Z
 ---------------------------------------------------------------------
      1          6           0        1.504330   -1.119738   -0.058351
      2          1           0        1.124088   -2.125630   -0.162028
      3          6           0        0.903521    0.107567   -0.058953
      4          6           0        2.000419    1.002566    0.124260
      5          1           0        1.968559    2.082741    0.182915
      6          7           0        3.144572    0.377506    0.224768
      7          8           0        2.823349   -0.992361    0.106989
      8          6           0       -0.512657    0.472949   -0.206829
      9          8           0       -0.920492    1.617286   -0.192156
     10          8           0       -1.290225   -0.622156   -0.364117
     11          6           0       -2.713229   -0.387879   -0.517435
     12          6           0       -3.403791   -0.269291    0.832478
     13          1           0       -3.067691   -1.257352   -1.076145
     14          1           0       -2.856200    0.513318   -1.118177
     15          1           0       -3.219469   -1.158012    1.444828
     16          1           0       -4.485583   -0.170120    0.687007
     17          1           0       -3.048312    0.613307    1.371463
 ---------------------------------------------------------------------
 Rotational constants (GHZ):           3.7814190           0.7155642           0.6362724

 **********************************************************************

            Population analysis using the SCF density.

 **********************************************************************

 Orbital symmetries:
       Occupied  (A) (A) (A) (A) (A) (A) (A) (A) (A) (A) (A) (A)
                 (A) (A) (A) (A) (A) (A) (A) (A) (A) (A) (A) (A)
                 (A) (A) (A) (A) (A) (A) (A) (A) (A) (A) (A) (A)
                 (A)
       Virtual   (A) (A) (A) (A) (A) (A) (A) (A) (A) (A) (A) (A)
                 (A) (A) (A) (A) (A) (A) (A) (A) (A) (A) (A) (A)
                 (A) (A) (A) (A) (A) (A) (A) (A) (A) (A) (A) (A)
                 (A) (A) (A) (A) (A) (A) (A) (A) (A) (A) (A) (A)
                 (A) (A) (A) (A) (A) (A) (A) (A) (A) (A) (A) (A)
                 (A) (A) (A) (A) (A) (A) (A) (A) (A) (A) (A) (A)
                 (A) (A) (A) (A) (A) (A) (A) (A) (A) (A) (A) (A)
                 (A) (A) (A) (A) (A) (A) (A) (A) (A) (A) (A) (A)
                 (A) (A) (A) (A) (A) (A) (A) (A) (A) (A) (A) (A)
                 (A) (A) (A) (A) (A) (A) (A) (A) (A) (A) (A) (A)
                 (A) (A) (A) (A) (A) (A) (A)
 The electronic state is 1-A.
 Alpha  occ. eigenvalues --  -19.25512 -19.20110 -19.14554 -14.39687 -10.33251
 Alpha  occ. eigenvalues --  -10.28001 -10.25261 -10.24125 -10.22112 -10.19049
 Alpha  occ. eigenvalues --   -1.15731  -1.10932  -1.02381  -0.88707  -0.82442
 Alpha  occ. eigenvalues --   -0.77565  -0.68629  -0.63947  -0.61564  -0.58409
 Alpha  occ. eigenvalues --   -0.55140  -0.50663  -0.49013  -0.48282  -0.46470
 Alpha  occ. eigenvalues --   -0.45164  -0.43324  -0.41544  -0.40737  -0.39488
 Alpha  occ. eigenvalues --   -0.38263  -0.35179  -0.32113  -0.31736  -0.30804
 Alpha  occ. eigenvalues --   -0.28728  -0.28064
 Alpha virt. eigenvalues --   -0.04589  -0.01116   0.08076   0.10016   0.10863
 Alpha virt. eigenvalues --    0.11015   0.11816   0.13941   0.14565   0.16251
 Alpha virt. eigenvalues --    0.17095   0.17470   0.18730   0.22101   0.25685
 Alpha virt. eigenvalues --    0.26263   0.31951   0.35567   0.37548   0.43195
 Alpha virt. eigenvalues --    0.47580   0.50111   0.50510   0.52564   0.53515
 Alpha virt. eigenvalues --    0.54505   0.55923   0.56728   0.60010   0.61430
 Alpha virt. eigenvalues --    0.63092   0.64529   0.66644   0.66826   0.70564
 Alpha virt. eigenvalues --    0.73893   0.74886   0.77085   0.77499   0.78685
[...]
          Condensed to atoms (all electrons):
               1          2          3          4          5          6
     1  C    5.154065   0.370800   0.450914  -0.052949   0.005981  -0.106378
     2  H    0.370800   0.528770  -0.034786   0.004388  -0.000099   0.003829
     3  C    0.450914  -0.034786   4.908660   0.432446  -0.039118  -0.000960
     4  C   -0.052949   0.004388   0.432446   4.935268   0.367812   0.432827
     5  H    0.005981  -0.000099  -0.039118   0.367812   0.542819  -0.043490
     6  N   -0.106378   0.003829  -0.000960   0.432827  -0.043490   6.705925
     7  O    0.189301  -0.035613   0.006238  -0.096110   0.004423   0.171002
     8  C   -0.069190  -0.002062   0.431379  -0.049142  -0.003999   0.007023
     9  O    0.004004  -0.000008  -0.059893  -0.003050   0.001195   0.000081
    10  O    0.003730   0.002392  -0.067926   0.002182  -0.000018  -0.000035
    11  C   -0.000059  -0.000087   0.005911  -0.000079   0.000004   0.000002
    12  C   -0.000012   0.000005  -0.000311   0.000005  -0.000000  -0.000000
    13  H   -0.000050   0.000003  -0.000124   0.000002  -0.000000  -0.000000
    14  H    0.000054   0.000004  -0.000213   0.000003  -0.000000   0.000000
    15  H    0.000020   0.000003  -0.000086  -0.000000  -0.000000   0.000000
    16  H    0.000000  -0.000000   0.000003  -0.000000   0.000000   0.000000
    17  H   -0.000000  -0.000000  -0.000221   0.000005  -0.000000   0.000000
               7          8          9         10         11         12
     1  C    0.189301  -0.069190   0.004004   0.003730  -0.000059  -0.000012
     2  H   -0.035613  -0.002062  -0.000008   0.002392  -0.000087   0.000005
     3  C    0.006238   0.431379  -0.059893  -0.067926   0.005911  -0.000311
     4  C   -0.096110  -0.049142  -0.003050   0.002182  -0.000079   0.000005
     5  H    0.004423  -0.003999   0.001195  -0.000018   0.000004  -0.000000
     6  N    0.171002   0.007023   0.000081  -0.000035   0.000002  -0.000000
     7  O    8.090142   0.005717  -0.000013   0.000028   0.000000   0.000000
     8  C    0.005717   4.636720   0.252703   0.270986  -0.021819   0.000831
     9  O   -0.000013   0.252703   8.144435  -0.043676  -0.002174  -0.002728
    10  O    0.000028   0.270986  -0.043676   8.180327   0.202537  -0.046740
    11  C    0.000000  -0.021819  -0.002174   0.202537   4.847971   0.358540
    12  C    0.000000   0.000831  -0.002728  -0.046740   0.358540   5.136463
    13  H   -0.000000   0.003512   0.000279  -0.033404   0.386724  -0.042403
    14  H    0.000000  -0.010340   0.004945  -0.029913   0.375594  -0.046946
    15  H   -0.000000  -0.000313   0.000071   0.000891  -0.031150   0.376221
    16  H   -0.000000  -0.000126   0.000022   0.003152  -0.023464   0.352711
    17  H   -0.000000   0.000669   0.004041  -0.001537  -0.030053   0.374433
              13         14         15         16         17
     1  C   -0.000050   0.000054   0.000020   0.000000  -0.000000
     2  H    0.000003   0.000004   0.000003  -0.000000  -0.000000
     3  C   -0.000124  -0.000213  -0.000086   0.000003  -0.000221
     4  C    0.000002   0.000003  -0.000000  -0.000000   0.000005
     5  H   -0.000000  -0.000000  -0.000000   0.000000  -0.000000
     6  N   -0.000000   0.000000   0.000000   0.000000   0.000000
     7  O   -0.000000   0.000000  -0.000000  -0.000000  -0.000000
     8  C    0.003512  -0.010340  -0.000313  -0.000126   0.000669
     9  O    0.000279   0.004945   0.000071   0.000022   0.004041
    10  O   -0.033404  -0.029913   0.000891   0.003152  -0.001537
    11  C    0.386724   0.375594  -0.031150  -0.023464  -0.030053
    12  C   -0.042403  -0.046946   0.376221   0.352711   0.374433
    13  H    0.542960  -0.032696  -0.004490  -0.000434   0.004461
    14  H   -0.032696   0.566604   0.004802   0.000608  -0.005217
    15  H   -0.004490   0.004802   0.532260  -0.025183  -0.027835
    16  H   -0.000434   0.000608  -0.025183   0.555345  -0.024661
    17  H    0.004461  -0.005217  -0.027835  -0.024661   0.533144
 Mulliken charges:
               1
     1  C    0.049769
     2  H    0.162463
     3  C   -0.031913
     4  C    0.026392
     5  H    0.164491
     6  N   -0.169826
     7  O   -0.335114
     8  C    0.547451
     9  O   -0.300235
    10  O   -0.442975
    11  C   -0.068398
    12  C   -0.460067
    13  H    0.175661
    14  H    0.172711
    15  H    0.174790
    16  H    0.162027
    17  H    0.172772
 Sum of Mulliken charges =  -0.00000
 Mulliken charges with hydrogens summed into heavy atoms:
               1
     1  C    0.212232
     3  C   -0.031913
     4  C    0.190883
     6  N   -0.169826
     7  O   -0.335114
     8  C    0.547451
     9  O   -0.300235
    10  O   -0.442975
    11  C    0.279974
    12  C    0.049522
 Electronic spatial extent (au):  <R**2>=           1735.5772
 Charge=              0.0000 electrons
 Dipole moment (field-independent basis, Debye):
    X=             -6.2153    Y=              0.0897    Z=             -0.4776  Tot=              6.2343
 Quadrupole moment (field-independent basis, Debye-Ang):
   XX=            -61.8523   YY=            -54.4921   ZZ=            -57.4448
   XY=              3.2560   XZ=             -0.0610   YZ=              0.4579
 Traceless Quadrupole moment (field-independent basis, Debye-Ang):
   XX=             -3.9226   YY=              3.4376   ZZ=              0.4850
   XY=              3.2560   XZ=             -0.0610   YZ=              0.4579
 Octapole moment (field-independent basis, Debye-Ang**2):
  XXX=            -93.9697  YYY=             -3.3731  ZZZ=             -1.9936  XYY=              4.2083
  XXY=             -1.5361  XXZ=             -7.4338  XZZ=             -4.9925  YZZ=             -0.2692
  YYZ=             -0.3683  XYZ=             -0.0233
 Hexadecapole moment (field-independent basis, Debye-Ang**3):
 XXXX=          -1886.9522 YYYY=           -293.9532 ZZZZ=           -122.2553 XXXY=              2.0165
 XXXZ=             -1.4709 YYYX=              5.2830 YYYZ=              3.4723 ZZZX=              5.7986
 ZZZY=             -1.1046 XXYY=           -344.3732 XXZZ=           -315.2449 YYZZ=            -72.5909
 XXYZ=              1.3952 YYXZ=              2.1519 ZZXY=             -2.7630
 N-N= 5.124366433146D+02 E-N=-2.223042701988D+03  KE= 5.088610723482D+02
 Evaluate density.
 Using the total density.
 Monte-Carlo method of calculating molar volume:
 based on  0.001 e/bohr**3 density envelope.
 Number of points per bohr**3 =   20 CutOff= 1.00D-04
 Using the CI density.
 There are       372 points.  Will hold       372 in memory.
 LenV=  1342087724 MDV=  1342177280.
 Box volume = 6467.029 fraction occupied=0.194
 Integrated density= 6.3887836423373720D+01 error=-1.0112163576626280D+01
 Molar volume = 1251.683 bohr**3/mol (111.699 cm**3/mol)
 Recommended a0 for SCRF calculation =  4.39 angstrom (  8.30 bohr)
 ******************************Gaussian NBO Version 3.1******************************
             N A T U R A L   A T O M I C   O R B I T A L   A N D
          N A T U R A L   B O N D   O R B I T A L   A N A L Y S I S
 ******************************Gaussian NBO Version 3.1******************************
       /RESON  / : Allow strongly delocalized NBO set

 Analyzing the CI density

 Job title: Title Card Required                                             

 Storage needed:     81736 in NPA (1342175665 available)


 NATURAL POPULATIONS:  Natural atomic orbital occupancies 
                                                          
   NAO  Atom  No  lang   Type(AO)    Occupancy
 --------------------------------------------
     1    C    1  S      Cor( 1S)     1.99901
     2    C    1  S      Val( 2S)     0.92251
     3    C    1  S      Ryd( 3S)     0.00180
     4    C    1  S      Ryd( 4S)     0.00016
     5    C    1  px     Val( 2p)     0.73427
     6    C    1  px     Ryd( 3p)     0.00946
     7    C    1  py     Val( 2p)     1.14736
     8    C    1  py     Ryd( 3p)     0.00349
     9    C    1  pz     Val( 2p)     1.10333
    10    C    1  pz     Ryd( 3p)     0.00610
    11    C    1  dxy    Ryd( 3d)     0.00133
    12    C    1  dxz    Ryd( 3d)     0.00160
    13    C    1  dyz    Ryd( 3d)     0.00063
    14    C    1  dx2y2  Ryd( 3d)     0.00195
    15    C    1  dz2    Ryd( 3d)     0.00070
 
    16    H    2  S      Val( 1S)     0.77007
    17    H    2  S      Ryd( 2S)     0.00036
 
    18    C    3  S      Cor( 1S)     1.99885
    19    C    3  S      Val( 2S)     0.91175
    20    C    3  S      Ryd( 3S)     0.00101
    21    C    3  S      Ryd( 4S)     0.00005
    22    C    3  px     Val( 2p)     1.06522
    23    C    3  px     Ryd( 3p)     0.00373
    24    C    3  py     Val( 2p)     1.11005
    25    C    3  py     Ryd( 3p)     0.00611
    26    C    3  pz     Val( 2p)     1.22197
    27    C    3  pz     Ryd( 3p)     0.00171
    28    C    3  dxy    Ryd( 3d)     0.00058
    29    C    3  dxz    Ryd( 3d)     0.00105
    30    C    3  dyz    Ryd( 3d)     0.00072
    31    C    3  dx2y2  Ryd( 3d)     0.00060
    32    C    3  dz2    Ryd( 3d)     0.00042
 
    33    C    4  S      Cor( 1S)     1.99925
    34    C    4  S      Val( 2S)     0.94533
    35    C    4  S      Ryd( 3S)     0.00274
    36    C    4  S      Ryd( 4S)     0.00011
    37    C    4  px     Val( 2p)     0.92633
    38    C    4  px     Ryd( 3p)     0.00939
    39    C    4  py     Val( 2p)     1.15842
    40    C    4  py     Ryd( 3p)     0.00366
    41    C    4  pz     Val( 2p)     0.96955
    42    C    4  pz     Ryd( 3p)     0.00124
    43    C    4  dxy    Ryd( 3d)     0.00103
    44    C    4  dxz    Ryd( 3d)     0.00150
    45    C    4  dyz    Ryd( 3d)     0.00072
    46    C    4  dx2y2  Ryd( 3d)     0.00154
    47    C    4  dz2    Ryd( 3d)     0.00056
 
    48    H    5  S      Val( 1S)     0.75806
    49    H    5  S      Ryd( 2S)     0.00035
 
    50    N    6  S      Cor( 1S)     1.99946
    51    N    6  S      Val( 2S)     1.50298
    52    N    6  S      Ryd( 3S)     0.00198
    53    N    6  S      Ryd( 4S)     0.00003
    54    N    6  px     Val( 2p)     1.55076
    55    N    6  px     Ryd( 3p)     0.00444
    56    N    6  py     Val( 2p)     0.82037
    57    N    6  py     Ryd( 3p)     0.00724
    58    N    6  pz     Val( 2p)     1.23927
    59    N    6  pz     Ryd( 3p)     0.00089
    60    N    6  dxy    Ryd( 3d)     0.00191
    61    N    6  dxz    Ryd( 3d)     0.00260
    62    N    6  dyz    Ryd( 3d)     0.00109
    63    N    6  dx2y2  Ryd( 3d)     0.00213
    64    N    6  dz2    Ryd( 3d)     0.00122
 
    65    O    7  S      Cor( 1S)     1.99977
    66    O    7  S      Val( 2S)     1.63179
    67    O    7  S      Ryd( 3S)     0.00065
    68    O    7  S      Ryd( 4S)     0.00004
    69    O    7  px     Val( 2p)     1.53848
    70    O    7  px     Ryd( 3p)     0.00206
    71    O    7  py     Val( 2p)     1.41530
    72    O    7  py     Ryd( 3p)     0.00243
    73    O    7  pz     Val( 2p)     1.71483
    74    O    7  pz     Ryd( 3p)     0.00131
    75    O    7  dxy    Ryd( 3d)     0.00204
    76    O    7  dxz    Ryd( 3d)     0.00167
    77    O    7  dyz    Ryd( 3d)     0.00149
    78    O    7  dx2y2  Ryd( 3d)     0.00181
    79    O    7  dz2    Ryd( 3d)     0.00115
 
    80    C    8  S      Cor( 1S)     1.99930
    81    C    8  S      Val( 2S)     0.75349
    82    C    8  S      Ryd( 3S)     0.00334
    83    C    8  S      Ryd( 4S)     0.00050
    84    C    8  px     Val( 2p)     0.90262
    85    C    8  px     Ryd( 3p)     0.00353
    86    C    8  py     Val( 2p)     0.68182
    87    C    8  py     Ryd( 3p)     0.01783
    88    C    8  pz     Val( 2p)     0.99127
    89    C    8  pz     Ryd( 3p)     0.00271
    90    C    8  dxy    Ryd( 3d)     0.00216
    91    C    8  dxz    Ryd( 3d)     0.00190
    92    C    8  dyz    Ryd( 3d)     0.00271
    93    C    8  dx2y2  Ryd( 3d)     0.00207
    94    C    8  dz2    Ryd( 3d)     0.00054
 
    95    O    9  S      Cor( 1S)     1.99982
    96    O    9  S      Val( 2S)     1.71571
    97    O    9  S      Ryd( 3S)     0.00029
    98    O    9  S      Ryd( 4S)     0.00000
    99    O    9  px     Val( 2p)     1.14060
   100    O    9  px     Ryd( 3p)     0.00072
   101    O    9  py     Val( 2p)     1.53749
   102    O    9  py     Ryd( 3p)     0.00039
   103    O    9  pz     Val( 2p)     1.83659
   104    O    9  pz     Ryd( 3p)     0.00295
   105    O    9  dxy    Ryd( 3d)     0.00358
   106    O    9  dxz    Ryd( 3d)     0.00058
   107    O    9  dyz    Ryd( 3d)     0.00464
   108    O    9  dx2y2  Ryd( 3d)     0.00399
   109    O    9  dz2    Ryd( 3d)     0.00152
 
   110    O   10  S      Cor( 1S)     1.99977
   111    O   10  S      Val( 2S)     1.62396
   112    O   10  S      Ryd( 3S)     0.00080
   113    O   10  S      Ryd( 4S)     0.00004
   114    O   10  px     Val( 2p)     1.43462
   115    O   10  px     Ryd( 3p)     0.00063
   116    O   10  py     Val( 2p)     1.59942
   117    O   10  py     Ryd( 3p)     0.00175
   118    O   10  pz     Val( 2p)     1.82194
   119    O   10  pz     Ryd( 3p)     0.00188
   120    O   10  dxy    Ryd( 3d)     0.00141
   121    O   10  dxz    Ryd( 3d)     0.00048
   122    O   10  dyz    Ryd( 3d)     0.00193
   123    O   10  dx2y2  Ryd( 3d)     0.00132
   124    O   10  dz2    Ryd( 3d)     0.00078
 
   125    C   11  S      Cor( 1S)     1.99927
   126    C   11  S      Val( 2S)     1.04211
   127    C   11  S      Ryd( 3S)     0.00147
   128    C   11  S      Ryd( 4S)     0.00004
   129    C   11  px     Val( 2p)     0.70239
   130    C   11  px     Ryd( 3p)     0.00324
   131    C   11  py     Val( 2p)     1.23959
   132    C   11  py     Ryd( 3p)     0.00487
   133    C   11  pz     Val( 2p)     1.11550
   134    C   11  pz     Ryd( 3p)     0.00130
   135    C   11  dxy    Ryd( 3d)     0.00095
   136    C   11  dxz    Ryd( 3d)     0.00137
   137    C   11  dyz    Ryd( 3d)     0.00135
   138    C   11  dx2y2  Ryd( 3d)     0.00192
   139    C   11  dz2    Ryd( 3d)     0.00084
 
   140    C   12  S      Cor( 1S)     1.99945
   141    C   12  S      Val( 2S)     1.11900
   142    C   12  S      Ryd( 3S)     0.00048
   143    C   12  S      Ryd( 4S)     0.00001
   144    C   12  px     Val( 2p)     1.21221
   145    C   12  px     Ryd( 3p)     0.00134
   146    C   12  py     Val( 2p)     1.25550
   147    C   12  py     Ryd( 3p)     0.00156
   148    C   12  pz     Val( 2p)     1.11776
   149    C   12  pz     Ryd( 3p)     0.00099
   150    C   12  dxy    Ryd( 3d)     0.00028
   151    C   12  dxz    Ryd( 3d)     0.00041
   152    C   12  dyz    Ryd( 3d)     0.00100
   153    C   12  dx2y2  Ryd( 3d)     0.00098
   154    C   12  dz2    Ryd( 3d)     0.00051
 
   155    H   13  S      Val( 1S)     0.75968
   156    H   13  S      Ryd( 2S)     0.00110
 
   157    H   14  S      Val( 1S)     0.77547
   158    H   14  S      Ryd( 2S)     0.00178
 
   159    H   15  S      Val( 1S)     0.75446
   160    H   15  S      Ryd( 2S)     0.00121
 
   161    H   16  S      Val( 1S)     0.75397
   162    H   16  S      Ryd( 2S)     0.00095
 
   163    H   17  S      Val( 1S)     0.75811
   164    H   17  S      Ryd( 2S)     0.00128

 WARNING:  1 low occupancy (<1.9990e) core orbital  found on  C    3


 Summary of Natural Population Analysis:                  
                                                          
                                       Natural Population 
                Natural  -----------------------------------------------
    Atom  No    Charge         Core      Valence    Rydberg      Total
 -----------------------------------------------------------------------
      C    1    0.06630      1.99901     3.90747    0.02722     5.93370
      H    2    0.22957      0.00000     0.77007    0.00036     0.77043
      C    3   -0.32382      1.99885     4.30899    0.01598     6.32382
      C    4   -0.02137      1.99925     3.99963    0.02249     6.02137
      H    5    0.24159      0.00000     0.75806    0.00035     0.75841
      N    6   -0.13636      1.99946     5.11338    0.02353     7.13636
      O    7   -0.31481      1.99977     6.30040    0.01465     8.31481
      C    8    0.63420      1.99930     3.32920    0.03730     5.36580
      O    9   -0.24889      1.99982     6.23039    0.01868     8.24889
      O   10   -0.49073      1.99977     6.47994    0.01102     8.49073
      C   11   -0.11621      1.99927     4.09959    0.01735     6.11621
      C   12   -0.71148      1.99945     4.70446    0.00756     6.71148
      H   13    0.23922      0.00000     0.75968    0.00110     0.76078
      H   14    0.22275      0.00000     0.77547    0.00178     0.77725
      H   15    0.24433      0.00000     0.75446    0.00121     0.75567
      H   16    0.24508      0.00000     0.75397    0.00095     0.75492
      H   17    0.24062      0.00000     0.75811    0.00128     0.75938
 =======================================================================
   * Total *   -0.00001     19.99396    53.80326    0.20279    74.00001

                                 Natural Population      
 --------------------------------------------------------
   Core                      19.99396 ( 99.9698% of  20)
   Valence                   53.80326 ( 99.6357% of  54)
   Natural Minimal Basis     73.79722 ( 99.7260% of  74)
   Natural Rydberg Basis      0.20279 (  0.2740% of  74)
 --------------------------------------------------------

    Atom  No          Natural Electron Configuration
 ----------------------------------------------------------------------------
      C    1      [core]2S( 0.92)2p( 2.98)3p( 0.02)3d( 0.01)
      H    2            1S( 0.77)
      C    3      [core]2S( 0.91)2p( 3.40)3p( 0.01)
      C    4      [core]2S( 0.95)2p( 3.05)3p( 0.01)3d( 0.01)
      H    5            1S( 0.76)
      N    6      [core]2S( 1.50)2p( 3.61)3p( 0.01)3d( 0.01)
      O    7      [core]2S( 1.63)2p( 4.67)3p( 0.01)3d( 0.01)
      C    8      [core]2S( 0.75)2p( 2.58)3p( 0.02)3d( 0.01)
      O    9      [core]2S( 1.72)2p( 4.51)3d( 0.01)
      O   10      [core]2S( 1.62)2p( 4.86)3d( 0.01)
      C   11      [core]2S( 1.04)2p( 3.06)3p( 0.01)3d( 0.01)
      C   12      [core]2S( 1.12)2p( 3.59)
      H   13            1S( 0.76)
      H   14            1S( 0.78)
      H   15            1S( 0.75)
      H   16            1S( 0.75)
      H   17            1S( 0.76)


 NBO analysis skipped by request.
 1\1\GINC-DELLA-R4C3N1\SP\RB3LYP TD-FC\6-31G(d)\C6H7N1O3\BJS4\30-Dec-20
 19\0\\# TD(NStates=10, Root=1) B3LYP/6-31G* scf=qc volume pop=NPA dens
 ity=current Geom=AllCheck Guess=Read\\Title Card Required\\0,1\C,0,1.5
 04356715,-1.1197265625,-0.0587189601\H,0,1.1241242186,-2.1256007059,-0
 .1626051079\C,0,0.9035302883,0.1075703283,-0.0590175375\C,0,2.00042446
 16,1.0025437191,0.1243462401\H,0,1.968551803,2.0827047256,0.1832461527
 \N,0,3.144590648,0.3774769386,0.2246611925\O,0,2.8233820037,-0.9923680
 867,0.1065893717\C,0,-0.5126592123,0.4729659999,-0.2067465886\O,0,-0.9
 205093039,1.6172937143,-0.1917978617\O,0,-1.2902190144,-0.622115018,-0
 .3642456622\C,0,-2.7132335575,-0.3878229802,-0.5174458066\C,0,-3.40373
 54757,-0.2695485992,0.8325255657\H,0,-3.0677085636,-1.2571753576,-1.07
 63355053\H,0,-2.8562438398,0.5135066262,-1.1179786204\H,0,-3.219372954
 5,-1.1584044318,1.4446664925\H,0,-4.4855356938,-0.1703599554,0.6871257
 79\H,0,-3.0482435226,0.6129336454,1.371692856\\Version=ES64L-G16RevA.0
 3\State=1-A\HF=-513.2324478\RMSD=1.716e-09\Dipole=-2.4453107,0.0352885
 ,-0.1877826\Quadrupole=-2.9164223,2.5557119,0.3607104,2.4206819,-0.044
 6481,0.3408092\PG=C01 [X(C6H7N1O3)]\\@


 EVERYTHING'S GOT A MORAL, IF ONLY YOU CAN FIND IT.

                                    -- LEWIS CARROL, ALICE IN WONDERLAND
 Job cpu time:       0 days  0 hours 10 minutes  7.3 seconds.
 Elapsed time:       0 days  0 hours  2 minutes  4.2 seconds.
 File lengths (MBytes):  RWF=    278 Int=      0 D2E=      0 Chk=     20 Scr=      1
 Normal termination of Gaussian 16 at Mon Dec 30 18:23:19 2019.
