 Entering Gaussian System, Link 0=g16
 Input=science_add_14123.com
 Output=science_add_14123.log
 Initial command:
 /opt/export/g16/l1.exe "/scratch/bjs4/job.103267/Gau-103269.inp" -scrdir="/scratch/bjs4/job.103267/"
 Entering Link 1 = /opt/export/g16/l1.exe PID=    103273.
  
 Copyright (c) 1988,1990,1992,1993,1995,1998,2003,2009,2016,
            Gaussian, Inc.  All Rights Reserved.
  
 This is part of the Gaussian(R) 16 program.  It is based on
 the Gaussian(R) 09 system (copyright 2009, Gaussian, Inc.),
 the Gaussian(R) 03 system (copyright 2003, Gaussian, Inc.),
 the Gaussian(R) 98 system (copyright 1998, Gaussian, Inc.),
 the Gaussian(R) 94 system (copyright 1995, Gaussian, Inc.),
 the Gaussian 92(TM) system (copyright 1992, Gaussian, Inc.),
 the Gaussian 90(TM) system (copyright 1990, Gaussian, Inc.),
 the Gaussian 88(TM) system (copyright 1988, Gaussian, Inc.),
 the Gaussian 86(TM) system (copyright 1986, Carnegie Mellon
 University), and the Gaussian 82(TM) system (copyright 1983,
 Carnegie Mellon University). Gaussian is a federally registered
 trademark of Gaussian, Inc.
  
 This software contains proprietary and confidential information,
 including trade secrets, belonging to Gaussian, Inc.
  
 This software is provided under written license and may be
 used, copied, transmitted, or stored only in accord with that
 written license.
  
 The following legend is applicable only to US Government
 contracts under FAR:
  
                    RESTRICTED RIGHTS LEGEND
  
 Use, reproduction and disclosure by the US Government is
 subject to restrictions as set forth in subparagraphs (a)
 and (c) of the Commercial Computer Software - Restricted
 Rights clause in FAR 52.227-19.
  
 Gaussian, Inc.
 340 Quinnipiac St., Bldg. 40, Wallingford CT 06492
  
  
 ---------------------------------------------------------------
 Warning -- This program may not be used in any manner that
 competes with the business of Gaussian, Inc. or will provide
 assistance to any competitor of Gaussian, Inc.  The licensee
 of this program is prohibited from giving any competitor of
 Gaussian, Inc. access to this program.  By using this program,
 the user acknowledges that Gaussian, Inc. is engaged in the
 business of creating and licensing software in the field of
 computational chemistry and represents and warrants to the
 licensee that it is not a competitor of Gaussian, Inc. and that
 it will not use this program in any manner prohibited above.
 ---------------------------------------------------------------
  

 Cite this work as:
 Gaussian 16, Revision A.03,
 M. J. Frisch, G. W. Trucks, H. B. Schlegel, G. E. Scuseria, 
 M. A. Robb, J. R. Cheeseman, G. Scalmani, V. Barone, 
 G. A. Petersson, H. Nakatsuji, X. Li, M. Caricato, A. V. Marenich, 
 J. Bloino, B. G. Janesko, R. Gomperts, B. Mennucci, H. P. Hratchian, 
 J. V. Ortiz, A. F. Izmaylov, J. L. Sonnenberg, D. Williams-Young, 
 F. Ding, F. Lipparini, F. Egidi, J. Goings, B. Peng, A. Petrone, 
 T. Henderson, D. Ranasinghe, V. G. Zakrzewski, J. Gao, N. Rega, 
 G. Zheng, W. Liang, M. Hada, M. Ehara, K. Toyota, R. Fukuda, 
 J. Hasegawa, M. Ishida, T. Nakajima, Y. Honda, O. Kitao, H. Nakai, 
 T. Vreven, K. Throssell, J. A. Montgomery, Jr., J. E. Peralta, 
 F. Ogliaro, M. J. Bearpark, J. J. Heyd, E. N. Brothers, K. N. Kudin, 
 V. N. Staroverov, T. A. Keith, R. Kobayashi, J. Normand, 
 K. Raghavachari, A. P. Rendell, J. C. Burant, S. S. Iyengar, 
 J. Tomasi, M. Cossi, J. M. Millam, M. Klene, C. Adamo, R. Cammi, 
 J. W. Ochterski, R. L. Martin, K. Morokuma, O. Farkas, 
 J. B. Foresman, and D. J. Fox, Gaussian, Inc., Wallingford CT, 2016.
 
 ******************************************
 Gaussian 16:  ES64L-G16RevA.03 25-Dec-2016
                27-Aug-2018 
 ******************************************
 %nprocshared=3
 Will use up to    3 processors via shared memory.
 %Mem=6GB
 %Chk=science_add_141.chk
 -------------------------
 # opt b3lyp/6-31G* scf=qc
 -------------------------
 1/18=20,19=15,26=3,38=1/1,3;
 2/9=110,12=2,17=6,18=5,40=1/2;
 3/5=1,6=6,7=1,11=2,25=1,30=1,71=1,74=-5/1,2,3;
 4//1;
 5/5=2,8=3,38=5/8;
 6/7=2,8=2,9=2,10=2,28=1/1;
 7//1,2,3,16;
 1/18=20,19=15,26=3/3(2);
 2/9=110/2;
 99//99;
 2/9=110/2;
 3/5=1,6=6,7=1,11=2,25=1,30=1,71=1,74=-5/1,2,3;
 4/5=5,16=3,69=1/1;
 5/5=2,8=3,38=5/8;
 7//1,2,3,16;
 1/18=20,19=15,26=3/3(-5);
 2/9=110/2;
 6/7=2,8=2,9=2,10=2,19=2,28=1/1;
 99/9=1/99;
 -------------------
 Title Card Required
 -------------------
 Symbolic Z-matrix:
 Charge =  0 Multiplicity = 1
 C5                   -0.42325  -1.16103   0.00648 
 C4                   -1.247    -0.0564    0.00267 
 H                    -2.32702  -0.0532    0.00192 
 C3                   -0.36457   1.03605  -0.00002 
 H                    -0.58853   2.09399  -0.00346 
 N2                    0.91216   0.64883   0.00176 
 O1                    0.87462  -0.73688   0.00588 
 C                    -0.71368  -2.56889   0.01039 
 O                    -1.83832  -3.05625   0.01072 
 O                     0.44217  -3.29242   0.01357 
 C                     0.25517  -4.70706   0.01749 
 H                     1.24303  -5.17666   0.0209 
 H                    -0.27656  -5.02676  -0.88387 
 H                    -0.28021  -5.02129   0.91855 
 

 GradGradGradGradGradGradGradGradGradGradGradGradGradGradGradGradGradGrad
 Berny optimization.
 Initialization pass.
                           ----------------------------
                           !    Initial Parameters    !
                           ! (Angstroms and Degrees)  !
 --------------------------                            --------------------------
 ! Name  Definition              Value          Derivative Info.                !
 --------------------------------------------------------------------------------
 ! R1    R(1,2)                  1.378          estimate D2E/DX2                !
 ! R2    R(1,7)                  1.3654         estimate D2E/DX2                !
 ! R3    R(1,8)                  1.4375         estimate D2E/DX2                !
 ! R4    R(2,3)                  1.08           estimate D2E/DX2                !
 ! R5    R(2,4)                  1.4043         estimate D2E/DX2                !
 ! R6    R(4,5)                  1.0814         estimate D2E/DX2                !
 ! R7    R(4,6)                  1.3342         estimate D2E/DX2                !
 ! R8    R(6,7)                  1.3862         estimate D2E/DX2                !
 ! R9    R(8,9)                  1.2257         estimate D2E/DX2                !
 ! R10   R(8,10)                 1.3636         estimate D2E/DX2                !
 ! R11   R(10,11)                1.427          estimate D2E/DX2                !
 ! R12   R(11,12)                1.0938         estimate D2E/DX2                !
 ! R13   R(11,13)                1.0943         estimate D2E/DX2                !
 ! R14   R(11,14)                1.0942         estimate D2E/DX2                !
 ! A1    A(2,1,7)              108.615          estimate D2E/DX2                !
 ! A2    A(2,1,8)              131.6312         estimate D2E/DX2                !
 ! A3    A(7,1,8)              119.7537         estimate D2E/DX2                !
 ! A4    A(1,2,3)              126.8825         estimate D2E/DX2                !
 ! A5    A(1,2,4)              104.3578         estimate D2E/DX2                !
 ! A6    A(3,2,4)              128.7597         estimate D2E/DX2                !
 ! A7    A(2,4,5)              129.1177         estimate D2E/DX2                !
 ! A8    A(2,4,6)              112.0574         estimate D2E/DX2                !
 ! A9    A(5,4,6)              118.8249         estimate D2E/DX2                !
 ! A10   A(4,6,7)              105.3204         estimate D2E/DX2                !
 ! A11   A(1,7,6)              109.6494         estimate D2E/DX2                !
 ! A12   A(1,8,9)              125.0854         estimate D2E/DX2                !
 ! A13   A(1,8,10)             110.3895         estimate D2E/DX2                !
 ! A14   A(9,8,10)             124.525          estimate D2E/DX2                !
 ! A15   A(8,10,11)            114.5154         estimate D2E/DX2                !
 ! A16   A(10,11,12)           107.8952         estimate D2E/DX2                !
 ! A17   A(10,11,13)           110.5521         estimate D2E/DX2                !
 ! A18   A(10,11,14)           110.5535         estimate D2E/DX2                !
 ! A19   A(12,11,13)           108.4211         estimate D2E/DX2                !
 ! A20   A(12,11,14)           108.4234         estimate D2E/DX2                !
 ! A21   A(13,11,14)           110.8952         estimate D2E/DX2                !
 ! D1    D(7,1,2,3)            179.9892         estimate D2E/DX2                !
 ! D2    D(7,1,2,4)             -0.0072         estimate D2E/DX2                !
 ! D3    D(8,1,2,3)              0.0014         estimate D2E/DX2                !
 ! D4    D(8,1,2,4)           -179.995          estimate D2E/DX2                !
 ! D5    D(2,1,7,6)              0.0038         estimate D2E/DX2                !
 ! D6    D(8,1,7,6)            179.9933         estimate D2E/DX2                !
 ! D7    D(2,1,8,9)              0.0172         estimate D2E/DX2                !
 ! D8    D(2,1,8,10)          -179.9888         estimate D2E/DX2                !
 ! D9    D(7,1,8,9)           -179.9695         estimate D2E/DX2                !
 ! D10   D(7,1,8,10)             0.0245         estimate D2E/DX2                !
 ! D11   D(1,2,4,5)            179.9898         estimate D2E/DX2                !
 ! D12   D(1,2,4,6)              0.0085         estimate D2E/DX2                !
 ! D13   D(3,2,4,5)             -0.0065         estimate D2E/DX2                !
 ! D14   D(3,2,4,6)           -179.9878         estimate D2E/DX2                !
 ! D15   D(2,4,6,7)             -0.0062         estimate D2E/DX2                !
 ! D16   D(5,4,6,7)           -179.9897         estimate D2E/DX2                !
 ! D17   D(4,6,7,1)              0.0015         estimate D2E/DX2                !
 ! D18   D(1,8,10,11)         -179.9955         estimate D2E/DX2                !
 ! D19   D(9,8,10,11)           -0.0014         estimate D2E/DX2                !
 ! D20   D(8,10,11,12)        -179.9382         estimate D2E/DX2                !
 ! D21   D(8,10,11,13)          61.6572         estimate D2E/DX2                !
 ! D22   D(8,10,11,14)         -61.5299         estimate D2E/DX2                !
 --------------------------------------------------------------------------------
 Trust Radius=3.00D-01 FncErr=1.00D-07 GrdErr=1.00D-06 EigMax=2.50D+02 EigMin=1.00D-04
 Number of steps in this run=     67 maximum allowed number of steps=    100.
 GradGradGradGradGradGradGradGradGradGradGradGradGradGradGradGradGradGrad

                          Input orientation:                          
 ---------------------------------------------------------------------
 Center     Atomic      Atomic             Coordinates (Angstroms)
 Number     Number       Type             X           Y           Z
 ---------------------------------------------------------------------
      1          6           0       -0.423250   -1.161030    0.006480
      2          6           0       -1.247000   -0.056400    0.002670
      3          1           0       -2.327020   -0.053200    0.001920
      4          6           0       -0.364570    1.036050   -0.000020
      5          1           0       -0.588530    2.093990   -0.003460
      6          7           0        0.912160    0.648830    0.001760
      7          8           0        0.874620   -0.736880    0.005880
      8          6           0       -0.713680   -2.568890    0.010390
      9          8           0       -1.838320   -3.056250    0.010720
     10          8           0        0.442170   -3.292420    0.013570
     11          6           0        0.255170   -4.707060    0.017490
     12          1           0        1.243030   -5.176660    0.020900
     13          1           0       -0.276560   -5.026760   -0.883870
     14          1           0       -0.280210   -5.021290    0.918550
 ---------------------------------------------------------------------
                    Distance matrix (angstroms):
                    1          2          3          4          5
     1  C    0.000000
     2  C    1.377964   0.000000
     3  H    2.202646   1.080025   0.000000
     4  C    2.197873   1.404328   2.244478   0.000000
     5  H    3.259229   2.248955   2.762752   1.081391   0.000000
     6  N    2.249208   2.271414   3.314383   1.334160   2.083407
     7  O    1.365419   2.228079   3.273825   2.163078   3.186647
     8  C    1.437510   2.568481   2.988584   3.621820   4.664580
     9  O    2.365227   3.057585   3.042567   4.349595   5.299731
    10  O    2.300397   3.650375   4.261584   4.403029   5.484163
    11  C    3.610361   4.887266   5.322251   5.776478   6.853215
    12  H    4.347641   5.693649   6.244634   6.417366   7.497837
    13  H    3.969649   5.141224   5.452092   6.127528   7.181750
    14  H    3.969123   5.140394   5.450831   6.127174   7.181391
                    6          7          8          9         10
     6  N    0.000000
     7  O    1.386225   0.000000
     8  C    3.605156   2.424660   0.000000
     9  O    4.614416   3.569250   1.225698   0.000000
    10  O    3.969192   2.591883   1.363633   2.292688   0.000000
    11  C    5.396058   4.018231   2.347444   2.666068   1.426952
    12  H    5.834910   4.455064   3.260259   3.740449   2.047386
    13  H    5.865980   4.529894   2.651773   2.668763   2.080843
    14  H    5.866218   4.530206   2.650833   2.667067   2.080820
                   11         12         13         14
    11  C    0.000000
    12  H    1.093802   0.000000
    13  H    1.094255   1.774889   0.000000
    14  H    1.094204   1.774873   1.802432   0.000000
 Stoichiometry    C5H5NO3
 Framework group  C1[X(C5H5NO3)]
 Deg. of freedom    36
 Full point group                 C1      NOp   1
 Largest Abelian subgroup         C1      NOp   1
 Largest concise Abelian subgroup C1      NOp   1
                         Standard orientation:                         
 ---------------------------------------------------------------------
 Center     Atomic      Atomic             Coordinates (Angstroms)
 Number     Number       Type             X           Y           Z
 ---------------------------------------------------------------------
      1          6           0       -0.498826    0.215573   -0.000108
      2          6           0       -1.571146    1.080973   -0.000192
      3          1           0       -1.533035    2.160325   -0.000233
      4          6           0       -2.696553    0.240975   -0.000124
      5          1           0       -3.745157    0.505238   -0.000005
      6          7           0       -2.358448   -1.049632    0.000176
      7          8           0       -0.972310   -1.065124    0.000165
      8          6           0        0.919118    0.451939   -0.000025
      9          8           0        1.449138    1.557115    0.000286
     10          8           0        1.597913   -0.730741   -0.000208
     11          6           0        3.018676   -0.597988   -0.000041
     12          1           0        3.450154   -1.603089   -0.001333
     13          1           0        3.355815   -0.078120    0.901885
     14          1           0        3.355816   -0.075773   -0.900546
 ---------------------------------------------------------------------
 Rotational constants (GHZ):           4.5223270           1.0991323           0.8893197
 Standard basis: 6-31G(d) (6D, 7F)
 There are   145 symmetry adapted cartesian basis functions of A   symmetry.
 There are   145 symmetry adapted basis functions of A   symmetry.
   145 basis functions,   272 primitive gaussians,   145 cartesian basis functions
    33 alpha electrons       33 beta electrons
       nuclear repulsion energy       433.5131354875 Hartrees.
 NAtoms=   14 NActive=   14 NUniq=   14 SFac= 1.00D+00 NAtFMM=   60 NAOKFM=F Big=F
 Integral buffers will be    131072 words long.
 Raffenetti 2 integral format.
 Two-electron integral symmetry is turned on.
 One-electron integrals computed using PRISM.
 NBasis=   145 RedAO= T EigKep=  1.06D-03  NBF=   145
 NBsUse=   145 1.00D-06 EigRej= -1.00D+00 NBFU=   145
 ExpMin= 1.61D-01 ExpMax= 5.48D+03 ExpMxC= 8.25D+02 IAcc=3 IRadAn=         5 AccDes= 0.00D+00
 Harris functional with IExCor=  402 and IRadAn=       5 diagonalized for initial guess.
 HarFok:  IExCor=  402 AccDes= 0.00D+00 IRadAn=         5 IDoV= 1 UseB2=F ITyADJ=14
 ICtDFT=  3500011 ScaDFX=  1.000000  1.000000  1.000000  1.000000
 FoFCou: FMM=F IPFlag=           0 FMFlag=      100000 FMFlg1=           0
         NFxFlg=           0 DoJE=T BraDBF=F KetDBF=T FulRan=T
         wScrn=  0.000000 ICntrl=       500 IOpCl=  0 I1Cent=   200000004 NGrid=           0
         NMat0=    1 NMatS0=      1 NMatT0=    0 NMatD0=    1 NMtDS0=    0 NMtDT0=    0
 Petite list used in FoFCou.
 Keep R1 ints in memory in canonical form, NReq=58940941.
 Gradient too large for Newton-Raphson -- use scaled steepest descent instead.
 Gradient too large for Newton-Raphson -- use scaled steepest descent instead.
 Gradient too large for Newton-Raphson -- use scaled steepest descent instead.
     Minimum is close to point  2 DX= -6.43D-03 DF= -8.05D-07 DXR=  1.63D-02 DFR=  2.67D-04 which will be used.
 Gradient too large for Newton-Raphson -- use scaled steepest descent instead.
     Minimum is close to point  2 DX=  4.35D-02 DF= -7.07D-06 DXR=  9.81D-02 DFR=  9.71D-03 which will be used.
 Gradient too large for Newton-Raphson -- use scaled steepest descent instead.
 Gradient too large for Newton-Raphson -- use scaled steepest descent instead.
     Accept linear search using points  1 and  2.
 LinEq1:  Iter=  0 NonCon=     1 RMS=5.82D-05 Max=1.23D-03 NDo=     1
 AX will form     1 AO Fock derivatives at one time.
 LinEq1:  Iter=  1 NonCon=     1 RMS=1.10D-05 Max=3.05D-04 NDo=     1
 LinEq1:  Iter=  2 NonCon=     1 RMS=1.34D-05 Max=4.58D-04 NDo=     1
 LinEq1:  Iter=  3 NonCon=     1 RMS=5.17D-06 Max=7.09D-05 NDo=     1
 LinEq1:  Iter=  4 NonCon=     1 RMS=3.57D-06 Max=8.05D-05 NDo=     1
 LinEq1:  Iter=  5 NonCon=     1 RMS=2.38D-06 Max=5.92D-05 NDo=     1
 LinEq1:  Iter=  6 NonCon=     1 RMS=1.82D-06 Max=5.16D-05 NDo=     1
 LinEq1:  Iter=  7 NonCon=     1 RMS=1.13D-06 Max=2.39D-05 NDo=     1
 LinEq1:  Iter=  8 NonCon=     1 RMS=5.39D-07 Max=9.04D-06 NDo=     1
 LinEq1:  Iter=  9 NonCon=     1 RMS=2.08D-07 Max=4.25D-06 NDo=     1
 LinEq1:  Iter= 10 NonCon=     1 RMS=1.48D-07 Max=4.54D-06 NDo=     1
 LinEq1:  Iter= 11 NonCon=     1 RMS=9.03D-08 Max=1.45D-06 NDo=     1
 LinEq1:  Iter= 12 NonCon=     1 RMS=3.69D-08 Max=7.36D-07 NDo=     1
 LinEq1:  Iter= 13 NonCon=     1 RMS=2.30D-08 Max=2.73D-07 NDo=     1
 LinEq1:  Iter= 14 NonCon=     1 RMS=5.79D-09 Max=9.82D-08 NDo=     1
 LinEq1:  Iter= 15 NonCon=     0 RMS=2.98D-09 Max=8.57D-08 NDo=     1
 Linear equations converged to 8.598D-09 8.598D-08 after    15 iterations.
     Accept linear search using points  1 and  2.
     Minimum is close to point  2 DX= -7.26D-05 DF= -1.71D-13 DXR=  7.26D-05 DFR=  6.19D-09 which will be used.
 LinEq1:  Iter=  0 NonCon=     1 RMS=5.56D-08 Max=2.12D-06 NDo=     1
 LinEq1:  Iter=  1 NonCon=     1 RMS=3.79D-08 Max=7.12D-07 NDo=     1
 LinEq1:  Iter=  2 NonCon=     1 RMS=2.83D-08 Max=4.08D-07 NDo=     1
 LinEq1:  Iter=  3 NonCon=     1 RMS=1.31D-08 Max=2.14D-07 NDo=     1
 LinEq1:  Iter=  4 NonCon=     1 RMS=9.74D-09 Max=3.03D-07 NDo=     1
 LinEq1:  Iter=  5 NonCon=     1 RMS=6.72D-09 Max=1.16D-07 NDo=     1
 LinEq1:  Iter=  6 NonCon=     1 RMS=4.37D-09 Max=7.77D-08 NDo=     1
 LinEq1:  Iter=  7 NonCon=     1 RMS=2.08D-09 Max=3.27D-08 NDo=     1
 LinEq1:  Iter=  8 NonCon=     1 RMS=8.62D-10 Max=1.46D-08 NDo=     1
 LinEq1:  Iter=  9 NonCon=     1 RMS=4.55D-10 Max=8.89D-09 NDo=     1
 LinEq1:  Iter= 10 NonCon=     1 RMS=2.08D-10 Max=3.89D-09 NDo=     1
 LinEq1:  Iter= 11 NonCon=     1 RMS=1.18D-10 Max=1.99D-09 NDo=     1
 LinEq1:  Iter= 12 NonCon=     1 RMS=8.54D-11 Max=1.73D-09 NDo=     1
 LinEq1:  Iter= 13 NonCon=     1 RMS=4.57D-11 Max=6.55D-10 NDo=     1
 LinEq1:  Iter= 14 NonCon=     1 RMS=2.86D-11 Max=3.78D-10 NDo=     1
 LinEq1:  Iter= 15 NonCon=     0 RMS=7.94D-12 Max=9.93D-11 NDo=     1
 Linear equations converged to 2.917D-11 2.917D-10 after    15 iterations.
 SCF Done:  E(RB3LYP) =  -473.906757115     a.u. after    9 cycles
            Convg  =    0.2648D-10                    48 Fock formations.
              S**2 =  0.0000                  -V/T =  2.0090

 **********************************************************************

            Population analysis using the SCF density.

 **********************************************************************

 Orbital symmetries:
       Occupied  (A) (A) (A) (A) (A) (A) (A) (A) (A) (A) (A) (A)
                 (A) (A) (A) (A) (A) (A) (A) (A) (A) (A) (A) (A)
                 (A) (A) (A) (A) (A) (A) (A) (A) (A)
       Virtual   (A) (A) (A) (A) (A) (A) (A) (A) (A) (A) (A) (A)
                 (A) (A) (A) (A) (A) (A) (A) (A) (A) (A) (A) (A)
                 (A) (A) (A) (A) (A) (A) (A) (A) (A) (A) (A) (A)
                 (A) (A) (A) (A) (A) (A) (A) (A) (A) (A) (A) (A)
                 (A) (A) (A) (A) (A) (A) (A) (A) (A) (A) (A) (A)
                 (A) (A) (A) (A) (A) (A) (A) (A) (A) (A) (A) (A)
                 (A) (A) (A) (A) (A) (A) (A) (A) (A) (A) (A) (A)
                 (A) (A) (A) (A) (A) (A) (A) (A) (A) (A) (A) (A)
                 (A) (A) (A) (A) (A) (A) (A) (A) (A) (A) (A) (A)
                 (A) (A) (A) (A)
 The electronic state is 1-A.
 Alpha  occ. eigenvalues --  -19.25515 -19.20626 -19.15489 -14.40467 -10.33888
 Alpha  occ. eigenvalues --  -10.27719 -10.24786 -10.24325 -10.22413  -1.15923
 Alpha  occ. eigenvalues --   -1.11145  -1.02688  -0.88037  -0.82470  -0.74570
 Alpha  occ. eigenvalues --   -0.65841  -0.63207  -0.58404  -0.55435  -0.50204
 Alpha  occ. eigenvalues --   -0.48791  -0.48222  -0.47524  -0.45029  -0.42457
 Alpha  occ. eigenvalues --   -0.40741  -0.40602  -0.36728  -0.32653  -0.31845
 Alpha  occ. eigenvalues --   -0.31142  -0.29264  -0.28059
 Alpha virt. eigenvalues --   -0.07532   0.01587   0.08572   0.09074   0.10730
 Alpha virt. eigenvalues --    0.12298   0.12851   0.14493   0.15333   0.16894
 Alpha virt. eigenvalues --    0.18066   0.23265   0.25466   0.32455   0.35062
 Alpha virt. eigenvalues --    0.40173   0.42284   0.49604   0.50026   0.53458
 Alpha virt. eigenvalues --    0.53574   0.54671   0.54852   0.56358   0.60270
 Alpha virt. eigenvalues --    0.60872   0.62408   0.66143   0.66600   0.70065
 Alpha virt. eigenvalues --    0.71199   0.73809   0.77572   0.77641   0.80867
 Alpha virt. eigenvalues --    0.81766   0.82904   0.84419   0.87501   0.90972
 Alpha virt. eigenvalues --    0.92502   0.92897   0.94762   0.98264   0.99095
 Alpha virt. eigenvalues --    1.02386   1.04184   1.07713   1.09300   1.14476
 Alpha virt. eigenvalues --    1.17425   1.25020   1.27049   1.33349   1.34909
 Alpha virt. eigenvalues --    1.36604   1.39245   1.44840   1.45521   1.48323
 Alpha virt. eigenvalues --    1.49874   1.55236   1.56838   1.59128   1.66149
 Alpha virt. eigenvalues --    1.72524   1.75167   1.80498   1.84472   1.86852
 Alpha virt. eigenvalues --    1.88165   1.89759   1.94727   1.98014   1.99693
 Alpha virt. eigenvalues --    2.03612   2.05524   2.08292   2.12713   2.16752
 Alpha virt. eigenvalues --    2.18436   2.21540   2.22098   2.23776   2.29760
 Alpha virt. eigenvalues --    2.31440   2.37099   2.37560   2.49378   2.50204
 Alpha virt. eigenvalues --    2.55525   2.60195   2.65368   2.68106   2.70194
 Alpha virt. eigenvalues --    2.73789   2.79498   2.87443   2.91577   2.96223
 Alpha virt. eigenvalues --    2.98997   3.21650   3.25460   3.73363   3.93100
 Alpha virt. eigenvalues --    4.02173   4.08608   4.20877   4.24467   4.32946
 Alpha virt. eigenvalues --    4.56756   4.70260
          Condensed to atoms (all electrons):
               1          2          3          4          5          6
     1  C    4.856900   0.533885  -0.030270  -0.046846   0.003352  -0.088363
     2  C    0.533885   5.068153   0.360619   0.449954  -0.038676  -0.019393
     3  H   -0.030270   0.360619   0.512069  -0.032251  -0.000484   0.004203
     4  C   -0.046846   0.449954  -0.032251   4.865884   0.370258   0.406678
     5  H    0.003352  -0.038676  -0.000484   0.370258   0.524137  -0.041031
     6  N   -0.088363  -0.019393   0.004203   0.406678  -0.041031   6.704598
     7  O    0.227093  -0.074632   0.003602  -0.064442   0.004599   0.161509
     8  C    0.334280  -0.062406  -0.001539   0.006110  -0.000097   0.002924
     9  O   -0.078310   0.000488   0.001956   0.000399  -0.000000  -0.000043
    10  O   -0.083019   0.004489   0.000047  -0.000064   0.000001   0.000023
    11  C    0.007794  -0.000189  -0.000002   0.000002  -0.000000   0.000005
    12  H    0.000059   0.000002  -0.000000  -0.000000   0.000000  -0.000000
    13  H   -0.000196   0.000005  -0.000000  -0.000000   0.000000   0.000000
    14  H   -0.000195   0.000005  -0.000000  -0.000000   0.000000   0.000000
               7          8          9         10         11         12
     1  C    0.227093   0.334280  -0.078310  -0.083019   0.007794   0.000059
     2  C   -0.074632  -0.062406   0.000488   0.004489  -0.000189   0.000002
     3  H    0.003602  -0.001539   0.001956   0.000047  -0.000002  -0.000000
     4  C   -0.064442   0.006110   0.000399  -0.000064   0.000002  -0.000000
     5  H    0.004599  -0.000097  -0.000000   0.000001  -0.000000   0.000000
     6  N    0.161509   0.002924  -0.000043   0.000023   0.000005  -0.000000
     7  O    8.135473  -0.028844   0.001142  -0.001791  -0.000060  -0.000012
     8  C   -0.028844   4.388809   0.558361   0.242414  -0.020321   0.004604
     9  O    0.001142   0.558361   8.072870  -0.083925   0.004175   0.000589
    10  O   -0.001791   0.242414  -0.083925   8.252232   0.211530  -0.029881
    11  C   -0.000060  -0.020321   0.004175   0.211530   4.888374   0.377530
    12  H   -0.000012   0.004604   0.000589  -0.029881   0.377530   0.541169
    13  H   -0.000003  -0.006000   0.005422  -0.031566   0.375344  -0.033362
    14  H   -0.000003  -0.006015   0.005458  -0.031560   0.375318  -0.033343
              13         14
     1  C   -0.000196  -0.000195
     2  C    0.000005   0.000005
     3  H   -0.000000  -0.000000
     4  C   -0.000000  -0.000000
     5  H    0.000000   0.000000
     6  N    0.000000   0.000000
     7  O   -0.000003  -0.000003
     8  C   -0.006000  -0.006015
     9  O    0.005422   0.005458
    10  O   -0.031566  -0.031560
    11  C    0.375344   0.375318
    12  H   -0.033362  -0.033343
    13  H    0.551849  -0.034240
    14  H   -0.034240   0.551782
 Mulliken charges:
               1
     1  C    0.363836
     2  C   -0.222304
     3  H    0.182051
     4  C    0.044319
     5  H    0.177942
     6  N   -0.131110
     7  O   -0.363631
     8  C    0.587720
     9  O   -0.488581
    10  O   -0.448929
    11  C   -0.219499
    12  H    0.172646
    13  H    0.172747
    14  H    0.172792
 Sum of Mulliken charges =   0.00000
 Mulliken charges with hydrogens summed into heavy atoms:
               1
     1  C    0.363836
     2  C   -0.040252
     4  C    0.222262
     6  N   -0.131110
     7  O   -0.363631
     8  C    0.587720
     9  O   -0.488581
    10  O   -0.448929
    11  C    0.298685
 Electronic spatial extent (au):  <R**2>=           1232.5169
 Charge=              0.0000 electrons
 Dipole moment (field-independent basis, Debye):
    X=              0.2733    Y=              1.0458    Z=             -0.0008  Tot=              1.0809
 Quadrupole moment (field-independent basis, Debye-Ang):
   XX=            -40.2038   YY=            -55.5315   ZZ=            -50.0010
   XY=            -10.6728   XZ=             -0.0004   YZ=             -0.0010
 Traceless Quadrupole moment (field-independent basis, Debye-Ang):
   XX=              8.3750   YY=             -6.9527   ZZ=             -1.4222
   XY=            -10.6728   XZ=             -0.0004   YZ=             -0.0010
 Octapole moment (field-independent basis, Debye-Ang**2):
  XXX=             17.1986  YYY=             -0.5746  ZZZ=              0.0039  XYY=              0.2559
  XXY=              3.3999  XXZ=             -0.0040  XZZ=              6.8386  YZZ=             -1.0714
  YYZ=             -0.0045  XYZ=             -0.0028
 Hexadecapole moment (field-independent basis, Debye-Ang**3):
 XXXX=          -1039.0567 YYYY=           -300.7579 ZZZZ=            -50.7037 XXXY=            -69.1172
 XXXZ=             -0.0093 YYYX=            -28.6302 YYYZ=              0.0024 ZZZX=              0.0050
 ZZZY=              0.0005 XXYY=           -266.0870 XXZZ=           -211.9009 YYZZ=            -59.7670
 XXYZ=              0.0010 YYXZ=             -0.0079 ZZXY=              4.9190
 N-N= 4.335131354875D+02 E-N=-1.974592862837D+03  KE= 4.696617660771D+02
 Calling FoFJK, ICntrl=      2127 FMM=F ISym2X=0 I1Cent= 0 IOpClX= 0 NMat=1 NMatS=1 NMatT=0.
 ***** Axes restored to original set *****
 -------------------------------------------------------------------
 Center     Atomic                   Forces (Hartrees/Bohr)
 Number     Number              X              Y              Z
 -------------------------------------------------------------------
      1        6           0.006266737    0.038895258   -0.000124660
      2        6          -0.003368481   -0.013575743    0.000045814
      3        1           0.000404670   -0.000373937    0.000007085
      4        6           0.019238091   -0.000717291   -0.000013227
      5        1          -0.000034064    0.000579807    0.000006141
      6        7          -0.015912749    0.000443134   -0.000001271
      7        8          -0.005649887   -0.000785789    0.000010185
      8        6          -0.005603977   -0.037072664    0.000088096
      9        8           0.016712128    0.010816633   -0.000007881
     10        8          -0.009311406    0.005492869   -0.000016175
     11        6           0.002235906   -0.010078456    0.000015493
     12        1           0.001190989    0.006076550   -0.000018244
     13        1          -0.003082714    0.000161971    0.002412321
     14        1          -0.003085244    0.000137657   -0.002403678
 -------------------------------------------------------------------
 Cartesian Forces:  Max     0.038895258 RMS     0.010350448

 GradGradGradGradGradGradGradGradGradGradGradGradGradGradGradGradGradGrad
 Berny optimization.
 FormGI is forming the generalized inverse of G from B-inverse, IUseBI=4.
 Internal  Forces:  Max     0.024152152 RMS     0.005736936
 Search for a local minimum.
 Step number   1 out of a maximum of   67
 All quantities printed in internal units (Hartrees-Bohrs-Radians)
 Mixed Optimization -- RFO/linear search
 Second derivative matrix not updated -- first step.
 ITU=  0
     Eigenvalues ---    0.01335   0.01593   0.01784   0.01952   0.02063
     Eigenvalues ---    0.02153   0.02173   0.02259   0.02285   0.10105
     Eigenvalues ---    0.10520   0.16000   0.16000   0.16000   0.16000
     Eigenvalues ---    0.16000   0.22700   0.24704   0.25000   0.25000
     Eigenvalues ---    0.25000   0.25000   0.34325   0.34331   0.34377
     Eigenvalues ---    0.35827   0.35991   0.39929   0.41430   0.41764
     Eigenvalues ---    0.45236   0.47826   0.50161   0.52220   0.56683
     Eigenvalues ---    0.92903
 RFO step:  Lambda=-4.56319206D-03 EMin= 1.33526319D-02
 Linear search not attempted -- first point.
 Iteration  1 RMS(Cart)=  0.03433704 RMS(Int)=  0.00032587
 Iteration  2 RMS(Cart)=  0.00061718 RMS(Int)=  0.00001815
 Iteration  3 RMS(Cart)=  0.00000007 RMS(Int)=  0.00001815
 Variable       Old X    -DE/DX   Delta X   Delta X   Delta X     New X
                                 (Linear)    (Quad)   (Total)
    R1        2.60398  -0.00974   0.00000  -0.01897  -0.01896   2.58501
    R2        2.58027  -0.00794   0.00000  -0.01545  -0.01543   2.56484
    R3        2.71650   0.02415   0.00000   0.05980   0.05980   2.77630
    R4        2.04095  -0.00041   0.00000  -0.00111  -0.00111   2.03984
    R5        2.65380   0.00548   0.00000   0.01275   0.01274   2.66653
    R6        2.04353   0.00057   0.00000   0.00158   0.00158   2.04512
    R7        2.52120  -0.01474   0.00000  -0.02511  -0.02513   2.49607
    R8        2.61958  -0.00291   0.00000  -0.00674  -0.00674   2.61285
    R9        2.31623  -0.01964   0.00000  -0.02103  -0.02103   2.29520
   R10        2.57689  -0.01117   0.00000  -0.02120  -0.02120   2.55569
   R11        2.69655   0.00403   0.00000   0.00962   0.00962   2.70617
   R12        2.06699  -0.00153   0.00000  -0.00440  -0.00440   2.06258
   R13        2.06784  -0.00054   0.00000  -0.00154  -0.00154   2.06630
   R14        2.06774  -0.00051   0.00000  -0.00146  -0.00146   2.06628
    A1        1.89569   0.00331   0.00000   0.01397   0.01400   1.90969
    A2        2.29740  -0.00509   0.00000  -0.02049  -0.02050   2.27690
    A3        2.09010   0.00178   0.00000   0.00652   0.00650   2.09660
    A4        2.21452   0.00126   0.00000   0.00350   0.00350   2.21802
    A5        1.82139  -0.00328   0.00000  -0.01163  -0.01163   1.80976
    A6        2.24728   0.00202   0.00000   0.00812   0.00813   2.25541
    A7        2.25353   0.00028   0.00000   0.00070   0.00071   2.25424
    A8        1.95577  -0.00039   0.00000  -0.00031  -0.00034   1.95543
    A9        2.07389   0.00011   0.00000  -0.00039  -0.00037   2.07351
   A10        1.83819   0.00206   0.00000   0.00649   0.00646   1.84465
   A11        1.91374  -0.00169   0.00000  -0.00852  -0.00849   1.90526
   A12        2.18315  -0.00846   0.00000  -0.03324  -0.03324   2.14991
   A13        1.92666   0.00933   0.00000   0.03663   0.03663   1.96329
   A14        2.17337  -0.00086   0.00000  -0.00339  -0.00339   2.16998
   A15        1.99867   0.00238   0.00000   0.00935   0.00935   2.00803
   A16        1.88313  -0.00802   0.00000  -0.04602  -0.04596   1.83716
   A17        1.92950   0.00125   0.00000   0.00617   0.00620   1.93570
   A18        1.92952   0.00125   0.00000   0.00620   0.00623   1.93576
   A19        1.89230   0.00441   0.00000   0.02954   0.02959   1.92190
   A20        1.89234   0.00441   0.00000   0.02956   0.02961   1.92195
   A21        1.93549  -0.00329   0.00000  -0.02502  -0.02499   1.91049
    D1        3.14140   0.00001   0.00000   0.00023   0.00023  -3.14155
    D2       -0.00013   0.00001   0.00000   0.00024   0.00024   0.00012
    D3        0.00002   0.00000   0.00000   0.00000   0.00000   0.00003
    D4       -3.14150   0.00000   0.00000   0.00002   0.00002  -3.14149
    D5        0.00007  -0.00000   0.00000  -0.00014  -0.00014  -0.00007
    D6        3.14148   0.00000   0.00000   0.00006   0.00006   3.14153
    D7        0.00030  -0.00000   0.00000  -0.00014  -0.00014   0.00016
    D8       -3.14140   0.00001   0.00000   0.00022   0.00022  -3.14118
    D9       -3.14106  -0.00001   0.00000  -0.00039  -0.00038  -3.14144
   D10        0.00043  -0.00000   0.00000  -0.00003  -0.00003   0.00040
   D11        3.14141   0.00000   0.00000   0.00015   0.00015   3.14156
   D12        0.00015  -0.00001   0.00000  -0.00028  -0.00028  -0.00013
   D13       -0.00011   0.00000   0.00000   0.00016   0.00016   0.00005
   D14       -3.14138  -0.00001   0.00000  -0.00027  -0.00027   3.14154
   D15       -0.00011   0.00001   0.00000   0.00020   0.00020   0.00009
   D16       -3.14141  -0.00000   0.00000  -0.00018  -0.00018   3.14159
   D17        0.00003  -0.00000   0.00000  -0.00004  -0.00004  -0.00001
   D18       -3.14151  -0.00000   0.00000  -0.00020  -0.00020   3.14147
   D19       -0.00002   0.00000   0.00000   0.00015   0.00015   0.00013
   D20       -3.14051  -0.00000   0.00000  -0.00013  -0.00013  -3.14064
   D21        1.07612  -0.00123   0.00000  -0.01175  -0.01173   1.06439
   D22       -1.07390   0.00123   0.00000   0.01153   0.01150  -1.06240
         Item               Value     Threshold  Converged?
 Maximum Force            0.024152     0.000450     NO 
 RMS     Force            0.005737     0.000300     NO 
 Maximum Displacement     0.085180     0.001800     NO 
 RMS     Displacement     0.034138     0.001200     NO 
 Predicted change in Energy=-2.314362D-03
 GradGradGradGradGradGradGradGradGradGradGradGradGradGradGradGradGradGrad

                          Input orientation:                          
 ---------------------------------------------------------------------
 Center     Atomic      Atomic             Coordinates (Angstroms)
 Number     Number       Type             X           Y           Z
 ---------------------------------------------------------------------
      1          6           0       -0.391503   -1.133470    0.006240
      2          6           0       -1.241332   -0.061550    0.002659
      3          1           0       -2.320479   -0.086498    0.002092
      4          6           0       -0.374515    1.051883   -0.000131
      5          1           0       -0.616868    2.106622   -0.003364
      6          7           0        0.896044    0.690843    0.001760
      7          8           0        0.891879   -0.691805    0.005786
      8          6           0       -0.675251   -2.574960    0.010181
      9          8           0       -1.801019   -3.030834    0.010624
     10          8           0        0.450887   -3.323845    0.013526
     11          6           0        0.237416   -4.739882    0.017622
     12          1           0        1.235803   -5.180934    0.020909
     13          1           0       -0.309801   -5.054586   -0.875196
     14          1           0       -0.313252   -5.048955    0.910273
 ---------------------------------------------------------------------
                    Distance matrix (angstroms):
                    1          2          3          4          5
     1  C    0.000000
     2  C    1.367930   0.000000
     3  H    2.194792   1.079436   0.000000
     4  C    2.185428   1.411068   2.254483   0.000000
     5  H    3.247934   2.256315   2.777066   1.082229   0.000000
     6  N    2.232917   2.265938   3.309121   1.320861   2.072043
     7  O    1.357254   2.224369   3.268891   2.155049   3.179244
     8  C    1.469157   2.576380   2.983167   3.639305   4.681965
     9  O    2.363630   3.021582   2.989820   4.324767   5.272178
    10  O    2.346789   3.675091   4.261574   4.452917   5.534470
    11  C    3.660857   4.906496   5.310089   5.824029   6.899627
    12  H    4.362373   5.687233   6.212951   6.437513   7.519404
    13  H    4.019795   5.154492   5.430870   6.169189   7.220615
    14  H    4.019256   5.153572   5.429524   6.168696   7.220055
                    6          7          8          9         10
     6  N    0.000000
     7  O    1.382660   0.000000
     8  C    3.624156   2.449936   0.000000
     9  O    4.596206   3.566901   1.214568   0.000000
    10  O    4.039310   2.668739   1.352415   2.270891   0.000000
    11  C    5.470540   4.100657   2.349447   2.660097   1.432043
    12  H    5.881629   4.502309   3.231615   3.720930   2.016166
    13  H    5.935745   4.610208   2.658193   2.665329   2.089004
    14  H    5.935745   4.610335   2.657416   2.663763   2.089035
                   11         12         13         14
    11  C    0.000000
    12  H    1.091473   0.000000
    13  H    1.093439   1.791050   0.000000
    14  H    1.093429   1.791076   1.785481   0.000000
 Stoichiometry    C5H5NO3
 Framework group  C1[X(C5H5NO3)]
 Deg. of freedom    36
 Full point group                 C1      NOp   1
 Largest Abelian subgroup         C1      NOp   1
 Largest concise Abelian subgroup C1      NOp   1
                         Standard orientation:                         
 ---------------------------------------------------------------------
 Center     Atomic      Atomic             Coordinates (Angstroms)
 Number     Number       Type             X           Y           Z
 ---------------------------------------------------------------------
      1          6           0       -0.519725    0.192432    0.000031
      2          6           0       -1.560168    1.080527   -0.000224
      3          1           0       -1.496152    2.158063   -0.000407
      4          6           0       -2.704269    0.254607   -0.000082
      5          1           0       -3.749543    0.535004   -0.000170
      6          7           0       -2.389480   -1.028196    0.000071
      7          8           0       -1.007583   -1.074111    0.000153
      8          6           0        0.931102    0.423784    0.000160
      9          8           0        1.427450    1.532303    0.000212
     10          8           0        1.638714   -0.728740   -0.000098
     11          6           0        3.061559   -0.566697   -0.000147
     12          1           0        3.466169   -1.580404   -0.001361
     13          1           0        3.393247   -0.030459    0.893184
     14          1           0        3.393000   -0.028362   -0.892296
 ---------------------------------------------------------------------
 Rotational constants (GHZ):           4.6227915           1.0791813           0.8798244
 Standard basis: 6-31G(d) (6D, 7F)
 There are   145 symmetry adapted cartesian basis functions of A   symmetry.
 There are   145 symmetry adapted basis functions of A   symmetry.
   145 basis functions,   272 primitive gaussians,   145 cartesian basis functions
    33 alpha electrons       33 beta electrons
       nuclear repulsion energy       433.0664844427 Hartrees.
 NAtoms=   14 NActive=   14 NUniq=   14 SFac= 1.00D+00 NAtFMM=   60 NAOKFM=F Big=F
 Integral buffers will be    131072 words long.
 Raffenetti 2 integral format.
 Two-electron integral symmetry is turned on.
 One-electron integrals computed using PRISM.
 NBasis=   145 RedAO= T EigKep=  1.08D-03  NBF=   145
 NBsUse=   145 1.00D-06 EigRej= -1.00D+00 NBFU=   145
 Initial guess from the checkpoint file:  "science_add_141.chk"
 B after Tr=     0.000000   -0.000000   -0.000000
         Rot=    1.000000    0.000003   -0.000000   -0.000048 Ang=   0.01 deg.
 ExpMin= 1.61D-01 ExpMax= 5.48D+03 ExpMxC= 8.25D+02 IAcc=2 IRadAn=         4 AccDes= 0.00D+00
 Harris functional with IExCor=  402 and IRadAn=       4 diagonalized for initial guess.
 HarFok:  IExCor=  402 AccDes= 0.00D+00 IRadAn=         4 IDoV= 1 UseB2=F ITyADJ=14
 ICtDFT=  3500011 ScaDFX=  1.000000  1.000000  1.000000  1.000000
 FoFCou: FMM=F IPFlag=           0 FMFlag=      100000 FMFlg1=           0
         NFxFlg=           0 DoJE=T BraDBF=F KetDBF=T FulRan=T
         wScrn=  0.000000 ICntrl=       500 IOpCl=  0 I1Cent=   200000004 NGrid=           0
         NMat0=    1 NMatS0=      1 NMatT0=    0 NMatD0=    1 NMtDS0=    0 NMtDT0=    0
 Petite list used in FoFCou.
 Keep R1 ints in memory in canonical form, NReq=58940941.
 Gradient too large for Newton-Raphson -- use scaled steepest descent instead.
     Minimum is close to point  4 DX=  1.20D-02 DF= -1.48D-07 DXR=  9.88D-03 DFR=  9.76D-05 which will be used.
 Gradient too large for Newton-Raphson -- use scaled steepest descent instead.
 Gradient too large for Newton-Raphson -- use scaled steepest descent instead.
     Accept linear search using points  1 and  2.
 Gradient too large for Newton-Raphson -- use scaled steepest descent instead.
     Accept linear search using points  1 and  2.
 LinEq1:  Iter=  0 NonCon=     1 RMS=1.60D-04 Max=4.54D-03 NDo=     1
 AX will form     1 AO Fock derivatives at one time.
 LinEq1:  Iter=  1 NonCon=     1 RMS=6.40D-05 Max=2.38D-03 NDo=     1
 LinEq1:  Iter=  2 NonCon=     1 RMS=2.63D-05 Max=5.16D-04 NDo=     1
 LinEq1:  Iter=  3 NonCon=     1 RMS=2.20D-05 Max=6.40D-04 NDo=     1
 LinEq1:  Iter=  4 NonCon=     1 RMS=1.10D-05 Max=2.00D-04 NDo=     1
 LinEq1:  Iter=  5 NonCon=     1 RMS=5.99D-06 Max=1.46D-04 NDo=     1
 LinEq1:  Iter=  6 NonCon=     1 RMS=4.44D-06 Max=1.21D-04 NDo=     1
 LinEq1:  Iter=  7 NonCon=     1 RMS=2.92D-06 Max=3.91D-05 NDo=     1
 LinEq1:  Iter=  8 NonCon=     1 RMS=1.52D-06 Max=2.89D-05 NDo=     1
 LinEq1:  Iter=  9 NonCon=     1 RMS=8.48D-07 Max=1.46D-05 NDo=     1
 LinEq1:  Iter= 10 NonCon=     1 RMS=3.73D-07 Max=7.68D-06 NDo=     1
 LinEq1:  Iter= 11 NonCon=     1 RMS=2.77D-07 Max=4.63D-06 NDo=     1
 LinEq1:  Iter= 12 NonCon=     1 RMS=1.91D-07 Max=3.83D-06 NDo=     1
 LinEq1:  Iter= 13 NonCon=     1 RMS=6.71D-08 Max=5.16D-07 NDo=     1
 LinEq1:  Iter= 14 NonCon=     1 RMS=2.96D-08 Max=3.26D-07 NDo=     1
 LinEq1:  Iter= 15 NonCon=     1 RMS=1.10D-08 Max=1.45D-07 NDo=     1
 LinEq1:  Iter= 16 NonCon=     0 RMS=3.86D-09 Max=4.90D-08 NDo=     1
 Linear equations converged to 8.598D-09 8.598D-08 after    16 iterations.
     Minimum is close to point  2 DX=  6.59D-04 DF= -3.97D-11 DXR=  6.59D-04 DFR=  4.34D-07 which will be used.
 LinEq1:  Iter=  0 NonCon=     1 RMS=7.21D-07 Max=3.53D-05 NDo=     1
 LinEq1:  Iter=  1 NonCon=     1 RMS=4.83D-07 Max=1.44D-05 NDo=     1
 LinEq1:  Iter=  2 NonCon=     1 RMS=2.96D-07 Max=5.96D-06 NDo=     1
 LinEq1:  Iter=  3 NonCon=     1 RMS=7.20D-08 Max=1.03D-06 NDo=     1
 LinEq1:  Iter=  4 NonCon=     1 RMS=7.26D-08 Max=1.84D-06 NDo=     1
 LinEq1:  Iter=  5 NonCon=     1 RMS=4.00D-08 Max=8.93D-07 NDo=     1
 LinEq1:  Iter=  6 NonCon=     1 RMS=2.80D-08 Max=4.31D-07 NDo=     1
 LinEq1:  Iter=  7 NonCon=     1 RMS=1.61D-08 Max=3.59D-07 NDo=     1
 LinEq1:  Iter=  8 NonCon=     1 RMS=1.18D-08 Max=2.15D-07 NDo=     1
 LinEq1:  Iter=  9 NonCon=     1 RMS=8.61D-09 Max=2.15D-07 NDo=     1
 LinEq1:  Iter= 10 NonCon=     1 RMS=3.33D-09 Max=6.88D-08 NDo=     1
 LinEq1:  Iter= 11 NonCon=     1 RMS=1.56D-09 Max=2.07D-08 NDo=     1
 LinEq1:  Iter= 12 NonCon=     1 RMS=5.32D-10 Max=5.24D-09 NDo=     1
 LinEq1:  Iter= 13 NonCon=     1 RMS=2.55D-10 Max=3.37D-09 NDo=     1
 LinEq1:  Iter= 14 NonCon=     0 RMS=1.04D-10 Max=1.32D-09 NDo=     1
 Linear equations converged to 2.806D-10 2.806D-09 after    14 iterations.
 SCF Done:  E(RB3LYP) =  -473.909417406     a.u. after    7 cycles
            Convg  =    0.5164D-09                    45 Fock formations.
              S**2 =  0.0000                  -V/T =  2.0089
 Calling FoFJK, ICntrl=      2127 FMM=F ISym2X=0 I1Cent= 0 IOpClX= 0 NMat=1 NMatS=1 NMatT=0.
 ***** Axes restored to original set *****
 -------------------------------------------------------------------
 Center     Atomic                   Forces (Hartrees/Bohr)
 Number     Number              X              Y              Z
 -------------------------------------------------------------------
      1        6           0.004566846    0.008228681   -0.000019061
      2        6          -0.003991572   -0.005538613   -0.000001368
      3        1           0.000256287   -0.000050929   -0.000001891
      4        6           0.006696232    0.001343068    0.000016082
      5        1          -0.000223498    0.000042035    0.000000123
      6        7          -0.003259028    0.002840447   -0.000017751
      7        8          -0.002574163   -0.003301879    0.000004106
      8        6           0.002431455   -0.011951222    0.000068930
      9        8           0.000422329    0.002994723   -0.000020244
     10        8          -0.004581784    0.008158158   -0.000036157
     11        6           0.002436209   -0.004591886    0.000015312
     12        1          -0.000544990    0.000533389   -0.000003574
     13        1          -0.000818893    0.000647721    0.000430251
     14        1          -0.000815430    0.000646307   -0.000434758
 -------------------------------------------------------------------
 Cartesian Forces:  Max     0.011951222 RMS     0.003428706

 GradGradGradGradGradGradGradGradGradGradGradGradGradGradGradGradGradGrad
 Berny optimization.
 Using GEDIIS/GDIIS optimizer.
 FormGI is forming the generalized inverse of G from B-inverse, IUseBI=4.
 Internal  Forces:  Max     0.006587435 RMS     0.001620221
 Search for a local minimum.
 Step number   2 out of a maximum of   67
 All quantities printed in internal units (Hartrees-Bohrs-Radians)
 Mixed Optimization -- RFO/linear search
 Update second derivatives using D2CorX and points    1    2
 DE= -2.66D-03 DEPred=-2.31D-03 R= 1.15D+00
 TightC=F SS=  1.41D+00  RLast= 1.20D-01 DXNew= 5.0454D-01 3.5994D-01
 Trust test= 1.15D+00 RLast= 1.20D-01 DXMaxT set to 3.60D-01
 ITU=  1  0
 Use linear search instead of GDIIS.
     Eigenvalues ---    0.01335   0.01593   0.01789   0.01953   0.02064
     Eigenvalues ---    0.02152   0.02173   0.02259   0.02285   0.09837
     Eigenvalues ---    0.10703   0.15727   0.16000   0.16000   0.16000
     Eigenvalues ---    0.16425   0.21774   0.23315   0.24765   0.25000
     Eigenvalues ---    0.25000   0.27040   0.34224   0.34327   0.34336
     Eigenvalues ---    0.35805   0.35914   0.36233   0.41555   0.41919
     Eigenvalues ---    0.45164   0.48182   0.50162   0.50691   0.55960
     Eigenvalues ---    0.93527
 RFO step:  Lambda=-3.93409701D-04 EMin= 1.33526274D-02
 Quartic linear search produced a step of  0.21899.
 Iteration  1 RMS(Cart)=  0.00749220 RMS(Int)=  0.00005552
 Iteration  2 RMS(Cart)=  0.00004906 RMS(Int)=  0.00002181
 Iteration  3 RMS(Cart)=  0.00000000 RMS(Int)=  0.00002181
 Variable       Old X    -DE/DX   Delta X   Delta X   Delta X     New X
                                 (Linear)    (Quad)   (Total)
    R1        2.58501  -0.00216  -0.00415  -0.00282  -0.00696   2.57805
    R2        2.56484  -0.00292  -0.00338  -0.00516  -0.00853   2.55631
    R3        2.77630   0.00378   0.01310   0.00375   0.01684   2.79315
    R4        2.03984  -0.00025  -0.00024  -0.00072  -0.00096   2.03888
    R5        2.66653   0.00388   0.00279   0.00926   0.01204   2.67858
    R6        2.04512   0.00009   0.00035   0.00010   0.00045   2.04557
    R7        2.49607  -0.00342  -0.00550  -0.00366  -0.00917   2.48689
    R8        2.61285   0.00181  -0.00148   0.00522   0.00374   2.61659
    R9        2.29520  -0.00152  -0.00461   0.00078  -0.00382   2.29138
   R10        2.55569  -0.00659  -0.00464  -0.01259  -0.01724   2.53846
   R11        2.70617   0.00270   0.00211   0.00667   0.00878   2.71494
   R12        2.06258  -0.00071  -0.00096  -0.00196  -0.00292   2.05966
   R13        2.06630  -0.00013  -0.00034  -0.00025  -0.00059   2.06571
   R14        2.06628  -0.00013  -0.00032  -0.00026  -0.00058   2.06570
    A1        1.90969   0.00174   0.00307   0.00631   0.00940   1.91909
    A2        2.27690  -0.00221  -0.00449  -0.00797  -0.01247   2.26442
    A3        2.09660   0.00048   0.00142   0.00166   0.00307   2.09967
    A4        2.21802   0.00070   0.00077   0.00276   0.00352   2.22155
    A5        1.80976  -0.00151  -0.00255  -0.00582  -0.00836   1.80140
    A6        2.25541   0.00081   0.00178   0.00306   0.00484   2.26024
    A7        2.25424  -0.00030   0.00016  -0.00285  -0.00269   2.25155
    A8        1.95543   0.00018  -0.00007   0.00233   0.00224   1.95767
    A9        2.07351   0.00013  -0.00008   0.00052   0.00045   2.07397
   A10        1.84465  -0.00020   0.00141  -0.00163  -0.00024   1.84441
   A11        1.90526  -0.00021  -0.00186  -0.00119  -0.00304   1.90222
   A12        2.14991  -0.00220  -0.00728  -0.00645  -0.01373   2.13619
   A13        1.96329  -0.00161   0.00802  -0.01252  -0.00449   1.95880
   A14        2.16998   0.00381  -0.00074   0.01896   0.01822   2.18820
   A15        2.00803   0.00005   0.00205  -0.00095   0.00110   2.00912
   A16        1.83716   0.00035  -0.01007   0.01094   0.00087   1.83803
   A17        1.93570  -0.00086   0.00136  -0.00862  -0.00731   1.92839
   A18        1.93576  -0.00086   0.00137  -0.00866  -0.00734   1.92842
   A19        1.92190   0.00092   0.00648   0.00574   0.01222   1.93412
   A20        1.92195   0.00092   0.00648   0.00574   0.01222   1.93417
   A21        1.91049  -0.00040  -0.00547  -0.00443  -0.00999   1.90050
    D1       -3.14155  -0.00000   0.00005  -0.00015  -0.00010   3.14153
    D2        0.00012  -0.00001   0.00005  -0.00040  -0.00035  -0.00023
    D3        0.00003  -0.00000   0.00000  -0.00001  -0.00001   0.00002
    D4       -3.14149  -0.00001   0.00000  -0.00026  -0.00025   3.14144
    D5       -0.00007   0.00000  -0.00003   0.00023   0.00020   0.00013
    D6        3.14153   0.00000   0.00001   0.00010   0.00012  -3.14154
    D7        0.00016   0.00001  -0.00003   0.00037   0.00034   0.00050
    D8       -3.14118  -0.00001   0.00005  -0.00069  -0.00064   3.14137
    D9       -3.14144   0.00001  -0.00008   0.00053   0.00044  -3.14101
   D10        0.00040  -0.00001  -0.00001  -0.00054  -0.00054  -0.00014
   D11        3.14156   0.00000   0.00003   0.00011   0.00015  -3.14148
   D12       -0.00013   0.00001  -0.00006   0.00046   0.00040   0.00026
   D13        0.00005  -0.00000   0.00004  -0.00014  -0.00011  -0.00006
   D14        3.14154   0.00000  -0.00006   0.00020   0.00014  -3.14150
   D15        0.00009  -0.00001   0.00004  -0.00033  -0.00028  -0.00019
   D16        3.14159  -0.00000  -0.00004  -0.00002  -0.00006   3.14153
   D17       -0.00001   0.00000  -0.00001   0.00006   0.00005   0.00004
   D18        3.14147   0.00001  -0.00004   0.00049   0.00045  -3.14126
   D19        0.00013  -0.00001   0.00003  -0.00058  -0.00055  -0.00042
   D20       -3.14064  -0.00000  -0.00003  -0.00019  -0.00022  -3.14087
   D21        1.06439  -0.00085  -0.00257  -0.00896  -0.01145   1.05294
   D22       -1.06240   0.00084   0.00252   0.00854   0.01099  -1.05141
         Item               Value     Threshold  Converged?
 Maximum Force            0.006587     0.000450     NO 
 RMS     Force            0.001620     0.000300     NO 
 Maximum Displacement     0.030056     0.001800     NO 
 RMS     Displacement     0.007504     0.001200     NO 
 Predicted change in Energy=-2.786851D-04
 GradGradGradGradGradGradGradGradGradGradGradGradGradGradGradGradGradGrad

                          Input orientation:                          
 ---------------------------------------------------------------------
 Center     Atomic      Atomic             Coordinates (Angstroms)
 Number     Number       Type             X           Y           Z
 ---------------------------------------------------------------------
      1          6           0       -0.382922   -1.130358    0.006462
      2          6           0       -1.241452   -0.070132    0.002424
      3          1           0       -2.319895   -0.102403    0.001640
      4          6           0       -0.372916    1.050038   -0.000148
      5          1           0       -0.620231    2.103869   -0.003485
      6          7           0        0.894474    0.695648    0.001813
      7          8           0        0.895786   -0.688982    0.006051
      8          6           0       -0.671506   -2.579977    0.010758
      9          8           0       -1.802482   -3.017194    0.010666
     10          8           0        0.448778   -3.321188    0.013733
     11          6           0        0.239509   -4.742547    0.017561
     12          1           0        1.237612   -5.180408    0.020351
     13          1           0       -0.316992   -5.049753   -0.871740
     14          1           0       -0.319753   -5.044581    0.906895
 ---------------------------------------------------------------------
                    Distance matrix (angstroms):
                    1          2          3          4          5
     1  C    0.000000
     2  C    1.364247   0.000000
     3  H    2.192848   1.078927   0.000000
     4  C    2.180430   1.417442   2.262488   0.000000
     5  H    3.242937   2.261025   2.785054   1.082467   0.000000
     6  N    2.228466   2.269052   3.311956   1.316007   2.068198
     7  O    1.352740   2.225033   3.268746   2.152635   3.177801
     8  C    1.478071   2.573757   2.975843   3.642291   4.684148
     9  O    2.361211   2.999999   2.960372   4.311166   5.255779
    10  O    2.343397   3.664200   4.245735   4.447807   5.529405
    11  C    3.665439   4.901523   5.299220   5.824896   6.900218
    12  H    4.362250   5.679876   6.200188   6.435268   7.517502
    13  H    4.017118   5.139593   5.408390   6.162001   7.212498
    14  H    4.016953   5.139332   5.407881   6.161975   7.212449
                    6          7          8          9         10
     6  N    0.000000
     7  O    1.384637   0.000000
     8  C    3.630715   2.456072   0.000000
     9  O    4.588992   3.563880   1.212545   0.000000
    10  O    4.041504   2.669903   1.343294   2.271694   0.000000
    11  C    5.477516   4.106363   2.346637   2.673316   1.436687
    12  H    5.886095   4.504437   3.225999   3.731187   2.019654
    13  H    5.936360   4.610604   2.646559   2.667699   2.087679
    14  H    5.936645   4.610889   2.645953   2.666835   2.087693
                   11         12         13         14
    11  C    0.000000
    12  H    1.089926   0.000000
    13  H    1.093126   1.797134   0.000000
    14  H    1.093121   1.797163   1.778644   0.000000
 Stoichiometry    C5H5NO3
 Framework group  C1[X(C5H5NO3)]
 Deg. of freedom    36
 Full point group                 C1      NOp   1
 Largest Abelian subgroup         C1      NOp   1
 Largest concise Abelian subgroup C1      NOp   1
                         Standard orientation:                         
 ---------------------------------------------------------------------
 Center     Atomic      Atomic             Coordinates (Angstroms)
 Number     Number       Type             X           Y           Z
 ---------------------------------------------------------------------
      1          6           0       -0.521705    0.185224   -0.000115
      2          6           0       -1.549792    1.081999    0.000035
      3          1           0       -1.478058    2.158538    0.000020
      4          6           0       -2.701015    0.255061   -0.000023
      5          1           0       -3.745090    0.540795   -0.000046
      6          7           0       -2.393264   -1.024456    0.000128
      7          8           0       -1.009604   -1.076466    0.000036
      8          6           0        0.937515    0.420537   -0.000312
      9          8           0        1.415847    1.534746    0.000149
     10          8           0        1.637215   -0.726136   -0.000139
     11          6           0        3.065288   -0.569051    0.000114
     12          1           0        3.466317   -1.582517   -0.000537
     13          1           0        3.390031   -0.023335    0.889868
     14          1           0        3.390230   -0.022057   -0.888776
 ---------------------------------------------------------------------
 Rotational constants (GHZ):           4.6208913           1.0805367           0.8806184
 Standard basis: 6-31G(d) (6D, 7F)
 There are   145 symmetry adapted cartesian basis functions of A   symmetry.
 There are   145 symmetry adapted basis functions of A   symmetry.
   145 basis functions,   272 primitive gaussians,   145 cartesian basis functions
    33 alpha electrons       33 beta electrons
       nuclear repulsion energy       433.2871245515 Hartrees.
 NAtoms=   14 NActive=   14 NUniq=   14 SFac= 1.00D+00 NAtFMM=   60 NAOKFM=F Big=F
 Integral buffers will be    131072 words long.
 Raffenetti 2 integral format.
 Two-electron integral symmetry is turned on.
 One-electron integrals computed using PRISM.
 NBasis=   145 RedAO= T EigKep=  1.09D-03  NBF=   145
 NBsUse=   145 1.00D-06 EigRej= -1.00D+00 NBFU=   145
 Initial guess from the checkpoint file:  "science_add_141.chk"
 B after Tr=     0.000000    0.000000   -0.000000
         Rot=    1.000000    0.000013    0.000002    0.000082 Ang=   0.01 deg.
 ExpMin= 1.61D-01 ExpMax= 5.48D+03 ExpMxC= 8.25D+02 IAcc=2 IRadAn=         4 AccDes= 0.00D+00
 Harris functional with IExCor=  402 and IRadAn=       4 diagonalized for initial guess.
 HarFok:  IExCor=  402 AccDes= 0.00D+00 IRadAn=         4 IDoV= 1 UseB2=F ITyADJ=14
 ICtDFT=  3500011 ScaDFX=  1.000000  1.000000  1.000000  1.000000
 FoFCou: FMM=F IPFlag=           0 FMFlag=      100000 FMFlg1=           0
         NFxFlg=           0 DoJE=T BraDBF=F KetDBF=T FulRan=T
         wScrn=  0.000000 ICntrl=       500 IOpCl=  0 I1Cent=   200000004 NGrid=           0
         NMat0=    1 NMatS0=      1 NMatT0=    0 NMatD0=    1 NMtDS0=    0 NMtDT0=    0
 Petite list used in FoFCou.
 Keep R1 ints in memory in canonical form, NReq=58940941.
 Gradient too large for Newton-Raphson -- use scaled steepest descent instead.
     Minimum is close to point  4 DX=  4.08D-02 DF= -2.51D-07 DXR=  3.29D-02 DFR=  1.08D-03 which will be used.
 Gradient too large for Newton-Raphson -- use scaled steepest descent instead.
 LinEq1:  Iter=  0 NonCon=     1 RMS=1.02D-04 Max=2.74D-03 NDo=     1
 AX will form     1 AO Fock derivatives at one time.
 LinEq1:  Iter=  1 NonCon=     1 RMS=5.03D-05 Max=1.58D-03 NDo=     1
 LinEq1:  Iter=  2 NonCon=     1 RMS=1.90D-05 Max=4.60D-04 NDo=     1
 LinEq1:  Iter=  3 NonCon=     1 RMS=1.62D-05 Max=4.13D-04 NDo=     1
 LinEq1:  Iter=  4 NonCon=     1 RMS=7.70D-06 Max=1.63D-04 NDo=     1
 LinEq1:  Iter=  5 NonCon=     1 RMS=6.56D-06 Max=1.43D-04 NDo=     1
 LinEq1:  Iter=  6 NonCon=     1 RMS=3.66D-06 Max=4.89D-05 NDo=     1
 LinEq1:  Iter=  7 NonCon=     1 RMS=1.99D-06 Max=3.06D-05 NDo=     1
 LinEq1:  Iter=  8 NonCon=     1 RMS=9.10D-07 Max=2.09D-05 NDo=     1
 LinEq1:  Iter=  9 NonCon=     1 RMS=5.57D-07 Max=1.22D-05 NDo=     1
 LinEq1:  Iter= 10 NonCon=     1 RMS=4.84D-07 Max=1.18D-05 NDo=     1
 LinEq1:  Iter= 11 NonCon=     1 RMS=2.04D-07 Max=2.97D-06 NDo=     1
 LinEq1:  Iter= 12 NonCon=     1 RMS=8.82D-08 Max=1.05D-06 NDo=     1
 LinEq1:  Iter= 13 NonCon=     1 RMS=4.48D-08 Max=6.22D-07 NDo=     1
 LinEq1:  Iter= 14 NonCon=     1 RMS=2.43D-08 Max=3.56D-07 NDo=     1
 LinEq1:  Iter= 15 NonCon=     1 RMS=5.49D-09 Max=1.09D-07 NDo=     1
 LinEq1:  Iter= 16 NonCon=     0 RMS=1.81D-09 Max=3.43D-08 NDo=     1
 Linear equations converged to 8.598D-09 8.598D-08 after    16 iterations.
     Minimum is close to point  2 DX=  4.78D-04 DF= -9.38D-12 DXR=  4.78D-04 DFR=  2.28D-07 which will be used.
 LinEq1:  Iter=  0 NonCon=     1 RMS=2.57D-07 Max=1.10D-05 NDo=     1
 LinEq1:  Iter=  1 NonCon=     1 RMS=1.73D-07 Max=5.47D-06 NDo=     1
 LinEq1:  Iter=  2 NonCon=     1 RMS=1.15D-07 Max=2.04D-06 NDo=     1
 LinEq1:  Iter=  3 NonCon=     1 RMS=3.59D-08 Max=9.52D-07 NDo=     1
 LinEq1:  Iter=  4 NonCon=     1 RMS=3.19D-08 Max=6.39D-07 NDo=     1
 LinEq1:  Iter=  5 NonCon=     1 RMS=2.33D-08 Max=7.03D-07 NDo=     1
 LinEq1:  Iter=  6 NonCon=     1 RMS=1.22D-08 Max=2.57D-07 NDo=     1
 LinEq1:  Iter=  7 NonCon=     1 RMS=6.72D-09 Max=1.60D-07 NDo=     1
 LinEq1:  Iter=  8 NonCon=     1 RMS=3.46D-09 Max=7.11D-08 NDo=     1
 LinEq1:  Iter=  9 NonCon=     1 RMS=2.05D-09 Max=5.26D-08 NDo=     1
 LinEq1:  Iter= 10 NonCon=     1 RMS=1.13D-09 Max=1.60D-08 NDo=     1
 LinEq1:  Iter= 11 NonCon=     1 RMS=5.23D-10 Max=6.28D-09 NDo=     1
 LinEq1:  Iter= 12 NonCon=     1 RMS=2.20D-10 Max=2.78D-09 NDo=     1
 LinEq1:  Iter= 13 NonCon=     1 RMS=1.19D-10 Max=1.55D-09 NDo=     1
 LinEq1:  Iter= 14 NonCon=     0 RMS=4.83D-11 Max=6.68D-10 NDo=     1
 Linear equations converged to 1.048D-10 1.048D-09 after    14 iterations.
 SCF Done:  E(RB3LYP) =  -473.909713430     a.u. after    5 cycles
            Convg  =    0.6691D-10                    41 Fock formations.
              S**2 =  0.0000                  -V/T =  2.0088
 Calling FoFJK, ICntrl=      2127 FMM=F ISym2X=0 I1Cent= 0 IOpClX= 0 NMat=1 NMatS=1 NMatT=0.
 ***** Axes restored to original set *****
 -------------------------------------------------------------------
 Center     Atomic                   Forces (Hartrees/Bohr)
 Number     Number              X              Y              Z
 -------------------------------------------------------------------
      1        6           0.001712491   -0.000061192    0.000007754
      2        6          -0.000999043   -0.000042033    0.000027386
      3        1           0.000091418    0.000105703    0.000002342
      4        6           0.000149643    0.000718270   -0.000028986
      5        1          -0.000151718    0.000005817   -0.000003253
      6        7           0.000305588    0.002273498    0.000008071
      7        8          -0.000606081   -0.002477471    0.000016448
      8        6           0.002161023    0.000249573   -0.000101897
      9        8          -0.001482376   -0.001068682    0.000041335
     10        8          -0.001175456    0.001672561    0.000026919
     11        6          -0.000224232   -0.001424090    0.000002963
     12        1          -0.000261513   -0.000091545    0.000000657
     13        1           0.000238683    0.000070572   -0.000204022
     14        1           0.000241574    0.000069016    0.000204283
 -------------------------------------------------------------------
 Cartesian Forces:  Max     0.002477471 RMS     0.000857930

 GradGradGradGradGradGradGradGradGradGradGradGradGradGradGradGradGradGrad
 Berny optimization.
 Using GEDIIS/GDIIS optimizer.
 FormGI is forming the generalized inverse of G from B-inverse, IUseBI=4.
 Internal  Forces:  Max     0.002380187 RMS     0.000523157
 Search for a local minimum.
 Step number   3 out of a maximum of   67
 All quantities printed in internal units (Hartrees-Bohrs-Radians)
 Mixed Optimization -- En-DIIS/RFO-DIIS
 Update second derivatives using D2CorX and points    1    2    3
 DE= -2.96D-04 DEPred=-2.79D-04 R= 1.06D+00
 TightC=F SS=  1.41D+00  RLast= 5.23D-02 DXNew= 6.0535D-01 1.5676D-01
 Trust test= 1.06D+00 RLast= 5.23D-02 DXMaxT set to 3.60D-01
 ITU=  1  1  0
 Use linear search instead of GDIIS.
     Eigenvalues ---    0.01335   0.01593   0.01795   0.01954   0.02064
     Eigenvalues ---    0.02152   0.02173   0.02259   0.02285   0.10138
     Eigenvalues ---    0.10699   0.15442   0.16000   0.16000   0.16013
     Eigenvalues ---    0.16596   0.20902   0.23076   0.24761   0.25000
     Eigenvalues ---    0.25303   0.27625   0.32252   0.34327   0.34334
     Eigenvalues ---    0.34589   0.35831   0.36008   0.41732   0.42118
     Eigenvalues ---    0.44878   0.48723   0.49623   0.51480   0.56930
     Eigenvalues ---    0.96120
 RFO step:  Lambda=-3.52443662D-05 EMin= 1.33525691D-02
 Quartic linear search produced a step of  0.04730.
 Iteration  1 RMS(Cart)=  0.00291581 RMS(Int)=  0.00000257
 Iteration  2 RMS(Cart)=  0.00000396 RMS(Int)=  0.00000114
 Iteration  3 RMS(Cart)=  0.00000000 RMS(Int)=  0.00000114
 Variable       Old X    -DE/DX   Delta X   Delta X   Delta X     New X
                                 (Linear)    (Quad)   (Total)
    R1        2.57805   0.00094  -0.00033   0.00160   0.00127   2.57932
    R2        2.55631  -0.00055  -0.00040  -0.00135  -0.00176   2.55455
    R3        2.79315   0.00061   0.00080   0.00241   0.00321   2.79636
    R4        2.03888  -0.00009  -0.00005  -0.00029  -0.00033   2.03854
    R5        2.67858   0.00064   0.00057   0.00163   0.00220   2.68077
    R6        2.04557   0.00004   0.00002   0.00014   0.00016   2.04573
    R7        2.48689   0.00027  -0.00043   0.00020  -0.00023   2.48666
    R8        2.61659   0.00238   0.00018   0.00517   0.00535   2.62193
    R9        2.29138   0.00177  -0.00018   0.00169   0.00151   2.29289
   R10        2.53846  -0.00115  -0.00082  -0.00260  -0.00341   2.53504
   R11        2.71494   0.00136   0.00042   0.00356   0.00397   2.71892
   R12        2.05966  -0.00020  -0.00014  -0.00068  -0.00081   2.05885
   R13        2.06571   0.00002  -0.00003   0.00005   0.00002   2.06573
   R14        2.06570   0.00002  -0.00003   0.00005   0.00002   2.06572
    A1        1.91909   0.00008   0.00044   0.00022   0.00067   1.91976
    A2        2.26442  -0.00043  -0.00059  -0.00193  -0.00252   2.26190
    A3        2.09967   0.00035   0.00015   0.00171   0.00186   2.10153
    A4        2.22155  -0.00003   0.00017   0.00032   0.00048   2.22203
    A5        1.80140   0.00026  -0.00040   0.00066   0.00027   1.80166
    A6        2.26024  -0.00024   0.00023  -0.00098  -0.00075   2.25949
    A7        2.25155  -0.00010  -0.00013  -0.00077  -0.00090   2.25065
    A8        1.95767  -0.00009   0.00011  -0.00039  -0.00029   1.95738
    A9        2.07397   0.00020   0.00002   0.00116   0.00119   2.07515
   A10        1.84441  -0.00020  -0.00001  -0.00029  -0.00030   1.84410
   A11        1.90222  -0.00005  -0.00014  -0.00020  -0.00034   1.90187
   A12        2.13619   0.00046  -0.00065   0.00142   0.00077   2.13695
   A13        1.95880   0.00015  -0.00021   0.00110   0.00089   1.95969
   A14        2.18820  -0.00060   0.00086  -0.00251  -0.00165   2.18654
   A15        2.00912   0.00027   0.00005   0.00126   0.00131   2.01043
   A16        1.83803   0.00022   0.00004   0.00047   0.00051   1.83854
   A17        1.92839  -0.00013  -0.00035  -0.00062  -0.00097   1.92742
   A18        1.92842  -0.00013  -0.00035  -0.00059  -0.00094   1.92747
   A19        1.93412  -0.00017   0.00058  -0.00101  -0.00043   1.93369
   A20        1.93417  -0.00017   0.00058  -0.00103  -0.00046   1.93372
   A21        1.90050   0.00037  -0.00047   0.00265   0.00217   1.90267
    D1        3.14153   0.00000  -0.00000   0.00018   0.00017  -3.14148
    D2       -0.00023   0.00001  -0.00002   0.00064   0.00062   0.00039
    D3        0.00002  -0.00000  -0.00000  -0.00006  -0.00006  -0.00004
    D4        3.14144   0.00001  -0.00001   0.00040   0.00039  -3.14136
    D5        0.00013  -0.00001   0.00001  -0.00036  -0.00035  -0.00022
    D6       -3.14154  -0.00000   0.00001  -0.00015  -0.00014   3.14151
    D7        0.00050  -0.00002   0.00002  -0.00136  -0.00135  -0.00084
    D8        3.14137   0.00002  -0.00003   0.00143   0.00140  -3.14042
    D9       -3.14101  -0.00003   0.00002  -0.00162  -0.00160   3.14058
   D10       -0.00014   0.00002  -0.00003   0.00117   0.00114   0.00100
   D11       -3.14148  -0.00001   0.00001  -0.00028  -0.00028   3.14143
   D12        0.00026  -0.00002   0.00002  -0.00073  -0.00071  -0.00045
   D13       -0.00006   0.00000  -0.00001   0.00019   0.00018   0.00012
   D14       -3.14150  -0.00001   0.00001  -0.00026  -0.00025   3.14143
   D15       -0.00019   0.00001  -0.00001   0.00053   0.00051   0.00032
   D16        3.14153   0.00000  -0.00000   0.00013   0.00013  -3.14153
   D17        0.00004  -0.00000   0.00000  -0.00011  -0.00011  -0.00006
   D18       -3.14126  -0.00002   0.00002  -0.00142  -0.00140   3.14053
   D19       -0.00042   0.00003  -0.00003   0.00147   0.00144   0.00102
   D20       -3.14087  -0.00000  -0.00001  -0.00012  -0.00013  -3.14100
   D21        1.05294   0.00014  -0.00054   0.00113   0.00059   1.05354
   D22       -1.05141  -0.00014   0.00052  -0.00139  -0.00088  -1.05229
         Item               Value     Threshold  Converged?
 Maximum Force            0.002380     0.000450     NO 
 RMS     Force            0.000523     0.000300     NO 
 Maximum Displacement     0.009880     0.001800     NO 
 RMS     Displacement     0.002914     0.001200     NO 
 Predicted change in Energy=-1.823588D-05
 GradGradGradGradGradGradGradGradGradGradGradGradGradGradGradGradGradGrad

                          Input orientation:                          
 ---------------------------------------------------------------------
 Center     Atomic      Atomic             Coordinates (Angstroms)
 Number     Number       Type             X           Y           Z
 ---------------------------------------------------------------------
      1          6           0       -0.379616   -1.129167    0.005756
      2          6           0       -1.240530   -0.070008    0.002713
      3          1           0       -2.318752   -0.103747    0.002187
      4          6           0       -0.373657    1.052917    0.000112
      5          1           0       -0.624165    2.106082   -0.002835
      6          7           0        0.894260    0.700876    0.002014
      7          8           0        0.897691   -0.686582    0.005556
      8          6           0       -0.669509   -2.580260    0.009139
      9          8           0       -1.801190   -3.017866    0.010466
     10          8           0        0.448112   -3.322215    0.012998
     11          6           0        0.238176   -4.745597    0.017829
     12          1           0        1.235549   -5.184045    0.021101
     13          1           0       -0.317659   -5.052399   -0.872044
     14          1           0       -0.320699   -5.045960    0.907987
 ---------------------------------------------------------------------
                    Distance matrix (angstroms):
                    1          2          3          4          5
     1  C    0.000000
     2  C    1.364918   0.000000
     3  H    2.193569   1.078750   0.000000
     4  C    2.182100   1.418604   2.263023   0.000000
     5  H    3.244490   2.261704   2.784779   1.082552   0.000000
     6  N    2.229761   2.269712   3.312230   1.315884   2.068875
     7  O    1.351811   2.225345   3.268824   2.154580   3.180423
     8  C    1.479770   2.574387   2.975427   3.645214   4.686576
     9  O    2.363912   3.000711   2.959734   4.313842   5.257414
    10  O    2.344066   3.664488   4.244313   4.451658   5.533212
    11  C    3.668839   4.903870   5.299519   5.830731   6.905764
    12  H    4.364749   5.681961   6.200229   6.441248   7.523633
    13  H    4.020712   5.142092   5.409049   6.167551   7.217570
    14  H    4.019796   5.140594   5.407232   6.166307   7.216189
                    6          7          8          9         10
     6  N    0.000000
     7  O    1.387467   0.000000
     8  C    3.634732   2.458076   0.000000
     9  O    4.592882   3.566351   1.213344   0.000000
    10  O    4.047769   2.673712   1.341488   2.269800   0.000000
    11  C    5.485870   4.112264   2.347904   2.672849   1.438789
    12  H    5.894840   4.510162   3.226312   3.730178   2.021517
    13  H    5.944148   4.616017   2.647972   2.668148   2.088837
    14  H    5.943318   4.615520   2.647503   2.666564   2.088868
                   11         12         13         14
    11  C    0.000000
    12  H    1.089495   0.000000
    13  H    1.093139   1.796523   0.000000
    14  H    1.093133   1.796536   1.780045   0.000000
 Stoichiometry    C5H5NO3
 Framework group  C1[X(C5H5NO3)]
 Deg. of freedom    36
 Full point group                 C1      NOp   1
 Largest Abelian subgroup         C1      NOp   1
 Largest concise Abelian subgroup C1      NOp   1
                         Standard orientation:                         
 ---------------------------------------------------------------------
 Center     Atomic      Atomic             Coordinates (Angstroms)
 Number     Number       Type             X           Y           Z
 ---------------------------------------------------------------------
      1          6           0       -0.522333    0.182648    0.000389
      2          6           0       -1.549018    1.082045   -0.000347
      3          1           0       -1.475531    2.158289   -0.000590
      4          6           0       -2.703159    0.257183   -0.000322
      5          1           0       -3.746370    0.546369   -0.000645
      6          7           0       -2.398123   -1.022857   -0.000178
      7          8           0       -1.011731   -1.077465    0.000326
      8          6           0        0.938469    0.418816    0.001002
      9          8           0        1.417525    1.533585    0.000041
     10          8           0        1.638702   -0.725414    0.000204
     11          6           0        3.068868   -0.568127   -0.000647
     12          1           0        3.470234   -1.580996   -0.001839
     13          1           0        3.393397   -0.023175    0.889669
     14          1           0        3.392206   -0.021522   -0.890376
 ---------------------------------------------------------------------
 Rotational constants (GHZ):           4.6255241           1.0781866           0.8792321
 Standard basis: 6-31G(d) (6D, 7F)
 There are   145 symmetry adapted cartesian basis functions of A   symmetry.
 There are   145 symmetry adapted basis functions of A   symmetry.
   145 basis functions,   272 primitive gaussians,   145 cartesian basis functions
    33 alpha electrons       33 beta electrons
       nuclear repulsion energy       433.0612756803 Hartrees.
 NAtoms=   14 NActive=   14 NUniq=   14 SFac= 1.00D+00 NAtFMM=   60 NAOKFM=F Big=F
 Integral buffers will be    131072 words long.
 Raffenetti 2 integral format.
 Two-electron integral symmetry is turned on.
 One-electron integrals computed using PRISM.
 NBasis=   145 RedAO= T EigKep=  1.10D-03  NBF=   145
 NBsUse=   145 1.00D-06 EigRej= -1.00D+00 NBFU=   145
 Initial guess from the checkpoint file:  "science_add_141.chk"
 B after Tr=    -0.000000   -0.000000    0.000000
         Rot=    1.000000   -0.000006   -0.000005    0.000173 Ang=  -0.02 deg.
 Keep R1 ints in memory in canonical form, NReq=58940941.
 LinEq1:  Iter=  0 NonCon=     1 RMS=5.15D-05 Max=8.66D-04 NDo=     1
 AX will form     1 AO Fock derivatives at one time.
 LinEq1:  Iter=  1 NonCon=     1 RMS=1.80D-05 Max=5.37D-04 NDo=     1
 LinEq1:  Iter=  2 NonCon=     1 RMS=1.07D-05 Max=1.95D-04 NDo=     1
 LinEq1:  Iter=  3 NonCon=     1 RMS=7.13D-06 Max=1.90D-04 NDo=     1
 LinEq1:  Iter=  4 NonCon=     1 RMS=4.70D-06 Max=9.16D-05 NDo=     1
 LinEq1:  Iter=  5 NonCon=     1 RMS=3.57D-06 Max=8.15D-05 NDo=     1
 LinEq1:  Iter=  6 NonCon=     1 RMS=2.36D-06 Max=5.26D-05 NDo=     1
 LinEq1:  Iter=  7 NonCon=     1 RMS=1.20D-06 Max=1.47D-05 NDo=     1
 LinEq1:  Iter=  8 NonCon=     1 RMS=5.17D-07 Max=8.31D-06 NDo=     1
 LinEq1:  Iter=  9 NonCon=     1 RMS=2.34D-07 Max=6.13D-06 NDo=     1
 LinEq1:  Iter= 10 NonCon=     1 RMS=2.09D-07 Max=5.42D-06 NDo=     1
 LinEq1:  Iter= 11 NonCon=     1 RMS=9.24D-08 Max=2.08D-06 NDo=     1
 LinEq1:  Iter= 12 NonCon=     1 RMS=5.17D-08 Max=9.58D-07 NDo=     1
 LinEq1:  Iter= 13 NonCon=     1 RMS=2.35D-08 Max=3.48D-07 NDo=     1
 LinEq1:  Iter= 14 NonCon=     1 RMS=1.11D-08 Max=1.08D-07 NDo=     1
 LinEq1:  Iter= 15 NonCon=     0 RMS=4.54D-09 Max=8.10D-08 NDo=     1
 Linear equations converged to 8.598D-09 8.598D-08 after    15 iterations.
     Minimum is close to point  2 DX=  5.16D-05 DF= -5.68D-14 DXR=  5.16D-05 DFR=  3.12D-09 which will be used.
 LinEq1:  Iter=  0 NonCon=     1 RMS=2.21D-08 Max=4.22D-07 NDo=     1
 LinEq1:  Iter=  1 NonCon=     1 RMS=1.54D-08 Max=2.93D-07 NDo=     1
 LinEq1:  Iter=  2 NonCon=     1 RMS=8.09D-09 Max=2.50D-07 NDo=     1
 LinEq1:  Iter=  3 NonCon=     1 RMS=5.75D-09 Max=1.13D-07 NDo=     1
 LinEq1:  Iter=  4 NonCon=     1 RMS=2.94D-09 Max=5.06D-08 NDo=     1
 LinEq1:  Iter=  5 NonCon=     1 RMS=1.57D-09 Max=3.38D-08 NDo=     1
 LinEq1:  Iter=  6 NonCon=     1 RMS=1.20D-09 Max=2.36D-08 NDo=     1
 LinEq1:  Iter=  7 NonCon=     1 RMS=1.01D-09 Max=1.95D-08 NDo=     1
 LinEq1:  Iter=  8 NonCon=     1 RMS=5.33D-10 Max=1.16D-08 NDo=     1
 LinEq1:  Iter=  9 NonCon=     1 RMS=2.72D-10 Max=5.03D-09 NDo=     1
 LinEq1:  Iter= 10 NonCon=     1 RMS=1.90D-10 Max=6.83D-09 NDo=     1
 LinEq1:  Iter= 11 NonCon=     1 RMS=1.38D-10 Max=2.73D-09 NDo=     1
 LinEq1:  Iter= 12 NonCon=     1 RMS=6.68D-11 Max=1.17D-09 NDo=     1
 LinEq1:  Iter= 13 NonCon=     1 RMS=3.92D-11 Max=8.73D-10 NDo=     1
 LinEq1:  Iter= 14 NonCon=     0 RMS=9.07D-12 Max=1.60D-10 NDo=     1
 Linear equations converged to 1.633D-11 1.633D-10 after    14 iterations.
 QCLLim is confused:  Bigger=T Turned=T
 NLin=  3 IMin12=  1  2 I12=  0  2 IX=  1 XLMin= 0.000D+00 XLMax= 0.000D+00
 X = 0.000D+00 1.000D+00 2.000D+00
 DE= 0.000D+00 3.411D-13 1.251D-12
 QCLLim is confused:  Bigger=T Turned=T
 NLin=  7 IMin12=  1  2 I12=  0  2 IX=  1 XLMin= 0.000D+00 XLMax= 0.000D+00
 X = 0.000D+00 1.000D+00 2.000D+00 4.000D+00 8.000D+00 1.600D+01 3.200D+01
 DE= 0.000D+00 3.411D-13 1.251D-12 8.185D-12 5.900D-11 2.876D-10 1.234D-09
 QCLLim is confused:  Bigger=T Turned=T
[...]
                 (A) (A) (A) (A) (A) (A) (A) (A) (A) (A) (A) (A)
                 (A) (A) (A) (A) (A) (A) (A) (A) (A) (A) (A) (A)
                 (A) (A) (A) (A)
 The electronic state is 1-A.
 Alpha  occ. eigenvalues --  -19.25168 -19.20977 -19.15294 -14.39899 -10.33926
 Alpha  occ. eigenvalues --  -10.27468 -10.25194 -10.24030 -10.21857  -1.15970
 Alpha  occ. eigenvalues --   -1.11868  -1.03176  -0.88237  -0.81904  -0.74854
 Alpha  occ. eigenvalues --   -0.65205  -0.63005  -0.58177  -0.55765  -0.50270
 Alpha  occ. eigenvalues --   -0.48614  -0.48304  -0.47623  -0.45089  -0.42297
 Alpha  occ. eigenvalues --   -0.40965  -0.40404  -0.37263  -0.32443  -0.31869
 Alpha  occ. eigenvalues --   -0.31262  -0.29177  -0.27913
 Alpha virt. eigenvalues --   -0.06536   0.02027   0.08804   0.09081   0.10398
 Alpha virt. eigenvalues --    0.11768   0.12866   0.14651   0.15149   0.16483
 Alpha virt. eigenvalues --    0.19079   0.23765   0.26334   0.31494   0.35859
 Alpha virt. eigenvalues --    0.39603   0.42736   0.49535   0.49940   0.53154
 Alpha virt. eigenvalues --    0.53791   0.54638   0.55329   0.56035   0.60417
 Alpha virt. eigenvalues --    0.61612   0.62570   0.66535   0.66842   0.70190
 Alpha virt. eigenvalues --    0.71094   0.73423   0.77652   0.77931   0.81007
 Alpha virt. eigenvalues --    0.82021   0.82794   0.83977   0.87787   0.90806
 Alpha virt. eigenvalues --    0.92312   0.93467   0.94814   0.99026   0.99096
 Alpha virt. eigenvalues --    1.01341   1.04192   1.07646   1.08895   1.14093
 Alpha virt. eigenvalues --    1.18436   1.25713   1.27718   1.33690   1.34960
 Alpha virt. eigenvalues --    1.36792   1.38884   1.42163   1.46179   1.48625
 Alpha virt. eigenvalues --    1.50240   1.55467   1.55562   1.59168   1.65114
 Alpha virt. eigenvalues --    1.73040   1.74506   1.80533   1.84561   1.87955
 Alpha virt. eigenvalues --    1.88042   1.90605   1.96003   1.98066   1.99874
 Alpha virt. eigenvalues --    2.03143   2.06153   2.08730   2.13286   2.15887
 Alpha virt. eigenvalues --    2.19205   2.22838   2.23974   2.24649   2.28490
 Alpha virt. eigenvalues --    2.30982   2.37465   2.37781   2.50748   2.51361
 Alpha virt. eigenvalues --    2.56061   2.60402   2.65353   2.68000   2.70334
 Alpha virt. eigenvalues --    2.74823   2.80259   2.88724   2.92786   2.95358
 Alpha virt. eigenvalues --    2.99257   3.21696   3.24499   3.74303   3.93253
 Alpha virt. eigenvalues --    4.02412   4.08848   4.21341   4.24263   4.33402
 Alpha virt. eigenvalues --    4.54143   4.71556
          Condensed to atoms (all electrons):
               1          2          3          4          5          6
     1  C    4.799766   0.472343  -0.038132  -0.036802   0.003411  -0.082259
     2  C    0.472343   5.153316   0.360149   0.493344  -0.040148  -0.032008
     3  H   -0.038132   0.360149   0.556502  -0.030315  -0.000511   0.004663
     4  C   -0.036802   0.493344  -0.030315   4.807915   0.367881   0.419465
     5  H    0.003411  -0.040148  -0.000511   0.367881   0.552761  -0.044150
     6  N   -0.082259  -0.032008   0.004663   0.419465  -0.044150   6.748354
     7  O    0.217502  -0.059979   0.003908  -0.068534   0.005131   0.144090
     8  C    0.457262  -0.074895  -0.002259   0.004003  -0.000111   0.004460
     9  O   -0.067975  -0.001789   0.001309   0.000275  -0.000000  -0.000015
    10  O   -0.061990   0.003263   0.000022  -0.000079   0.000001  -0.000018
    11  C    0.005953  -0.000107  -0.000000   0.000003  -0.000000   0.000002
    12  H   -0.000022   0.000002   0.000000  -0.000000   0.000000  -0.000000
    13  H   -0.000239   0.000002  -0.000000  -0.000000   0.000000   0.000000
    14  H   -0.000239   0.000002  -0.000000  -0.000000   0.000000   0.000000
               7          8          9         10         11         12
     1  C    0.217502   0.457262  -0.067975  -0.061990   0.005953  -0.000022
     2  C   -0.059979  -0.074895  -0.001789   0.003263  -0.000107   0.000002
     3  H    0.003908  -0.002259   0.001309   0.000022  -0.000000   0.000000
     4  C   -0.068534   0.004003   0.000275  -0.000079   0.000003  -0.000000
     5  H    0.005131  -0.000111  -0.000000   0.000001  -0.000000   0.000000
     6  N    0.144090   0.004460  -0.000015  -0.000018   0.000002  -0.000000
     7  O    8.204411  -0.040815   0.000972   0.000264   0.000038  -0.000003
     8  C   -0.040815   4.541471   0.307196   0.266088  -0.024380   0.003485
     9  O    0.000972   0.307196   8.106394  -0.045259  -0.001495   0.000331
    10  O    0.000264   0.266088  -0.045259   8.133456   0.208592  -0.029208
    11  C    0.000038  -0.024380  -0.001495   0.208592   4.923857   0.386707
    12  H   -0.000003   0.003485   0.000331  -0.029208   0.386707   0.496846
    13  H   -0.000004  -0.005442   0.001673  -0.030891   0.371894  -0.026943
    14  H   -0.000004  -0.005453   0.001681  -0.030884   0.371897  -0.026936
              13         14
     1  C   -0.000239  -0.000239
     2  C    0.000002   0.000002
     3  H   -0.000000  -0.000000
     4  C   -0.000000  -0.000000
     5  H    0.000000   0.000000
     6  N    0.000000   0.000000
     7  O   -0.000004  -0.000004
     8  C   -0.005442  -0.005453
     9  O    0.001673   0.001681
    10  O   -0.030891  -0.030884
    11  C    0.371894   0.371897
    12  H   -0.026943  -0.026936
    13  H    0.550131  -0.041617
    14  H   -0.041617   0.550115
 Mulliken charges:
               1
     1  C    0.331422
     2  C   -0.273495
     3  H    0.144661
     4  C    0.042844
     5  H    0.155736
     6  N   -0.162584
     7  O   -0.406979
     8  C    0.569390
     9  O   -0.303297
    10  O   -0.413356
    11  C   -0.242960
    12  H    0.195742
    13  H    0.181437
    14  H    0.181439
 Sum of Mulliken charges =  -0.00000
 Mulliken charges with hydrogens summed into heavy atoms:
               1
     1  C    0.331422
     2  C   -0.128834
     4  C    0.198580
     6  N   -0.162584
     7  O   -0.406979
     8  C    0.569390
     9  O   -0.303297
    10  O   -0.413356
    11  C    0.315658
 Electronic spatial extent (au):  <R**2>=           1243.2916
 Charge=              0.0000 electrons
 Dipole moment (field-independent basis, Debye):
    X=              4.0882    Y=              1.9586    Z=             -0.0004  Tot=              4.5332
 Quadrupole moment (field-independent basis, Debye-Ang):
   XX=            -38.9453   YY=            -53.5693   ZZ=            -51.2840
   XY=             -8.2169   XZ=              0.0004   YZ=              0.0002
 Traceless Quadrupole moment (field-independent basis, Debye-Ang):
   XX=              8.9876   YY=             -5.6365   ZZ=             -3.3511
   XY=             -8.2169   XZ=              0.0004   YZ=              0.0002
 Octapole moment (field-independent basis, Debye-Ang**2):
  XXX=             40.5129  YYY=              1.6635  ZZZ=              0.0010  XYY=              8.2188
  XXY=              4.3878  XXZ=             -0.0047  XZZ=              8.2286  YZZ=             -1.6086
  YYZ=             -0.0012  XYZ=              0.0007
 Hexadecapole moment (field-independent basis, Debye-Ang**3):
 XXXX=          -1053.1369 YYYY=           -287.7192 ZZZZ=            -52.5519 XXXY=            -62.4188
 XXXZ=              0.0063 YYYX=            -21.3272 YYYZ=              0.0022 ZZZX=              0.0016
 ZZZY=             -0.0006 XXYY=           -263.1295 XXZZ=           -218.0017 YYZZ=            -60.0387
 XXYZ=              0.0013 YYXZ=             -0.0040 ZZXY=              5.3397
 N-N= 4.330285180239D+02 E-N=-1.973591674337D+03  KE= 4.699168193500D+02
 Evaluate density.
 Using the total density.
 Monte-Carlo method of calculating molar volume:
 based on  0.001 e/bohr**3 density envelope.
 Number of points per bohr**3 =   20 CutOff= 1.00D-04
 Using the CI density.
 There are       342 points.  Will hold       342 in memory.
 LenV=   805234240 MDV=   805306368.
 Box volume = 5032.440 fraction occupied=0.167
 Integrated density= 5.2463942474635964D+01 error=-1.3536057525364036D+01
 Molar volume =  838.740 bohr**3/mol ( 74.848 cm**3/mol)
 Recommended a0 for SCRF calculation =  3.91 angstrom (  7.38 bohr)
 ******************************Gaussian NBO Version 3.1******************************
             N A T U R A L   A T O M I C   O R B I T A L   A N D
          N A T U R A L   B O N D   O R B I T A L   A N A L Y S I S
 ******************************Gaussian NBO Version 3.1******************************
       /RESON  / : Allow strongly delocalized NBO set

 Analyzing the CI density

 Job title: Title Card Required                                             

 Storage needed:     63822 in NPA ( 805305248 available)


 NATURAL POPULATIONS:  Natural atomic orbital occupancies 
                                                          
   NAO  Atom  No  lang   Type(AO)    Occupancy
 --------------------------------------------
     1    C    1  S      Cor( 1S)     1.99880
     2    C    1  S      Val( 2S)     0.85800
     3    C    1  S      Ryd( 3S)     0.00214
     4    C    1  S      Ryd( 4S)     0.00016
     5    C    1  px     Val( 2p)     1.00502
     6    C    1  px     Ryd( 3p)     0.00426
     7    C    1  py     Val( 2p)     0.80751
     8    C    1  py     Ryd( 3p)     0.01032
     9    C    1  pz     Val( 2p)     1.16086
    10    C    1  pz     Ryd( 3p)     0.00218
    11    C    1  dxy    Ryd( 3d)     0.00118
    12    C    1  dxz    Ryd( 3d)     0.00133
    13    C    1  dyz    Ryd( 3d)     0.00177
    14    C    1  dx2y2  Ryd( 3d)     0.00180
    15    C    1  dz2    Ryd( 3d)     0.00062
 
    16    C    2  S      Cor( 1S)     1.99895
    17    C    2  S      Val( 2S)     0.97767
    18    C    2  S      Ryd( 3S)     0.00064
    19    C    2  S      Ryd( 4S)     0.00004
    20    C    2  px     Val( 2p)     1.04316
    21    C    2  px     Ryd( 3p)     0.00315
    22    C    2  py     Val( 2p)     1.21621
    23    C    2  py     Ryd( 3p)     0.00311
    24    C    2  pz     Val( 2p)     1.13395
    25    C    2  pz     Ryd( 3p)     0.00319
    26    C    2  dxy    Ryd( 3d)     0.00072
    27    C    2  dxz    Ryd( 3d)     0.00049
    28    C    2  dyz    Ryd( 3d)     0.00060
    29    C    2  dx2y2  Ryd( 3d)     0.00060
    30    C    2  dz2    Ryd( 3d)     0.00046
 
    31    H    3  S      Val( 1S)     0.74986
    32    H    3  S      Ryd( 2S)     0.00028
 
    33    C    4  S      Cor( 1S)     1.99932
    34    C    4  S      Val( 2S)     0.95831
    35    C    4  S      Ryd( 3S)     0.00231
    36    C    4  S      Ryd( 4S)     0.00009
    37    C    4  px     Val( 2p)     1.16673
    38    C    4  px     Ryd( 3p)     0.00369
    39    C    4  py     Val( 2p)     0.91994
    40    C    4  py     Ryd( 3p)     0.01041
    41    C    4  pz     Val( 2p)     0.98864
    42    C    4  pz     Ryd( 3p)     0.00114
    43    C    4  dxy    Ryd( 3d)     0.00104
    44    C    4  dxz    Ryd( 3d)     0.00061
    45    C    4  dyz    Ryd( 3d)     0.00192
    46    C    4  dx2y2  Ryd( 3d)     0.00156
    47    C    4  dz2    Ryd( 3d)     0.00055
 
    48    H    5  S      Val( 1S)     0.75949
    49    H    5  S      Ryd( 2S)     0.00044
 
    50    N    6  S      Cor( 1S)     1.99942
    51    N    6  S      Val( 2S)     1.48207
    52    N    6  S      Ryd( 3S)     0.00201
    53    N    6  S      Ryd( 4S)     0.00002
    54    N    6  px     Val( 2p)     0.85270
    55    N    6  px     Ryd( 3p)     0.00687
    56    N    6  py     Val( 2p)     1.45758
    57    N    6  py     Ryd( 3p)     0.00508
    58    N    6  pz     Val( 2p)     1.31500
    59    N    6  pz     Ryd( 3p)     0.00156
    60    N    6  dxy    Ryd( 3d)     0.00176
    61    N    6  dxz    Ryd( 3d)     0.00132
    62    N    6  dyz    Ryd( 3d)     0.00230
    63    N    6  dx2y2  Ryd( 3d)     0.00223
    64    N    6  dz2    Ryd( 3d)     0.00110
 
    65    O    7  S      Cor( 1S)     1.99973
    66    O    7  S      Val( 2S)     1.61856
    67    O    7  S      Ryd( 3S)     0.00051
    68    O    7  S      Ryd( 4S)     0.00005
    69    O    7  px     Val( 2p)     1.31633
    70    O    7  px     Ryd( 3p)     0.00199
    71    O    7  py     Val( 2p)     1.62226
    72    O    7  py     Ryd( 3p)     0.00230
    73    O    7  pz     Val( 2p)     1.75498
    74    O    7  pz     Ryd( 3p)     0.00174
    75    O    7  dxy    Ryd( 3d)     0.00216
    76    O    7  dxz    Ryd( 3d)     0.00117
    77    O    7  dyz    Ryd( 3d)     0.00201
    78    O    7  dx2y2  Ryd( 3d)     0.00160
    79    O    7  dz2    Ryd( 3d)     0.00115
 
    80    C    8  S      Cor( 1S)     1.99932
    81    C    8  S      Val( 2S)     0.76819
    82    C    8  S      Ryd( 3S)     0.00347
    83    C    8  S      Ryd( 4S)     0.00045
    84    C    8  px     Val( 2p)     0.91943
    85    C    8  px     Ryd( 3p)     0.00393
    86    C    8  py     Val( 2p)     0.68324
    87    C    8  py     Ryd( 3p)     0.01721
    88    C    8  pz     Val( 2p)     0.95323
    89    C    8  pz     Ryd( 3p)     0.00221
    90    C    8  dxy    Ryd( 3d)     0.00224
    91    C    8  dxz    Ryd( 3d)     0.00212
    92    C    8  dyz    Ryd( 3d)     0.00282
    93    C    8  dx2y2  Ryd( 3d)     0.00224
    94    C    8  dz2    Ryd( 3d)     0.00047
 
    95    O    9  S      Cor( 1S)     1.99982
    96    O    9  S      Val( 2S)     1.71721
    97    O    9  S      Ryd( 3S)     0.00033
    98    O    9  S      Ryd( 4S)     0.00000
    99    O    9  px     Val( 2p)     1.19781
   100    O    9  px     Ryd( 3p)     0.00076
   101    O    9  py     Val( 2p)     1.51744
   102    O    9  py     Ryd( 3p)     0.00046
   103    O    9  pz     Val( 2p)     1.80982
   104    O    9  pz     Ryd( 3p)     0.00270
   105    O    9  dxy    Ryd( 3d)     0.00391
   106    O    9  dxz    Ryd( 3d)     0.00080
   107    O    9  dyz    Ryd( 3d)     0.00461
   108    O    9  dx2y2  Ryd( 3d)     0.00390
   109    O    9  dz2    Ryd( 3d)     0.00150
 
   110    O   10  S      Cor( 1S)     1.99977
   111    O   10  S      Val( 2S)     1.62349
   112    O   10  S      Ryd( 3S)     0.00074
   113    O   10  S      Ryd( 4S)     0.00004
   114    O   10  px     Val( 2p)     1.43223
   115    O   10  px     Ryd( 3p)     0.00071
   116    O   10  py     Val( 2p)     1.57762
   117    O   10  py     Ryd( 3p)     0.00173
   118    O   10  pz     Val( 2p)     1.81964
   119    O   10  pz     Ryd( 3p)     0.00184
   120    O   10  dxy    Ryd( 3d)     0.00159
   121    O   10  dxz    Ryd( 3d)     0.00049
   122    O   10  dyz    Ryd( 3d)     0.00208
   123    O   10  dx2y2  Ryd( 3d)     0.00141
   124    O   10  dz2    Ryd( 3d)     0.00081
 
   125    C   11  S      Cor( 1S)     1.99942
   126    C   11  S      Val( 2S)     1.11683
   127    C   11  S      Ryd( 3S)     0.00132
   128    C   11  S      Ryd( 4S)     0.00002
   129    C   11  px     Val( 2p)     0.71162
   130    C   11  px     Ryd( 3p)     0.00265
   131    C   11  py     Val( 2p)     1.25020
   132    C   11  py     Ryd( 3p)     0.00319
   133    C   11  pz     Val( 2p)     1.23700
   134    C   11  pz     Ryd( 3p)     0.00040
   135    C   11  dxy    Ryd( 3d)     0.00114
   136    C   11  dxz    Ryd( 3d)     0.00141
   137    C   11  dyz    Ryd( 3d)     0.00093
   138    C   11  dx2y2  Ryd( 3d)     0.00178
   139    C   11  dz2    Ryd( 3d)     0.00108
 
   140    H   12  S      Val( 1S)     0.75971
   141    H   12  S      Ryd( 2S)     0.00036
 
   142    H   13  S      Val( 1S)     0.77991
   143    H   13  S      Ryd( 2S)     0.00128
 
   144    H   14  S      Val( 1S)     0.77991
   145    H   14  S      Ryd( 2S)     0.00128

 WARNING:  1 low occupancy (<1.9990e) core orbital  found on  C    1
           1 low occupancy (<1.9990e) core orbital  found on  C    2


 Summary of Natural Population Analysis:                  
                                                          
                                       Natural Population 
                Natural  -----------------------------------------------
    Atom  No    Charge         Core      Valence    Rydberg      Total
 -----------------------------------------------------------------------
      C    1    0.14405      1.99880     3.83139    0.02576     5.85595
      C    2   -0.38294      1.99895     4.37099    0.01300     6.38294
      H    3    0.24986      0.00000     0.74986    0.00028     0.75014
      C    4   -0.05626      1.99932     4.03362    0.02332     6.05626
      H    5    0.24006      0.00000     0.75949    0.00044     0.75994
      N    6   -0.13101      1.99942     5.10734    0.02425     7.13101
      O    7   -0.32656      1.99973     6.31214    0.01469     8.32656
      C    8    0.63944      1.99932     3.32409    0.03715     5.36056
      O    9   -0.26105      1.99982     6.24228    0.01896     8.26105
      O   10   -0.46417      1.99977     6.45298    0.01143     8.46417
      C   11   -0.32897      1.99942     4.31565    0.01391     6.32897
      H   12    0.23993      0.00000     0.75971    0.00036     0.76007
      H   13    0.21881      0.00000     0.77991    0.00128     0.78119
      H   14    0.21881      0.00000     0.77991    0.00128     0.78119
 =======================================================================
   * Total *   -0.00001     17.99456    47.81935    0.18610    66.00001

                                 Natural Population      
 --------------------------------------------------------
   Core                      17.99456 ( 99.9698% of  18)
   Valence                   47.81935 ( 99.6237% of  48)
   Natural Minimal Basis     65.81391 ( 99.7180% of  66)
   Natural Rydberg Basis      0.18610 (  0.2820% of  66)
 --------------------------------------------------------

    Atom  No          Natural Electron Configuration
 ----------------------------------------------------------------------------
      C    1      [core]2S( 0.86)2p( 2.97)3p( 0.02)3d( 0.01)
      C    2      [core]2S( 0.98)2p( 3.39)3p( 0.01)
      H    3            1S( 0.75)
      C    4      [core]2S( 0.96)2p( 3.08)3p( 0.02)3d( 0.01)
      H    5            1S( 0.76)
      N    6      [core]2S( 1.48)2p( 3.63)3p( 0.01)3d( 0.01)
      O    7      [core]2S( 1.62)2p( 4.69)3p( 0.01)3d( 0.01)
      C    8      [core]2S( 0.77)2p( 2.56)3p( 0.02)3d( 0.01)
      O    9      [core]2S( 1.72)2p( 4.53)3d( 0.01)
      O   10      [core]2S( 1.62)2p( 4.83)3d( 0.01)
      C   11      [core]2S( 1.12)2p( 3.20)3p( 0.01)3d( 0.01)
      H   12            1S( 0.76)
      H   13            1S( 0.78)
      H   14            1S( 0.78)


 NBO analysis skipped by request.
 1\1\GINC-DELLA-R4C4N5\SP\RB3LYP TD-FC\6-31G(d)\C5H5N1O3\BJS4\27-Aug-20
 18\0\\# TD(NStates=10, Root=1) b3lyp/6-31G* volume pop=NPA density=cur
 rent Geom=AllCheck Guess=Read\\Title Card Required\\0,1\C,0,-0.3782323
 55,-1.1293052019,0.0062653246\C,0,-1.2402399692,-0.0708511933,0.002389
 924\H,0,-2.3184836028,-0.1047349988,0.001547142\C,0,-0.3738639062,1.05
 21957315,-0.000014421\H,0,-0.6258889441,2.1049868227,-0.0032452325\N,0
 ,0.8948633882,0.7024527972,0.0019303426\O,0,0.89861129,-0.6871943853,0
 .0060188849\C,0,-0.6689690628,-2.5798929246,0.0102837728\O,0,-1.801522
 8544,-3.0168902734,0.0106231819\O,0,0.4481182536,-3.3219957251,0.01353
 6596\C,0,0.2372494163,-4.7458989556,0.0176522147\H,0,1.2347762423,-5.1
 841405387,0.0203137525\H,0,-0.3180182032,-5.051091401,-0.8729302107\H,
 0,-0.3203896927,-5.0456097534,0.9086087284\\Version=ES64L-G16RevA.03\S
 tate=1-A\HF=-473.9097394\RMSD=0.000e+00\Dipole=-0.8296948,-1.5787492,0
 .0041095\Quadrupole=-4.628388,7.1197414,-2.4913534,-5.6893048,0.015209
 5,-0.033163\PG=C01 [X(C5H5N1O3)]\\@


 I DON'T PRETEND TO UNDERSTAND THE UNIVERSE --
 IT'S A GREAT DEAL BIGGER THAN I AM.
       -- ATTR. TO WILLIAM ALLINGHAM (1828-89)
 Job cpu time:       0 days  0 hours  7 minutes 59.7 seconds.
 Elapsed time:       0 days  0 hours  2 minutes 41.6 seconds.
 File lengths (MBytes):  RWF=    233 Int=      0 D2E=      0 Chk=     67 Scr=      1
 Normal termination of Gaussian 16 at Mon Aug 27 11:42:50 2018.
