 Entering Gaussian System, Link 0=g16
 Input=science_add_21123.com
 Output=science_add_21123.log
 Initial command:
 /opt/export/g16/l1.exe "/scratch/bjs4/job.103015/Gau-103017.inp" -scrdir="/scratch/bjs4/job.103015/"
 Entering Link 1 = /opt/export/g16/l1.exe PID=    103018.
  
 Copyright (c) 1988,1990,1992,1993,1995,1998,2003,2009,2016,
            Gaussian, Inc.  All Rights Reserved.
  
 This is part of the Gaussian(R) 16 program.  It is based on
 the Gaussian(R) 09 system (copyright 2009, Gaussian, Inc.),
 the Gaussian(R) 03 system (copyright 2003, Gaussian, Inc.),
 the Gaussian(R) 98 system (copyright 1998, Gaussian, Inc.),
 the Gaussian(R) 94 system (copyright 1995, Gaussian, Inc.),
 the Gaussian 92(TM) system (copyright 1992, Gaussian, Inc.),
 the Gaussian 90(TM) system (copyright 1990, Gaussian, Inc.),
 the Gaussian 88(TM) system (copyright 1988, Gaussian, Inc.),
 the Gaussian 86(TM) system (copyright 1986, Carnegie Mellon
 University), and the Gaussian 82(TM) system (copyright 1983,
 Carnegie Mellon University). Gaussian is a federally registered
 trademark of Gaussian, Inc.
  
 This software contains proprietary and confidential information,
 including trade secrets, belonging to Gaussian, Inc.
  
 This software is provided under written license and may be
 used, copied, transmitted, or stored only in accord with that
 written license.
  
 The following legend is applicable only to US Government
 contracts under FAR:
  
                    RESTRICTED RIGHTS LEGEND
  
 Use, reproduction and disclosure by the US Government is
 subject to restrictions as set forth in subparagraphs (a)
 and (c) of the Commercial Computer Software - Restricted
 Rights clause in FAR 52.227-19.
  
 Gaussian, Inc.
 340 Quinnipiac St., Bldg. 40, Wallingford CT 06492
  
  
 ---------------------------------------------------------------
 Warning -- This program may not be used in any manner that
 competes with the business of Gaussian, Inc. or will provide
 assistance to any competitor of Gaussian, Inc.  The licensee
 of this program is prohibited from giving any competitor of
 Gaussian, Inc. access to this program.  By using this program,
 the user acknowledges that Gaussian, Inc. is engaged in the
 business of creating and licensing software in the field of
 computational chemistry and represents and warrants to the
 licensee that it is not a competitor of Gaussian, Inc. and that
 it will not use this program in any manner prohibited above.
 ---------------------------------------------------------------
  

 Cite this work as:
 Gaussian 16, Revision A.03,
 M. J. Frisch, G. W. Trucks, H. B. Schlegel, G. E. Scuseria, 
 M. A. Robb, J. R. Cheeseman, G. Scalmani, V. Barone, 
 G. A. Petersson, H. Nakatsuji, X. Li, M. Caricato, A. V. Marenich, 
 J. Bloino, B. G. Janesko, R. Gomperts, B. Mennucci, H. P. Hratchian, 
 J. V. Ortiz, A. F. Izmaylov, J. L. Sonnenberg, D. Williams-Young, 
 F. Ding, F. Lipparini, F. Egidi, J. Goings, B. Peng, A. Petrone, 
 T. Henderson, D. Ranasinghe, V. G. Zakrzewski, J. Gao, N. Rega, 
 G. Zheng, W. Liang, M. Hada, M. Ehara, K. Toyota, R. Fukuda, 
 J. Hasegawa, M. Ishida, T. Nakajima, Y. Honda, O. Kitao, H. Nakai, 
 T. Vreven, K. Throssell, J. A. Montgomery, Jr., J. E. Peralta, 
 F. Ogliaro, M. J. Bearpark, J. J. Heyd, E. N. Brothers, K. N. Kudin, 
 V. N. Staroverov, T. A. Keith, R. Kobayashi, J. Normand, 
 K. Raghavachari, A. P. Rendell, J. C. Burant, S. S. Iyengar, 
 J. Tomasi, M. Cossi, J. M. Millam, M. Klene, C. Adamo, R. Cammi, 
 J. W. Ochterski, R. L. Martin, K. Morokuma, O. Farkas, 
 J. B. Foresman, and D. J. Fox, Gaussian, Inc., Wallingford CT, 2016.
 
 ******************************************
 Gaussian 16:  ES64L-G16RevA.03 25-Dec-2016
                27-Aug-2018 
 ******************************************
 %nprocshared=4
 Will use up to    4 processors via shared memory.
 %Mem=8GB
 %Chk=science_add_211.chk
 -------------------------
 # opt b3lyp/6-31G* scf=qc
 -------------------------
 1/18=20,19=15,26=3,38=1/1,3;
 2/9=110,12=2,17=6,18=5,40=1/2;
 3/5=1,6=6,7=1,11=2,25=1,30=1,71=1,74=-5/1,2,3;
 4//1;
 5/5=2,8=3,38=5/8;
 6/7=2,8=2,9=2,10=2,28=1/1;
 7//1,2,3,16;
 1/18=20,19=15,26=3/3(2);
 2/9=110/2;
 99//99;
 2/9=110/2;
 3/5=1,6=6,7=1,11=2,25=1,30=1,71=1,74=-5/1,2,3;
 4/5=5,16=3,69=1/1;
 5/5=2,8=3,38=5/8;
 7//1,2,3,16;
 1/18=20,19=15,26=3/3(-5);
 2/9=110/2;
 6/7=2,8=2,9=2,10=2,19=2,28=1/1;
 99/9=1/99;
 -------------------
 Title Card Required
 -------------------
 Symbolic Z-matrix:
 Charge =  0 Multiplicity = 1
 C5                   -0.44132  -1.0699    0.0043 
 C4                   -1.2315    0.05822  -0.00008 
 H                    -2.31165   0.09272  -0.00125 
 C3                   -0.32967   1.15392  -0.00143 
 N2                    0.93864   0.71236   0.00081 
 O1                    0.86402  -0.66555   0.00402 
 C                    -0.67139   2.57507  -0.00463 
 O                    -1.82975   2.98078  -0.00685 
 O                     0.42457   3.39179  -0.00467 
 C                     0.12531   4.78636  -0.00726 
 C                    -0.8324   -2.4449    0.00755 
 O                    -2.14322  -2.84968   0.00749 
 C                    -2.15642  -4.20651   0.01223 
 C                    -0.87508  -4.69976   0.01526 
 C                    -0.02318  -3.56922   0.01216 
 H                     1.07172   5.33441  -0.00631 
 H                    -0.43397   5.06097   0.89239 
 H                    -0.4306    5.05819  -0.90983 
 H                    -3.13581  -4.66479   0.01295 
 H                    -0.58977  -5.74243   0.01933 
 H                     1.05871  -3.56642   0.01342 
 

 GradGradGradGradGradGradGradGradGradGradGradGradGradGradGradGradGradGrad
 Berny optimization.
 Initialization pass.
                           ----------------------------
                           !    Initial Parameters    !
                           ! (Angstroms and Degrees)  !
 --------------------------                            --------------------------
 ! Name  Definition              Value          Derivative Info.                !
 --------------------------------------------------------------------------------
 ! R1    R(1,2)                  1.3773         estimate D2E/DX2                !
 ! R2    R(1,6)                  1.3665         estimate D2E/DX2                !
 ! R3    R(1,11)                 1.4295         estimate D2E/DX2                !
 ! R4    R(2,3)                  1.0807         estimate D2E/DX2                !
 ! R5    R(2,4)                  1.4191         estimate D2E/DX2                !
 ! R6    R(4,5)                  1.343          estimate D2E/DX2                !
 ! R7    R(4,7)                  1.4617         estimate D2E/DX2                !
 ! R8    R(5,6)                  1.3799         estimate D2E/DX2                !
 ! R9    R(7,8)                  1.2274         estimate D2E/DX2                !
 ! R10   R(7,9)                  1.3668         estimate D2E/DX2                !
 ! R11   R(9,10)                 1.4263         estimate D2E/DX2                !
 ! R12   R(10,16)                1.0936         estimate D2E/DX2                !
 ! R13   R(10,17)                1.0943         estimate D2E/DX2                !
 ! R14   R(10,18)                1.0943         estimate D2E/DX2                !
 ! R15   R(11,12)                1.3719         estimate D2E/DX2                !
 ! R16   R(11,15)                1.3853         estimate D2E/DX2                !
 ! R17   R(12,13)                1.3569         estimate D2E/DX2                !
 ! R18   R(13,14)                1.373          estimate D2E/DX2                !
 ! R19   R(13,19)                1.0813         estimate D2E/DX2                !
 ! R20   R(14,15)                1.4156         estimate D2E/DX2                !
 ! R21   R(14,20)                1.081          estimate D2E/DX2                !
 ! R22   R(15,21)                1.0819         estimate D2E/DX2                !
 ! A1    A(2,1,6)              107.7976         estimate D2E/DX2                !
 ! A2    A(2,1,11)             129.1143         estimate D2E/DX2                !
 ! A3    A(6,1,11)             123.088          estimate D2E/DX2                !
 ! A4    A(1,2,3)              126.8383         estimate D2E/DX2                !
 ! A5    A(1,2,4)              105.5346         estimate D2E/DX2                !
 ! A6    A(3,2,4)              127.627          estimate D2E/DX2                !
 ! A7    A(2,4,5)              110.2609         estimate D2E/DX2                !
 ! A8    A(2,4,7)              127.0232         estimate D2E/DX2                !
 ! A9    A(5,4,7)              122.7159         estimate D2E/DX2                !
 ! A10   A(4,5,6)              106.0958         estimate D2E/DX2                !
 ! A11   A(1,6,5)              110.311          estimate D2E/DX2                !
 ! A12   A(4,7,8)              122.823          estimate D2E/DX2                !
 ! A13   A(4,7,9)              113.1735         estimate D2E/DX2                !
 ! A14   A(8,7,9)              124.0035         estimate D2E/DX2                !
 ! A15   A(7,9,10)             114.5824         estimate D2E/DX2                !
 ! A16   A(9,10,16)            107.9629         estimate D2E/DX2                !
 ! A17   A(9,10,17)            110.5538         estimate D2E/DX2                !
 ! A18   A(9,10,18)            110.5454         estimate D2E/DX2                !
 ! A19   A(16,10,17)           108.4091         estimate D2E/DX2                !
 ! A20   A(16,10,18)           108.4116         estimate D2E/DX2                !
 ! A21   A(17,10,18)           110.8602         estimate D2E/DX2                !
 ! A22   A(1,11,12)            123.0374         estimate D2E/DX2                !
 ! A23   A(1,11,15)            128.3791         estimate D2E/DX2                !
 ! A24   A(12,11,15)           108.5834         estimate D2E/DX2                !
 ! A25   A(11,12,13)           107.7179         estimate D2E/DX2                !
 ! A26   A(12,13,14)           110.497          estimate D2E/DX2                !
 ! A27   A(12,13,19)           115.6334         estimate D2E/DX2                !
 ! A28   A(14,13,19)           133.8696         estimate D2E/DX2                !
 ! A29   A(13,14,15)           105.9448         estimate D2E/DX2                !
 ! A30   A(13,14,20)           126.3578         estimate D2E/DX2                !
 ! A31   A(15,14,20)           127.6975         estimate D2E/DX2                !
 ! A32   A(11,15,14)           107.2569         estimate D2E/DX2                !
 ! A33   A(11,15,21)           125.5959         estimate D2E/DX2                !
 ! A34   A(14,15,21)           127.1472         estimate D2E/DX2                !
 ! D1    D(6,1,2,3)            179.9882         estimate D2E/DX2                !
 ! D2    D(6,1,2,4)             -0.0649         estimate D2E/DX2                !
 ! D3    D(11,1,2,3)             0.0393         estimate D2E/DX2                !
 ! D4    D(11,1,2,4)           179.9862         estimate D2E/DX2                !
 ! D5    D(2,1,6,5)              0.0574         estimate D2E/DX2                !
 ! D6    D(11,1,6,5)          -179.99           estimate D2E/DX2                !
 ! D7    D(2,1,11,12)           -0.0412         estimate D2E/DX2                !
 ! D8    D(2,1,11,15)         -179.9889         estimate D2E/DX2                !
 ! D9    D(6,1,11,12)         -179.9832         estimate D2E/DX2                !
 ! D10   D(6,1,11,15)            0.0692         estimate D2E/DX2                !
 ! D11   D(1,2,4,5)              0.052          estimate D2E/DX2                !
 ! D12   D(1,2,4,7)           -179.942          estimate D2E/DX2                !
 ! D13   D(3,2,4,5)            179.9983         estimate D2E/DX2                !
 ! D14   D(3,2,4,7)              0.0043         estimate D2E/DX2                !
 ! D15   D(2,4,5,6)             -0.0178         estimate D2E/DX2                !
 ! D16   D(7,4,5,6)            179.9766         estimate D2E/DX2                !
 ! D17   D(2,4,7,8)             -0.0161         estimate D2E/DX2                !
 ! D18   D(2,4,7,9)            179.9745         estimate D2E/DX2                !
 ! D19   D(5,4,7,8)            179.9906         estimate D2E/DX2                !
 ! D20   D(5,4,7,9)             -0.0189         estimate D2E/DX2                !
 ! D21   D(4,5,6,1)             -0.0242         estimate D2E/DX2                !
 ! D22   D(4,7,9,10)          -179.9779         estimate D2E/DX2                !
 ! D23   D(8,7,9,10)             0.0125         estimate D2E/DX2                !
 ! D24   D(7,9,10,16)          179.9597         estimate D2E/DX2                !
 ! D25   D(7,9,10,17)           61.5278         estimate D2E/DX2                !
 ! D26   D(7,9,10,18)          -61.6103         estimate D2E/DX2                !
 ! D27   D(1,11,12,13)        -179.9461         estimate D2E/DX2                !
 ! D28   D(15,11,12,13)          0.0106         estimate D2E/DX2                !
 ! D29   D(1,11,15,14)         179.943          estimate D2E/DX2                !
 ! D30   D(1,11,15,21)          -0.0393         estimate D2E/DX2                !
 ! D31   D(12,11,15,14)         -0.0107         estimate D2E/DX2                !
 ! D32   D(12,11,15,21)       -179.993          estimate D2E/DX2                !
 ! D33   D(11,12,13,14)         -0.0064         estimate D2E/DX2                !
 ! D34   D(11,12,13,19)        179.9871         estimate D2E/DX2                !
 ! D35   D(12,13,14,15)         -0.0002         estimate D2E/DX2                !
 ! D36   D(12,13,14,20)        179.9916         estimate D2E/DX2                !
 ! D37   D(19,13,14,15)       -179.9921         estimate D2E/DX2                !
 ! D38   D(19,13,14,20)         -0.0003         estimate D2E/DX2                !
 ! D39   D(13,14,15,11)          0.0067         estimate D2E/DX2                !
 ! D40   D(13,14,15,21)        179.9886         estimate D2E/DX2                !
 ! D41   D(20,14,15,11)       -179.985          estimate D2E/DX2                !
 ! D42   D(20,14,15,21)         -0.0031         estimate D2E/DX2                !
 --------------------------------------------------------------------------------
 Trust Radius=3.00D-01 FncErr=1.00D-07 GrdErr=1.00D-06 EigMax=2.50D+02 EigMin=1.00D-04
 Number of steps in this run=    108 maximum allowed number of steps=    126.
 GradGradGradGradGradGradGradGradGradGradGradGradGradGradGradGradGradGrad

                          Input orientation:                          
 ---------------------------------------------------------------------
 Center     Atomic      Atomic             Coordinates (Angstroms)
 Number     Number       Type             X           Y           Z
 ---------------------------------------------------------------------
      1          6           0       -0.441320   -1.069900    0.004300
      2          6           0       -1.231500    0.058220   -0.000080
      3          1           0       -2.311650    0.092720   -0.001250
      4          6           0       -0.329670    1.153920   -0.001430
      5          7           0        0.938640    0.712360    0.000810
      6          8           0        0.864020   -0.665550    0.004020
      7          6           0       -0.671390    2.575070   -0.004630
      8          8           0       -1.829750    2.980780   -0.006850
      9          8           0        0.424570    3.391790   -0.004670
     10          6           0        0.125310    4.786360   -0.007260
     11          6           0       -0.832400   -2.444900    0.007550
     12          8           0       -2.143220   -2.849680    0.007490
     13          6           0       -2.156420   -4.206510    0.012230
     14          6           0       -0.875080   -4.699760    0.015260
     15          6           0       -0.023180   -3.569220    0.012160
     16          1           0        1.071720    5.334410   -0.006310
     17          1           0       -0.433970    5.060970    0.892390
     18          1           0       -0.430600    5.058190   -0.909830
     19          1           0       -3.135810   -4.664790    0.012950
     20          1           0       -0.589770   -5.742430    0.019330
     21          1           0        1.058710   -3.566420    0.013420
 ---------------------------------------------------------------------
                    Distance matrix (angstroms):
                    1          2          3          4          5
     1  C    0.000000
     2  C    1.377337   0.000000
     3  H    2.202238   1.080701   0.000000
     4  C    2.226628   1.419105   2.248197   0.000000
     5  N    2.254052   2.266585   3.308828   1.342978   0.000000
     6  O    1.366533   2.216994   3.264947   2.176097   1.379933
     7  C    3.652235   2.578425   2.975319   1.461660   2.462096
     8  O    4.282040   2.983170   2.927994   2.363829   3.579074
     9  O    4.544945   3.722268   4.286114   2.361557   2.728304
    10  C    5.883620   4.918973   5.288579   3.660828   4.154401
    11  C    1.429538   2.534748   2.937307   3.633775   3.620072
    12  O    2.462537   3.047486   2.947230   4.395208   4.710205
    13  C    3.574906   4.363892   4.302053   5.663163   5.811610
    14  C    3.655701   4.771336   5.003186   5.879058   5.707962
    15  C    2.534069   3.823416   4.318226   4.733093   4.388297
    16  H    6.580622   5.756999   6.238793   4.409129   4.623971
    17  H    6.194863   5.143935   5.385887   4.009343   4.646438
    18  H    6.195905   5.144782   5.386999   4.009826   4.646539
    19  H    4.492615   5.092484   4.828389   6.460032   6.746483
    20  H    4.674912   5.836072   6.083935   6.901284   6.633302
    21  H    2.912522   4.287570   4.974821   4.920308   4.280483
                    6          7          8          9         10
     6  O    0.000000
     7  C    3.585969   0.000000
     8  O    4.533458   1.227356   0.000000
     9  O    4.081078   1.366806   2.291483   0.000000
    10  C    5.501740   2.350434   2.661274   1.426320   0.000000
    11  C    2.458443   5.022566   5.516604   5.970517   7.294419
    12  O    3.716709   5.620885   5.838898   6.749047   7.965899
    13  C    4.654194   6.942293   7.194735   8.024709   9.277844
    14  C    4.393113   7.277708   7.739676   8.195283   9.538750
    15  C    3.036197   6.178411   6.794598   6.975416   8.356922
    16  H    6.003563   3.263800   3.736054   2.047579   1.093641
    17  H    5.938603   2.653434   2.661583   2.080377   1.094338
    18  H    5.939054   2.653913   2.662447   2.080269   1.094331
    19  H    5.656204   7.647826   7.756347   8.808240   9.997977
    20  H    5.280952   8.317935   8.810938   9.190399  10.553078
    21  H    2.907411   6.380554   7.156077   6.987070   8.404796
                   11         12         13         14         15
    11  C    0.000000
    12  O    1.371895   0.000000
    13  C    2.203706   1.356902   0.000000
    14  C    2.255277   2.242997   1.373003   0.000000
    15  C    1.385263   2.238823   2.226399   1.415579   0.000000
    16  H    8.008966   8.792915  10.072258  10.221304   8.970718
    17  H    7.568340   8.141435   9.467191   9.809984   8.684684
    18  H    7.569636   8.143031   9.469072   9.811776   8.686096
    19  H    3.199006   2.068789   1.081307   2.261002   3.299809
    20  H    3.306465   3.283497   2.193967   1.081008   2.245867
    21  H    2.198667   3.281175   3.278228   2.241430   1.081894
                   16         17         18         19         20
    16  H    0.000000
    17  H    1.774693   0.000000
    18  H    1.774714   1.802225   0.000000
    19  H   10.848395  10.132313  10.134398   0.000000
    20  H   11.200785  10.839740  10.841682   2.764718   0.000000
    21  H    8.900861   8.799576   8.800814   4.335945   2.729934
                   21
    21  H    0.000000
 Stoichiometry    C9H7NO4
 Framework group  C1[X(C9H7NO4)]
 Deg. of freedom    57
 Full point group                 C1      NOp   1
 Largest Abelian subgroup         C1      NOp   1
 Largest concise Abelian subgroup C1      NOp   1
                         Standard orientation:                         
 ---------------------------------------------------------------------
 Center     Atomic      Atomic             Coordinates (Angstroms)
 Number     Number       Type             X           Y           Z
 ---------------------------------------------------------------------
      1          6           0       -0.892782   -0.260169   -0.000675
      2          6           0        0.122723    0.670319   -0.001520
      3          1           0        0.016136    1.745751   -0.001628
      4          6           0        1.326626   -0.080996   -0.000945
      5          7           0        1.054151   -1.396043   -0.000955
      6          8           0       -0.321734   -1.501667   -0.001123
      7          6           0        2.691113    0.443052   -0.000283
      8          8           0        2.942376    1.644414   -0.000442
      9          8           0        3.643718   -0.537101    0.000730
     10          6           0        4.987385   -0.058616    0.001897
     11          6           0       -2.307031   -0.051655   -0.000510
     12          8           0       -2.879218    1.195220   -0.000398
     13          6           0       -4.226200    1.031446    0.000961
     14          6           0       -4.548228   -0.303258    0.001600
     15          6           0       -3.316286   -1.000525    0.000558
     16          1           0        5.654117   -0.925517    0.003363
     17          1           0        5.184626    0.530587    0.902736
     18          1           0        5.186564    0.529085   -0.899488
     19          1           0       -4.808232    1.942744    0.001420
     20          1           0       -5.544820   -0.722046    0.002805
     21          1           0       -3.172491   -2.072821    0.000847
 ---------------------------------------------------------------------
 Rotational constants (GHZ):           2.7547144           0.2925036           0.2648798
 Standard basis: 6-31G(d) (6D, 7F)
 There are   224 symmetry adapted cartesian basis functions of A   symmetry.
 There are   224 symmetry adapted basis functions of A   symmetry.
   224 basis functions,   420 primitive gaussians,   224 cartesian basis functions
    50 alpha electrons       50 beta electrons
       nuclear repulsion energy       823.1835140379 Hartrees.
 NAtoms=   21 NActive=   21 NUniq=   21 SFac= 1.00D+00 NAtFMM=   60 NAOKFM=F Big=F
 Integral buffers will be    131072 words long.
 Raffenetti 2 integral format.
 Two-electron integral symmetry is turned on.
 One-electron integrals computed using PRISM.
 NBasis=   224 RedAO= T EigKep=  6.47D-04  NBF=   224
 NBsUse=   224 1.00D-06 EigRej= -1.00D+00 NBFU=   224
 ExpMin= 1.61D-01 ExpMax= 5.48D+03 ExpMxC= 8.25D+02 IAcc=3 IRadAn=         5 AccDes= 0.00D+00
 Harris functional with IExCor=  402 and IRadAn=       5 diagonalized for initial guess.
 HarFok:  IExCor=  402 AccDes= 0.00D+00 IRadAn=         5 IDoV= 1 UseB2=F ITyADJ=14
 ICtDFT=  3500011 ScaDFX=  1.000000  1.000000  1.000000  1.000000
 FoFCou: FMM=F IPFlag=           0 FMFlag=      100000 FMFlg1=           0
         NFxFlg=           0 DoJE=T BraDBF=F KetDBF=T FulRan=T
         wScrn=  0.000000 ICntrl=       500 IOpCl=  0 I1Cent=   200000004 NGrid=           0
         NMat0=    1 NMatS0=      1 NMatT0=    0 NMatD0=    1 NMtDS0=    0 NMtDT0=    0
 Petite list used in FoFCou.
 Keep R1 ints in memory in canonical form, NReq=323229650.
 Gradient too large for Newton-Raphson -- use scaled steepest descent instead.
     Accept linear search using points  2 and  3.
 Gradient too large for Newton-Raphson -- use scaled steepest descent instead.
     Accept linear search using points  2 and  3.
 Gradient too large for Newton-Raphson -- use scaled steepest descent instead.
 Gradient too large for Newton-Raphson -- use scaled steepest descent instead.
     Accept linear search using points  1 and  2.
 Gradient too large for Newton-Raphson -- use scaled steepest descent instead.
     Accept linear search using points  2 and  3.
 Gradient too large for Newton-Raphson -- use scaled steepest descent instead.
     Accept linear search using points  1 and  2.
 LinEq1:  Iter=  0 NonCon=     1 RMS=5.22D-05 Max=1.73D-03 NDo=     1
 AX will form     1 AO Fock derivatives at one time.
 LinEq1:  Iter=  1 NonCon=     1 RMS=7.42D-05 Max=4.83D-03 NDo=     1
 LinEq1:  Iter=  2 NonCon=     1 RMS=2.03D-05 Max=7.97D-04 NDo=     1
 LinEq1:  Iter=  3 NonCon=     1 RMS=1.86D-05 Max=4.63D-04 NDo=     1
 LinEq1:  Iter=  4 NonCon=     1 RMS=6.62D-06 Max=1.53D-04 NDo=     1
 LinEq1:  Iter=  5 NonCon=     1 RMS=5.52D-06 Max=2.13D-04 NDo=     1
 LinEq1:  Iter=  6 NonCon=     1 RMS=2.79D-06 Max=4.12D-05 NDo=     1
 LinEq1:  Iter=  7 NonCon=     1 RMS=2.10D-06 Max=5.21D-05 NDo=     1
 LinEq1:  Iter=  8 NonCon=     1 RMS=1.19D-06 Max=3.26D-05 NDo=     1
 LinEq1:  Iter=  9 NonCon=     1 RMS=6.55D-07 Max=1.50D-05 NDo=     1
 LinEq1:  Iter= 10 NonCon=     1 RMS=4.37D-07 Max=9.70D-06 NDo=     1
 LinEq1:  Iter= 11 NonCon=     1 RMS=2.53D-07 Max=4.22D-06 NDo=     1
 LinEq1:  Iter= 12 NonCon=     1 RMS=1.71D-07 Max=7.53D-06 NDo=     1
 LinEq1:  Iter= 13 NonCon=     1 RMS=1.35D-07 Max=2.71D-06 NDo=     1
 LinEq1:  Iter= 14 NonCon=     1 RMS=5.43D-08 Max=1.44D-06 NDo=     1
 LinEq1:  Iter= 15 NonCon=     1 RMS=3.66D-08 Max=9.20D-07 NDo=     1
 LinEq1:  Iter= 16 NonCon=     1 RMS=1.26D-08 Max=2.16D-07 NDo=     1
 LinEq1:  Iter= 17 NonCon=     1 RMS=9.15D-09 Max=2.55D-07 NDo=     1
 LinEq1:  Iter= 18 NonCon=     0 RMS=2.56D-09 Max=3.54D-08 NDo=     1
 Linear equations converged to 1.319D-08 1.319D-07 after    18 iterations.
     Accept linear search using points  1 and  2.
     Minimum is close to point  2 DX= -3.30D-04 DF= -2.61D-12 DXR=  3.30D-04 DFR=  1.08D-07 which will be used.
 LinEq1:  Iter=  0 NonCon=     1 RMS=6.69D-08 Max=2.71D-06 NDo=     1
 LinEq1:  Iter=  1 NonCon=     1 RMS=7.61D-08 Max=3.75D-06 NDo=     1
 LinEq1:  Iter=  2 NonCon=     1 RMS=4.51D-08 Max=1.56D-06 NDo=     1
 LinEq1:  Iter=  3 NonCon=     1 RMS=1.80D-08 Max=3.71D-07 NDo=     1
 LinEq1:  Iter=  4 NonCon=     1 RMS=1.26D-08 Max=2.74D-07 NDo=     1
 LinEq1:  Iter=  5 NonCon=     1 RMS=8.97D-09 Max=3.06D-07 NDo=     1
 LinEq1:  Iter=  6 NonCon=     1 RMS=5.34D-09 Max=1.25D-07 NDo=     1
 LinEq1:  Iter=  7 NonCon=     1 RMS=3.14D-09 Max=1.00D-07 NDo=     1
 LinEq1:  Iter=  8 NonCon=     1 RMS=1.59D-09 Max=6.26D-08 NDo=     1
 LinEq1:  Iter=  9 NonCon=     1 RMS=1.19D-09 Max=3.09D-08 NDo=     1
 LinEq1:  Iter= 10 NonCon=     1 RMS=7.05D-10 Max=1.78D-08 NDo=     1
 LinEq1:  Iter= 11 NonCon=     1 RMS=4.69D-10 Max=1.25D-08 NDo=     1
 LinEq1:  Iter= 12 NonCon=     1 RMS=2.31D-10 Max=7.04D-09 NDo=     1
 LinEq1:  Iter= 13 NonCon=     1 RMS=1.66D-10 Max=4.70D-09 NDo=     1
 LinEq1:  Iter= 14 NonCon=     1 RMS=1.14D-10 Max=3.39D-09 NDo=     1
 LinEq1:  Iter= 15 NonCon=     1 RMS=6.08D-11 Max=1.34D-09 NDo=     1
 LinEq1:  Iter= 16 NonCon=     1 RMS=3.12D-11 Max=9.04D-10 NDo=     1
 LinEq1:  Iter= 17 NonCon=     1 RMS=2.14D-11 Max=7.22D-10 NDo=     1
 LinEq1:  Iter= 18 NonCon=     0 RMS=8.53D-12 Max=1.19D-10 NDo=     1
 Linear equations converged to 4.658D-11 4.658D-10 after    18 iterations.
 SCF Done:  E(RB3LYP) =  -702.740984172     a.u. after    9 cycles
            Convg  =    0.8081D-10                    55 Fock formations.
              S**2 =  0.0000                  -V/T =  2.0092

 **********************************************************************

            Population analysis using the SCF density.

 **********************************************************************

 Orbital symmetries:
       Occupied  (A) (A) (A) (A) (A) (A) (A) (A) (A) (A) (A) (A)
                 (A) (A) (A) (A) (A) (A) (A) (A) (A) (A) (A) (A)
                 (A) (A) (A) (A) (A) (A) (A) (A) (A) (A) (A) (A)
                 (A) (A) (A) (A) (A) (A) (A) (A) (A) (A) (A) (A)
                 (A) (A)
       Virtual   (A) (A) (A) (A) (A) (A) (A) (A) (A) (A) (A) (A)
                 (A) (A) (A) (A) (A) (A) (A) (A) (A) (A) (A) (A)
                 (A) (A) (A) (A) (A) (A) (A) (A) (A) (A) (A) (A)
                 (A) (A) (A) (A) (A) (A) (A) (A) (A) (A) (A) (A)
                 (A) (A) (A) (A) (A) (A) (A) (A) (A) (A) (A) (A)
                 (A) (A) (A) (A) (A) (A) (A) (A) (A) (A) (A) (A)
                 (A) (A) (A) (A) (A) (A) (A) (A) (A) (A) (A) (A)
                 (A) (A) (A) (A) (A) (A) (A) (A) (A) (A) (A) (A)
                 (A) (A) (A) (A) (A) (A) (A) (A) (A) (A) (A) (A)
                 (A) (A) (A) (A) (A) (A) (A) (A) (A) (A) (A) (A)
                 (A) (A) (A) (A) (A) (A) (A) (A) (A) (A) (A) (A)
                 (A) (A) (A) (A) (A) (A) (A) (A) (A) (A) (A) (A)
                 (A) (A) (A) (A) (A) (A) (A) (A) (A) (A) (A) (A)
                 (A) (A) (A) (A) (A) (A) (A) (A) (A) (A) (A) (A)
                 (A) (A) (A) (A) (A) (A)
 The electronic state is 1-A.
 Alpha  occ. eigenvalues --  -19.25381 -19.23974 -19.19897 -19.14757 -14.39873
 Alpha  occ. eigenvalues --  -10.33166 -10.27834 -10.26828 -10.26080 -10.24455
 Alpha  occ. eigenvalues --  -10.24192 -10.20888 -10.20792 -10.20679  -1.15655
 Alpha  occ. eigenvalues --   -1.13200  -1.10355  -1.01838  -0.88222  -0.83039
 Alpha  occ. eigenvalues --   -0.81562  -0.75780  -0.73983  -0.65794  -0.64318
 Alpha  occ. eigenvalues --   -0.61756  -0.59228  -0.56663  -0.55534  -0.50717
 Alpha  occ. eigenvalues --   -0.49404  -0.48787  -0.48140  -0.47784  -0.46313
 Alpha  occ. eigenvalues --   -0.45575  -0.43234  -0.42098  -0.41254  -0.40459
 Alpha  occ. eigenvalues --   -0.40414  -0.38444  -0.36019  -0.31491  -0.31115
 Alpha  occ. eigenvalues --   -0.30722  -0.30257  -0.29471  -0.28591  -0.22403
 Alpha virt. eigenvalues --   -0.06571  -0.03689   0.03479   0.07826   0.08627
 Alpha virt. eigenvalues --    0.10379   0.11307   0.11419   0.11863   0.12802
 Alpha virt. eigenvalues --    0.14680   0.15218   0.15662   0.16189   0.17477
 Alpha virt. eigenvalues --    0.18510   0.23870   0.24718   0.25820   0.27443
 Alpha virt. eigenvalues --    0.30547   0.35444   0.35760   0.37146   0.40719
 Alpha virt. eigenvalues --    0.43279   0.46856   0.49909   0.50400   0.51494
 Alpha virt. eigenvalues --    0.52409   0.53960   0.54164   0.55293   0.56152
 Alpha virt. eigenvalues --    0.56236   0.56791   0.57569   0.58561   0.59831
 Alpha virt. eigenvalues --    0.62267   0.62313   0.63174   0.63979   0.64022
 Alpha virt. eigenvalues --    0.68421   0.69182   0.71706   0.74864   0.75263
 Alpha virt. eigenvalues --    0.77401   0.78746   0.79705   0.80898   0.81584
 Alpha virt. eigenvalues --    0.83112   0.83643   0.85125   0.85269   0.87275
 Alpha virt. eigenvalues --    0.90271   0.91680   0.92569   0.94939   0.94952
 Alpha virt. eigenvalues --    0.97890   0.98191   0.99116   1.00137   1.02494
 Alpha virt. eigenvalues --    1.04367   1.05812   1.07890   1.08704   1.13431
 Alpha virt. eigenvalues --    1.14422   1.16261   1.19749   1.23024   1.23565
 Alpha virt. eigenvalues --    1.27386   1.28180   1.32635   1.34297   1.35665
 Alpha virt. eigenvalues --    1.36440   1.37998   1.39783   1.41603   1.43975
 Alpha virt. eigenvalues --    1.45945   1.48819   1.50764   1.52829   1.53165
 Alpha virt. eigenvalues --    1.54557   1.54912   1.57352   1.61865   1.66186
 Alpha virt. eigenvalues --    1.73561   1.74284   1.77691   1.78481   1.79470
 Alpha virt. eigenvalues --    1.79862   1.82961   1.85867   1.86823   1.88988
 Alpha virt. eigenvalues --    1.93504   1.94631   1.96731   1.99037   2.00879
 Alpha virt. eigenvalues --    2.02895   2.04175   2.05192   2.08964   2.09433
 Alpha virt. eigenvalues --    2.14011   2.15687   2.15794   2.16440   2.17385
 Alpha virt. eigenvalues --    2.18756   2.22153   2.22810   2.24978   2.26658
 Alpha virt. eigenvalues --    2.29315   2.29512   2.32733   2.33926   2.34520
 Alpha virt. eigenvalues --    2.45445   2.49021   2.51129   2.53343   2.59227
 Alpha virt. eigenvalues --    2.59272   2.59313   2.61288   2.62529   2.68832
 Alpha virt. eigenvalues --    2.68885   2.75378   2.76480   2.79459   2.81488
 Alpha virt. eigenvalues --    2.84785   2.86644   2.90912   2.95423   2.96218
 Alpha virt. eigenvalues --    2.97181   3.15006   3.17088   3.25093   3.29669
 Alpha virt. eigenvalues --    3.76998   3.96998   3.98217   4.04806   4.10914
 Alpha virt. eigenvalues --    4.18926   4.23856   4.25927   4.32625   4.39244
 Alpha virt. eigenvalues --    4.43191   4.49657   4.58683   4.70248
          Condensed to atoms (all electrons):
               1          2          3          4          5          6
     1  C    4.809350   0.445362  -0.036282  -0.028202  -0.077431   0.246183
     2  C    0.445362   5.250559   0.361584   0.427875  -0.060332  -0.079588
     3  H   -0.036282   0.361584   0.512471  -0.026610   0.005012   0.003329
     4  C   -0.028202   0.427875  -0.026610   4.906979   0.343358  -0.033386
     5  N   -0.077431  -0.060332   0.005012   0.343358   6.908035   0.118997
     6  O    0.246183  -0.079588   0.003329  -0.033386   0.118997   8.181420
     7  C    0.003748  -0.049440  -0.002463   0.317002  -0.053285   0.006316
     8  O    0.000608   0.002180   0.003467  -0.079266   0.002414  -0.000028
     9  O   -0.000024   0.003625   0.000049  -0.085613   0.001198   0.000012
    10  C   -0.000000  -0.000134  -0.000004   0.008142  -0.000216   0.000002
    11  C    0.363399  -0.046770  -0.002152   0.004371   0.004014  -0.046483
    12  O   -0.046460  -0.002071   0.001731   0.000170  -0.000015   0.000635
    13  C    0.005130   0.000043  -0.000006   0.000004   0.000000  -0.000013
    14  C    0.006108  -0.000328   0.000010   0.000007   0.000000   0.000191
    15  C   -0.067387   0.011444   0.000050  -0.000325  -0.000076  -0.002631
    16  H   -0.000000   0.000002  -0.000000   0.000100  -0.000025  -0.000000
    17  H   -0.000000  -0.000002  -0.000001  -0.000325   0.000011   0.000000
    18  H   -0.000000  -0.000002  -0.000001  -0.000326   0.000011   0.000000
    19  H   -0.000182  -0.000010  -0.000004  -0.000000  -0.000000   0.000000
    20  H   -0.000140   0.000000  -0.000000  -0.000000   0.000000  -0.000000
    21  H   -0.004171   0.000055  -0.000006   0.000011  -0.000031   0.002040
               7          8          9         10         11         12
     1  C    0.003748   0.000608  -0.000024  -0.000000   0.363399  -0.046460
     2  C   -0.049440   0.002180   0.003625  -0.000134  -0.046770  -0.002071
     3  H   -0.002463   0.003467   0.000049  -0.000004  -0.002152   0.001731
     4  C    0.317002  -0.079266  -0.085613   0.008142   0.004371   0.000170
     5  N   -0.053285   0.002414   0.001198  -0.000216   0.004014  -0.000015
     6  O    0.006316  -0.000028   0.000012   0.000002  -0.046483   0.000635
     7  C    4.388992   0.544110   0.263455  -0.022481  -0.000257  -0.000001
     8  O    0.544110   8.081343  -0.083912   0.003719  -0.000003   0.000000
     9  O    0.263455  -0.083912   8.231637   0.214125  -0.000000   0.000000
    10  C   -0.022481   0.003719   0.214125   4.887928  -0.000000  -0.000000
    11  C   -0.000257  -0.000003  -0.000000  -0.000000   4.760359   0.331822
    12  O   -0.000001   0.000000   0.000000  -0.000000   0.331822   8.021174
    13  C    0.000000  -0.000000  -0.000000   0.000000  -0.097648   0.317075
    14  C   -0.000000   0.000000   0.000000  -0.000000  -0.030720  -0.044611
    15  C   -0.000001   0.000000  -0.000000   0.000000   0.491694  -0.097096
    16  H    0.004421   0.000597  -0.029953   0.377470   0.000000  -0.000000
    17  H   -0.005995   0.005746  -0.031959   0.374767  -0.000000   0.000000
    18  H   -0.005989   0.005726  -0.031969   0.374795  -0.000000   0.000000
    19  H   -0.000000  -0.000000  -0.000000   0.000000   0.003971  -0.037833
    20  H    0.000000  -0.000000  -0.000000   0.000000   0.004036   0.003317
    21  H   -0.000000   0.000000  -0.000000  -0.000000  -0.037047   0.003247
              13         14         15         16         17         18
     1  C    0.005130   0.006108  -0.067387  -0.000000  -0.000000  -0.000000
     2  C    0.000043  -0.000328   0.011444   0.000002  -0.000002  -0.000002
     3  H   -0.000006   0.000010   0.000050  -0.000000  -0.000001  -0.000001
     4  C    0.000004   0.000007  -0.000325   0.000100  -0.000325  -0.000326
     5  N    0.000000   0.000000  -0.000076  -0.000025   0.000011   0.000011
     6  O   -0.000013   0.000191  -0.002631  -0.000000   0.000000   0.000000
     7  C    0.000000  -0.000000  -0.000001   0.004421  -0.005995  -0.005989
     8  O   -0.000000   0.000000   0.000000   0.000597   0.005746   0.005726
     9  O   -0.000000   0.000000  -0.000000  -0.029953  -0.031959  -0.031969
    10  C    0.000000  -0.000000   0.000000   0.377470   0.374767   0.374795
    11  C   -0.097648  -0.030720   0.491694   0.000000  -0.000000  -0.000000
    12  O    0.317075  -0.044611  -0.097096  -0.000000   0.000000   0.000000
    13  C    4.817835   0.575407  -0.058326   0.000000  -0.000000  -0.000000
    14  C    0.575407   4.920880   0.470256  -0.000000   0.000000   0.000000
    15  C   -0.058326   0.470256   5.086770  -0.000000  -0.000000  -0.000000
    16  H    0.000000  -0.000000  -0.000000   0.544523  -0.033660  -0.033667
    17  H   -0.000000   0.000000  -0.000000  -0.033660   0.555572  -0.034755
    18  H   -0.000000   0.000000  -0.000000  -0.033667  -0.034755   0.555591
    19  H    0.375235  -0.041208   0.003744   0.000000  -0.000000  -0.000000
    20  H   -0.037136   0.362233  -0.030632  -0.000000   0.000000   0.000000
    21  H    0.005768  -0.037061   0.367890   0.000000  -0.000000  -0.000000
              19         20         21
     1  C   -0.000182  -0.000140  -0.004171
     2  C   -0.000010   0.000000   0.000055
     3  H   -0.000004  -0.000000  -0.000006
     4  C   -0.000000  -0.000000   0.000011
     5  N   -0.000000   0.000000  -0.000031
     6  O    0.000000  -0.000000   0.002040
     7  C   -0.000000   0.000000  -0.000000
     8  O   -0.000000  -0.000000   0.000000
     9  O   -0.000000  -0.000000  -0.000000
    10  C    0.000000   0.000000  -0.000000
    11  C    0.003971   0.004036  -0.037047
    12  O   -0.037833   0.003317   0.003247
    13  C    0.375235  -0.037136   0.005768
    14  C   -0.041208   0.362233  -0.037061
    15  C    0.003744  -0.030632   0.367890
    16  H    0.000000  -0.000000   0.000000
    17  H   -0.000000   0.000000  -0.000000
    18  H   -0.000000   0.000000  -0.000000
    19  H    0.526103  -0.000108  -0.000103
    20  H   -0.000108   0.544954  -0.001760
    21  H   -0.000103  -0.001760   0.534541
 Mulliken charges:
               1
     1  C    0.380393
     2  C   -0.264053
     3  H    0.179822
     4  C    0.246034
     5  N   -0.191639
     6  O   -0.396996
     7  C    0.611868
     8  O   -0.486702
     9  O   -0.450671
    10  C   -0.218114
    11  C    0.297413
    12  O   -0.451083
    13  C    0.096632
    14  C   -0.181164
    15  C   -0.175374
    16  H    0.170192
    17  H    0.170600
    18  H    0.170585
    19  H    0.170395
    20  H    0.155236
    21  H    0.166625
 Sum of Mulliken charges =   0.00000
 Mulliken charges with hydrogens summed into heavy atoms:
               1
     1  C    0.380393
     2  C   -0.084231
     4  C    0.246034
     5  N   -0.191639
     6  O   -0.396996
     7  C    0.611868
     8  O   -0.486702
     9  O   -0.450671
    10  C    0.293263
    11  C    0.297413
    12  O   -0.451083
    13  C    0.267028
    14  C   -0.025928
    15  C   -0.008748
 Electronic spatial extent (au):  <R**2>=           3859.9665
 Charge=              0.0000 electrons
 Dipole moment (field-independent basis, Debye):
    X=             -2.3392    Y=              0.5040    Z=              0.0042  Tot=              2.3929
 Quadrupole moment (field-independent basis, Debye-Ang):
   XX=            -51.7054   YY=            -82.9695   ZZ=            -78.8675
   XY=             -2.7606   XZ=             -0.0008   YZ=             -0.0012
 Traceless Quadrupole moment (field-independent basis, Debye-Ang):
   XX=             19.4754   YY=            -11.7887   ZZ=             -7.6867
   XY=             -2.7606   XZ=             -0.0008   YZ=             -0.0012
 Octapole moment (field-independent basis, Debye-Ang**2):
  XXX=             17.9477  YYY=              3.2511  ZZZ=             -0.0046  XYY=            -27.6922
  XXY=             -4.8561  XXZ=              0.1130  XZZ=             17.3200  YZZ=              1.6436
  YYZ=              0.0124  XYZ=              0.0016
 Hexadecapole moment (field-independent basis, Debye-Ang**3):
 XXXX=          -3394.3546 YYYY=           -495.4594 ZZZZ=            -78.7955 XXXY=            -98.7641
 XXXZ=             -0.0636 YYYX=            -29.5716 YYYZ=             -0.0056 ZZZX=              0.0463
 ZZZY=              0.0071 XXYY=           -798.7631 XXZZ=           -769.2360 YYZZ=            -96.4144
 XXYZ=             -0.0083 YYXZ=             -0.0060 ZZXY=              1.7847
 N-N= 8.231835140379D+02 E-N=-3.286772557860D+03  KE= 6.963120569858D+02
 Calling FoFJK, ICntrl=      2127 FMM=F ISym2X=0 I1Cent= 0 IOpClX= 0 NMat=1 NMatS=1 NMatT=0.
 ***** Axes restored to original set *****
 -------------------------------------------------------------------
 Center     Atomic                   Forces (Hartrees/Bohr)
 Number     Number              X              Y              Z
 -------------------------------------------------------------------
      1        6          -0.021510676    0.028811404   -0.000271758
      2        6          -0.004916135   -0.000318509    0.000111976
      3        1           0.001208491    0.001154390    0.000003705
      4        6           0.022305528   -0.030707896    0.000040122
      5        7          -0.011550101    0.011230233   -0.000027733
      6        8          -0.004420244   -0.012755510    0.000102733
      7        6          -0.010801010    0.029254575   -0.000076917
      8        8           0.020467835   -0.007678169    0.000039300
      9        8          -0.010225847   -0.014436884    0.000027338
     10        6           0.000391955    0.009576090   -0.000020697
     11        6           0.025210704   -0.028761716    0.000134563
     12        8          -0.000284027    0.015631692   -0.000027809
     13        6           0.007882791   -0.003940357    0.000019398
     14        6          -0.011155073   -0.001029997   -0.000013653
     15        6           0.000744808    0.008532845   -0.000012599
     16        1           0.001962250   -0.006092309    0.000008451
     17        1          -0.003057911   -0.000269346   -0.002446186
     18        1          -0.003069171   -0.000245541    0.002432823
     19        1           0.001299351    0.001141391   -0.000010924
     20        1           0.000076966    0.000246818   -0.000008040
     21        1          -0.000560484    0.000656796   -0.000004093
 -------------------------------------------------------------------
 Cartesian Forces:  Max     0.030707896 RMS     0.010628538

 GradGradGradGradGradGradGradGradGradGradGradGradGradGradGradGradGradGrad
 Berny optimization.
 FormGI is forming the generalized inverse of G from B-inverse, IUseBI=4.
 Internal  Forces:  Max     0.021855443 RMS     0.005720975
 Search for a local minimum.
 Step number   1 out of a maximum of  108
 All quantities printed in internal units (Hartrees-Bohrs-Radians)
 Mixed Optimization -- RFO/linear search
 Second derivative matrix not updated -- first step.
 ITU=  0
     Eigenvalues ---    0.01273   0.01344   0.01564   0.01693   0.01698
     Eigenvalues ---    0.01966   0.01980   0.02019   0.02060   0.02127
     Eigenvalues ---    0.02131   0.02162   0.02196   0.02217   0.02259
     Eigenvalues ---    0.02404   0.10110   0.10515   0.16000   0.16000
     Eigenvalues ---    0.16000   0.16000   0.16000   0.16000   0.16000
     Eigenvalues ---    0.22195   0.23792   0.24039   0.25000   0.25000
     Eigenvalues ---    0.25000   0.25000   0.25000   0.25000   0.25000
     Eigenvalues ---    0.34316   0.34317   0.34395   0.35766   0.35837
     Eigenvalues ---    0.35873   0.35910   0.36757   0.40283   0.40762
     Eigenvalues ---    0.41056   0.41523   0.43369   0.45514   0.48033
     Eigenvalues ---    0.48175   0.50050   0.50113   0.51595   0.52114
     Eigenvalues ---    0.55011   0.92197
 RFO step:  Lambda=-9.51661024D-03 EMin= 1.27311148D-02
 Linear search not attempted -- first point.
 Iteration  1 RMS(Cart)=  0.03332297 RMS(Int)=  0.00063148
 Iteration  2 RMS(Cart)=  0.00121635 RMS(Int)=  0.00003856
 Iteration  3 RMS(Cart)=  0.00000004 RMS(Int)=  0.00003856
 Variable       Old X    -DE/DX   Delta X   Delta X   Delta X     New X
                                 (Linear)    (Quad)   (Total)
    R1        2.60279  -0.00821   0.00000  -0.01563  -0.01559   2.58720
    R2        2.58237  -0.00748   0.00000  -0.01387  -0.01391   2.56846
    R3        2.70144   0.00088   0.00000   0.00211   0.00211   2.70354
    R4        2.04223  -0.00117   0.00000  -0.00318  -0.00318   2.03905
    R5        2.68172  -0.00348   0.00000  -0.00801  -0.00794   2.67378
    R6        2.53786  -0.01513   0.00000  -0.02685  -0.02684   2.51102
    R7        2.76214   0.01084   0.00000   0.02875   0.02875   2.79089
    R8        2.60769   0.00000   0.00000  -0.00036  -0.00044   2.60726
    R9        2.31937  -0.02186   0.00000  -0.02346  -0.02346   2.29590
   R10        2.58289  -0.01808   0.00000  -0.03440  -0.03440   2.54849
   R11        2.69535   0.00369   0.00000   0.00870   0.00870   2.70405
   R12        2.06668  -0.00135   0.00000  -0.00383  -0.00383   2.06285
   R13        2.06800  -0.00052   0.00000  -0.00146  -0.00146   2.06654
   R14        2.06799  -0.00051   0.00000  -0.00144  -0.00144   2.06654
   R15        2.59251  -0.00678   0.00000  -0.01382  -0.01376   2.57874
   R16        2.61777  -0.00853   0.00000  -0.01761  -0.01756   2.60021
   R17        2.56417   0.00147   0.00000   0.00251   0.00250   2.56667
   R18        2.59460  -0.00622   0.00000  -0.01158  -0.01164   2.58296
   R19        2.04337  -0.00166   0.00000  -0.00451  -0.00451   2.03886
   R20        2.67506   0.00462   0.00000   0.01110   0.01108   2.68614
   R21        2.04281  -0.00022   0.00000  -0.00059  -0.00059   2.04222
   R22        2.04448  -0.00056   0.00000  -0.00152  -0.00152   2.04296
    A1        1.88142   0.00640   0.00000   0.02730   0.02731   1.90873
    A2        2.25347   0.01303   0.00000   0.04887   0.04887   2.30234
    A3        2.14829  -0.01943   0.00000  -0.07618  -0.07618   2.07211
    A4        2.21375   0.00571   0.00000   0.02564   0.02558   2.23933
    A5        1.84193  -0.00899   0.00000  -0.03692  -0.03680   1.80513
    A6        2.22751   0.00328   0.00000   0.01128   0.01122   2.23873
    A7        1.92442   0.00951   0.00000   0.03639   0.03647   1.96088
    A8        2.21697  -0.00631   0.00000  -0.02419  -0.02423   2.19274
    A9        2.14180  -0.00320   0.00000  -0.01220  -0.01224   2.12956
   A10        1.85172  -0.00418   0.00000  -0.01749  -0.01756   1.83416
   A11        1.92529  -0.00274   0.00000  -0.00928  -0.00942   1.91587
   A12        2.14367   0.00029   0.00000   0.00113   0.00113   2.14479
   A13        1.97525  -0.00170   0.00000  -0.00655  -0.00655   1.96870
   A14        2.16427   0.00141   0.00000   0.00542   0.00542   2.16969
   A15        1.99984   0.00096   0.00000   0.00370   0.00370   2.00354
   A16        1.88431  -0.00852   0.00000  -0.04796  -0.04789   1.83641
   A17        1.92953   0.00150   0.00000   0.00764   0.00768   1.93721
   A18        1.92938   0.00152   0.00000   0.00779   0.00784   1.93722
   A19        1.89210   0.00444   0.00000   0.02852   0.02858   1.92068
   A20        1.89214   0.00443   0.00000   0.02846   0.02853   1.92067
   A21        1.93488  -0.00339   0.00000  -0.02420  -0.02417   1.91070
   A22        2.14741  -0.02055   0.00000  -0.07854  -0.07859   2.06882
   A23        2.24064   0.01287   0.00000   0.05026   0.05021   2.29085
   A24        1.89514   0.00768   0.00000   0.02828   0.02837   1.92351
   A25        1.88003  -0.00468   0.00000  -0.01995  -0.01990   1.86013
   A26        1.92854   0.00172   0.00000   0.00856   0.00848   1.93702
   A27        2.01818  -0.00136   0.00000  -0.00719  -0.00715   2.01103
   A28        2.33646  -0.00037   0.00000  -0.00137  -0.00133   2.33514
   A29        1.84908  -0.00025   0.00000   0.00155   0.00146   1.85055
   A30        2.20536   0.00027   0.00000   0.00006   0.00011   2.20547
   A31        2.22874  -0.00002   0.00000  -0.00161  -0.00157   2.22717
   A32        1.87199  -0.00447   0.00000  -0.01844  -0.01842   1.85357
   A33        2.19206   0.00156   0.00000   0.00525   0.00524   2.19730
   A34        2.21914   0.00291   0.00000   0.01319   0.01318   2.23231
    D1        3.14139   0.00002   0.00000   0.00054   0.00054  -3.14126
    D2       -0.00113   0.00005   0.00000   0.00162   0.00161   0.00048
    D3        0.00069  -0.00001   0.00000  -0.00044  -0.00048   0.00021
    D4        3.14135   0.00003   0.00000   0.00064   0.00059  -3.14124
    D5        0.00100  -0.00004   0.00000  -0.00135  -0.00137  -0.00036
    D6       -3.14142  -0.00000   0.00000  -0.00037  -0.00043   3.14134
    D7       -0.00072   0.00003   0.00000   0.00074   0.00072  -0.00000
    D8       -3.14140   0.00001   0.00000   0.00047   0.00047  -3.14093
    D9       -3.14130  -0.00001   0.00000  -0.00044  -0.00043   3.14145
   D10        0.00121  -0.00002   0.00000  -0.00070  -0.00069   0.00052
   D11        0.00091  -0.00004   0.00000  -0.00137  -0.00137  -0.00046
   D12       -3.14058  -0.00004   0.00000  -0.00114  -0.00113   3.14147
   D13        3.14156  -0.00000   0.00000  -0.00026  -0.00029   3.14128
   D14        0.00008   0.00000   0.00000  -0.00004  -0.00005   0.00003
   D15       -0.00031   0.00001   0.00000   0.00054   0.00056   0.00025
   D16        3.14118   0.00001   0.00000   0.00033   0.00033   3.14152
   D17       -0.00028  -0.00000   0.00000  -0.00020  -0.00021  -0.00049
   D18        3.14115   0.00000   0.00000   0.00005   0.00005   3.14119
   D19        3.14143   0.00000   0.00000   0.00005   0.00005   3.14148
   D20       -0.00033   0.00001   0.00000   0.00030   0.00030  -0.00003
   D21       -0.00042   0.00002   0.00000   0.00050   0.00049   0.00007
   D22       -3.14121  -0.00001   0.00000  -0.00032  -0.00032  -3.14153
   D23        0.00022  -0.00000   0.00000  -0.00006  -0.00006   0.00016
   D24        3.14089  -0.00000   0.00000   0.00004   0.00004   3.14093
   D25        1.07386  -0.00111   0.00000  -0.01000  -0.00997   1.06389
   D26       -1.07530   0.00111   0.00000   0.01012   0.01008  -1.06522
   D27       -3.14065  -0.00003   0.00000  -0.00061  -0.00059  -3.14125
   D28        0.00018  -0.00001   0.00000  -0.00037  -0.00037  -0.00018
   D29        3.14060   0.00001   0.00000   0.00058   0.00058   3.14118
   D30       -0.00069  -0.00000   0.00000   0.00016   0.00017  -0.00051
   D31       -0.00019   0.00001   0.00000   0.00039   0.00039   0.00021
   D32       -3.14147   0.00000   0.00000  -0.00002  -0.00002  -3.14149
   D33       -0.00011   0.00001   0.00000   0.00020   0.00020   0.00008
   D34        3.14137   0.00001   0.00000   0.00031   0.00031  -3.14150
   D35       -0.00000   0.00000   0.00000   0.00005   0.00005   0.00004
   D36        3.14145   0.00000   0.00000   0.00013   0.00013   3.14158
   D37       -3.14146  -0.00000   0.00000  -0.00010  -0.00010  -3.14156
   D38       -0.00001  -0.00000   0.00000  -0.00002  -0.00002  -0.00002
   D39        0.00012  -0.00001   0.00000  -0.00027  -0.00027  -0.00015
   D40        3.14139   0.00000   0.00000   0.00015   0.00015   3.14155
   D41       -3.14133  -0.00001   0.00000  -0.00035  -0.00035   3.14150
   D42       -0.00005   0.00000   0.00000   0.00007   0.00007   0.00002
         Item               Value     Threshold  Converged?
 Maximum Force            0.021855     0.000450     NO 
 RMS     Force            0.005721     0.000300     NO 
 Maximum Displacement     0.160835     0.001800     NO 
 RMS     Displacement     0.033868     0.001200     NO 
 Predicted change in Energy=-4.918725D-03
 GradGradGradGradGradGradGradGradGradGradGradGradGradGradGradGradGradGrad

                          Input orientation:                          
 ---------------------------------------------------------------------
 Center     Atomic      Atomic             Coordinates (Angstroms)
 Number     Number       Type             X           Y           Z
 ---------------------------------------------------------------------
      1          6           0       -0.485198   -1.050688    0.005247
      2          6           0       -1.277800    0.065631    0.001930
      3          1           0       -2.355410    0.120765    0.000935
      4          6           0       -0.345843    1.130246   -0.000085
      5          7           0        0.911678    0.700974    0.002406
      6          8           0        0.821235   -0.675756    0.005822
      7          6           0       -0.682243    2.568291   -0.004036
      8          8           0       -1.825921    2.978260   -0.006468
      9          8           0        0.409288    3.360305   -0.004731
     10          6           0        0.132085    4.764115   -0.008442
     11          6           0       -0.799976   -2.446279    0.008130
     12          8           0       -2.112874   -2.818392    0.007708
     13          6           0       -2.130732   -4.176494    0.011243
     14          6           0       -0.861077   -4.682679    0.014025
     15          6           0        0.009447   -3.558987    0.012139
     16          1           0        1.109948    5.249300   -0.007825
     17          1           0       -0.431080    5.054622    0.882811
     18          1           0       -0.427917    5.050536   -0.903010
     19          1           0       -3.112738   -4.623405    0.011283
     20          1           0       -0.588163   -5.728341    0.017091
     21          1           0        1.090532   -3.556393    0.013427
 ---------------------------------------------------------------------
                    Distance matrix (angstroms):
                    1          2          3          4          5
     1  C    0.000000
     2  C    1.369087   0.000000
     3  H    2.206811   1.079020   0.000000
     4  C    2.185388   1.414904   2.248870   0.000000
     5  N    2.240444   2.279797   3.318210   1.328774   0.000000
     6  O    1.359169   2.226122   3.274988   2.150291   1.379702
     7  C    3.624351   2.572553   2.964776   1.476873   2.455097
     8  O    4.246186   2.963766   2.906147   2.367663   3.560978
     9  O    4.500785   3.701511   4.258898   2.354444   2.706379
    10  C    5.847492   4.905470   5.267678   3.665173   4.137270
    11  C    1.430653   2.556961   3.001523   3.605251   3.582596
    12  O    2.402939   3.002495   2.949155   4.325991   4.640461
    13  C    3.532490   4.327033   4.303141   5.598879   5.748568
    14  C    3.651399   4.766577   5.030534   5.835731   5.668025
    15  C    2.556615   3.846422   4.374156   4.702689   4.354466
    16  H    6.498808   5.707175   6.189560   4.368752   4.552657
    17  H    6.168294   5.136430   5.368770   4.023369   4.640298
    18  H    6.168723   5.137168   5.369822   4.023765   4.640365
    19  H    4.434897   5.035290   4.804248   6.384382   6.674206
    20  H    4.678801   5.834891   6.110276   6.862888   6.601957
    21  H    2.959991   4.327607   5.039460   4.901830   4.261136
                    6          7          8          9         10
     6  O    0.000000
     7  C    3.575526   0.000000
     8  O    4.512142   1.214940   0.000000
     9  O    4.057043   1.348602   2.267625   0.000000
    10  C    5.483369   2.341964   2.650108   1.430923   0.000000
    11  C    2.400642   5.015966   5.520724   5.931180   7.270406
    12  O    3.633165   5.573437   5.803768   6.673661   7.907877
    13  C    4.579225   6.898585   7.161266   7.953320   9.222539
    14  C    4.345764   7.253197   7.721484   8.142712   9.498884
    15  C    2.995339   6.166217   6.790030   6.930855   8.324031
    16  H    5.932102   3.224867   3.711731   2.014754   1.091613
    17  H    5.930821   2.651683   2.654746   2.089177   1.093564
    18  H    5.931002   2.652240   2.655660   2.089187   1.093568
    19  H    5.573160   7.591313   7.709833   8.726085   9.932513
    20  H    5.245488   8.297193   8.794175   9.143242  10.517179
    21  H    2.893206   6.376110   7.155961   6.950189   8.375557
                   11         12         13         14         15
    11  C    0.000000
    12  O    1.364613   0.000000
    13  C    2.182789   1.358224   0.000000
    14  C    2.237242   2.245573   1.366841   0.000000
    15  C    1.375972   2.247831   2.227483   1.421442   0.000000
    16  H    7.929060   8.687605   9.967345  10.125690   8.876790
    17  H    7.560731   8.098060   9.426662   9.785433   8.668701
    18  H    7.561140   8.098674   9.427276   9.785911   8.669064
    19  H    3.176280   2.063447   1.078919   2.252444   3.298640
    20  H    3.288903   3.285215   2.188101   1.080695   2.250169
    21  H    2.192351   3.287322   3.280407   2.253285   1.081089
                   16         17         18         19         20
    16  H    0.000000
    17  H    1.790502   0.000000
    18  H    1.790501   1.785828   0.000000
    19  H   10.737865  10.080429  10.081138   0.000000
    20  H   11.108231  10.818800  10.819264   2.755794   0.000000
    21  H    8.805739   8.787531   8.787762   4.336589   2.745066
                   21
    21  H    0.000000
 Stoichiometry    C9H7NO4
 Framework group  C1[X(C9H7NO4)]
 Deg. of freedom    57
 Full point group                 C1      NOp   1
 Largest Abelian subgroup         C1      NOp   1
 Largest concise Abelian subgroup C1      NOp   1
                         Standard orientation:                         
 ---------------------------------------------------------------------
 Center     Atomic      Atomic             Coordinates (Angstroms)
 Number     Number       Type             X           Y           Z
 ---------------------------------------------------------------------
      1          6           0       -0.879790   -0.214049   -0.000027
      2          6           0        0.127548    0.713134    0.000347
      3          1           0        0.046208    1.789084    0.000718
      4          6           0        1.301295   -0.076974   -0.000070
      5          7           0        1.034198   -1.378627   -0.000084
      6          8           0       -0.342940   -1.462702   -0.000003
      7          6           0        2.685375    0.438270   -0.000046
      8          8           0        2.947694    1.624554   -0.000152
      9          8           0        3.608844   -0.544549   -0.000006
     10          6           0        4.966436   -0.092349    0.000104
     11          6           0       -2.303956   -0.077964   -0.000271
     12          8           0       -2.838827    1.177457   -0.000127
     13          6           0       -4.188323    1.023729    0.000036
     14          6           0       -4.530185   -0.299670    0.000108
     15          6           0       -3.305589   -1.021378    0.000037
     16          1           0        5.571178   -1.001143    0.000820
     17          1           0        5.181445    0.501694    0.892721
     18          1           0        5.181959    0.500622   -0.893107
     19          1           0       -4.755623    1.941463    0.000079
     20          1           0       -5.533036   -0.702403    0.000251
     21          1           0       -3.166546   -2.093489    0.000100
 ---------------------------------------------------------------------
 Rotational constants (GHZ):           2.8014242           0.2959405           0.2681210
 Standard basis: 6-31G(d) (6D, 7F)
 There are   224 symmetry adapted cartesian basis functions of A   symmetry.
 There are   224 symmetry adapted basis functions of A   symmetry.
   224 basis functions,   420 primitive gaussians,   224 cartesian basis functions
    50 alpha electrons       50 beta electrons
       nuclear repulsion energy       827.2910359246 Hartrees.
 NAtoms=   21 NActive=   21 NUniq=   21 SFac= 1.00D+00 NAtFMM=   60 NAOKFM=F Big=F
 Integral buffers will be    131072 words long.
 Raffenetti 2 integral format.
 Two-electron integral symmetry is turned on.
 One-electron integrals computed using PRISM.
 NBasis=   224 RedAO= T EigKep=  6.21D-04  NBF=   224
 NBsUse=   224 1.00D-06 EigRej= -1.00D+00 NBFU=   224
 Initial guess from the checkpoint file:  "science_add_211.chk"
 B after Tr=    -0.000000    0.000000   -0.000000
         Rot=    0.999999   -0.000012   -0.000001    0.001363 Ang=  -0.16 deg.
 ExpMin= 1.61D-01 ExpMax= 5.48D+03 ExpMxC= 8.25D+02 IAcc=2 IRadAn=         4 AccDes= 0.00D+00
 Harris functional with IExCor=  402 and IRadAn=       4 diagonalized for initial guess.
 HarFok:  IExCor=  402 AccDes= 0.00D+00 IRadAn=         4 IDoV= 1 UseB2=F ITyADJ=14
 ICtDFT=  3500011 ScaDFX=  1.000000  1.000000  1.000000  1.000000
 FoFCou: FMM=F IPFlag=           0 FMFlag=      100000 FMFlg1=           0
         NFxFlg=           0 DoJE=T BraDBF=F KetDBF=T FulRan=T
         wScrn=  0.000000 ICntrl=       500 IOpCl=  0 I1Cent=   200000004 NGrid=           0
         NMat0=    1 NMatS0=      1 NMatT0=    0 NMatD0=    1 NMtDS0=    0 NMtDT0=    0
 Petite list used in FoFCou.
 Keep R1 ints in memory in canonical form, NReq=323229650.
 Gradient too large for Newton-Raphson -- use scaled steepest descent instead.
     Minimum is close to point  4 DX=  4.52D-02 DF= -2.23D-06 DXR=  3.63D-02 DFR=  1.32D-03 which will be used.
 Gradient too large for Newton-Raphson -- use scaled steepest descent instead.
 Gradient too large for Newton-Raphson -- use scaled steepest descent instead.
     Accept linear search using points  1 and  2.
 Gradient too large for Newton-Raphson -- use scaled steepest descent instead.
     Accept linear search using points  1 and  2.
     Minimum is close to point  2 DX= -6.24D-02 DF= -3.12D-07 DXR=  8.46D-02 DFR=  4.51D-03 which will be used.
 LinEq1:  Iter=  0 NonCon=     1 RMS=1.07D-04 Max=3.69D-03 NDo=     1
 AX will form     1 AO Fock derivatives at one time.
 LinEq1:  Iter=  1 NonCon=     1 RMS=4.14D-05 Max=1.12D-03 NDo=     1
 LinEq1:  Iter=  2 NonCon=     1 RMS=1.83D-05 Max=4.82D-04 NDo=     1
 LinEq1:  Iter=  3 NonCon=     1 RMS=1.52D-05 Max=4.45D-04 NDo=     1
 LinEq1:  Iter=  4 NonCon=     1 RMS=7.31D-06 Max=2.28D-04 NDo=     1
 LinEq1:  Iter=  5 NonCon=     1 RMS=5.73D-06 Max=2.82D-04 NDo=     1
 LinEq1:  Iter=  6 NonCon=     1 RMS=3.21D-06 Max=1.03D-04 NDo=     1
 LinEq1:  Iter=  7 NonCon=     1 RMS=2.28D-06 Max=5.64D-05 NDo=     1
 LinEq1:  Iter=  8 NonCon=     1 RMS=1.65D-06 Max=3.96D-05 NDo=     1
 LinEq1:  Iter=  9 NonCon=     1 RMS=1.14D-06 Max=3.25D-05 NDo=     1
 LinEq1:  Iter= 10 NonCon=     1 RMS=7.50D-07 Max=2.38D-05 NDo=     1
 LinEq1:  Iter= 11 NonCon=     1 RMS=4.61D-07 Max=1.19D-05 NDo=     1
 LinEq1:  Iter= 12 NonCon=     1 RMS=2.81D-07 Max=4.52D-06 NDo=     1
 LinEq1:  Iter= 13 NonCon=     1 RMS=1.97D-07 Max=5.05D-06 NDo=     1
 LinEq1:  Iter= 14 NonCon=     1 RMS=1.08D-07 Max=2.73D-06 NDo=     1
 LinEq1:  Iter= 15 NonCon=     1 RMS=6.09D-08 Max=1.53D-06 NDo=     1
 LinEq1:  Iter= 16 NonCon=     1 RMS=3.59D-08 Max=8.84D-07 NDo=     1
 LinEq1:  Iter= 17 NonCon=     1 RMS=1.88D-08 Max=4.63D-07 NDo=     1
 LinEq1:  Iter= 18 NonCon=     1 RMS=8.63D-09 Max=2.10D-07 NDo=     1
 LinEq1:  Iter= 19 NonCon=     0 RMS=3.64D-09 Max=7.96D-08 NDo=     1
 Linear equations converged to 1.319D-08 1.319D-07 after    19 iterations.
     Minimum is close to point  2 DX=  1.48D-04 DF= -2.16D-12 DXR=  1.48D-04 DFR=  2.12D-08 which will be used.
 LinEq1:  Iter=  0 NonCon=     1 RMS=2.27D-07 Max=1.54D-05 NDo=     1
 LinEq1:  Iter=  1 NonCon=     1 RMS=1.58D-07 Max=7.19D-06 NDo=     1
 LinEq1:  Iter=  2 NonCon=     1 RMS=1.25D-07 Max=3.97D-06 NDo=     1
 LinEq1:  Iter=  3 NonCon=     1 RMS=7.13D-08 Max=2.43D-06 NDo=     1
 LinEq1:  Iter=  4 NonCon=     1 RMS=4.50D-08 Max=1.48D-06 NDo=     1
 LinEq1:  Iter=  5 NonCon=     1 RMS=3.12D-08 Max=1.40D-06 NDo=     1
 LinEq1:  Iter=  6 NonCon=     1 RMS=2.10D-08 Max=7.40D-07 NDo=     1
 LinEq1:  Iter=  7 NonCon=     1 RMS=1.21D-08 Max=2.11D-07 NDo=     1
 LinEq1:  Iter=  8 NonCon=     1 RMS=6.30D-09 Max=1.35D-07 NDo=     1
 LinEq1:  Iter=  9 NonCon=     1 RMS=4.96D-09 Max=1.49D-07 NDo=     1
 LinEq1:  Iter= 10 NonCon=     1 RMS=2.87D-09 Max=6.60D-08 NDo=     1
 LinEq1:  Iter= 11 NonCon=     1 RMS=1.70D-09 Max=3.71D-08 NDo=     1
 LinEq1:  Iter= 12 NonCon=     1 RMS=9.22D-10 Max=1.99D-08 NDo=     1
 LinEq1:  Iter= 13 NonCon=     1 RMS=7.13D-10 Max=2.06D-08 NDo=     1
 LinEq1:  Iter= 14 NonCon=     1 RMS=4.01D-10 Max=1.23D-08 NDo=     1
 LinEq1:  Iter= 15 NonCon=     1 RMS=2.10D-10 Max=6.59D-09 NDo=     1
 LinEq1:  Iter= 16 NonCon=     1 RMS=1.02D-10 Max=2.56D-09 NDo=     1
 LinEq1:  Iter= 17 NonCon=     0 RMS=4.87D-11 Max=1.11D-09 NDo=     1
 Linear equations converged to 1.407D-10 1.407D-09 after    17 iterations.
 SCF Done:  E(RB3LYP) =  -702.746753397     a.u. after    7 cycles
            Convg  =    0.8645D-10                    50 Fock formations.
              S**2 =  0.0000                  -V/T =  2.0089
 Calling FoFJK, ICntrl=      2127 FMM=F ISym2X=0 I1Cent= 0 IOpClX= 0 NMat=1 NMatS=1 NMatT=0.
 ***** Axes restored to original set *****
 -------------------------------------------------------------------
 Center     Atomic                   Forces (Hartrees/Bohr)
 Number     Number              X              Y              Z
 -------------------------------------------------------------------
      1        6          -0.007302178    0.006579669    0.000008632
      2        6          -0.000644053   -0.001233753   -0.000039919
      3        1           0.000800715    0.000775359   -0.000013834
      4        6           0.009963022   -0.004666233    0.000076101
      5        7          -0.006066872    0.006631356   -0.000036314
      6        8          -0.001468913   -0.007477575   -0.000014466
      7        6           0.000232816    0.009010638   -0.000038418
      8        8           0.001036708   -0.001483589    0.000011862
      9        8          -0.004134763   -0.005601950    0.000014057
     10        6           0.003106291    0.005251586   -0.000004646
     11        6           0.012628342   -0.007407009    0.000084223
     12        8           0.000435363    0.002685733   -0.000022301
     13        6          -0.000258192   -0.004120303    0.000011436
     14        6          -0.005120970   -0.001002096    0.000003644
     15        6          -0.000576153    0.004171989   -0.000036484
     16        1          -0.000513857   -0.000377916   -0.000002206
     17        1          -0.000864312   -0.000694466   -0.000506279
     18        1          -0.000866663   -0.000694372    0.000505638
     19        1          -0.000025581   -0.000542630    0.000000445
     20        1           0.000105859    0.000002141    0.000000274
     21        1          -0.000466610    0.000193422   -0.000001444
 -------------------------------------------------------------------
 Cartesian Forces:  Max     0.012628342 RMS     0.003602522

 GradGradGradGradGradGradGradGradGradGradGradGradGradGradGradGradGradGrad
 Berny optimization.
 Using GEDIIS/GDIIS optimizer.
 FormGI is forming the generalized inverse of G from B-inverse, IUseBI=4.
 Internal  Forces:  Max     0.006262574 RMS     0.001896682
 Search for a local minimum.
 Step number   2 out of a maximum of  108
 All quantities printed in internal units (Hartrees-Bohrs-Radians)
 Mixed Optimization -- RFO/linear search
 Update second derivatives using D2CorX and points    1    2
 DE= -5.77D-03 DEPred=-4.92D-03 R= 1.17D+00
 TightC=F SS=  1.41D+00  RLast= 1.84D-01 DXNew= 5.0454D-01 5.5081D-01
 Trust test= 1.17D+00 RLast= 1.84D-01 DXMaxT set to 5.05D-01
 ITU=  1  0
 Use linear search instead of GDIIS.
     Eigenvalues ---    0.01273   0.01344   0.01565   0.01698   0.01702
     Eigenvalues ---    0.01974   0.01989   0.02025   0.02061   0.02128
     Eigenvalues ---    0.02131   0.02165   0.02197   0.02222   0.02260
     Eigenvalues ---    0.02404   0.09947   0.10707   0.15673   0.16000
     Eigenvalues ---    0.16000   0.16000   0.16000   0.16000   0.16348
     Eigenvalues ---    0.18932   0.22315   0.23951   0.24881   0.25000
     Eigenvalues ---    0.25000   0.25000   0.25000   0.25000   0.26803
     Eigenvalues ---    0.34313   0.34317   0.34384   0.35753   0.35821
     Eigenvalues ---    0.35872   0.35897   0.36115   0.40309   0.40675
     Eigenvalues ---    0.41302   0.41434   0.43233   0.45395   0.47756
     Eigenvalues ---    0.48444   0.49961   0.50524   0.51789   0.52416
     Eigenvalues ---    0.54096   0.92879
 RFO step:  Lambda=-1.02924700D-03 EMin= 1.27311139D-02
 Quartic linear search produced a step of  0.24257.
 Iteration  1 RMS(Cart)=  0.01326629 RMS(Int)=  0.00010509
 Iteration  2 RMS(Cart)=  0.00026551 RMS(Int)=  0.00002084
 Iteration  3 RMS(Cart)=  0.00000001 RMS(Int)=  0.00002084
 Variable       Old X    -DE/DX   Delta X   Delta X   Delta X     New X
                                 (Linear)    (Quad)   (Total)
    R1        2.58720   0.00020  -0.00378   0.00289  -0.00088   2.58632
    R2        2.56846  -0.00193  -0.00338  -0.00223  -0.00562   2.56284
    R3        2.70354   0.00439   0.00051   0.01295   0.01346   2.71700
    R4        2.03905  -0.00076  -0.00077  -0.00216  -0.00293   2.03613
    R5        2.67378   0.00277  -0.00193   0.00876   0.00686   2.68064
    R6        2.51102  -0.00626  -0.00651  -0.01027  -0.01678   2.49424
    R7        2.79089   0.00572   0.00697   0.01510   0.02207   2.81295
    R8        2.60726   0.00527  -0.00011   0.01350   0.01338   2.62064
    R9        2.29590  -0.00148  -0.00569   0.00125  -0.00444   2.29147
   R10        2.54849  -0.00389  -0.00834  -0.00446  -0.01280   2.53568
   R11        2.70405   0.00325   0.00211   0.00845   0.01056   2.71461
   R12        2.06285  -0.00063  -0.00093  -0.00170  -0.00263   2.06022
   R13        2.06654  -0.00015  -0.00035  -0.00033  -0.00069   2.06585
   R14        2.06654  -0.00015  -0.00035  -0.00034  -0.00069   2.06586
   R15        2.57874   0.00152  -0.00334   0.00569   0.00236   2.58111
   R16        2.60021  -0.00333  -0.00426  -0.00638  -0.01063   2.58958
   R17        2.56667   0.00237   0.00061   0.00542   0.00602   2.57269
   R18        2.58296  -0.00256  -0.00282  -0.00445  -0.00728   2.57567
   R19        2.03886   0.00025  -0.00109   0.00152   0.00042   2.03928
   R20        2.68614   0.00458   0.00269   0.01132   0.01401   2.70014
   R21        2.04222   0.00002  -0.00014   0.00017   0.00003   2.04225
   R22        2.04296  -0.00047  -0.00037  -0.00139  -0.00176   2.04120
    A1        1.90873  -0.00079   0.00662  -0.00710  -0.00047   1.90826
    A2        2.30234   0.00577   0.01185   0.02062   0.03248   2.33482
    A3        2.07211  -0.00497  -0.01848  -0.01352  -0.03200   2.04011
    A4        2.23933   0.00054   0.00621   0.00107   0.00726   2.24659
    A5        1.80513   0.00058  -0.00893   0.00836  -0.00054   1.80459
    A6        2.23873  -0.00112   0.00272  -0.00942  -0.00672   2.23201
    A7        1.96088   0.00009   0.00885  -0.00652   0.00235   1.96323
    A8        2.19274  -0.00155  -0.00588  -0.00328  -0.00917   2.18357
    A9        2.12956   0.00146  -0.00297   0.00980   0.00682   2.13638
   A10        1.83416   0.00040  -0.00426   0.00379  -0.00049   1.83367
   A11        1.91587  -0.00027  -0.00228   0.00147  -0.00085   1.91502
   A12        2.14479  -0.00114   0.00027  -0.00580  -0.00553   2.13926
   A13        1.96870  -0.00013  -0.00159   0.00036  -0.00123   1.96747
   A14        2.16969   0.00127   0.00132   0.00544   0.00675   2.17645
   A15        2.00354   0.00192   0.00090   0.00895   0.00985   2.01339
   A16        1.83641   0.00065  -0.01162   0.01555   0.00393   1.84035
   A17        1.93721  -0.00091   0.00186  -0.00972  -0.00791   1.92930
   A18        1.93722  -0.00092   0.00190  -0.00979  -0.00795   1.92927
   A19        1.92068   0.00089   0.00693   0.00499   0.01193   1.93261
   A20        1.92067   0.00089   0.00692   0.00498   0.01191   1.93257
   A21        1.91070  -0.00053  -0.00586  -0.00510  -0.01108   1.89963
   A22        2.06882  -0.00480  -0.01906  -0.01159  -0.03066   2.03816
   A23        2.29085   0.00576   0.01218   0.02113   0.03331   2.32416
   A24        1.92351  -0.00096   0.00688  -0.00955  -0.00265   1.92087
   A25        1.86013   0.00180  -0.00483   0.01294   0.00812   1.86825
   A26        1.93702  -0.00203   0.00206  -0.01163  -0.00958   1.92743
   A27        2.01103   0.00151  -0.00174   0.01009   0.00836   2.01939
   A28        2.33514   0.00052  -0.00032   0.00154   0.00123   2.33636
   A29        1.85055   0.00093   0.00036   0.00499   0.00533   1.85588
   A30        2.20547  -0.00036   0.00003  -0.00182  -0.00179   2.20368
   A31        2.22717  -0.00057  -0.00038  -0.00317  -0.00354   2.22363
   A32        1.85357   0.00026  -0.00447   0.00325  -0.00121   1.85236
   A33        2.19730  -0.00033   0.00127  -0.00251  -0.00124   2.19606
   A34        2.23231   0.00007   0.00320  -0.00074   0.00246   2.23477
    D1       -3.14126  -0.00001   0.00013  -0.00085  -0.00071   3.14122
    D2        0.00048  -0.00002   0.00039  -0.00191  -0.00152  -0.00104
    D3        0.00021  -0.00000  -0.00012   0.00015   0.00004   0.00025
    D4       -3.14124  -0.00001   0.00014  -0.00091  -0.00077   3.14118
    D5       -0.00036   0.00002  -0.00033   0.00149   0.00116   0.00079
    D6        3.14134   0.00001  -0.00010   0.00064   0.00054  -3.14130
    D7       -0.00000   0.00000   0.00017  -0.00027  -0.00010  -0.00010
    D8       -3.14093  -0.00001   0.00011  -0.00090  -0.00079   3.14147
    D9        3.14145   0.00001  -0.00011   0.00080   0.00070  -3.14104
   D10        0.00052  -0.00000  -0.00017   0.00017   0.00001   0.00053
   D11       -0.00046   0.00002  -0.00033   0.00177   0.00144   0.00098
   D12        3.14147   0.00001  -0.00027   0.00093   0.00066  -3.14106
   D13        3.14128   0.00001  -0.00007   0.00071   0.00064  -3.14127
   D14        0.00003  -0.00000  -0.00001  -0.00014  -0.00015  -0.00012
   D15        0.00025  -0.00001   0.00014  -0.00091  -0.00077  -0.00052
   D16        3.14152  -0.00000   0.00008  -0.00010  -0.00001   3.14150
   D17       -0.00049   0.00001  -0.00005   0.00084   0.00079   0.00030
   D18        3.14119   0.00001   0.00001   0.00035   0.00036   3.14155
   D19        3.14148  -0.00000   0.00001  -0.00008  -0.00007   3.14141
   D20       -0.00003  -0.00001   0.00007  -0.00057  -0.00050  -0.00053
   D21        0.00007  -0.00000   0.00012  -0.00034  -0.00023  -0.00016
   D22       -3.14153   0.00000  -0.00008   0.00021   0.00013  -3.14140
   D23        0.00016  -0.00000  -0.00002  -0.00029  -0.00031  -0.00015
   D24        3.14093   0.00000   0.00001   0.00014   0.00015   3.14109
   D25        1.06389  -0.00097  -0.00242  -0.00989  -0.01221   1.05168
   D26       -1.06522   0.00097   0.00245   0.01012   0.01248  -1.05274
   D27       -3.14125  -0.00001  -0.00014   0.00002  -0.00010  -3.14135
   D28       -0.00018   0.00001  -0.00009   0.00054   0.00045   0.00026
   D29        3.14118   0.00000   0.00014  -0.00003   0.00013   3.14131
   D30       -0.00051   0.00001   0.00004   0.00031   0.00036  -0.00015
   D31        0.00021  -0.00001   0.00010  -0.00062  -0.00052  -0.00031
   D32       -3.14149  -0.00000  -0.00000  -0.00028  -0.00029   3.14141
   D33        0.00008  -0.00000   0.00005  -0.00024  -0.00019  -0.00011
   D34       -3.14150  -0.00000   0.00008  -0.00023  -0.00015   3.14153
   D35        0.00004  -0.00000   0.00001  -0.00013  -0.00012  -0.00008
   D36        3.14158   0.00000   0.00003   0.00003   0.00006  -3.14155
   D37       -3.14156  -0.00000  -0.00002  -0.00014  -0.00017   3.14146
   D38       -0.00002  -0.00000  -0.00000   0.00002   0.00002  -0.00001
   D39       -0.00015   0.00001  -0.00006   0.00045   0.00038   0.00023
   D40        3.14155   0.00000   0.00004   0.00010   0.00015  -3.14149
   D41        3.14150   0.00000  -0.00009   0.00028   0.00020  -3.14148
   D42        0.00002  -0.00000   0.00002  -0.00006  -0.00004  -0.00002
         Item               Value     Threshold  Converged?
 Maximum Force            0.006263     0.000450     NO 
 RMS     Force            0.001897     0.000300     NO 
 Maximum Displacement     0.041687     0.001800     NO 
 RMS     Displacement     0.013127     0.001200     NO 
 Predicted change in Energy=-7.687972D-04
 GradGradGradGradGradGradGradGradGradGradGradGradGradGradGradGradGradGrad

                          Input orientation:                          
 ---------------------------------------------------------------------
 Center     Atomic      Atomic             Coordinates (Angstroms)
 Number     Number       Type             X           Y           Z
 ---------------------------------------------------------------------
      1          6           0       -0.498709   -1.049516    0.004712
      2          6           0       -1.283324    0.071860    0.000530
      3          1           0       -2.358500    0.142139   -0.000875
      4          6           0       -0.341068    1.132231   -0.000633
      5          7           0        0.905864    0.699477    0.001350
      6          8           0        0.807243   -0.683790    0.004611
      7          6           0       -0.682646    2.581057   -0.004270
      8          8           0       -1.827056    2.981932   -0.006290
      9          8           0        0.402998    3.369648   -0.004604
     10          6           0        0.137888    4.781478   -0.007806
     11          6           0       -0.779080   -2.459687    0.008302
     12          8           0       -2.095056   -2.825462    0.007718
     13          6           0       -2.130921   -4.186393    0.011782
     14          6           0       -0.866679   -4.695722    0.014808
     15          6           0        0.018449   -3.574041    0.012354
     16          1           0        1.117111    5.260754   -0.007100
     17          1           0       -0.433100    5.066550    0.879770
     18          1           0       -0.430073    5.063060   -0.898440
     19          1           0       -3.115284   -4.628637    0.011919
     20          1           0       -0.599413   -5.742857    0.018244
     21          1           0        1.098596   -3.578452    0.013519
 ---------------------------------------------------------------------
                    Distance matrix (angstroms):
                    1          2          3          4          5
     1  C    0.000000
     2  C    1.368621   0.000000
     3  H    2.208822   1.077471   0.000000
     4  C    2.187441   1.418533   2.247291   0.000000
     5  N    2.243170   2.277377   3.311601   1.319893   0.000000
     6  O    1.356196   2.222947   3.271715   2.148622   1.386782
     7  C    3.635241   2.580098   2.959193   1.488552   2.462466
     8  O    4.244667   2.960440   2.889098   2.372675   3.560689
     9  O    4.510230   3.703932   4.247670   2.357898   2.717116
    10  C    5.865655   4.919392   5.268346   3.680551   4.153625
    11  C    1.437777   2.581289   3.043706   3.618537   3.580419
    12  O    2.387953   3.008893   2.979283   4.328958   4.629336
    13  C    3.536123   4.341805   4.334529   5.611729   5.752730
    14  C    3.664740   4.785774   5.062674   5.851627   5.678931
    15  C    2.576963   3.871350   4.411354   4.720002   4.364698
    16  H    6.513871   5.717234   6.187094   4.378473   4.566173
    17  H    6.178696   5.142263   5.360273   4.032672   4.651426
    18  H    6.179319   5.142788   5.360963   4.033038   4.651366
    19  H    4.433579   5.044886   4.830443   6.394062   6.675218
[...]
    18  H   -0.000000   0.000000  -0.000000
    19  H    0.480277  -0.000054  -0.000075
    20  H   -0.000054   0.496158  -0.001359
    21  H   -0.000075  -0.001359   0.476913
 Mulliken charges:
               1
     1  C    0.355994
     2  C   -0.226115
     3  H    0.190093
     4  C    0.228921
     5  N   -0.240627
     6  O   -0.427231
     7  C    0.529813
     8  O   -0.559282
     9  O   -0.470990
    10  C   -0.201907
    11  C    0.345188
    12  O   -0.427684
    13  C    0.154181
    14  C   -0.172989
    15  C   -0.151999
    16  H    0.149342
    17  H    0.154819
    18  H    0.154795
    19  H    0.211242
    20  H    0.194105
    21  H    0.210330
 Sum of Mulliken charges =  -0.00000
 Mulliken charges with hydrogens summed into heavy atoms:
               1
     1  C    0.355994
     2  C   -0.036022
     4  C    0.228921
     5  N   -0.240627
     6  O   -0.427231
     7  C    0.529813
     8  O   -0.559282
     9  O   -0.470990
    10  C    0.257049
    11  C    0.345188
    12  O   -0.427684
    13  C    0.365422
    14  C    0.021116
    15  C    0.058331
 Electronic spatial extent (au):  <R**2>=           3825.5077
 Charge=             -0.0000 electrons
 Dipole moment (field-independent basis, Debye):
    X=            -11.3390    Y=              0.8580    Z=             -0.0003  Tot=             11.3715
 Quadrupole moment (field-independent basis, Debye-Ang):
   XX=            -44.1470   YY=            -83.1079   ZZ=            -78.6395
   XY=             -5.8050   XZ=              0.0028   YZ=              0.0020
 Traceless Quadrupole moment (field-independent basis, Debye-Ang):
   XX=             24.4844   YY=            -14.4764   ZZ=            -10.0081
   XY=             -5.8050   XZ=              0.0028   YZ=              0.0020
 Octapole moment (field-independent basis, Debye-Ang**2):
  XXX=           -132.0271  YYY=              3.5035  ZZZ=              0.0003  XYY=            -41.7388
  XXY=             -5.4260  XXZ=             -0.0107  XZZ=              9.8056  YZZ=              1.9092
  YYZ=              0.0011  XYZ=              0.0000
 Hexadecapole moment (field-independent basis, Debye-Ang**3):
 XXXX=          -3192.0838 YYYY=           -486.7072 ZZZZ=            -78.3615 XXXY=           -137.3933
 XXXZ=              0.0728 YYYX=            -39.9604 YYYZ=              0.0073 ZZZX=             -0.0094
 ZZZY=             -0.0005 XXYY=           -776.2688 XXZZ=           -759.1360 YYZZ=            -95.7362
 XXYZ=              0.0078 YYXZ=              0.0073 ZZXY=             -0.5023
 N-N= 8.262261962584D+02 E-N=-3.293793744924D+03  KE= 6.967831502393D+02
 Evaluate density.
 Using the total density.
 Monte-Carlo method of calculating molar volume:
 based on  0.001 e/bohr**3 density envelope.
 Number of points per bohr**3 =   20 CutOff= 1.00D-04
 Using the CI density.
 There are       379 points.  Will hold       379 in memory.
 LenV=  1073605012 MDV=  1073741824.
 Box volume = 6837.019 fraction occupied=0.190
 Integrated density= 6.9680360310353905D+01 error=-3.0319639689646095D+01
 Molar volume = 1298.853 bohr**3/mol (115.908 cm**3/mol)
 Recommended a0 for SCRF calculation =  4.44 angstrom (  8.39 bohr)
 ******************************Gaussian NBO Version 3.1******************************
             N A T U R A L   A T O M I C   O R B I T A L   A N D
          N A T U R A L   B O N D   O R B I T A L   A N A L Y S I S
 ******************************Gaussian NBO Version 3.1******************************
       /RESON  / : Allow strongly delocalized NBO set

 Analyzing the CI density

 Job title: Title Card Required                                             

 Storage needed:    152096 in NPA (1073739409 available)


 NATURAL POPULATIONS:  Natural atomic orbital occupancies 
                                                          
   NAO  Atom  No  lang   Type(AO)    Occupancy
 --------------------------------------------
     1    C    1  S      Cor( 1S)     1.99892
     2    C    1  S      Val( 2S)     0.84541
     3    C    1  S      Ryd( 3S)     0.00257
     4    C    1  S      Ryd( 4S)     0.00025
     5    C    1  px     Val( 2p)     1.02241
     6    C    1  px     Ryd( 3p)     0.00377
     7    C    1  py     Val( 2p)     0.82878
     8    C    1  py     Ryd( 3p)     0.00974
     9    C    1  pz     Val( 2p)     1.09976
    10    C    1  pz     Ryd( 3p)     0.00207
    11    C    1  dxy    Ryd( 3d)     0.00119
    12    C    1  dxz    Ryd( 3d)     0.00053
    13    C    1  dyz    Ryd( 3d)     0.00208
    14    C    1  dx2y2  Ryd( 3d)     0.00183
    15    C    1  dz2    Ryd( 3d)     0.00056
 
    16    C    2  S      Cor( 1S)     1.99892
    17    C    2  S      Val( 2S)     0.99237
    18    C    2  S      Ryd( 3S)     0.00079
    19    C    2  S      Ryd( 4S)     0.00005
    20    C    2  px     Val( 2p)     1.03783
    21    C    2  px     Ryd( 3p)     0.00392
    22    C    2  py     Val( 2p)     1.22225
    23    C    2  py     Ryd( 3p)     0.00406
    24    C    2  pz     Val( 2p)     0.89550
    25    C    2  pz     Ryd( 3p)     0.00052
    26    C    2  dxy    Ryd( 3d)     0.00079
    27    C    2  dxz    Ryd( 3d)     0.00074
    28    C    2  dyz    Ryd( 3d)     0.00061
    29    C    2  dx2y2  Ryd( 3d)     0.00066
    30    C    2  dz2    Ryd( 3d)     0.00043
 
    31    H    3  S      Val( 1S)     0.72887
    32    H    3  S      Ryd( 2S)     0.00110
 
    33    C    4  S      Cor( 1S)     1.99915
    34    C    4  S      Val( 2S)     0.89681
    35    C    4  S      Ryd( 3S)     0.00311
    36    C    4  S      Ryd( 4S)     0.00017
    37    C    4  px     Val( 2p)     1.08626
    38    C    4  px     Ryd( 3p)     0.00493
    39    C    4  py     Val( 2p)     0.93064
    40    C    4  py     Ryd( 3p)     0.01232
    41    C    4  pz     Val( 2p)     1.07332
    42    C    4  pz     Ryd( 3p)     0.00211
    43    C    4  dxy    Ryd( 3d)     0.00111
    44    C    4  dxz    Ryd( 3d)     0.00101
    45    C    4  dyz    Ryd( 3d)     0.00175
    46    C    4  dx2y2  Ryd( 3d)     0.00127
    47    C    4  dz2    Ryd( 3d)     0.00044
 
    48    N    5  S      Cor( 1S)     1.99942
    49    N    5  S      Val( 2S)     1.49118
    50    N    5  S      Ryd( 3S)     0.00165
    51    N    5  S      Ryd( 4S)     0.00002
    52    N    5  px     Val( 2p)     0.85151
    53    N    5  px     Ryd( 3p)     0.00670
    54    N    5  py     Val( 2p)     1.48273
    55    N    5  py     Ryd( 3p)     0.00533
    56    N    5  pz     Val( 2p)     1.27938
    57    N    5  pz     Ryd( 3p)     0.00376
    58    N    5  dxy    Ryd( 3d)     0.00171
    59    N    5  dxz    Ryd( 3d)     0.00136
    60    N    5  dyz    Ryd( 3d)     0.00223
    61    N    5  dx2y2  Ryd( 3d)     0.00232
    62    N    5  dz2    Ryd( 3d)     0.00120
 
    63    O    6  S      Cor( 1S)     1.99974
    64    O    6  S      Val( 2S)     1.62177
    65    O    6  S      Ryd( 3S)     0.00066
    66    O    6  S      Ryd( 4S)     0.00008
    67    O    6  px     Val( 2p)     1.33792
    68    O    6  px     Ryd( 3p)     0.00175
    69    O    6  py     Val( 2p)     1.61780
    70    O    6  py     Ryd( 3p)     0.00234
    71    O    6  pz     Val( 2p)     1.75581
    72    O    6  pz     Ryd( 3p)     0.00154
    73    O    6  dxy    Ryd( 3d)     0.00205
    74    O    6  dxz    Ryd( 3d)     0.00124
    75    O    6  dyz    Ryd( 3d)     0.00195
    76    O    6  dx2y2  Ryd( 3d)     0.00156
    77    O    6  dz2    Ryd( 3d)     0.00109
 
    78    C    7  S      Cor( 1S)     1.99936
    79    C    7  S      Val( 2S)     0.74327
    80    C    7  S      Ryd( 3S)     0.00343
    81    C    7  S      Ryd( 4S)     0.00038
    82    C    7  px     Val( 2p)     0.86212
    83    C    7  px     Ryd( 3p)     0.00537
    84    C    7  py     Val( 2p)     0.72852
    85    C    7  py     Ryd( 3p)     0.02368
    86    C    7  pz     Val( 2p)     0.94034
    87    C    7  pz     Ryd( 3p)     0.00237
    88    C    7  dxy    Ryd( 3d)     0.00363
    89    C    7  dxz    Ryd( 3d)     0.00139
    90    C    7  dyz    Ryd( 3d)     0.00245
    91    C    7  dx2y2  Ryd( 3d)     0.00197
    92    C    7  dz2    Ryd( 3d)     0.00042
 
    93    O    8  S      Cor( 1S)     1.99980
    94    O    8  S      Val( 2S)     1.69636
    95    O    8  S      Ryd( 3S)     0.00040
    96    O    8  S      Ryd( 4S)     0.00007
    97    O    8  px     Val( 2p)     1.82347
    98    O    8  px     Ryd( 3p)     0.00131
    99    O    8  py     Val( 2p)     1.59919
   100    O    8  py     Ryd( 3p)     0.00042
   101    O    8  pz     Val( 2p)     1.53059
   102    O    8  pz     Ryd( 3p)     0.00167
   103    O    8  dxy    Ryd( 3d)     0.00460
   104    O    8  dxz    Ryd( 3d)     0.00024
   105    O    8  dyz    Ryd( 3d)     0.00424
   106    O    8  dx2y2  Ryd( 3d)     0.00449
   107    O    8  dz2    Ryd( 3d)     0.00136
 
   108    O    9  S      Cor( 1S)     1.99975
   109    O    9  S      Val( 2S)     1.61427
   110    O    9  S      Ryd( 3S)     0.00134
   111    O    9  S      Ryd( 4S)     0.00009
   112    O    9  px     Val( 2p)     1.37914
   113    O    9  px     Ryd( 3p)     0.00068
   114    O    9  py     Val( 2p)     1.72813
   115    O    9  py     Ryd( 3p)     0.00161
   116    O    9  pz     Val( 2p)     1.81862
   117    O    9  pz     Ryd( 3p)     0.00211
   118    O    9  dxy    Ryd( 3d)     0.00134
   119    O    9  dxz    Ryd( 3d)     0.00026
   120    O    9  dyz    Ryd( 3d)     0.00179
   121    O    9  dx2y2  Ryd( 3d)     0.00130
   122    O    9  dz2    Ryd( 3d)     0.00071
 
   123    C   10  S      Cor( 1S)     1.99943
   124    C   10  S      Val( 2S)     1.10532
   125    C   10  S      Ryd( 3S)     0.00134
   126    C   10  S      Ryd( 4S)     0.00003
   127    C   10  px     Val( 2p)     0.77531
   128    C   10  px     Ryd( 3p)     0.00272
   129    C   10  py     Val( 2p)     1.18817
   130    C   10  py     Ryd( 3p)     0.00316
   131    C   10  pz     Val( 2p)     1.23363
   132    C   10  pz     Ryd( 3p)     0.00031
   133    C   10  dxy    Ryd( 3d)     0.00165
   134    C   10  dxz    Ryd( 3d)     0.00119
   135    C   10  dyz    Ryd( 3d)     0.00108
   136    C   10  dx2y2  Ryd( 3d)     0.00132
   137    C   10  dz2    Ryd( 3d)     0.00110
 
   138    C   11  S      Cor( 1S)     1.99887
   139    C   11  S      Val( 2S)     0.86913
   140    C   11  S      Ryd( 3S)     0.00178
   141    C   11  S      Ryd( 4S)     0.00017
   142    C   11  px     Val( 2p)     1.05049
   143    C   11  px     Ryd( 3p)     0.00524
   144    C   11  py     Val( 2p)     0.76849
   145    C   11  py     Ryd( 3p)     0.00888
   146    C   11  pz     Val( 2p)     0.88647
   147    C   11  pz     Ryd( 3p)     0.00058
   148    C   11  dxy    Ryd( 3d)     0.00124
   149    C   11  dxz    Ryd( 3d)     0.00128
   150    C   11  dyz    Ryd( 3d)     0.00133
   151    C   11  dx2y2  Ryd( 3d)     0.00148
   152    C   11  dz2    Ryd( 3d)     0.00038
 
   153    O   12  S      Cor( 1S)     1.99974
   154    O   12  S      Val( 2S)     1.60579
   155    O   12  S      Ryd( 3S)     0.00031
   156    O   12  S      Ryd( 4S)     0.00005
   157    O   12  px     Val( 2p)     1.47508
   158    O   12  px     Ryd( 3p)     0.00096
   159    O   12  py     Val( 2p)     1.64246
   160    O   12  py     Ryd( 3p)     0.00225
   161    O   12  pz     Val( 2p)     1.71206
   162    O   12  pz     Ryd( 3p)     0.00087
   163    O   12  dxy    Ryd( 3d)     0.00282
   164    O   12  dxz    Ryd( 3d)     0.00136
   165    O   12  dyz    Ryd( 3d)     0.00278
   166    O   12  dx2y2  Ryd( 3d)     0.00380
   167    O   12  dz2    Ryd( 3d)     0.00233
 
   168    C   13  S      Cor( 1S)     1.99906
   169    C   13  S      Val( 2S)     0.97016
   170    C   13  S      Ryd( 3S)     0.00110
   171    C   13  S      Ryd( 4S)     0.00010
   172    C   13  px     Val( 2p)     0.73571
   173    C   13  px     Ryd( 3p)     0.00762
   174    C   13  py     Val( 2p)     1.14729
   175    C   13  py     Ryd( 3p)     0.00504
   176    C   13  pz     Val( 2p)     0.91142
   177    C   13  pz     Ryd( 3p)     0.00219
   178    C   13  dxy    Ryd( 3d)     0.00145
   179    C   13  dxz    Ryd( 3d)     0.00114
   180    C   13  dyz    Ryd( 3d)     0.00086
   181    C   13  dx2y2  Ryd( 3d)     0.00163
   182    C   13  dz2    Ryd( 3d)     0.00047
 
   183    C   14  S      Cor( 1S)     1.99913
   184    C   14  S      Val( 2S)     1.00230
   185    C   14  S      Ryd( 3S)     0.00060
   186    C   14  S      Ryd( 4S)     0.00004
   187    C   14  px     Val( 2p)     1.19386
   188    C   14  px     Ryd( 3p)     0.00360
   189    C   14  py     Val( 2p)     1.07207
   190    C   14  py     Ryd( 3p)     0.00474
   191    C   14  pz     Val( 2p)     1.00396
   192    C   14  pz     Ryd( 3p)     0.00051
   193    C   14  dxy    Ryd( 3d)     0.00059
   194    C   14  dxz    Ryd( 3d)     0.00069
   195    C   14  dyz    Ryd( 3d)     0.00072
   196    C   14  dx2y2  Ryd( 3d)     0.00090
   197    C   14  dz2    Ryd( 3d)     0.00045
 
   198    C   15  S      Cor( 1S)     1.99902
   199    C   15  S      Val( 2S)     0.98980
   200    C   15  S      Ryd( 3S)     0.00050
   201    C   15  S      Ryd( 4S)     0.00005
   202    C   15  px     Val( 2p)     1.02282
   203    C   15  px     Ryd( 3p)     0.00396
   204    C   15  py     Val( 2p)     1.22508
   205    C   15  py     Ryd( 3p)     0.00417
   206    C   15  pz     Val( 2p)     1.01079
   207    C   15  pz     Ryd( 3p)     0.00197
   208    C   15  dxy    Ryd( 3d)     0.00086
   209    C   15  dxz    Ryd( 3d)     0.00045
   210    C   15  dyz    Ryd( 3d)     0.00078
   211    C   15  dx2y2  Ryd( 3d)     0.00066
   212    C   15  dz2    Ryd( 3d)     0.00045
 
   213    H   16  S      Val( 1S)     0.78637
   214    H   16  S      Ryd( 2S)     0.00064
 
   215    H   17  S      Val( 1S)     0.78845
   216    H   17  S      Ryd( 2S)     0.00178
 
   217    H   18  S      Val( 1S)     0.78846
   218    H   18  S      Ryd( 2S)     0.00178
 
   219    H   19  S      Val( 1S)     0.75118
   220    H   19  S      Ryd( 2S)     0.00038
 
   221    H   20  S      Val( 1S)     0.72884
   222    H   20  S      Ryd( 2S)     0.00026
 
   223    H   21  S      Val( 1S)     0.71671
   224    H   21  S      Ryd( 2S)     0.00054

 WARNING:  1 low occupancy (<1.9990e) core orbital  found on  C    1
           1 low occupancy (<1.9990e) core orbital  found on  C    2
           1 low occupancy (<1.9990e) core orbital  found on  C   11


 Summary of Natural Population Analysis:                  
                                                          
                                       Natural Population 
                Natural  -----------------------------------------------
    Atom  No    Charge         Core      Valence    Rydberg      Total
 -----------------------------------------------------------------------
      C    1    0.18012      1.99892     3.79637    0.02458     5.81988
      C    2   -0.15944      1.99892     4.14795    0.01257     6.15944
      H    3    0.27003      0.00000     0.72887    0.00110     0.72997
      C    4   -0.01440      1.99915     3.98703    0.02822     6.01440
      N    5   -0.13049      1.99942     5.10480    0.02626     7.13049
      O    6   -0.34731      1.99974     6.33331    0.01426     8.34731
      C    7    0.68127      1.99936     3.27426    0.04511     5.31873
      O    8   -0.66821      1.99980     6.64961    0.01880     8.66821
      O    9   -0.55116      1.99975     6.54017    0.01125     8.55116
      C   10   -0.31575      1.99943     4.30243    0.01390     6.31575
      C   11    0.40419      1.99887     3.57458    0.02236     5.59581
      O   12   -0.45268      1.99974     6.43539    0.01754     8.45268
      C   13    0.21477      1.99906     3.76457    0.02159     5.78523
      C   14   -0.28416      1.99913     4.27219    0.01285     6.28416
      C   15   -0.26136      1.99902     4.24850    0.01384     6.26136
      H   16    0.21299      0.00000     0.78637    0.00064     0.78701
      H   17    0.20977      0.00000     0.78845    0.00178     0.79023
      H   18    0.20975      0.00000     0.78846    0.00178     0.79025
      H   19    0.24844      0.00000     0.75118    0.00038     0.75156
      H   20    0.27089      0.00000     0.72884    0.00026     0.72911
      H   21    0.28275      0.00000     0.71671    0.00054     0.71725
 =======================================================================
   * Total *   -0.00000     27.99031    71.72005    0.28963   100.00000

                                 Natural Population      
 --------------------------------------------------------
   Core                      27.99031 ( 99.9654% of  28)
   Valence                   71.72005 ( 99.6112% of  72)
   Natural Minimal Basis     99.71037 ( 99.7104% of 100)
   Natural Rydberg Basis      0.28963 (  0.2896% of 100)
 --------------------------------------------------------

    Atom  No          Natural Electron Configuration
 ----------------------------------------------------------------------------
      C    1      [core]2S( 0.85)2p( 2.95)3p( 0.02)3d( 0.01)
      C    2      [core]2S( 0.99)2p( 3.16)3p( 0.01)
      H    3            1S( 0.73)
      C    4      [core]2S( 0.90)2p( 3.09)3p( 0.02)3d( 0.01)
      N    5      [core]2S( 1.49)2p( 3.61)3p( 0.02)3d( 0.01)
      O    6      [core]2S( 1.62)2p( 4.71)3p( 0.01)3d( 0.01)
      C    7      [core]2S( 0.74)2p( 2.53)3p( 0.03)3d( 0.01)
      O    8      [core]2S( 1.70)2p( 4.95)3d( 0.01)
      O    9      [core]2S( 1.61)2p( 4.93)3d( 0.01)
      C   10      [core]2S( 1.11)2p( 3.20)3p( 0.01)3d( 0.01)
      C   11      [core]2S( 0.87)2p( 2.71)3p( 0.01)3d( 0.01)
      O   12      [core]2S( 1.61)2p( 4.83)3d( 0.01)
      C   13      [core]2S( 0.97)2p( 2.79)3p( 0.01)3d( 0.01)
      C   14      [core]2S( 1.00)2p( 3.27)3p( 0.01)
      C   15      [core]2S( 0.99)2p( 3.26)3p( 0.01)
      H   16            1S( 0.79)
      H   17            1S( 0.79)
      H   18            1S( 0.79)
      H   19            1S( 0.75)
      H   20            1S( 0.73)
      H   21            1S( 0.72)


 NBO analysis skipped by request.
 1\1\GINC-DELLA-R4C4N5\SP\RB3LYP TD-FC\6-31G(d)\C9H7N1O4\BJS4\27-Aug-20
 18\0\\# TD(NStates=10, Root=1) b3lyp/6-31G* volume pop=NPA density=cur
 rent Geom=AllCheck Guess=Read\\Title Card Required\\0,1\C,0,-0.4931074
 208,-1.0496420977,0.0054855188\C,0,-1.2752941934,0.071711764,0.0021081
 416\H,0,-2.3504135117,0.1488324851,0.0008361238\C,0,-0.329741606,1.130
 9579928,0.0000927057\N,0,0.9172725347,0.6991574371,0.002887629\O,0,0.8
 167448793,-0.687544917,0.0061931498\C,0,-0.6773570553,2.5785698857,-0.
 0042385739\O,0,-1.8256606539,2.9724070341,-0.0064403893\O,0,0.40437763
 99,3.3709333784,-0.0048197506\C,0,0.1293538254,4.7824377458,-0.0086330
 197\C,0,-0.7782322896,-2.4588805813,0.0085568351\O,0,-2.0990128893,-2.
 8199742286,0.0080162475\C,0,-2.1342327527,-4.1806372301,0.0111694302\C
 ,0,-0.8715738102,-4.6949988202,0.013743402\C,0,0.0155559189,-3.5759564
 362,0.0122170819\H,0,1.105971511,5.2660640896,-0.0083238744\H,0,-0.441
 7123419,5.0631933169,0.880198108\H,0,-0.4390036859,5.0588945474,-0.900
 5457654\H,0,-3.1195493576,-4.6208148861,0.0111086388\H,0,-0.6030372849
 ,-5.7418932799,0.0164828138\H,0,1.0958925439,-3.5871871998,0.013505547
 5\\Version=ES64L-G16RevA.03\State=1-A\HF=-702.7475194\RMSD=4.857e-09\D
 ipole=-0.8933071,-4.3837747,0.0098392\Quadrupole=-9.2370367,16.6776909
 ,-7.4406542,7.7778356,-0.0228854,-0.0489906\PG=C01 [X(C9H7N1O4)]\\@


 THERE IS NOTHING NOBLE IN BEING SUPERIOR TO SOME OTHER MAN.
 TRUE NOBILITY IS BEING SUPERIOR TO YOUR FORMER SELF.

                                                   -- HINDU PROVERB
 Job cpu time:       0 days  0 hours 19 minutes 59.5 seconds.
 Elapsed time:       0 days  0 hours  5 minutes 14.7 seconds.
 File lengths (MBytes):  RWF=    459 Int=      0 D2E=      0 Chk=     67 Scr=      1
 Normal termination of Gaussian 16 at Mon Aug 27 11:52:09 2018.
