 Entering Gaussian System, Link 0=g16
 Input=science_add_18123.com
 Output=science_add_18123.log
 Initial command:
 /opt/export/g16/l1.exe "/scratch/bjs4/job.154789/Gau-154791.inp" -scrdir="/scratch/bjs4/job.154789/"
 Entering Link 1 = /opt/export/g16/l1.exe PID=    154793.
  
 Copyright (c) 1988,1990,1992,1993,1995,1998,2003,2009,2016,
            Gaussian, Inc.  All Rights Reserved.
  
 This is part of the Gaussian(R) 16 program.  It is based on
 the Gaussian(R) 09 system (copyright 2009, Gaussian, Inc.),
 the Gaussian(R) 03 system (copyright 2003, Gaussian, Inc.),
 the Gaussian(R) 98 system (copyright 1998, Gaussian, Inc.),
 the Gaussian(R) 94 system (copyright 1995, Gaussian, Inc.),
 the Gaussian 92(TM) system (copyright 1992, Gaussian, Inc.),
 the Gaussian 90(TM) system (copyright 1990, Gaussian, Inc.),
 the Gaussian 88(TM) system (copyright 1988, Gaussian, Inc.),
 the Gaussian 86(TM) system (copyright 1986, Carnegie Mellon
 University), and the Gaussian 82(TM) system (copyright 1983,
 Carnegie Mellon University). Gaussian is a federally registered
 trademark of Gaussian, Inc.
  
 This software contains proprietary and confidential information,
 including trade secrets, belonging to Gaussian, Inc.
  
 This software is provided under written license and may be
 used, copied, transmitted, or stored only in accord with that
 written license.
  
 The following legend is applicable only to US Government
 contracts under FAR:
  
                    RESTRICTED RIGHTS LEGEND
  
 Use, reproduction and disclosure by the US Government is
 subject to restrictions as set forth in subparagraphs (a)
 and (c) of the Commercial Computer Software - Restricted
 Rights clause in FAR 52.227-19.
  
 Gaussian, Inc.
 340 Quinnipiac St., Bldg. 40, Wallingford CT 06492
  
  
 ---------------------------------------------------------------
 Warning -- This program may not be used in any manner that
 competes with the business of Gaussian, Inc. or will provide
 assistance to any competitor of Gaussian, Inc.  The licensee
 of this program is prohibited from giving any competitor of
 Gaussian, Inc. access to this program.  By using this program,
 the user acknowledges that Gaussian, Inc. is engaged in the
 business of creating and licensing software in the field of
 computational chemistry and represents and warrants to the
 licensee that it is not a competitor of Gaussian, Inc. and that
 it will not use this program in any manner prohibited above.
 ---------------------------------------------------------------
  

 Cite this work as:
 Gaussian 16, Revision A.03,
 M. J. Frisch, G. W. Trucks, H. B. Schlegel, G. E. Scuseria, 
 M. A. Robb, J. R. Cheeseman, G. Scalmani, V. Barone, 
 G. A. Petersson, H. Nakatsuji, X. Li, M. Caricato, A. V. Marenich, 
 J. Bloino, B. G. Janesko, R. Gomperts, B. Mennucci, H. P. Hratchian, 
 J. V. Ortiz, A. F. Izmaylov, J. L. Sonnenberg, D. Williams-Young, 
 F. Ding, F. Lipparini, F. Egidi, J. Goings, B. Peng, A. Petrone, 
 T. Henderson, D. Ranasinghe, V. G. Zakrzewski, J. Gao, N. Rega, 
 G. Zheng, W. Liang, M. Hada, M. Ehara, K. Toyota, R. Fukuda, 
 J. Hasegawa, M. Ishida, T. Nakajima, Y. Honda, O. Kitao, H. Nakai, 
 T. Vreven, K. Throssell, J. A. Montgomery, Jr., J. E. Peralta, 
 F. Ogliaro, M. J. Bearpark, J. J. Heyd, E. N. Brothers, K. N. Kudin, 
 V. N. Staroverov, T. A. Keith, R. Kobayashi, J. Normand, 
 K. Raghavachari, A. P. Rendell, J. C. Burant, S. S. Iyengar, 
 J. Tomasi, M. Cossi, J. M. Millam, M. Klene, C. Adamo, R. Cammi, 
 J. W. Ochterski, R. L. Martin, K. Morokuma, O. Farkas, 
 J. B. Foresman, and D. J. Fox, Gaussian, Inc., Wallingford CT, 2016.
 
 ******************************************
 Gaussian 16:  ES64L-G16RevA.03 25-Dec-2016
                27-Aug-2018 
 ******************************************
 %nprocshared=6
 Will use up to    6 processors via shared memory.
 %Mem=12GB
 %Chk=science_add_181.chk
 -------------------------
 # opt b3lyp/6-31G* scf=qc
 -------------------------
 1/18=20,19=15,26=3,38=1/1,3;
 2/9=110,12=2,17=6,18=5,40=1/2;
 3/5=1,6=6,7=1,11=2,25=1,30=1,71=1,74=-5/1,2,3;
 4//1;
 5/5=2,8=3,38=5/8;
 6/7=2,8=2,9=2,10=2,28=1/1;
 7//1,2,3,16;
 1/18=20,19=15,26=3/3(2);
 2/9=110/2;
 99//99;
 2/9=110/2;
 3/5=1,6=6,7=1,11=2,25=1,30=1,71=1,74=-5/1,2,3;
 4/5=5,16=3,69=1/1;
 5/5=2,8=3,38=5/8;
 7//1,2,3,16;
 1/18=20,19=15,26=3/3(-5);
 2/9=110/2;
 6/7=2,8=2,9=2,10=2,19=2,28=1/1;
 99/9=1/99;
 -------------------
 Title Card Required
 -------------------
 Symbolic Z-matrix:
 Charge =  0 Multiplicity = 1
 C5                   -0.64704  -1.06621  -0.29989 
 C4                    0.39792  -0.19543  -0.09274 
 H                     1.32968  -0.40404   0.40739 
 C3                   -0.04627   1.02466  -0.63128 
 H                     0.45872   1.97952  -0.6663 
 N2                   -1.27274   0.93012  -1.14551 
 O1                   -1.66234  -0.37973  -0.9085 
 N                    -0.82423  -2.38842  -0.03129 
 C                     0.29965  -3.31673  -0.06433 
 C                     0.97359  -3.58144   1.26976 
 C                     0.61737  -2.9519    2.47053 
 C                     1.3155   -3.219     3.65316 
 C                     2.37914  -4.11851   3.65391 
 C                     2.73893  -4.76539   2.47553 
 C                     2.04061  -4.50015   1.29496 
 C                    -2.16268  -2.92183   0.20236 
 C                    -2.96517  -3.3024   -1.03019 
 C                    -2.52037  -3.14423  -2.34892 
 C                    -3.35293  -3.46374  -3.42711 
 C                    -4.63761  -3.95496  -3.2033 
 C                    -5.09072  -4.13711  -1.90106 
 C                    -4.26153  -3.81457  -0.82507 
 H                     1.06587  -2.94921  -0.76112 
 H                    -0.04284  -4.27776  -0.46799 
 H                    -0.20783  -2.24408   2.50167 
 H                     1.03152  -2.71853   4.57552 
 H                     2.92845  -4.31568   4.57118 
 H                     3.56505  -5.4721    2.472 
 H                     2.34095  -5.01449   0.38367 
 H                    -2.74747  -2.18626   0.77168 
 H                    -2.08644  -3.80964   0.83723 
 H                    -1.53197  -2.74284  -2.55681 
 H                    -3.00179  -3.31216  -4.44475 
 H                    -5.28768  -4.18567  -4.04311 
 H                    -6.09348  -4.51576  -1.72031 
 H                    -4.64068  -3.94949   0.18612 
 

 GradGradGradGradGradGradGradGradGradGradGradGradGradGradGradGradGradGrad
 Berny optimization.
 Initialization pass.
                           ----------------------------
                           !    Initial Parameters    !
                           ! (Angstroms and Degrees)  !
 --------------------------                            --------------------------
 ! Name  Definition              Value          Derivative Info.                !
 --------------------------------------------------------------------------------
 ! R1    R(1,2)                  1.3759         estimate D2E/DX2                !
 ! R2    R(1,7)                  1.3684         estimate D2E/DX2                !
 ! R3    R(1,8)                  1.3608         estimate D2E/DX2                !
 ! R4    R(2,3)                  1.0779         estimate D2E/DX2                !
 ! R5    R(2,4)                  1.4057         estimate D2E/DX2                !
 ! R6    R(4,5)                  1.0807         estimate D2E/DX2                !
 ! R7    R(4,6)                  1.3333         estimate D2E/DX2                !
 ! R8    R(6,7)                  1.387          estimate D2E/DX2                !
 ! R9    R(8,9)                  1.4581         estimate D2E/DX2                !
 ! R10   R(8,16)                 1.4596         estimate D2E/DX2                !
 ! R11   R(9,10)                 1.5179         estimate D2E/DX2                !
 ! R12   R(9,23)                 1.0989         estimate D2E/DX2                !
 ! R13   R(9,24)                 1.0972         estimate D2E/DX2                !
 ! R14   R(10,11)                1.4018         estimate D2E/DX2                !
 ! R15   R(10,15)                1.4083         estimate D2E/DX2                !
 ! R16   R(11,12)                1.3991         estimate D2E/DX2                !
 ! R17   R(11,25)                1.0876         estimate D2E/DX2                !
 ! R18   R(12,13)                1.393          estimate D2E/DX2                !
 ! R19   R(12,26)                1.0871         estimate D2E/DX2                !
 ! R20   R(13,14)                1.3916         estimate D2E/DX2                !
 ! R21   R(13,27)                1.0872         estimate D2E/DX2                !
 ! R22   R(14,15)                1.397          estimate D2E/DX2                !
 ! R23   R(14,28)                1.0872         estimate D2E/DX2                !
 ! R24   R(15,29)                1.0887         estimate D2E/DX2                !
 ! R25   R(16,17)                1.5192         estimate D2E/DX2                !
 ! R26   R(16,30)                1.0987         estimate D2E/DX2                !
 ! R27   R(16,31)                1.0941         estimate D2E/DX2                !
 ! R28   R(17,18)                1.4007         estimate D2E/DX2                !
 ! R29   R(17,22)                1.4089         estimate D2E/DX2                !
 ! R30   R(18,19)                1.3992         estimate D2E/DX2                !
 ! R31   R(18,32)                1.0869         estimate D2E/DX2                !
 ! R32   R(19,20)                1.3935         estimate D2E/DX2                !
 ! R33   R(19,33)                1.0871         estimate D2E/DX2                !
 ! R34   R(20,21)                1.3908         estimate D2E/DX2                !
 ! R35   R(20,34)                1.0868         estimate D2E/DX2                !
 ! R36   R(21,22)                1.3962         estimate D2E/DX2                !
 ! R37   R(21,35)                1.087          estimate D2E/DX2                !
 ! R38   R(22,36)                1.0883         estimate D2E/DX2                !
 ! A1    A(2,1,7)              108.2382         estimate D2E/DX2                !
 ! A2    A(2,1,8)              133.1652         estimate D2E/DX2                !
 ! A3    A(7,1,8)              118.5953         estimate D2E/DX2                !
 ! A4    A(1,2,3)              127.1488         estimate D2E/DX2                !
 ! A5    A(1,2,4)              104.5751         estimate D2E/DX2                !
 ! A6    A(3,2,4)              128.2363         estimate D2E/DX2                !
 ! A7    A(2,4,5)              129.1707         estimate D2E/DX2                !
 ! A8    A(2,4,6)              112.1419         estimate D2E/DX2                !
 ! A9    A(5,4,6)              118.6845         estimate D2E/DX2                !
 ! A10   A(4,6,7)              105.0379         estimate D2E/DX2                !
 ! A11   A(1,7,6)              109.9598         estimate D2E/DX2                !
 ! A12   A(1,8,9)              120.9158         estimate D2E/DX2                !
 ! A13   A(1,8,16)             120.4023         estimate D2E/DX2                !
 ! A14   A(9,8,16)             118.5395         estimate D2E/DX2                !
 ! A15   A(8,9,10)             115.6799         estimate D2E/DX2                !
 ! A16   A(8,9,23)             109.8083         estimate D2E/DX2                !
 ! A17   A(8,9,24)             108.9893         estimate D2E/DX2                !
 ! A18   A(10,9,23)            107.8198         estimate D2E/DX2                !
 ! A19   A(10,9,24)            108.0106         estimate D2E/DX2                !
 ! A20   A(23,9,24)            106.0991         estimate D2E/DX2                !
 ! A21   A(9,10,11)            124.1741         estimate D2E/DX2                !
 ! A22   A(9,10,15)            117.7686         estimate D2E/DX2                !
 ! A23   A(11,10,15)           118.0464         estimate D2E/DX2                !
 ! A24   A(10,11,12)           120.7664         estimate D2E/DX2                !
 ! A25   A(10,11,25)           120.6366         estimate D2E/DX2                !
 ! A26   A(12,11,25)           118.597          estimate D2E/DX2                !
 ! A27   A(11,12,13)           120.3151         estimate D2E/DX2                !
 ! A28   A(11,12,26)           119.9305         estimate D2E/DX2                !
 ! A29   A(13,12,26)           119.7534         estimate D2E/DX2                !
 ! A30   A(12,13,14)           119.8106         estimate D2E/DX2                !
 ! A31   A(12,13,27)           120.2221         estimate D2E/DX2                !
 ! A32   A(14,13,27)           119.9673         estimate D2E/DX2                !
 ! A33   A(13,14,15)           119.8736         estimate D2E/DX2                !
 ! A34   A(13,14,28)           120.0923         estimate D2E/DX2                !
 ! A35   A(15,14,28)           120.0333         estimate D2E/DX2                !
 ! A36   A(10,15,14)           121.1789         estimate D2E/DX2                !
 ! A37   A(10,15,29)           120.1498         estimate D2E/DX2                !
 ! A38   A(14,15,29)           118.67           estimate D2E/DX2                !
 ! A39   A(8,16,17)            116.4901         estimate D2E/DX2                !
 ! A40   A(8,16,30)            109.0472         estimate D2E/DX2                !
 ! A41   A(8,16,31)            108.9971         estimate D2E/DX2                !
 ! A42   A(17,16,30)           107.8759         estimate D2E/DX2                !
 ! A43   A(17,16,31)           107.7166         estimate D2E/DX2                !
 ! A44   A(30,16,31)           106.2401         estimate D2E/DX2                !
 ! A45   A(16,17,18)           124.5975         estimate D2E/DX2                !
 ! A46   A(16,17,22)           117.3218         estimate D2E/DX2                !
 ! A47   A(18,17,22)           118.0551         estimate D2E/DX2                !
 ! A48   A(17,18,19)           120.7139         estimate D2E/DX2                !
 ! A49   A(17,18,32)           120.7024         estimate D2E/DX2                !
 ! A50   A(19,18,32)           118.5591         estimate D2E/DX2                !
 ! A51   A(18,19,20)           120.3515         estimate D2E/DX2                !
 ! A52   A(18,19,33)           119.8208         estimate D2E/DX2                !
 ! A53   A(20,19,33)           119.8197         estimate D2E/DX2                !
 ! A54   A(19,20,21)           119.7956         estimate D2E/DX2                !
 ! A55   A(19,20,34)           120.1441         estimate D2E/DX2                !
 ! A56   A(21,20,34)           120.0573         estimate D2E/DX2                !
 ! A57   A(20,21,22)           119.8578         estimate D2E/DX2                !
 ! A58   A(20,21,35)           120.1231         estimate D2E/DX2                !
 ! A59   A(22,21,35)           120.0128         estimate D2E/DX2                !
 ! A60   A(17,22,21)           121.2145         estimate D2E/DX2                !
 ! A61   A(17,22,36)           120.0591         estimate D2E/DX2                !
 ! A62   A(21,22,36)           118.718          estimate D2E/DX2                !
 ! D1    D(7,1,2,3)            176.7972         estimate D2E/DX2                !
 ! D2    D(7,1,2,4)             -1.049          estimate D2E/DX2                !
 ! D3    D(8,1,2,3)             -3.6404         estimate D2E/DX2                !
 ! D4    D(8,1,2,4)            178.5135         estimate D2E/DX2                !
 ! D5    D(2,1,7,6)              2.0624         estimate D2E/DX2                !
 ! D6    D(8,1,7,6)           -177.5742         estimate D2E/DX2                !
 ! D7    D(2,1,8,9)            -32.0241         estimate D2E/DX2                !
 ! D8    D(2,1,8,16)           152.3775         estimate D2E/DX2                !
 ! D9    D(7,1,8,9)            147.5026         estimate D2E/DX2                !
 ! D10   D(7,1,8,16)           -28.0958         estimate D2E/DX2                !
 ! D11   D(1,2,4,5)            179.0191         estimate D2E/DX2                !
 ! D12   D(1,2,4,6)             -0.3442         estimate D2E/DX2                !
 ! D13   D(3,2,4,5)              1.2048         estimate D2E/DX2                !
 ! D14   D(3,2,4,6)           -178.1585         estimate D2E/DX2                !
 ! D15   D(2,4,6,7)              1.5506         estimate D2E/DX2                !
 ! D16   D(5,4,6,7)           -177.8867         estimate D2E/DX2                !
 ! D17   D(4,6,7,1)             -2.2054         estimate D2E/DX2                !
 ! D18   D(1,8,9,10)            94.6344         estimate D2E/DX2                !
 ! D19   D(1,8,9,23)           -27.649          estimate D2E/DX2                !
 ! D20   D(1,8,9,24)          -143.4756         estimate D2E/DX2                !
 ! D21   D(16,8,9,10)          -89.6869         estimate D2E/DX2                !
 ! D22   D(16,8,9,23)          148.0297         estimate D2E/DX2                !
 ! D23   D(16,8,9,24)           32.2031         estimate D2E/DX2                !
 ! D24   D(1,8,16,17)           84.5224         estimate D2E/DX2                !
 ! D25   D(1,8,16,30)          -37.814          estimate D2E/DX2                !
 ! D26   D(1,8,16,31)         -153.3935         estimate D2E/DX2                !
 ! D27   D(9,8,16,17)          -91.1792         estimate D2E/DX2                !
 ! D28   D(9,8,16,30)          146.4844         estimate D2E/DX2                !
 ! D29   D(9,8,16,31)           30.9048         estimate D2E/DX2                !
 ! D30   D(8,9,10,11)           -2.9648         estimate D2E/DX2                !
 ! D31   D(8,9,10,15)          178.2612         estimate D2E/DX2                !
 ! D32   D(23,9,10,11)         120.3696         estimate D2E/DX2                !
 ! D33   D(23,9,10,15)         -58.4045         estimate D2E/DX2                !
 ! D34   D(24,9,10,11)        -125.3758         estimate D2E/DX2                !
 ! D35   D(24,9,10,15)          55.8502         estimate D2E/DX2                !
 ! D36   D(9,10,11,12)        -177.9714         estimate D2E/DX2                !
 ! D37   D(9,10,11,25)           1.9636         estimate D2E/DX2                !
 ! D38   D(15,10,11,12)          0.7995         estimate D2E/DX2                !
 ! D39   D(15,10,11,25)       -179.2655         estimate D2E/DX2                !
 ! D40   D(9,10,15,14)         177.9552         estimate D2E/DX2                !
 ! D41   D(9,10,15,29)          -1.6248         estimate D2E/DX2                !
 ! D42   D(11,10,15,14)         -0.8956         estimate D2E/DX2                !
 ! D43   D(11,10,15,29)        179.5244         estimate D2E/DX2                !
 ! D44   D(10,11,12,13)         -0.0063         estimate D2E/DX2                !
 ! D45   D(10,11,12,26)        179.63           estimate D2E/DX2                !
 ! D46   D(25,11,12,13)       -179.9426         estimate D2E/DX2                !
 ! D47   D(25,11,12,26)         -0.3062         estimate D2E/DX2                !
 ! D48   D(11,12,13,14)         -0.7187         estimate D2E/DX2                !
 ! D49   D(11,12,13,27)        179.2425         estimate D2E/DX2                !
 ! D50   D(26,12,13,14)        179.6443         estimate D2E/DX2                !
 ! D51   D(26,12,13,27)         -0.3945         estimate D2E/DX2                !
 ! D52   D(12,13,14,15)          0.6242         estimate D2E/DX2                !
 ! D53   D(12,13,14,28)       -179.688          estimate D2E/DX2                !
 ! D54   D(27,13,14,15)       -179.3371         estimate D2E/DX2                !
 ! D55   D(27,13,14,28)          0.3507         estimate D2E/DX2                !
 ! D56   D(13,14,15,10)          0.1927         estimate D2E/DX2                !
 ! D57   D(13,14,15,29)        179.7788         estimate D2E/DX2                !
 ! D58   D(28,14,15,10)       -179.4953         estimate D2E/DX2                !
 ! D59   D(28,14,15,29)          0.0908         estimate D2E/DX2                !
 ! D60   D(8,16,17,18)          -1.6487         estimate D2E/DX2                !
 ! D61   D(8,16,17,22)        -179.771          estimate D2E/DX2                !
 ! D62   D(30,16,17,18)        121.2982         estimate D2E/DX2                !
 ! D63   D(30,16,17,22)        -56.8241         estimate D2E/DX2                !
 ! D64   D(31,16,17,18)       -124.4019         estimate D2E/DX2                !
 ! D65   D(31,16,17,22)         57.4758         estimate D2E/DX2                !
 ! D66   D(16,17,18,19)       -176.9392         estimate D2E/DX2                !
 ! D67   D(16,17,18,32)          1.2286         estimate D2E/DX2                !
 ! D68   D(22,17,18,19)          1.1705         estimate D2E/DX2                !
 ! D69   D(22,17,18,32)        179.3383         estimate D2E/DX2                !
 ! D70   D(16,17,22,21)        177.2657         estimate D2E/DX2                !
 ! D71   D(16,17,22,36)         -1.667          estimate D2E/DX2                !
 ! D72   D(18,17,22,21)         -0.9829         estimate D2E/DX2                !
 ! D73   D(18,17,22,36)       -179.9156         estimate D2E/DX2                !
 ! D74   D(17,18,19,20)         -0.4766         estimate D2E/DX2                !
 ! D75   D(17,18,19,33)        178.4892         estimate D2E/DX2                !
 ! D76   D(32,18,19,20)       -178.683          estimate D2E/DX2                !
 ! D77   D(32,18,19,33)          0.2828         estimate D2E/DX2                !
 ! D78   D(18,19,20,21)         -0.4461         estimate D2E/DX2                !
 ! D79   D(18,19,20,34)        178.9315         estimate D2E/DX2                !
 ! D80   D(33,19,20,21)       -179.4119         estimate D2E/DX2                !
 ! D81   D(33,19,20,34)         -0.0343         estimate D2E/DX2                !
 ! D82   D(19,20,21,22)          0.6349         estimate D2E/DX2                !
 ! D83   D(19,20,21,35)        179.7257         estimate D2E/DX2                !
 ! D84   D(34,20,21,22)       -178.7432         estimate D2E/DX2                !
 ! D85   D(34,20,21,35)          0.3476         estimate D2E/DX2                !
 ! D86   D(20,21,22,17)          0.0894         estimate D2E/DX2                !
 ! D87   D(20,21,22,36)        179.036          estimate D2E/DX2                !
 ! D88   D(35,21,22,17)       -179.0024         estimate D2E/DX2                !
 ! D89   D(35,21,22,36)         -0.0558         estimate D2E/DX2                !
 --------------------------------------------------------------------------------
 Trust Radius=3.00D-01 FncErr=1.00D-07 GrdErr=1.00D-06 EigMax=2.50D+02 EigMin=1.00D-04
 Number of steps in this run=    199 maximum allowed number of steps=    216.
 GradGradGradGradGradGradGradGradGradGradGradGradGradGradGradGradGradGrad

                          Input orientation:                          
 ---------------------------------------------------------------------
 Center     Atomic      Atomic             Coordinates (Angstroms)
 Number     Number       Type             X           Y           Z
 ---------------------------------------------------------------------
      1          6           0       -0.647040   -1.066210   -0.299890
      2          6           0        0.397920   -0.195430   -0.092740
      3          1           0        1.329680   -0.404040    0.407390
      4          6           0       -0.046270    1.024660   -0.631280
      5          1           0        0.458720    1.979520   -0.666300
      6          7           0       -1.272740    0.930120   -1.145510
      7          8           0       -1.662340   -0.379730   -0.908500
      8          7           0       -0.824230   -2.388420   -0.031290
      9          6           0        0.299650   -3.316730   -0.064330
     10          6           0        0.973590   -3.581440    1.269760
     11          6           0        0.617370   -2.951900    2.470530
     12          6           0        1.315500   -3.219000    3.653160
     13          6           0        2.379140   -4.118510    3.653910
     14          6           0        2.738930   -4.765390    2.475530
     15          6           0        2.040610   -4.500150    1.294960
     16          6           0       -2.162680   -2.921830    0.202360
     17          6           0       -2.965170   -3.302400   -1.030190
     18          6           0       -2.520370   -3.144230   -2.348920
     19          6           0       -3.352930   -3.463740   -3.427110
     20          6           0       -4.637610   -3.954960   -3.203300
     21          6           0       -5.090720   -4.137110   -1.901060
     22          6           0       -4.261530   -3.814570   -0.825070
     23          1           0        1.065870   -2.949210   -0.761120
     24          1           0       -0.042840   -4.277760   -0.467990
     25          1           0       -0.207830   -2.244080    2.501670
     26          1           0        1.031520   -2.718530    4.575520
     27          1           0        2.928450   -4.315680    4.571180
     28          1           0        3.565050   -5.472100    2.472000
     29          1           0        2.340950   -5.014490    0.383670
     30          1           0       -2.747470   -2.186260    0.771680
     31          1           0       -2.086440   -3.809640    0.837230
     32          1           0       -1.531970   -2.742840   -2.556810
     33          1           0       -3.001790   -3.312160   -4.444750
     34          1           0       -5.287680   -4.185670   -4.043110
     35          1           0       -6.093480   -4.515760   -1.720310
     36          1           0       -4.640680   -3.949490    0.186120
 ---------------------------------------------------------------------
                    Distance matrix (angstroms):
                    1          2          3          4          5
     1  C    0.000000
     2  C    1.375903   0.000000
     3  H    2.201394   1.077880   0.000000
     4  C    2.200564   1.405685   2.239030   0.000000
     5  H    3.260894   2.250128   2.755493   1.080740   0.000000
     6  N    2.256525   2.272948   3.311204   1.333266   2.080586
     7  O    1.368391   2.223534   3.268691   2.158899   3.181763
     8  N    1.360802   2.511301   2.961340   3.551665   4.596531
     9  C    2.452866   3.122976   3.125259   4.391897   5.332723
    10  C    3.378850   3.694978   3.311548   5.086278   5.910812
    11  C    3.581869   3.770496   3.354925   5.086715   5.846689
    12  C    4.910466   4.900581   4.296420   6.182192   6.812959
    13  C    5.840106   5.775221   5.043664   7.120229   7.716100
    14  C    5.731639   5.741156   5.028376   7.136826   7.782305
    15  C    4.643162   4.811939   4.251037   6.212004   6.952341
    16  C    2.448008   3.751935   4.310207   4.555099   5.625792
    17  C    3.302667   4.673591   5.377068   5.234745   6.305087
    18  C    3.467860   4.722519   5.470719   5.143063   6.161088
    19  C    4.780115   5.989052   6.781740   6.236698   7.195820
    20  C    5.718331   7.011862   7.826536   7.245157   8.223564
    21  C    5.633868   6.995143   7.777293   7.328212   8.350693
    22  C    4.570977   5.945162   6.664256   6.420601   7.475122
    23  H    2.586983   2.911390   2.812988   4.128602   4.966891
    24  H    3.272212   4.123166   4.201881   5.304935   6.280481
    25  H    3.070671   3.360783   3.183660   4.530578   5.321571
    26  H    5.414550   5.344168   4.776931   6.502605   7.062326
    27  H    6.860795   6.718050   5.932465   8.027065   8.553380
    28  H    6.696039   6.667222   5.911406   8.054804   8.661689
    29  H    4.998425   5.217822   4.720114   6.572692   7.318566
    30  H    2.610475   3.821532   4.464546   4.424340   5.449877
    31  H    3.300200   4.483236   4.842804   5.448786   6.500217
    32  H    2.947521   4.035519   4.737669   4.484309   5.462377
    33  H    5.269630   6.341295   7.124750   6.487346   7.365710
    34  H    6.728913   7.990838   8.825935   8.140055   9.079291
    35  H    6.601568   7.965708   8.748523   8.273511   9.286061
    36  H    4.949613   6.289533   6.947257   6.820478   7.866617
                    6          7          8          9         10
     6  N    0.000000
     7  O    1.386964   0.000000
     8  N    3.529215   2.346649   0.000000
     9  C    4.655867   3.631528   1.458066   0.000000
    10  C    5.588712   4.684431   2.519560   1.517914   0.000000
    11  C    5.631904   4.819853   2.941908   2.580613   1.401807
    12  C    6.851381   6.143104   4.340908   3.855027   2.434925
    13  C    7.865070   7.150358   5.180298   4.335025   2.819253
    14  C    7.851386   7.075087   4.962886   3.807833   2.443777
    15  C    6.813370   5.961957   3.798111   2.505812   1.408259
    16  C    4.176873   2.818975   1.459646   2.508015   3.377961
    17  C    4.559807   3.202214   2.533137   3.404723   4.569624
    18  C    4.427765   3.233185   2.969772   3.633403   5.049134
    19  C    5.370186   4.325807   4.368321   4.967015   6.386957
    20  C    6.278603   5.186580   5.201688   5.885321   7.185635
    21  C    6.389417   5.182361   4.975630   5.753494   6.865765
    22  C    5.616728   4.308233   3.805131   4.650907   5.643505
    23  H    4.545993   3.750610   2.102288   1.098945   2.129015
    24  H    5.393858   4.243992   2.090666   1.097187   2.130203
    25  H    4.950909   4.149778   2.610875   2.827096   2.168384
    26  H    7.166062   6.542273   4.977497   4.735154   3.417019
    27  H    8.823206   8.160512   6.243370   5.421849   3.906400
    28  H    8.802216   8.042737   5.919571   4.662770   3.425732
    29  H    7.122888   6.259156   4.133618   2.692582   2.169899
    30  H    3.944904   2.695192   2.093915   3.355863   4.005109
    31  H    5.201797   3.871914   2.089825   2.597922   3.098861
    32  H    3.943298   2.884131   2.646651   3.145892   4.650131
    33  H    5.645488   4.785221   5.007364   5.485217   6.966476
    34  H    7.119490   6.119971   6.264758   6.914044   8.233783
    35  H    7.295721   6.115618   5.928183   6.712083   7.730262
    36  H    6.076747   4.776179   4.129104   4.986980   5.729726
                   11         12         13         14         15
    11  C    0.000000
    12  C    1.399050   0.000000
    13  C    2.421818   1.393000   0.000000
    14  C    2.791019   2.409209   1.391575   0.000000
    15  C    2.409285   2.779971   2.413482   1.397050   0.000000
    16  C    3.588060   4.908571   5.828668   5.708922   4.620878
    17  C    5.021203   6.345460   7.153215   6.853260   5.647899
    18  C    5.754086   7.123514   7.809506   7.318724   5.993239
    19  C    7.127932   8.484360   9.133794   8.581737   7.243091
    20  C    7.798288   9.110005   9.812383   9.344477   8.070328
    21  C    7.286825   8.528302   9.308966   8.991813   7.823184
    22  C    5.950533   7.177222   8.015743   7.797721   6.684423
    23  H    3.262625   4.429556   4.752308   4.071062   2.753724
    24  H    3.290696   4.466535   4.783451   4.079257   2.738287
    25  H    1.087628   2.144046   3.396109   3.878283   3.406095
    26  H    2.158000   1.087135   2.150672   3.393353   3.867106
    27  H    3.407890   2.155708   1.087199   2.151722   3.399398
    28  H    3.878173   3.395891   2.153021   1.087164   2.157319
    29  H    3.402938   3.868449   3.390975   2.143902   1.088669
    30  H    3.846355   5.086964   6.190555   6.297269   5.343559
    31  H    3.273221   4.455504   5.288714   5.184755   4.209378
    32  H    5.471519   6.848251   7.467415   6.903314   5.539639
    33  H    7.813399   9.177354   9.756685   9.108129   7.731843
    34  H    8.878024  10.186707  10.864104  10.356409   9.071809
    35  H    8.065005   9.243849  10.041182   9.781557   8.674994
    36  H    5.819004   6.930372   7.831475   7.769539   6.795027
                   16         17         18         19         20
    16  C    0.000000
    17  C    1.519211   0.000000
    18  C    2.585814   1.400683   0.000000
    19  C    3.857903   2.433437   1.399191   0.000000
    20  C    4.334877   2.818740   2.422799   1.393482   0.000000
    21  C    3.804563   2.443996   2.791610   2.408769   1.390797
    22  C    2.501553   1.408880   2.408965   2.778353   2.411871
    23  H    3.369359   4.055419   3.926864   5.186332   6.285337
    24  H    2.604158   3.131678   3.310731   4.513947   5.357054
    25  H    3.093155   4.604020   5.448517   6.821265   7.422718
    26  H    5.419296   6.909300   7.793909   9.155371   9.704527
    27  H    6.851935   8.193707   8.885365  10.205595  10.854396
    28  H    6.667986   7.721186   8.105096   9.310825  10.089320
    29  H    4.969385   5.751970   5.881951   7.024752   7.917655
    30  H    1.098712   2.130703   3.272220   4.430392   4.743564
    31  H    1.094111   2.125257   3.283690   4.461865   4.780739
    32  H    2.835992   2.167427   1.086861   2.143132   3.395907
    33  H    4.738364   3.414770   2.156958   1.087137   2.151812
    34  H    5.420972   3.905369   3.407768   2.154970   1.086784
    35  H    4.657087   3.425614   3.878577   3.395663   2.152513
    36  H    2.682691   2.169209   3.401556   3.866482   3.389426
                   21         22         23         24         25
    21  C    0.000000
    22  C    1.396189   0.000000
    23  H    6.372925   5.397604   0.000000
    24  H    5.249244   4.259037   1.755052   0.000000
    25  H    6.841799   5.474132   3.572859   3.603048   0.000000
    26  H    9.024427   7.640946   5.341734   5.387248   2.462102
    27  H   10.306739   9.003690   5.811185   5.850063   4.290763
    28  H    9.789188   8.652943   4.802493   4.804879   4.965442
    29  H    7.824289   6.818622   2.683609   2.636390   4.319418
    30  H    4.054649   2.737404   4.180087   3.636781   3.073431
    31  H    4.078133   2.737569   3.637598   2.469623   2.958127
    32  H    3.877976   3.405588   3.164785   2.989424   5.252650
    33  H    3.393307   3.865416   5.499702   5.049989   7.563052
    34  H    2.151634   3.398011   7.257265   6.348095   8.509336
    35  H    1.087002   2.156192   7.391239   6.183461   7.591213
    36  H    2.143375   1.088331   5.870480   4.655723   5.283971
                   26         27         28         29         30
    26  H    0.000000
    27  H    2.479768   0.000000
    28  H    4.292519   2.479743   0.000000
    29  H    4.955567   4.285876   2.463524   0.000000
    30  H    5.388253   7.154488   7.316812   5.834506   0.000000
    31  H    4.988688   6.272765   6.113558   4.610766   1.754030
    32  H    7.579063   8.554380   7.662728   5.367152   3.586930
    33  H    9.898750  10.837979   9.779067   7.399759   5.342609
    34  H   10.787287  11.904944  11.066724   8.858855   5.799354
    35  H    9.676422  11.000823  10.572476   8.707185   4.778323
    36  H    7.277084   8.755260   8.653184   7.065155   2.652566
                   31         32         33         34         35
    31  H    0.000000
    32  H    3.600695   0.000000
    33  H    5.383741   2.459434   0.000000
    34  H    5.848680   4.289080   2.479844   0.000000
    35  H    4.805828   4.964912   4.292991   2.480660   0.000000
    36  H    2.639630   4.317841   4.953494   4.284948   2.462877
                   36
    36  H    0.000000
 Stoichiometry    C17H16N2O
 Framework group  C1[X(C17H16N2O)]
 Deg. of freedom   102
 Full point group                 C1      NOp   1
 Largest Abelian subgroup         C1      NOp   1
 Largest concise Abelian subgroup C1      NOp   1
                         Standard orientation:                         
 ---------------------------------------------------------------------
 Center     Atomic      Atomic             Coordinates (Angstroms)
 Number     Number       Type             X           Y           Z
 ---------------------------------------------------------------------
      1          6           0        0.059510    1.634650   -0.007368
      2          6           0       -0.808755    2.664384    0.273474
      3          1           0       -1.855492    2.584808    0.518085
      4          6           0       -0.037497    3.829426    0.119241
      5          1           0       -0.332432    4.863110    0.231087
      6          7           0        1.221531    3.556759   -0.224417
      7          8           0        1.273471    2.175109   -0.334016
      8          7           0       -0.071647    0.280183   -0.007399
      9          6           0       -0.972544   -0.385227    0.926180
     10          6           0       -2.363384   -0.685337    0.397443
     11          6           0       -2.820111   -0.311255   -0.873984
     12          6           0       -4.132092   -0.588137   -1.273211
     13          6           0       -5.006786   -1.242550   -0.408860
     14          6           0       -4.568412   -1.635755    0.851974
     15          6           0       -3.257743   -1.360995    1.249970
     16          6           0        0.760485   -0.542510   -0.879924
     17          6           0        2.138397   -0.908014   -0.354787
     18          6           0        2.659139   -0.484363    0.874546
     19          6           0        3.964952   -0.817820    1.250571
     20          6           0        4.765412   -1.587277    0.408555
     21          6           0        4.259922   -2.033632   -0.807818
     22          6           0        2.958307   -1.697627   -1.184969
     23          1           0       -1.082216    0.222554    1.835166
     24          1           0       -0.519612   -1.331992    1.246037
     25          1           0       -2.161210    0.201794   -1.570809
     26          1           0       -4.473839   -0.286531   -2.260179
     27          1           0       -6.029643   -1.446012   -0.716053
     28          1           0       -5.245703   -2.151294    1.528304
     29          1           0       -2.936569   -1.674203    2.241911
     30          1           0        0.891792   -0.026552   -1.841024
     31          1           0        0.231149   -1.473840   -1.102425
     32          1           0        2.067913    0.135231    1.543741
     33          1           0        4.362866   -0.460662    2.197127
     34          1           0        5.785008   -1.829731    0.696198
     35          1           0        4.881163   -2.630430   -1.470740
     36          1           0        2.587069   -2.043490   -2.147790
 ---------------------------------------------------------------------
 Rotational constants (GHZ):           0.5005688           0.2093618           0.1648941
 Standard basis: 6-31G(d) (6D, 7F)
 There are   332 symmetry adapted cartesian basis functions of A   symmetry.
 There are   332 symmetry adapted basis functions of A   symmetry.
   332 basis functions,   624 primitive gaussians,   332 cartesian basis functions
    70 alpha electrons       70 beta electrons
       nuclear repulsion energy      1425.8052123556 Hartrees.
 NAtoms=   36 NActive=   36 NUniq=   36 SFac= 1.00D+00 NAtFMM=   60 NAOKFM=F Big=F
 Integral buffers will be    131072 words long.
 Raffenetti 2 integral format.
 Two-electron integral symmetry is turned on.
 One-electron integrals computed using PRISM.
 NBasis=   332 RedAO= T EigKep=  4.61D-04  NBF=   332
 NBsUse=   332 1.00D-06 EigRej= -1.00D+00 NBFU=   332
 ExpMin= 1.61D-01 ExpMax= 5.48D+03 ExpMxC= 8.25D+02 IAcc=3 IRadAn=         5 AccDes= 0.00D+00
 Harris functional with IExCor=  402 and IRadAn=       5 diagonalized for initial guess.
 HarFok:  IExCor=  402 AccDes= 0.00D+00 IRadAn=         5 IDoV= 1 UseB2=F ITyADJ=14
 ICtDFT=  3500011 ScaDFX=  1.000000  1.000000  1.000000  1.000000
 FoFCou: FMM=F IPFlag=           0 FMFlag=      100000 FMFlg1=           0
         NFxFlg=           0 DoJE=T BraDBF=F KetDBF=T FulRan=T
         wScrn=  0.000000 ICntrl=       500 IOpCl=  0 I1Cent=   200000004 NGrid=           0
         NMat0=    1 NMatS0=      1 NMatT0=    0 NMatD0=    1 NMtDS0=    0 NMtDT0=    0
 Petite list used in FoFCou.
 Gradient too large for Newton-Raphson -- use scaled steepest descent instead.
 Gradient too large for Newton-Raphson -- use scaled steepest descent instead.
     Minimum is close to point  2 DX=  1.57D-02 DF= -3.33D-05 DXR=  3.77D-02 DFR=  1.42D-03 which will be used.
 Gradient too large for Newton-Raphson -- use scaled steepest descent instead.
 Gradient too large for Newton-Raphson -- use scaled steepest descent instead.
     Accept linear search using points  1 and  2.
 Gradient too large for Newton-Raphson -- use scaled steepest descent instead.
     Accept linear search using points  2 and  3.
 LinEq1:  Iter=  0 NonCon=     1 RMS=3.75D-05 Max=2.80D-03 NDo=     1
 AX will form     1 AO Fock derivatives at one time.
 LinEq1:  Iter=  1 NonCon=     1 RMS=3.45D-05 Max=8.54D-04 NDo=     1
 LinEq1:  Iter=  2 NonCon=     1 RMS=1.01D-05 Max=3.13D-04 NDo=     1
 LinEq1:  Iter=  3 NonCon=     1 RMS=8.51D-06 Max=4.58D-04 NDo=     1
 LinEq1:  Iter=  4 NonCon=     1 RMS=4.64D-06 Max=2.17D-04 NDo=     1
 LinEq1:  Iter=  5 NonCon=     1 RMS=3.33D-06 Max=9.28D-05 NDo=     1
 LinEq1:  Iter=  6 NonCon=     1 RMS=1.78D-06 Max=4.34D-05 NDo=     1
 LinEq1:  Iter=  7 NonCon=     1 RMS=9.28D-07 Max=4.84D-05 NDo=     1
 LinEq1:  Iter=  8 NonCon=     1 RMS=6.74D-07 Max=3.01D-05 NDo=     1
 LinEq1:  Iter=  9 NonCon=     1 RMS=2.69D-07 Max=1.10D-05 NDo=     1
 LinEq1:  Iter= 10 NonCon=     1 RMS=1.78D-07 Max=7.26D-06 NDo=     1
 LinEq1:  Iter= 11 NonCon=     1 RMS=6.68D-08 Max=2.11D-06 NDo=     1
 LinEq1:  Iter= 12 NonCon=     1 RMS=4.61D-08 Max=2.12D-06 NDo=     1
 LinEq1:  Iter= 13 NonCon=     1 RMS=2.79D-08 Max=1.16D-06 NDo=     1
 LinEq1:  Iter= 14 NonCon=     1 RMS=1.57D-08 Max=4.76D-07 NDo=     1
 LinEq1:  Iter= 15 NonCon=     0 RMS=4.63D-09 Max=1.07D-07 NDo=     1
 Linear equations converged to 1.915D-08 1.915D-07 after    15 iterations.
     Minimum is close to point  2 DX=  7.50D-05 DF=  0.00D+00 DXR=  7.50D-05 DFR=  0.00D+00 which will be used.
 LinEq1:  Iter=  0 NonCon=     1 RMS=4.12D-08 Max=2.65D-06 NDo=     1
 LinEq1:  Iter=  1 NonCon=     1 RMS=2.97D-08 Max=1.07D-06 NDo=     1
 LinEq1:  Iter=  2 NonCon=     1 RMS=1.49D-08 Max=4.44D-07 NDo=     1
 LinEq1:  Iter=  3 NonCon=     1 RMS=7.76D-09 Max=3.15D-07 NDo=     1
 LinEq1:  Iter=  4 NonCon=     1 RMS=6.34D-09 Max=2.90D-07 NDo=     1
 LinEq1:  Iter=  5 NonCon=     1 RMS=3.48D-09 Max=6.81D-08 NDo=     1
 LinEq1:  Iter=  6 NonCon=     1 RMS=2.40D-09 Max=1.24D-07 NDo=     1
 LinEq1:  Iter=  7 NonCon=     1 RMS=1.52D-09 Max=4.34D-08 NDo=     1
 LinEq1:  Iter=  8 NonCon=     1 RMS=7.61D-10 Max=2.63D-08 NDo=     1
 LinEq1:  Iter=  9 NonCon=     1 RMS=5.87D-10 Max=2.12D-08 NDo=     1
 LinEq1:  Iter= 10 NonCon=     1 RMS=2.70D-10 Max=1.13D-08 NDo=     1
 LinEq1:  Iter= 11 NonCon=     1 RMS=1.75D-10 Max=6.91D-09 NDo=     1
 LinEq1:  Iter= 12 NonCon=     1 RMS=7.71D-11 Max=4.33D-09 NDo=     1
 LinEq1:  Iter= 13 NonCon=     1 RMS=5.40D-11 Max=3.37D-09 NDo=     1
 LinEq1:  Iter= 14 NonCon=     1 RMS=3.14D-11 Max=1.48D-09 NDo=     1
 LinEq1:  Iter= 15 NonCon=     1 RMS=1.33D-11 Max=4.55D-10 NDo=     1
 LinEq1:  Iter= 16 NonCon=     0 RMS=6.10D-12 Max=2.71D-10 NDo=     1
 Linear equations converged to 3.620D-11 3.620D-10 after    16 iterations.
 SCF Done:  E(RB3LYP) =  -842.104333789     a.u. after    8 cycles
            Convg  =    0.1717D-09                    49 Fock formations.
              S**2 =  0.0000                  -V/T =  2.0097

 **********************************************************************

            Population analysis using the SCF density.

 **********************************************************************

 Orbital symmetries:
       Occupied  (A) (A) (A) (A) (A) (A) (A) (A) (A) (A) (A) (A)
                 (A) (A) (A) (A) (A) (A) (A) (A) (A) (A) (A) (A)
                 (A) (A) (A) (A) (A) (A) (A) (A) (A) (A) (A) (A)
                 (A) (A) (A) (A) (A) (A) (A) (A) (A) (A) (A) (A)
                 (A) (A) (A) (A) (A) (A) (A) (A) (A) (A) (A) (A)
                 (A) (A) (A) (A) (A) (A) (A) (A) (A) (A)
       Virtual   (A) (A) (A) (A) (A) (A) (A) (A) (A) (A) (A) (A)
                 (A) (A) (A) (A) (A) (A) (A) (A) (A) (A) (A) (A)
                 (A) (A) (A) (A) (A) (A) (A) (A) (A) (A) (A) (A)
                 (A) (A) (A) (A) (A) (A) (A) (A) (A) (A) (A) (A)
                 (A) (A) (A) (A) (A) (A) (A) (A) (A) (A) (A) (A)
                 (A) (A) (A) (A) (A) (A) (A) (A) (A) (A) (A) (A)
                 (A) (A) (A) (A) (A) (A) (A) (A) (A) (A) (A) (A)
                 (A) (A) (A) (A) (A) (A) (A) (A) (A) (A) (A) (A)
                 (A) (A) (A) (A) (A) (A) (A) (A) (A) (A) (A) (A)
                 (A) (A) (A) (A) (A) (A) (A) (A) (A) (A) (A) (A)
                 (A) (A) (A) (A) (A) (A) (A) (A) (A) (A) (A) (A)
                 (A) (A) (A) (A) (A) (A) (A) (A) (A) (A) (A) (A)
                 (A) (A) (A) (A) (A) (A) (A) (A) (A) (A) (A) (A)
                 (A) (A) (A) (A) (A) (A) (A) (A) (A) (A) (A) (A)
                 (A) (A) (A) (A) (A) (A) (A) (A) (A) (A) (A) (A)
                 (A) (A) (A) (A) (A) (A) (A) (A) (A) (A) (A) (A)
                 (A) (A) (A) (A) (A) (A) (A) (A) (A) (A) (A) (A)
                 (A) (A) (A) (A) (A) (A) (A) (A) (A) (A) (A) (A)
                 (A) (A) (A) (A) (A) (A) (A) (A) (A) (A) (A) (A)
                 (A) (A) (A) (A) (A) (A) (A) (A) (A) (A) (A) (A)
                 (A) (A) (A) (A) (A) (A) (A) (A) (A) (A) (A) (A)
                 (A) (A) (A) (A) (A) (A) (A) (A) (A) (A)
 The electronic state is 1-A.
 Alpha  occ. eigenvalues --  -19.22057 -14.37207 -14.36117 -10.28190 -10.24168
 Alpha  occ. eigenvalues --  -10.23612 -10.21250 -10.20605 -10.19798 -10.19659
 Alpha  occ. eigenvalues --  -10.19604 -10.19576 -10.19520 -10.19318 -10.18822
 Alpha  occ. eigenvalues --  -10.18759 -10.18707 -10.18653 -10.18473 -10.18092
 Alpha  occ. eigenvalues --   -1.12840  -0.96669  -0.86055  -0.85107  -0.84230
 Alpha  occ. eigenvalues --   -0.78833  -0.78371  -0.75147  -0.74825  -0.74014
 Alpha  occ. eigenvalues --   -0.70572  -0.67849  -0.61681  -0.60699  -0.60467
 Alpha  occ. eigenvalues --   -0.59484  -0.58970  -0.56161  -0.54017  -0.52513
 Alpha  occ. eigenvalues --   -0.50618  -0.49055  -0.47185  -0.46157  -0.45986
 Alpha  occ. eigenvalues --   -0.45530  -0.44800  -0.43605  -0.43293  -0.43050
 Alpha  occ. eigenvalues --   -0.42280  -0.41570  -0.41487  -0.41078  -0.40440
 Alpha  occ. eigenvalues --   -0.37572  -0.36081  -0.35646  -0.35192  -0.34864
 Alpha  occ. eigenvalues --   -0.34571  -0.33953  -0.30078  -0.28680  -0.28491
 Alpha  occ. eigenvalues --   -0.25559  -0.24905  -0.24610  -0.23952  -0.20589
 Alpha virt. eigenvalues --   -0.01188  -0.00428  -0.00129   0.00415   0.00915
 Alpha virt. eigenvalues --    0.07042   0.08434   0.09380   0.10016   0.11218
 Alpha virt. eigenvalues --    0.12070   0.12324   0.12781   0.13630   0.14079
 Alpha virt. eigenvalues --    0.15154   0.15304   0.15918   0.16235   0.16782
 Alpha virt. eigenvalues --    0.17351   0.17866   0.18548   0.18960   0.19569
 Alpha virt. eigenvalues --    0.20367   0.21537   0.23817   0.24459   0.26321
 Alpha virt. eigenvalues --    0.27447   0.28518   0.30324   0.30887   0.31184
 Alpha virt. eigenvalues --    0.32580   0.33251   0.34678   0.36442   0.37440
 Alpha virt. eigenvalues --    0.41480   0.43723   0.45056   0.46984   0.49106
 Alpha virt. eigenvalues --    0.50867   0.51099   0.52249   0.53095   0.53480
 Alpha virt. eigenvalues --    0.54018   0.54516   0.55444   0.55986   0.56345
 Alpha virt. eigenvalues --    0.57507   0.58212   0.58879   0.59163   0.59681
 Alpha virt. eigenvalues --    0.59891   0.60160   0.60248   0.60604   0.60978
 Alpha virt. eigenvalues --    0.61587   0.61697   0.61902   0.62209   0.62967
 Alpha virt. eigenvalues --    0.63749   0.64084   0.65147   0.66110   0.66707
 Alpha virt. eigenvalues --    0.67336   0.68319   0.69001   0.70400   0.73699
 Alpha virt. eigenvalues --    0.74334   0.74631   0.75950   0.76833   0.80373
 Alpha virt. eigenvalues --    0.82023   0.82619   0.82937   0.83332   0.83535
 Alpha virt. eigenvalues --    0.83809   0.84036   0.84340   0.84677   0.84976
 Alpha virt. eigenvalues --    0.85154   0.86439   0.87350   0.88529   0.89379
 Alpha virt. eigenvalues --    0.91520   0.92179   0.93177   0.93320   0.93675
 Alpha virt. eigenvalues --    0.94822   0.95158   0.95621   0.97878   0.98587
 Alpha virt. eigenvalues --    1.00597   1.01129   1.02648   1.03999   1.06020
 Alpha virt. eigenvalues --    1.06882   1.09073   1.10337   1.11217   1.11415
 Alpha virt. eigenvalues --    1.11915   1.13695   1.14823   1.15728   1.17123
 Alpha virt. eigenvalues --    1.19130   1.19609   1.19884   1.22598   1.25454
 Alpha virt. eigenvalues --    1.26301   1.32973   1.35759   1.38639   1.40556
 Alpha virt. eigenvalues --    1.41072   1.41388   1.42600   1.42923   1.43640
 Alpha virt. eigenvalues --    1.45190   1.46901   1.47802   1.48328   1.48859
 Alpha virt. eigenvalues --    1.49039   1.49890   1.50029   1.50885   1.51675
 Alpha virt. eigenvalues --    1.53803   1.56127   1.58846   1.61486   1.65123
 Alpha virt. eigenvalues --    1.65413   1.67119   1.69961   1.77308   1.77589
 Alpha virt. eigenvalues --    1.78819   1.80627   1.81608   1.83220   1.84086
 Alpha virt. eigenvalues --    1.88523   1.88749   1.89531   1.90455   1.91643
 Alpha virt. eigenvalues --    1.92281   1.95552   1.96407   1.97203   1.97503
 Alpha virt. eigenvalues --    1.98622   2.00247   2.00878   2.01882   2.04604
 Alpha virt. eigenvalues --    2.05029   2.06293   2.08574   2.11382   2.13681
 Alpha virt. eigenvalues --    2.14555   2.14901   2.15596   2.16206   2.16459
 Alpha virt. eigenvalues --    2.16684   2.20882   2.21744   2.22906   2.23313
 Alpha virt. eigenvalues --    2.25240   2.25929   2.27334   2.27439   2.29097
 Alpha virt. eigenvalues --    2.30166   2.31110   2.31824   2.35618   2.37818
 Alpha virt. eigenvalues --    2.38282   2.39204   2.40921   2.43348   2.44250
 Alpha virt. eigenvalues --    2.52400   2.55193   2.57372   2.57606   2.58773
 Alpha virt. eigenvalues --    2.59084   2.59880   2.64278   2.65331   2.67378
 Alpha virt. eigenvalues --    2.67566   2.70186   2.72152   2.72912   2.73732
 Alpha virt. eigenvalues --    2.73919   2.74946   2.76285   2.78402   2.81549
 Alpha virt. eigenvalues --    2.81889   2.82866   2.87906   2.88818   2.93167
 Alpha virt. eigenvalues --    2.99042   3.06574   3.08261   3.13825   3.23444
 Alpha virt. eigenvalues --    3.40022   3.40922   3.78663   4.03919   4.08060
 Alpha virt. eigenvalues --    4.08765   4.10935   4.11666   4.11810   4.12343
 Alpha virt. eigenvalues --    4.22280   4.28018   4.28726   4.30763   4.32816
 Alpha virt. eigenvalues --    4.34043   4.34543   4.43830   4.47793   4.56518
 Alpha virt. eigenvalues --    4.69823   4.70881
          Condensed to atoms (all electrons):
               1          2          3          4          5          6
     1  C    4.490556   0.561185  -0.037339  -0.040252   0.003669  -0.090099
     2  C    0.561185   5.097717   0.356113   0.468864  -0.041881  -0.025389
     3  H   -0.037339   0.356113   0.555728  -0.031686  -0.000615   0.004672
     4  C   -0.040252   0.468864  -0.031686   4.822162   0.368489   0.433416
     5  H    0.003669  -0.041881  -0.000615   0.368489   0.551557  -0.043026
     6  N   -0.090099  -0.025389   0.004672   0.433416  -0.043026   6.741233
     7  O    0.248167  -0.066041   0.003927  -0.073023   0.004824   0.152600
     8  N    0.323611  -0.076232  -0.002681   0.002932  -0.000086   0.004126
     9  C   -0.037734  -0.004507   0.000672   0.000011   0.000000  -0.000024
    10  C   -0.002054   0.000313   0.001604   0.000012   0.000000   0.000002
    11  C   -0.001316  -0.000051   0.002115   0.000017  -0.000000   0.000002
    12  C   -0.000032  -0.000067   0.000042   0.000000  -0.000000   0.000000
    13  C   -0.000001   0.000003  -0.000011  -0.000000   0.000000  -0.000000
    14  C   -0.000002   0.000002  -0.000013  -0.000000   0.000000   0.000000
    15  C    0.000098  -0.000098   0.000034   0.000001  -0.000000  -0.000000
    16  C   -0.033970   0.002355  -0.000088   0.000099   0.000000  -0.000118
    17  C   -0.002589  -0.000191  -0.000002   0.000005   0.000000   0.000028
    18  C   -0.000232  -0.000032  -0.000000   0.000024  -0.000000   0.000018
    19  C   -0.000047  -0.000001   0.000000  -0.000000   0.000000   0.000001
    20  C   -0.000001  -0.000000  -0.000000   0.000000  -0.000000  -0.000000
    21  C   -0.000007  -0.000000  -0.000000   0.000000  -0.000000  -0.000000
    22  C    0.000206   0.000004   0.000000  -0.000000   0.000000   0.000002
    23  H    0.000956   0.005879  -0.000446  -0.000037  -0.000000  -0.000062
    24  H    0.003436   0.000254   0.000061   0.000003  -0.000000  -0.000001
    25  H    0.001645   0.000845   0.000039   0.000026  -0.000000  -0.000007
    26  H    0.000000  -0.000003   0.000000   0.000000  -0.000000   0.000000
    27  H    0.000000   0.000000  -0.000000   0.000000   0.000000  -0.000000
    28  H    0.000000  -0.000000  -0.000000   0.000000  -0.000000  -0.000000
    29  H    0.000001   0.000000   0.000000   0.000000  -0.000000  -0.000000
    30  H    0.000368   0.000710  -0.000006  -0.000022   0.000001  -0.000223
    31  H    0.003230  -0.000059  -0.000002  -0.000001  -0.000000   0.000002
    32  H    0.002948   0.000011  -0.000000  -0.000035   0.000000  -0.000004
    33  H    0.000001  -0.000000   0.000000  -0.000000   0.000000   0.000000
    34  H    0.000000   0.000000  -0.000000  -0.000000  -0.000000   0.000000
    35  H    0.000000   0.000000   0.000000  -0.000000   0.000000  -0.000000
    36  H    0.000002   0.000000   0.000000  -0.000000   0.000000   0.000000
               7          8          9         10         11         12
     1  C    0.248167   0.323611  -0.037734  -0.002054  -0.001316  -0.000032
     2  C   -0.066041  -0.076232  -0.004507   0.000313  -0.000051  -0.000067
     3  H    0.003927  -0.002681   0.000672   0.001604   0.002115   0.000042
     4  C   -0.073023   0.002932   0.000011   0.000012   0.000017   0.000000
     5  H    0.004824  -0.000086   0.000000   0.000000  -0.000000  -0.000000
     6  N    0.152600   0.004126  -0.000024   0.000002   0.000002   0.000000
     7  O    8.171057  -0.057961   0.000456  -0.000031  -0.000007  -0.000000
     8  N   -0.057961   6.939444   0.305710  -0.055233  -0.004102   0.000269
     9  C    0.000456   0.305710   5.082256   0.328511  -0.060828   0.006643
    10  C   -0.000031  -0.055233   0.328511   4.767280   0.561297  -0.018630
    11  C   -0.000007  -0.004102  -0.060828   0.561297   4.948528   0.517394
    12  C   -0.000000   0.000269   0.006643  -0.018630   0.517394   4.871313
    13  C   -0.000000  -0.000015   0.000335  -0.035987  -0.033942   0.552480
    14  C   -0.000000  -0.000111   0.005032  -0.013639  -0.045148  -0.027167
    15  C    0.000001   0.003654  -0.061836   0.507723  -0.034514  -0.046368
    16  C    0.001237   0.290404  -0.040044  -0.004019   0.000217  -0.000028
    17  C   -0.000585  -0.050746  -0.003486  -0.000049   0.000117   0.000000
    18  C    0.001185  -0.004602   0.000157   0.000103  -0.000001  -0.000000
    19  C   -0.000111   0.000221  -0.000019   0.000000  -0.000000   0.000000
    20  C    0.000003  -0.000013  -0.000001  -0.000000   0.000000   0.000000
    21  C    0.000002  -0.000106   0.000001  -0.000000  -0.000000   0.000000
    22  C   -0.000195   0.003480   0.000057   0.000010  -0.000000  -0.000000
    23  H    0.000179  -0.034407   0.359727  -0.048072   0.000791  -0.000072
    24  H   -0.000003  -0.039387   0.362753  -0.046834   0.001799  -0.000097
    25  H   -0.000033   0.007059  -0.013271  -0.040220   0.354831  -0.046794
    26  H    0.000000   0.000010  -0.000177   0.003660  -0.039959   0.358121
    27  H    0.000000  -0.000000   0.000009   0.000802   0.004664  -0.042918
    28  H    0.000000   0.000001  -0.000152   0.003530   0.000760   0.004722
    29  H    0.000000   0.000155  -0.007469  -0.056059   0.005641   0.000427
    30  H    0.002867  -0.036537   0.004233   0.000356  -0.000280  -0.000011
    31  H    0.000168  -0.037258  -0.000114   0.002341   0.001791  -0.000018
    32  H    0.001060   0.005775   0.000331   0.000102   0.000000  -0.000000
    33  H   -0.000004   0.000009   0.000000   0.000000  -0.000000  -0.000000
    34  H    0.000000  -0.000000  -0.000000  -0.000000   0.000000  -0.000000
    35  H    0.000000   0.000001   0.000000   0.000000  -0.000000  -0.000000
    36  H   -0.000002   0.000156   0.000001   0.000001   0.000000  -0.000000
              13         14         15         16         17         18
     1  C   -0.000001  -0.000002   0.000098  -0.033970  -0.002589  -0.000232
     2  C    0.000003   0.000002  -0.000098   0.002355  -0.000191  -0.000032
     3  H   -0.000011  -0.000013   0.000034  -0.000088  -0.000002  -0.000000
     4  C   -0.000000  -0.000000   0.000001   0.000099   0.000005   0.000024
     5  H    0.000000   0.000000  -0.000000   0.000000   0.000000  -0.000000
     6  N   -0.000000   0.000000  -0.000000  -0.000118   0.000028   0.000018
     7  O   -0.000000  -0.000000   0.000001   0.001237  -0.000585   0.001185
     8  N   -0.000015  -0.000111   0.003654   0.290404  -0.050746  -0.004602
     9  C    0.000335   0.005032  -0.061836  -0.040044  -0.003486   0.000157
    10  C   -0.035987  -0.013639   0.507723  -0.004019  -0.000049   0.000103
    11  C   -0.033942  -0.045148  -0.034514   0.000217   0.000117  -0.000001
    12  C    0.552480  -0.027167  -0.046368  -0.000028   0.000000  -0.000000
    13  C    4.849070   0.549726  -0.035740  -0.000001  -0.000000   0.000000
    14  C    0.549726   4.852562   0.530221   0.000001  -0.000000  -0.000000
    15  C   -0.035740   0.530221   4.987295   0.000042   0.000010  -0.000000
    16  C   -0.000001   0.000001   0.000042   5.087277   0.326412  -0.059237
    17  C   -0.000000  -0.000000   0.000010   0.326412   4.743027   0.563625
    18  C    0.000000  -0.000000  -0.000000  -0.059237   0.563625   4.926788
    19  C    0.000000   0.000000  -0.000000   0.006588  -0.016895   0.521614
    20  C   -0.000000  -0.000000   0.000000   0.000360  -0.036091  -0.034128
    21  C   -0.000000  -0.000000   0.000000   0.005068  -0.013944  -0.044954
    22  C    0.000000   0.000000  -0.000000  -0.061404   0.510434  -0.033575
    23  H    0.000022  -0.000074  -0.002005   0.004336   0.000302  -0.000226
    24  H    0.000016  -0.000112  -0.001648   0.000476   0.002565   0.001747
    25  H    0.004794   0.000288   0.006270   0.000031   0.000101   0.000001
    26  H   -0.043142   0.004570   0.000940   0.000000   0.000000  -0.000000
    27  H    0.358600  -0.043182   0.004782  -0.000000  -0.000000   0.000000
    28  H   -0.042914   0.357818  -0.040070   0.000000   0.000000  -0.000000
    29  H    0.005017  -0.044175   0.359925  -0.000000   0.000001   0.000000
    30  H    0.000000  -0.000000  -0.000003   0.365236  -0.046466   0.000761
    31  H   -0.000003   0.000003  -0.000209   0.362162  -0.043380   0.001678
    32  H    0.000000  -0.000000  -0.000001  -0.013058  -0.040544   0.353462
    33  H    0.000000   0.000000  -0.000000  -0.000179   0.003663  -0.039636
    34  H   -0.000000   0.000000   0.000000   0.000009   0.000825   0.004705
    35  H    0.000000   0.000000  -0.000000  -0.000155   0.003586   0.000777
    36  H    0.000000   0.000000  -0.000000  -0.007592  -0.056691   0.005631
              19         20         21         22         23         24
     1  C   -0.000047  -0.000001  -0.000007   0.000206   0.000956   0.003436
     2  C   -0.000001  -0.000000  -0.000000   0.000004   0.005879   0.000254
     3  H    0.000000  -0.000000  -0.000000   0.000000  -0.000446   0.000061
     4  C   -0.000000   0.000000   0.000000  -0.000000  -0.000037   0.000003
     5  H    0.000000  -0.000000  -0.000000   0.000000  -0.000000  -0.000000
     6  N    0.000001  -0.000000  -0.000000   0.000002  -0.000062  -0.000001
     7  O   -0.000111   0.000003   0.000002  -0.000195   0.000179  -0.000003
     8  N    0.000221  -0.000013  -0.000106   0.003480  -0.034407  -0.039387
     9  C   -0.000019  -0.000001   0.000001   0.000057   0.359727   0.362753
    10  C    0.000000  -0.000000  -0.000000   0.000010  -0.048072  -0.046834
    11  C   -0.000000   0.000000  -0.000000  -0.000000   0.000791   0.001799
    12  C    0.000000   0.000000   0.000000  -0.000000  -0.000072  -0.000097
    13  C    0.000000  -0.000000  -0.000000   0.000000   0.000022   0.000016
    14  C    0.000000  -0.000000  -0.000000   0.000000  -0.000074  -0.000112
    15  C   -0.000000   0.000000   0.000000  -0.000000  -0.002005  -0.001648
    16  C    0.006588   0.000360   0.005068  -0.061404   0.004336   0.000476
    17  C   -0.016895  -0.036091  -0.013944   0.510434   0.000302   0.002565
    18  C    0.521614  -0.034128  -0.044954  -0.033575  -0.000226   0.001747
    19  C    4.865815   0.553141  -0.027212  -0.046819  -0.000008  -0.000016
    20  C    0.553141   4.848218   0.550837  -0.035667   0.000000  -0.000002
    21  C   -0.027212   0.550837   4.851241   0.531469  -0.000000   0.000004
    22  C   -0.046819  -0.035667   0.531469   4.984095  -0.000002  -0.000214
    23  H   -0.000008   0.000000  -0.000000  -0.000002   0.560749  -0.026568
    24  H   -0.000016  -0.000002   0.000004  -0.000214  -0.026568   0.565805
    25  H   -0.000000   0.000000   0.000000  -0.000000   0.000080   0.000181
    26  H   -0.000000   0.000000   0.000000  -0.000000   0.000003   0.000003
    27  H   -0.000000  -0.000000   0.000000  -0.000000  -0.000000  -0.000000
    28  H   -0.000000   0.000000   0.000000  -0.000000   0.000001   0.000001
    29  H   -0.000000   0.000000   0.000000  -0.000000   0.002601   0.003281
    30  H   -0.000088   0.000028  -0.000072  -0.001887  -0.000281   0.000079
    31  H   -0.000109   0.000016  -0.000124  -0.002323   0.000138  -0.002914
    32  H   -0.045905   0.004819   0.000333   0.006243   0.000366  -0.000494
    33  H    0.357420  -0.043441   0.004565   0.000972  -0.000000  -0.000001
    34  H   -0.043086   0.357964  -0.043582   0.004808  -0.000000  -0.000000
    35  H    0.004725  -0.043234   0.357211  -0.040447   0.000000  -0.000000
    36  H    0.000450   0.005058  -0.044365   0.358997  -0.000000  -0.000009
              25         26         27         28         29         30
     1  C    0.001645   0.000000   0.000000   0.000000   0.000001   0.000368
     2  C    0.000845  -0.000003   0.000000  -0.000000   0.000000   0.000710
     3  H    0.000039   0.000000  -0.000000  -0.000000   0.000000  -0.000006
     4  C    0.000026   0.000000   0.000000   0.000000   0.000000  -0.000022
     5  H   -0.000000  -0.000000   0.000000  -0.000000  -0.000000   0.000001
     6  N   -0.000007   0.000000  -0.000000  -0.000000  -0.000000  -0.000223
     7  O   -0.000033   0.000000   0.000000   0.000000   0.000000   0.002867
     8  N    0.007059   0.000010  -0.000000   0.000001   0.000155  -0.036537
     9  C   -0.013271  -0.000177   0.000009  -0.000152  -0.007469   0.004233
    10  C   -0.040220   0.003660   0.000802   0.003530  -0.056059   0.000356
    11  C    0.354831  -0.039959   0.004664   0.000760   0.005641  -0.000280
    12  C   -0.046794   0.358121  -0.042918   0.004722   0.000427  -0.000011
    13  C    0.004794  -0.043142   0.358600  -0.042914   0.005017   0.000000
    14  C    0.000288   0.004570  -0.043182   0.357818  -0.044175  -0.000000
    15  C    0.006270   0.000940   0.004782  -0.040070   0.359925  -0.000003
    16  C    0.000031   0.000000  -0.000000   0.000000  -0.000000   0.365236
    17  C    0.000101   0.000000  -0.000000   0.000000   0.000001  -0.046466
    18  C    0.000001  -0.000000   0.000000  -0.000000   0.000000   0.000761
    19  C   -0.000000  -0.000000  -0.000000  -0.000000  -0.000000  -0.000088
    20  C    0.000000   0.000000  -0.000000   0.000000   0.000000   0.000028
    21  C    0.000000   0.000000   0.000000   0.000000   0.000000  -0.000072
    22  C   -0.000000  -0.000000  -0.000000  -0.000000  -0.000000  -0.001887
    23  H    0.000080   0.000003  -0.000000   0.000001   0.002601  -0.000281
    24  H    0.000181   0.000003  -0.000000   0.000001   0.003281   0.000079
    25  H    0.591330  -0.005249  -0.000179   0.000017  -0.000151   0.000515
    26  H   -0.005249   0.593471  -0.005644  -0.000191   0.000018  -0.000001
    27  H   -0.000179  -0.005644   0.597966  -0.005583  -0.000192  -0.000000
    28  H    0.000017  -0.000191  -0.005583   0.594717  -0.005669   0.000000
    29  H   -0.000151   0.000018  -0.000192  -0.005669   0.613318  -0.000000
    30  H    0.000515  -0.000001  -0.000000   0.000000  -0.000000   0.554060
    31  H   -0.000571  -0.000001  -0.000000  -0.000000  -0.000009  -0.028829
    32  H    0.000001  -0.000000  -0.000000  -0.000000   0.000000   0.000126
    33  H   -0.000000  -0.000000   0.000000  -0.000000  -0.000000   0.000003
    34  H   -0.000000   0.000000  -0.000000   0.000000  -0.000000  -0.000000
    35  H   -0.000000  -0.000000   0.000000  -0.000000  -0.000000   0.000000
    36  H    0.000000  -0.000000  -0.000000  -0.000000  -0.000000   0.002833
              31         32         33         34         35         36
     1  C    0.003230   0.002948   0.000001   0.000000   0.000000   0.000002
     2  C   -0.000059   0.000011  -0.000000   0.000000   0.000000   0.000000
     3  H   -0.000002  -0.000000   0.000000  -0.000000   0.000000   0.000000
     4  C   -0.000001  -0.000035  -0.000000  -0.000000  -0.000000  -0.000000
     5  H   -0.000000   0.000000   0.000000  -0.000000   0.000000   0.000000
     6  N    0.000002  -0.000004   0.000000   0.000000  -0.000000   0.000000
     7  O    0.000168   0.001060  -0.000004   0.000000   0.000000  -0.000002
     8  N   -0.037258   0.005775   0.000009  -0.000000   0.000001   0.000156
     9  C   -0.000114   0.000331   0.000000  -0.000000   0.000000   0.000001
    10  C    0.002341   0.000102   0.000000  -0.000000   0.000000   0.000001
    11  C    0.001791   0.000000  -0.000000   0.000000  -0.000000   0.000000
    12  C   -0.000018  -0.000000  -0.000000  -0.000000  -0.000000  -0.000000
    13  C   -0.000003   0.000000   0.000000  -0.000000   0.000000   0.000000
    14  C    0.000003  -0.000000   0.000000   0.000000   0.000000   0.000000
    15  C   -0.000209  -0.000001  -0.000000   0.000000  -0.000000  -0.000000
    16  C    0.362162  -0.013058  -0.000179   0.000009  -0.000155  -0.007592
    17  C   -0.043380  -0.040544   0.003663   0.000825   0.003586  -0.056691
    18  C    0.001678   0.353462  -0.039636   0.004705   0.000777   0.005631
    19  C   -0.000109  -0.045905   0.357420  -0.043086   0.004725   0.000450
    20  C    0.000016   0.004819  -0.043441   0.357964  -0.043234   0.005058
    21  C   -0.000124   0.000333   0.004565  -0.043582   0.357211  -0.044365
    22  C   -0.002323   0.006243   0.000972   0.004808  -0.040447   0.358997
    23  H    0.000138   0.000366  -0.000000  -0.000000   0.000000  -0.000000
    24  H   -0.002914  -0.000494  -0.000001  -0.000000  -0.000000  -0.000009
    25  H   -0.000571   0.000001  -0.000000  -0.000000  -0.000000   0.000000
    26  H   -0.000001  -0.000000  -0.000000   0.000000  -0.000000  -0.000000
    27  H   -0.000000  -0.000000   0.000000  -0.000000   0.000000  -0.000000
    28  H   -0.000000  -0.000000  -0.000000   0.000000  -0.000000  -0.000000
    29  H   -0.000009   0.000000  -0.000000  -0.000000  -0.000000  -0.000000
    30  H   -0.028829   0.000126   0.000003  -0.000000   0.000000   0.002833
    31  H    0.569849   0.000165   0.000003  -0.000000   0.000001   0.003144
    32  H    0.000165   0.598382  -0.005358  -0.000184   0.000017  -0.000156
    33  H    0.000003  -0.005358   0.596766  -0.005684  -0.000193   0.000018
    34  H   -0.000000  -0.000184  -0.005684   0.602214  -0.005645  -0.000196
    35  H    0.000001   0.000017  -0.000193  -0.005645   0.599562  -0.005793
    36  H    0.003144  -0.000156   0.000018  -0.000196  -0.005793   0.619257
 Mulliken charges:
               1
     1  C    0.605595
     2  C   -0.279703
     3  H    0.147881
     4  C    0.048995
     5  H    0.157070
     6  N   -0.177150
     7  O   -0.389736
     8  N   -0.487537
     9  C   -0.227236
    10  C    0.143180
    11  C   -0.179811
    12  C   -0.129211
    13  C   -0.128308
    14  C   -0.126600
    15  C   -0.178505
    16  C   -0.232416
    17  C    0.156959
    18  C   -0.165650
    19  C   -0.129658
    20  C   -0.127865
    21  C   -0.126363
    22  C   -0.178243
    23  H    0.176130
    24  H    0.175834
    25  H    0.138421
    26  H    0.133570
    27  H    0.130875
    28  H    0.133012
    29  H    0.123339
    30  H    0.182527
    31  H    0.171233
    32  H    0.131598
    33  H    0.131077
    34  H    0.127852
    35  H    0.129587
    36  H    0.119257
 Sum of Mulliken charges =   0.00000
 Mulliken charges with hydrogens summed into heavy atoms:
               1
     1  C    0.605595
     2  C   -0.131822
     4  C    0.206064
     6  N   -0.177150
     7  O   -0.389736
     8  N   -0.487537
     9  C    0.124728
    10  C    0.143180
    11  C   -0.041390
    12  C    0.004360
    13  C    0.002567
    14  C    0.006412
    15  C   -0.055166
    16  C    0.121344
    17  C    0.156959
    18  C   -0.034053
    19  C    0.001419
    20  C   -0.000013
    21  C    0.003224
    22  C   -0.058986
 Electronic spatial extent (au):  <R**2>=           6556.8522
 Charge=              0.0000 electrons
 Dipole moment (field-independent basis, Debye):
    X=             -2.7647    Y=             -2.6406    Z=              0.6830  Tot=              3.8837
 Quadrupole moment (field-independent basis, Debye-Ang):
   XX=           -109.6757   YY=           -121.0556   ZZ=           -108.6020
   XY=             -8.8976   XZ=              0.9634   YZ=              2.7677
 Traceless Quadrupole moment (field-independent basis, Debye-Ang):
   XX=              3.4354   YY=             -7.9445   ZZ=              4.5091
   XY=             -8.8976   XZ=              0.9634   YZ=              2.7677
 Octapole moment (field-independent basis, Debye-Ang**2):
  XXX=            -10.1599  YYY=             18.7297  ZZZ=             -2.5880  XYY=            -29.4228
  XXY=            -41.9478  XXZ=              3.7387  XZZ=             -0.4883  YZZ=             -5.0752
  YYZ=              7.1423  XYZ=             17.0137
 Hexadecapole moment (field-independent basis, Debye-Ang**3):
 XXXX=          -5610.8092 YYYY=          -2228.5600 ZZZZ=           -610.1255 XXXY=             -7.5095
 XXXZ=             79.8378 YYYX=           -120.5145 YYYZ=             42.2953 ZZZX=              5.9689
 ZZZY=             -4.8554 XXYY=          -1417.1890 XXZZ=          -1050.5903 YYZZ=           -488.3844
 XXYZ=              2.5805 YYXZ=            -39.5124 ZZXY=              5.9097
 N-N= 1.425805212356D+03 E-N=-4.805476846216D+03  KE= 8.340205406779D+02
 Calling FoFJK, ICntrl=      2127 FMM=F ISym2X=0 I1Cent= 0 IOpClX= 0 NMat=1 NMatS=1 NMatT=0.
 ***** Axes restored to original set *****
 -------------------------------------------------------------------
 Center     Atomic                   Forces (Hartrees/Bohr)
 Number     Number              X              Y              Z
 -------------------------------------------------------------------
      1        6          -0.001836382    0.016292343   -0.001702869
      2        6           0.007398994   -0.006864893    0.003630525
      3        1           0.000901688   -0.000454809    0.000661338
      4        6          -0.020265887   -0.001941095   -0.012766166
      5        1           0.001237200    0.000849662   -0.000980185
      6        7           0.015080492    0.016202635    0.011191139
      7        8           0.003005793   -0.019625599    0.001457320
      8        7          -0.004752897   -0.010083572   -0.000961579
      9        6           0.002178740    0.002154866    0.003265885
     10        6           0.007917964   -0.003884208    0.008313859
     11        6          -0.001379439    0.000434008   -0.000730733
     12        6           0.000311178   -0.000472106   -0.001281347
     13        6           0.000432864    0.000837747    0.005190760
     14        6          -0.001551489   -0.000111831   -0.005878558
     15        6           0.000157927    0.000777844    0.002932264
     16        6          -0.003318173    0.002117435   -0.004136366
     17        6          -0.009796152   -0.003237916   -0.006547037
     18        6           0.000416732    0.000739410    0.000520292
     19        6           0.000060753   -0.000285811    0.001860191
     20        6           0.000313890    0.000091984   -0.005607902
     21        6           0.001368472    0.000762977    0.005630274
     22        6           0.001308904    0.000416016   -0.002850593
     23        1          -0.003881435    0.002113816   -0.001144225
     24        1          -0.002771051    0.001527181   -0.002322124
     25        1           0.000704151   -0.000278457   -0.003012761
     26        1          -0.000661095    0.000285262   -0.000695559
     27        1          -0.000508265    0.000019935    0.000097548
     28        1          -0.000348153    0.000023112   -0.000582936
     29        1          -0.001128047    0.000873045   -0.001056824
     30        1           0.002853985    0.000284214   -0.000063752
     31        1           0.004353516    0.000499957    0.003156406
     32        1          -0.000311950    0.000177176    0.002535720
     33        1           0.000748114   -0.000162928    0.000573058
     34        1           0.000227443   -0.000358518   -0.000261310
     35        1           0.000279397   -0.000190702    0.000548631
     36        1           0.001252219    0.000471818    0.001017614
 -------------------------------------------------------------------
 Cartesian Forces:  Max     0.020265887 RMS     0.005011548

 GradGradGradGradGradGradGradGradGradGradGradGradGradGradGradGradGradGrad
 Berny optimization.
 FormGI is forming the generalized inverse of G from B-inverse, IUseBI=4.
 Internal  Forces:  Max     0.015797664 RMS     0.002593781
 Search for a local minimum.
 Step number   1 out of a maximum of  199
 All quantities printed in internal units (Hartrees-Bohrs-Radians)
 Mixed Optimization -- RFO/linear search
 Second derivative matrix not updated -- first step.
 ITU=  0
     Eigenvalues ---    0.00512   0.00529   0.00903   0.00924   0.01256
     Eigenvalues ---    0.01412   0.01415   0.02014   0.02028   0.02028
     Eigenvalues ---    0.02059   0.02062   0.02083   0.02091   0.02113
     Eigenvalues ---    0.02117   0.02137   0.02140   0.02140   0.02162
     Eigenvalues ---    0.02171   0.02173   0.02178   0.02191   0.02194
     Eigenvalues ---    0.02210   0.02231   0.02275   0.02311   0.04511
     Eigenvalues ---    0.04603   0.06387   0.06411   0.10501   0.10608
     Eigenvalues ---    0.13587   0.13650   0.15980   0.15992   0.15997
     Eigenvalues ---    0.15998   0.15999   0.15999   0.15999   0.16000
     Eigenvalues ---    0.16000   0.16000   0.16000   0.16000   0.21999
     Eigenvalues ---    0.21999   0.22000   0.22000   0.22019   0.22041
     Eigenvalues ---    0.22696   0.23462   0.23465   0.24700   0.24928
     Eigenvalues ---    0.24952   0.24986   0.24994   0.24999   0.30443
     Eigenvalues ---    0.30568   0.33799   0.33825   0.33995   0.34342
     Eigenvalues ---    0.34967   0.35006   0.35088   0.35138   0.35142
     Eigenvalues ---    0.35146   0.35146   0.35161   0.35178   0.35187
     Eigenvalues ---    0.35905   0.36252   0.37009   0.37207   0.41298
     Eigenvalues ---    0.41342   0.41562   0.41837   0.41929   0.45032
     Eigenvalues ---    0.45045   0.45296   0.45948   0.45999   0.46126
     Eigenvalues ---    0.46181   0.46792   0.46868   0.47759   0.49907
     Eigenvalues ---    0.52786   0.56828
 RFO step:  Lambda=-7.61903750D-03 EMin= 5.11817754D-03
 Linear search not attempted -- first point.
 Iteration  1 RMS(Cart)=  0.12221426 RMS(Int)=  0.00453153
 Iteration  2 RMS(Cart)=  0.00655947 RMS(Int)=  0.00036934
 Iteration  3 RMS(Cart)=  0.00003338 RMS(Int)=  0.00036877
 Iteration  4 RMS(Cart)=  0.00000001 RMS(Int)=  0.00036877
 Variable       Old X    -DE/DX   Delta X   Delta X   Delta X     New X
                                 (Linear)    (Quad)   (Total)
    R1        2.60008  -0.00077   0.00000  -0.00102  -0.00069   2.59939
    R2        2.58588  -0.00933   0.00000  -0.01743  -0.01741   2.56848
    R3        2.57154   0.00476   0.00000   0.00888   0.00888   2.58043
    R4        2.03690   0.00117   0.00000   0.00317   0.00317   2.04007
    R5        2.65636   0.00667   0.00000   0.01443   0.01460   2.67096
    R6        2.04230   0.00136   0.00000   0.00371   0.00371   2.04601
    R7        2.51951  -0.01580   0.00000  -0.02708  -0.02726   2.49225
    R8        2.62098   0.01123   0.00000   0.02291   0.02257   2.64356
    R9        2.75535  -0.00322   0.00000  -0.00847  -0.00847   2.74688
   R10        2.75833  -0.00084   0.00000  -0.00223  -0.00223   2.75610
   R11        2.86844   0.00491   0.00000   0.01567   0.01567   2.88412
   R12        2.07671  -0.00127   0.00000  -0.00369  -0.00369   2.07302
   R13        2.07338   0.00038   0.00000   0.00110   0.00110   2.07448
   R14        2.64903  -0.00464   0.00000  -0.01076  -0.01075   2.63828
   R15        2.66122  -0.00458   0.00000  -0.01086  -0.01086   2.65037
   R16        2.64382  -0.00104   0.00000  -0.00224  -0.00224   2.64158
   R17        2.05532  -0.00080   0.00000  -0.00224  -0.00224   2.05308
   R18        2.63239   0.00077   0.00000   0.00229   0.00228   2.63467
   R19        2.05439  -0.00029   0.00000  -0.00080  -0.00080   2.05359
   R20        2.62970   0.00490   0.00000   0.01092   0.01092   2.64061
   R21        2.05451  -0.00018   0.00000  -0.00050  -0.00050   2.05401
   R22        2.64004  -0.00290   0.00000  -0.00617  -0.00617   2.63387
   R23        2.05444  -0.00028   0.00000  -0.00077  -0.00077   2.05367
   R24        2.05729   0.00016   0.00000   0.00045   0.00045   2.05774
   R25        2.87089   0.00467   0.00000   0.01497   0.01497   2.88587
   R26        2.07626  -0.00136   0.00000  -0.00394  -0.00394   2.07233
   R27        2.06757   0.00173   0.00000   0.00493   0.00493   2.07250
   R28        2.64691  -0.00438   0.00000  -0.01025  -0.01022   2.63669
   R29        2.66240  -0.00528   0.00000  -0.01246  -0.01242   2.64997
   R30        2.64409  -0.00158   0.00000  -0.00349  -0.00348   2.64060
   R31        2.05387  -0.00070   0.00000  -0.00196  -0.00196   2.05191
   R32        2.63330   0.00025   0.00000   0.00119   0.00116   2.63445
   R33        2.05439  -0.00032   0.00000  -0.00088  -0.00088   2.05351
   R34        2.62823   0.00520   0.00000   0.01162   0.01158   2.63981
   R35        2.05372   0.00014   0.00000   0.00040   0.00040   2.05412
   R36        2.63841  -0.00229   0.00000  -0.00477  -0.00477   2.63364
   R37        2.05414  -0.00010   0.00000  -0.00028  -0.00028   2.05386
   R38        2.05665   0.00045   0.00000   0.00126   0.00126   2.05791
    A1        1.88911   0.00368   0.00000   0.01696   0.01596   1.90508
    A2        2.32417   0.00006   0.00000  -0.00115  -0.00067   2.32350
    A3        2.06988  -0.00373   0.00000  -0.01587  -0.01539   2.05449
    A4        2.21917   0.00209   0.00000   0.00813   0.00855   2.22771
    A5        1.82518  -0.00464   0.00000  -0.01867  -0.01951   1.80567
    A6        2.23815   0.00256   0.00000   0.01087   0.01125   2.24940
    A7        2.25445  -0.00209   0.00000  -0.00938  -0.00919   2.24527
    A8        1.95725   0.00378   0.00000   0.01589   0.01400   1.97124
    A9        2.07144  -0.00170   0.00000  -0.00706  -0.00690   2.06453
   A10        1.83326  -0.00061   0.00000  -0.00329  -0.00594   1.82731
   A11        1.91916  -0.00207   0.00000  -0.00592  -0.00823   1.91093
   A12        2.11038  -0.00459   0.00000  -0.01736  -0.01746   2.09292
   A13        2.10142   0.00333   0.00000   0.01350   0.01342   2.11484
   A14        2.06890   0.00129   0.00000   0.00549   0.00540   2.07430
   A15        2.01899   0.00059   0.00000   0.00286   0.00299   2.02198
[...]
    76    O    7  dxz    Ryd( 3d)     0.00150
    77    O    7  dyz    Ryd( 3d)     0.00166
    78    O    7  dx2y2  Ryd( 3d)     0.00153
    79    O    7  dz2    Ryd( 3d)     0.00218
 
    80    N    8  S      Cor( 1S)     1.99931
    81    N    8  S      Val( 2S)     1.22713
    82    N    8  S      Ryd( 3S)     0.00327
    83    N    8  S      Ryd( 4S)     0.00003
    84    N    8  px     Val( 2p)     1.35670
    85    N    8  px     Ryd( 3p)     0.00333
    86    N    8  py     Val( 2p)     1.29350
    87    N    8  py     Ryd( 3p)     0.00121
    88    N    8  pz     Val( 2p)     1.34762
    89    N    8  pz     Ryd( 3p)     0.00225
    90    N    8  dxy    Ryd( 3d)     0.00080
    91    N    8  dxz    Ryd( 3d)     0.00068
    92    N    8  dyz    Ryd( 3d)     0.00076
    93    N    8  dx2y2  Ryd( 3d)     0.00081
    94    N    8  dz2    Ryd( 3d)     0.00067
 
    95    C    9  S      Cor( 1S)     1.99922
    96    C    9  S      Val( 2S)     1.00793
    97    C    9  S      Ryd( 3S)     0.00123
    98    C    9  S      Ryd( 4S)     0.00003
    99    C    9  px     Val( 2p)     1.06606
   100    C    9  px     Ryd( 3p)     0.00165
   101    C    9  py     Val( 2p)     1.14641
   102    C    9  py     Ryd( 3p)     0.00695
   103    C    9  pz     Val( 2p)     1.02883
   104    C    9  pz     Ryd( 3p)     0.00347
   105    C    9  dxy    Ryd( 3d)     0.00113
   106    C    9  dxz    Ryd( 3d)     0.00101
   107    C    9  dyz    Ryd( 3d)     0.00154
   108    C    9  dx2y2  Ryd( 3d)     0.00066
   109    C    9  dz2    Ryd( 3d)     0.00063
 
   110    C   10  S      Cor( 1S)     1.99898
   111    C   10  S      Val( 2S)     0.85482
   112    C   10  S      Ryd( 3S)     0.00072
   113    C   10  S      Ryd( 4S)     0.00005
   114    C   10  px     Val( 2p)     1.04150
   115    C   10  px     Ryd( 3p)     0.00473
   116    C   10  py     Val( 2p)     1.11108
   117    C   10  py     Ryd( 3p)     0.00529
   118    C   10  pz     Val( 2p)     1.19531
   119    C   10  pz     Ryd( 3p)     0.00468
   120    C   10  dxy    Ryd( 3d)     0.00062
   121    C   10  dxz    Ryd( 3d)     0.00037
   122    C   10  dyz    Ryd( 3d)     0.00051
   123    C   10  dx2y2  Ryd( 3d)     0.00055
   124    C   10  dz2    Ryd( 3d)     0.00053
 
   125    C   11  S      Cor( 1S)     1.99904
   126    C   11  S      Val( 2S)     0.92447
   127    C   11  S      Ryd( 3S)     0.00053
   128    C   11  S      Ryd( 4S)     0.00004
   129    C   11  px     Val( 2p)     1.10858
   130    C   11  px     Ryd( 3p)     0.00388
   131    C   11  py     Val( 2p)     1.16156
   132    C   11  py     Ryd( 3p)     0.00427
   133    C   11  pz     Val( 2p)     1.15573
   134    C   11  pz     Ryd( 3p)     0.00524
   135    C   11  dxy    Ryd( 3d)     0.00067
   136    C   11  dxz    Ryd( 3d)     0.00043
   137    C   11  dyz    Ryd( 3d)     0.00039
   138    C   11  dx2y2  Ryd( 3d)     0.00059
   139    C   11  dz2    Ryd( 3d)     0.00061
 
   140    C   12  S      Cor( 1S)     1.99910
   141    C   12  S      Val( 2S)     0.95162
   142    C   12  S      Ryd( 3S)     0.00060
   143    C   12  S      Ryd( 4S)     0.00003
   144    C   12  px     Val( 2p)     1.08700
   145    C   12  px     Ryd( 3p)     0.00399
   146    C   12  py     Val( 2p)     1.10606
   147    C   12  py     Ryd( 3p)     0.00448
   148    C   12  pz     Val( 2p)     1.04986
   149    C   12  pz     Ryd( 3p)     0.00205
   150    C   12  dxy    Ryd( 3d)     0.00064
   151    C   12  dxz    Ryd( 3d)     0.00077
   152    C   12  dyz    Ryd( 3d)     0.00086
   153    C   12  dx2y2  Ryd( 3d)     0.00075
   154    C   12  dz2    Ryd( 3d)     0.00028
 
   155    C   13  S      Cor( 1S)     1.99910
   156    C   13  S      Val( 2S)     0.94358
   157    C   13  S      Ryd( 3S)     0.00052
   158    C   13  S      Ryd( 4S)     0.00003
   159    C   13  px     Val( 2p)     1.17149
   160    C   13  px     Ryd( 3p)     0.00456
   161    C   13  py     Val( 2p)     1.08080
   162    C   13  py     Ryd( 3p)     0.00494
   163    C   13  pz     Val( 2p)     1.13033
   164    C   13  pz     Ryd( 3p)     0.00483
   165    C   13  dxy    Ryd( 3d)     0.00064
   166    C   13  dxz    Ryd( 3d)     0.00047
   167    C   13  dyz    Ryd( 3d)     0.00044
   168    C   13  dx2y2  Ryd( 3d)     0.00060
   169    C   13  dz2    Ryd( 3d)     0.00049
 
   170    C   14  S      Cor( 1S)     1.99910
   171    C   14  S      Val( 2S)     0.94315
   172    C   14  S      Ryd( 3S)     0.00060
   173    C   14  S      Ryd( 4S)     0.00003
   174    C   14  px     Val( 2p)     1.07813
   175    C   14  px     Ryd( 3p)     0.00489
   176    C   14  py     Val( 2p)     1.17097
   177    C   14  py     Ryd( 3p)     0.00470
   178    C   14  pz     Val( 2p)     1.10696
   179    C   14  pz     Ryd( 3p)     0.00459
   180    C   14  dxy    Ryd( 3d)     0.00064
   181    C   14  dxz    Ryd( 3d)     0.00045
   182    C   14  dyz    Ryd( 3d)     0.00043
   183    C   14  dx2y2  Ryd( 3d)     0.00065
   184    C   14  dz2    Ryd( 3d)     0.00061
 
   185    C   15  S      Cor( 1S)     1.99904
   186    C   15  S      Val( 2S)     0.94177
   187    C   15  S      Ryd( 3S)     0.00055
   188    C   15  S      Ryd( 4S)     0.00004
   189    C   15  px     Val( 2p)     1.11084
   190    C   15  px     Ryd( 3p)     0.00364
   191    C   15  py     Val( 2p)     1.08992
   192    C   15  py     Ryd( 3p)     0.00364
   193    C   15  pz     Val( 2p)     1.06365
   194    C   15  pz     Ryd( 3p)     0.00181
   195    C   15  dxy    Ryd( 3d)     0.00065
   196    C   15  dxz    Ryd( 3d)     0.00084
   197    C   15  dyz    Ryd( 3d)     0.00087
   198    C   15  dx2y2  Ryd( 3d)     0.00074
   199    C   15  dz2    Ryd( 3d)     0.00027
 
   200    C   16  S      Cor( 1S)     1.99920
   201    C   16  S      Val( 2S)     1.01565
   202    C   16  S      Ryd( 3S)     0.00136
   203    C   16  S      Ryd( 4S)     0.00003
   204    C   16  px     Val( 2p)     1.09743
   205    C   16  px     Ryd( 3p)     0.00336
   206    C   16  py     Val( 2p)     1.13810
   207    C   16  py     Ryd( 3p)     0.00818
   208    C   16  pz     Val( 2p)     1.01722
   209    C   16  pz     Ryd( 3p)     0.00267
   210    C   16  dxy    Ryd( 3d)     0.00114
   211    C   16  dxz    Ryd( 3d)     0.00099
   212    C   16  dyz    Ryd( 3d)     0.00148
   213    C   16  dx2y2  Ryd( 3d)     0.00051
   214    C   16  dz2    Ryd( 3d)     0.00058
 
   215    C   17  S      Cor( 1S)     1.99898
   216    C   17  S      Val( 2S)     0.87903
   217    C   17  S      Ryd( 3S)     0.00077
   218    C   17  S      Ryd( 4S)     0.00005
   219    C   17  px     Val( 2p)     1.05051
   220    C   17  px     Ryd( 3p)     0.00451
   221    C   17  py     Val( 2p)     1.08354
   222    C   17  py     Ryd( 3p)     0.00503
   223    C   17  pz     Val( 2p)     1.07493
   224    C   17  pz     Ryd( 3p)     0.00246
   225    C   17  dxy    Ryd( 3d)     0.00071
   226    C   17  dxz    Ryd( 3d)     0.00042
   227    C   17  dyz    Ryd( 3d)     0.00060
   228    C   17  dx2y2  Ryd( 3d)     0.00069
   229    C   17  dz2    Ryd( 3d)     0.00035
 
   230    C   18  S      Cor( 1S)     1.99902
   231    C   18  S      Val( 2S)     0.94829
   232    C   18  S      Ryd( 3S)     0.00060
   233    C   18  S      Ryd( 4S)     0.00004
   234    C   18  px     Val( 2p)     1.06097
   235    C   18  px     Ryd( 3p)     0.00349
   236    C   18  py     Val( 2p)     1.19562
   237    C   18  py     Ryd( 3p)     0.00493
   238    C   18  pz     Val( 2p)     1.02977
   239    C   18  pz     Ryd( 3p)     0.00201
   240    C   18  dxy    Ryd( 3d)     0.00056
   241    C   18  dxz    Ryd( 3d)     0.00048
   242    C   18  dyz    Ryd( 3d)     0.00033
   243    C   18  dx2y2  Ryd( 3d)     0.00088
   244    C   18  dz2    Ryd( 3d)     0.00051
 
   245    C   19  S      Cor( 1S)     1.99910
   246    C   19  S      Val( 2S)     0.96043
   247    C   19  S      Ryd( 3S)     0.00060
   248    C   19  S      Ryd( 4S)     0.00003
   249    C   19  px     Val( 2p)     1.14125
   250    C   19  px     Ryd( 3p)     0.00451
   251    C   19  py     Val( 2p)     1.09710
   252    C   19  py     Ryd( 3p)     0.00484
   253    C   19  pz     Val( 2p)     1.01090
   254    C   19  pz     Ryd( 3p)     0.00116
   255    C   19  dxy    Ryd( 3d)     0.00080
   256    C   19  dxz    Ryd( 3d)     0.00046
   257    C   19  dyz    Ryd( 3d)     0.00058
   258    C   19  dx2y2  Ryd( 3d)     0.00062
   259    C   19  dz2    Ryd( 3d)     0.00042
 
   260    C   20  S      Cor( 1S)     1.99910
   261    C   20  S      Val( 2S)     0.96185
   262    C   20  S      Ryd( 3S)     0.00053
   263    C   20  S      Ryd( 4S)     0.00003
   264    C   20  px     Val( 2p)     1.14108
   265    C   20  px     Ryd( 3p)     0.00447
   266    C   20  py     Val( 2p)     1.09501
   267    C   20  py     Ryd( 3p)     0.00463
   268    C   20  pz     Val( 2p)     1.03318
   269    C   20  pz     Ryd( 3p)     0.00198
   270    C   20  dxy    Ryd( 3d)     0.00076
   271    C   20  dxz    Ryd( 3d)     0.00048
   272    C   20  dyz    Ryd( 3d)     0.00051
   273    C   20  dx2y2  Ryd( 3d)     0.00063
   274    C   20  dz2    Ryd( 3d)     0.00039
 
   275    C   21  S      Cor( 1S)     1.99910
   276    C   21  S      Val( 2S)     0.95979
   277    C   21  S      Ryd( 3S)     0.00059
   278    C   21  S      Ryd( 4S)     0.00003
   279    C   21  px     Val( 2p)     1.05275
   280    C   21  px     Ryd( 3p)     0.00425
   281    C   21  py     Val( 2p)     1.19813
   282    C   21  py     Ryd( 3p)     0.00528
   283    C   21  pz     Val( 2p)     1.01500
   284    C   21  pz     Ryd( 3p)     0.00185
   285    C   21  dxy    Ryd( 3d)     0.00058
   286    C   21  dxz    Ryd( 3d)     0.00047
   287    C   21  dyz    Ryd( 3d)     0.00037
   288    C   21  dx2y2  Ryd( 3d)     0.00085
   289    C   21  dz2    Ryd( 3d)     0.00050
 
   290    C   22  S      Cor( 1S)     1.99902
   291    C   22  S      Val( 2S)     0.95377
   292    C   22  S      Ryd( 3S)     0.00061
   293    C   22  S      Ryd( 4S)     0.00004
   294    C   22  px     Val( 2p)     1.15237
   295    C   22  px     Ryd( 3p)     0.00443
   296    C   22  py     Val( 2p)     1.08915
   297    C   22  py     Ryd( 3p)     0.00416
   298    C   22  pz     Val( 2p)     1.01027
   299    C   22  pz     Ryd( 3p)     0.00104
   300    C   22  dxy    Ryd( 3d)     0.00075
   301    C   22  dxz    Ryd( 3d)     0.00047
   302    C   22  dyz    Ryd( 3d)     0.00062
   303    C   22  dx2y2  Ryd( 3d)     0.00065
   304    C   22  dz2    Ryd( 3d)     0.00041
 
   305    H   23  S      Val( 1S)     0.78384
   306    H   23  S      Ryd( 2S)     0.00515
 
   307    H   24  S      Val( 1S)     0.72787
   308    H   24  S      Ryd( 2S)     0.00134
 
   309    H   25  S      Val( 1S)     0.81474
   310    H   25  S      Ryd( 2S)     0.00027
 
   311    H   26  S      Val( 1S)     0.78521
   312    H   26  S      Ryd( 2S)     0.00088
 
   313    H   27  S      Val( 1S)     0.78730
   314    H   27  S      Ryd( 2S)     0.00070
 
   315    H   28  S      Val( 1S)     0.78523
   316    H   28  S      Ryd( 2S)     0.00075
 
   317    H   29  S      Val( 1S)     0.79231
   318    H   29  S      Ryd( 2S)     0.00100
 
   319    H   30  S      Val( 1S)     0.73268
   320    H   30  S      Ryd( 2S)     0.00183
 
   321    H   31  S      Val( 1S)     0.70586
   322    H   31  S      Ryd( 2S)     0.00132
 
   323    H   32  S      Val( 1S)     0.76767
   324    H   32  S      Ryd( 2S)     0.00103
 
   325    H   33  S      Val( 1S)     0.76209
   326    H   33  S      Ryd( 2S)     0.00086
 
   327    H   34  S      Val( 1S)     0.76217
   328    H   34  S      Ryd( 2S)     0.00082
 
   329    H   35  S      Val( 1S)     0.75886
   330    H   35  S      Ryd( 2S)     0.00082
 
   331    H   36  S      Val( 1S)     0.75555
   332    H   36  S      Ryd( 2S)     0.00118

 WARNING:  1 low occupancy (<1.9990e) core orbital  found on  C    2
           1 low occupancy (<1.9990e) core orbital  found on  C   10
           1 low occupancy (<1.9990e) core orbital  found on  C   17


 Summary of Natural Population Analysis:                  
                                                          
                                       Natural Population 
                Natural  -----------------------------------------------
    Atom  No    Charge         Core      Valence    Rydberg      Total
 -----------------------------------------------------------------------
      C    1    0.56986      1.99905     3.40531    0.02577     5.43014
      C    2   -0.24541      1.99896     4.23592    0.01053     6.24541
      H    3    0.29065      0.00000     0.70903    0.00031     0.70935
      C    4   -0.04141      1.99935     4.01879    0.02327     6.04141
      H    5    0.27052      0.00000     0.72931    0.00018     0.72948
      N    6   -0.02496      1.99949     5.00374    0.02174     7.02496
      O    7   -0.34157      1.99972     6.32882    0.01303     8.34157
      N    8   -0.23808      1.99931     5.22495    0.01382     7.23808
      C    9   -0.26673      1.99922     4.24923    0.01829     6.26673
      C   10   -0.21977      1.99898     4.20272    0.01807     6.21977
      C   11   -0.36603      1.99904     4.35034    0.01665     6.36603
      C   12   -0.20808      1.99910     4.19453    0.01444     6.20808
      C   13   -0.34284      1.99910     4.32620    0.01753     6.34284
      C   14   -0.31590      1.99910     4.29921    0.01759     6.31590
      C   15   -0.21824      1.99904     4.20618    0.01303     6.21824
      C   16   -0.28790      1.99920     4.26839    0.02030     6.28790
      C   17   -0.10259      1.99898     4.08802    0.01560     6.10259
      C   18   -0.24750      1.99902     4.23465    0.01383     6.24750
      C   19   -0.22278      1.99910     4.20967    0.01400     6.22278
      C   20   -0.24461      1.99910     4.23111    0.01440     6.24461
      C   21   -0.23953      1.99910     4.22566    0.01478     6.23953
      C   22   -0.21776      1.99902     4.20555    0.01318     6.21776
      H   23    0.21101      0.00000     0.78384    0.00515     0.78899
      H   24    0.27080      0.00000     0.72787    0.00134     0.72920
      H   25    0.18499      0.00000     0.81474    0.00027     0.81501
      H   26    0.21391      0.00000     0.78521    0.00088     0.78609
      H   27    0.21200      0.00000     0.78730    0.00070     0.78800
      H   28    0.21402      0.00000     0.78523    0.00075     0.78598
      H   29    0.20670      0.00000     0.79231    0.00100     0.79330
      H   30    0.26549      0.00000     0.73268    0.00183     0.73451
      H   31    0.29282      0.00000     0.70586    0.00132     0.70718
      H   32    0.23130      0.00000     0.76767    0.00103     0.76870
      H   33    0.23705      0.00000     0.76209    0.00086     0.76295
      H   34    0.23701      0.00000     0.76217    0.00082     0.76299
      H   35    0.24032      0.00000     0.75886    0.00082     0.75968
      H   36    0.24327      0.00000     0.75555    0.00118     0.75673
 =======================================================================
   * Total *    0.00000     39.98300    99.66871    0.34829   140.00000

                                 Natural Population      
 --------------------------------------------------------
   Core                      39.98300 ( 99.9575% of  40)
   Valence                   99.66871 ( 99.6687% of 100)
   Natural Minimal Basis    139.65171 ( 99.7512% of 140)
   Natural Rydberg Basis      0.34829 (  0.2488% of 140)
 --------------------------------------------------------

    Atom  No          Natural Electron Configuration
 ----------------------------------------------------------------------------
      C    1      [core]2S( 0.80)2p( 2.61)3p( 0.01)3d( 0.01)
      C    2      [core]2S( 1.01)2p( 3.23)3p( 0.01)
      H    3            1S( 0.71)
      C    4      [core]2S( 0.97)2p( 3.05)3p( 0.02)3d( 0.01)
      H    5            1S( 0.73)
      N    6      [core]2S( 1.53)2p( 3.47)3p( 0.01)3d( 0.01)
      O    7      [core]2S( 1.64)2p( 4.68)3d( 0.01)
      N    8      [core]2S( 1.23)2p( 4.00)3p( 0.01)
      C    9      [core]2S( 1.01)2p( 3.24)3p( 0.01)
      C   10      [core]2S( 0.85)2p( 3.35)3p( 0.01)
      C   11      [core]2S( 0.92)2p( 3.43)3p( 0.01)
      C   12      [core]2S( 0.95)2p( 3.24)3p( 0.01)
      C   13      [core]2S( 0.94)2p( 3.38)3p( 0.01)
      C   14      [core]2S( 0.94)2p( 3.36)3p( 0.01)
      C   15      [core]2S( 0.94)2p( 3.26)3p( 0.01)
      C   16      [core]2S( 1.02)2p( 3.25)3p( 0.01)
      C   17      [core]2S( 0.88)2p( 3.21)3p( 0.01)
      C   18      [core]2S( 0.95)2p( 3.29)3p( 0.01)
      C   19      [core]2S( 0.96)2p( 3.25)3p( 0.01)
      C   20      [core]2S( 0.96)2p( 3.27)3p( 0.01)
      C   21      [core]2S( 0.96)2p( 3.27)3p( 0.01)
      C   22      [core]2S( 0.95)2p( 3.25)3p( 0.01)
      H   23            1S( 0.78)2S( 0.01)
      H   24            1S( 0.73)
      H   25            1S( 0.81)
      H   26            1S( 0.79)
      H   27            1S( 0.79)
      H   28            1S( 0.79)
      H   29            1S( 0.79)
      H   30            1S( 0.73)
      H   31            1S( 0.71)
      H   32            1S( 0.77)
      H   33            1S( 0.76)
      H   34            1S( 0.76)
      H   35            1S( 0.76)
      H   36            1S( 0.76)


 NBO analysis skipped by request.
 1\1\GINC-DELLA-R1C4N4\SP\RB3LYP TD-FC\6-31G(d)\C17H16N2O1\BJS4\27-Aug-
 2018\0\\# TD(NStates=10, Root=1) b3lyp/6-31G* volume pop=NPA density=c
 urrent Geom=AllCheck Guess=Read\\Title Card Required\\0,1\C,0,-0.52374
 96141,-0.705584199,-0.3413602496\C,0,0.6509996435,-0.0089740973,-0.551
 8809204\H,0,1.6662061765,-0.3689253127,-0.50665423\C,0,0.2014413365,1.
 310156878,-0.7981171351\H,0,0.8024155694,2.1878050422,-1.0077216249\N,
 0,-1.101914156,1.4504197453,-0.7479101475\O,0,-1.5753003199,0.13311377
 2,-0.4556039143\N,0,-0.7971423503,-2.0085266769,-0.0589245816\C,0,0.25
 07865471,-3.0186974763,-0.1466850121\C,0,0.7333346117,-3.5418084481,1.
 1986599724\C,0,0.9670308292,-2.6724648624,2.2724490671\C,0,1.443199087
 7,-3.1618316387,3.4885545022\C,0,1.6943252001,-4.5268989231,3.64815907
 38\C,0,1.4623577311,-5.3999260891,2.5850398355\C,0,0.9806178461,-4.908
 3047477,1.3700479499\C,0,-2.1590276007,-2.4629175882,0.2508425133\C,0,
 -2.8417279413,-3.1794515072,-0.9022542748\C,0,-3.2166060925,-2.4766479
 004,-2.0571290348\C,0,-3.8391079778,-3.137010808,-3.1147798897\C,0,-4.
 0972130751,-4.5088110672,-3.0345553196\C,0,-3.7300074393,-5.2155694422
 ,-1.890111446\C,0,-3.1049046693,-4.5517916255,-0.8310555578\H,0,1.0842
 674884,-2.5890928696,-0.7123023709\H,0,-0.1269432449,-3.8547261955,-0.
 74933723\H,0,0.7712848623,-1.6099747311,2.154780528\H,0,1.618771436,-2
 .4761724351,4.3133531741\H,0,2.0643656554,-4.9068230908,4.5966117664\H
 ,0,1.6474880658,-6.4644871411,2.7019275498\H,0,0.7946059393,-5.5941353
 745,0.545891544\H,0,-2.7365762602,-1.5881717495,0.5562555151\H,0,-2.09
 47282505,-3.1320859069,1.117201385\H,0,-3.0224929768,-1.4091334501,-2.
 1193641704\H,0,-4.1289012801,-2.5801720302,-4.0020182905\H,0,-4.584639
 3803,-5.0211165339,-3.8598120542\H,0,-3.9287919197,-6.2817292652,-1.81
 85079791\H,0,-2.824583477,-5.1046922539,0.0634010568\\Version=ES64L-G1
 6RevA.03\State=1-A\HF=-842.1138729\RMSD=1.707e-09\Dipole=-0.6347088,2.
 6073779,-2.5405866\Quadrupole=-3.794739,10.6666578,-6.8719188,15.89572
 34,-10.515181,4.2154359\PG=C01 [X(C17H16N2O1)]\\@


 ADVERTISING--  HE WHO HAS SOMETHING TO SELL AND GOES AND WHISPERS
                IN A WELL, IS NOT SO APT TO GET THE DOLLARS AS HE
                WHO CLIMBS A TREE AND HOLLERS.

                   -- FROM THE BACK OF A SUGAR PACKET
 Job cpu time:       0 days  1 hours  8 minutes 42.1 seconds.
 Elapsed time:       0 days  0 hours 11 minutes 27.5 seconds.
 File lengths (MBytes):  RWF=    891 Int=      0 D2E=      0 Chk=     67 Scr=      1
 Normal termination of Gaussian 16 at Mon Aug 27 13:24:00 2018.
