 Entering Gaussian System, Link 0=g16
 Input=solvent_4123.com
 Output=solvent_4123.log
 Initial command:
 /opt/export//g16/l1.exe "/scratch/bjs4/job.16656/Gau-16658.inp" -scrdir="/scratch/bjs4/job.16656/"
 Entering Link 1 = /opt/export//g16/l1.exe PID=     16659.
  
 Copyright (c) 1988,1990,1992,1993,1995,1998,2003,2009,2016,
            Gaussian, Inc.  All Rights Reserved.
  
 This is part of the Gaussian(R) 16 program.  It is based on
 the Gaussian(R) 09 system (copyright 2009, Gaussian, Inc.),
 the Gaussian(R) 03 system (copyright 2003, Gaussian, Inc.),
 the Gaussian(R) 98 system (copyright 1998, Gaussian, Inc.),
 the Gaussian(R) 94 system (copyright 1995, Gaussian, Inc.),
 the Gaussian 92(TM) system (copyright 1992, Gaussian, Inc.),
 the Gaussian 90(TM) system (copyright 1990, Gaussian, Inc.),
 the Gaussian 88(TM) system (copyright 1988, Gaussian, Inc.),
 the Gaussian 86(TM) system (copyright 1986, Carnegie Mellon
 University), and the Gaussian 82(TM) system (copyright 1983,
 Carnegie Mellon University). Gaussian is a federally registered
 trademark of Gaussian, Inc.
  
 This software contains proprietary and confidential information,
 including trade secrets, belonging to Gaussian, Inc.
  
 This software is provided under written license and may be
 used, copied, transmitted, or stored only in accord with that
 written license.
  
 The following legend is applicable only to US Government
 contracts under FAR:
  
                    RESTRICTED RIGHTS LEGEND
  
 Use, reproduction and disclosure by the US Government is
 subject to restrictions as set forth in subparagraphs (a)
 and (c) of the Commercial Computer Software - Restricted
 Rights clause in FAR 52.227-19.
  
 Gaussian, Inc.
 340 Quinnipiac St., Bldg. 40, Wallingford CT 06492
  
  
 ---------------------------------------------------------------
 Warning -- This program may not be used in any manner that
 competes with the business of Gaussian, Inc. or will provide
 assistance to any competitor of Gaussian, Inc.  The licensee
 of this program is prohibited from giving any competitor of
 Gaussian, Inc. access to this program.  By using this program,
 the user acknowledges that Gaussian, Inc. is engaged in the
 business of creating and licensing software in the field of
 computational chemistry and represents and warrants to the
 licensee that it is not a competitor of Gaussian, Inc. and that
 it will not use this program in any manner prohibited above.
 ---------------------------------------------------------------
  

 Cite this work as:
 Gaussian 16, Revision A.03,
 M. J. Frisch, G. W. Trucks, H. B. Schlegel, G. E. Scuseria, 
 M. A. Robb, J. R. Cheeseman, G. Scalmani, V. Barone, 
 G. A. Petersson, H. Nakatsuji, X. Li, M. Caricato, A. V. Marenich, 
 J. Bloino, B. G. Janesko, R. Gomperts, B. Mennucci, H. P. Hratchian, 
 J. V. Ortiz, A. F. Izmaylov, J. L. Sonnenberg, D. Williams-Young, 
 F. Ding, F. Lipparini, F. Egidi, J. Goings, B. Peng, A. Petrone, 
 T. Henderson, D. Ranasinghe, V. G. Zakrzewski, J. Gao, N. Rega, 
 G. Zheng, W. Liang, M. Hada, M. Ehara, K. Toyota, R. Fukuda, 
 J. Hasegawa, M. Ishida, T. Nakajima, Y. Honda, O. Kitao, H. Nakai, 
 T. Vreven, K. Throssell, J. A. Montgomery, Jr., J. E. Peralta, 
 F. Ogliaro, M. J. Bearpark, J. J. Heyd, E. N. Brothers, K. N. Kudin, 
 V. N. Staroverov, T. A. Keith, R. Kobayashi, J. Normand, 
 K. Raghavachari, A. P. Rendell, J. C. Burant, S. S. Iyengar, 
 J. Tomasi, M. Cossi, J. M. Millam, M. Klene, C. Adamo, R. Cammi, 
 J. W. Ochterski, R. L. Martin, K. Morokuma, O. Farkas, 
 J. B. Foresman, and D. J. Fox, Gaussian, Inc., Wallingford CT, 2016.
 
 ******************************************
 Gaussian 16:  ES64L-G16RevA.03 25-Dec-2016
                24-Aug-2020 
 ******************************************
 %nprocshared=2
 Will use up to    2 processors via shared memory.
 %Mem=4GB
 %Chk=solvent_41.chk
 ---------------------------------
 # opt=CalcAll B3LYP/6-31G* scf=qc
 ---------------------------------
 1/10=4,18=20,19=15,26=3,38=1/1,3;
 2/9=110,12=2,17=6,18=5,40=1/2;
 3/5=1,6=6,7=1,11=2,25=1,30=1,71=2,74=-5,140=1/1,2,3;
 4//1;
 5/5=2,8=3,38=5/8;
 8/6=4,10=90,11=11/1;
 11/6=1,8=1,9=11,15=111,16=1/1,2,10;
 10/6=1/2;
 6/7=2,8=2,9=2,10=2,18=1,28=1/1;
 7/10=1,25=1/1,2,3,16;
 1/10=4,18=20,19=15,26=3/3(3);
 2/9=110/2;
 7/8=1,9=1,25=1,44=-1/16;
 99//99;
 2/9=110/2;
 3/5=1,6=6,7=1,11=2,25=1,30=1,71=2,74=-5,140=1/1,2,3;
 4/5=5,16=3,69=1/1;
 5/5=2,8=3,38=5/8;
 8/6=4,10=90,11=11/1;
 11/6=1,8=1,9=11,15=111,16=1/1,2,10;
 10/6=1/2;
 7/10=1,25=1/1,2,3,16;
 1/10=4,18=20,19=15,26=3/3(-8);
 2/9=110/2;
 6/7=2,8=2,9=2,10=2,18=1,19=2,28=1/1;
 7/8=1,9=1,25=1,44=-1/16;
 99//99;
 -------------------
 Title Card Required
 -------------------
 Symbolic Z-matrix:
 Charge =  0 Multiplicity = 1
 C                    -1.39699  -0.06537  -0.09297 
 C                    -0.74135   1.17484  -0.05581 
 C                     0.65162   1.23774   0.01405 
 C                     1.40258   0.06403   0.04796 
 C                     0.76418  -1.17434   0.01346 
 C                    -0.62812  -1.24     -0.0564 
 C                    -2.90069  -0.15288  -0.17256 
 F                    -3.51883   1.06118  -0.20642 
 F                    -3.32629  -0.81704  -1.28339 
 F                    -3.44193  -0.81565   0.88757 
 H                    -1.31392   2.10086  -0.08198 
 H                     1.15164   2.20285   0.0415 
 H                     2.48735   0.11468   0.10121 
 H                     1.35151  -2.08902   0.04048 
 H                    -1.11617  -2.21327  -0.08322 
 

 GradGradGradGradGradGradGradGradGradGradGradGradGradGradGradGradGradGrad
 Berny optimization.
 Initialization pass.
                           ----------------------------
                           !    Initial Parameters    !
                           ! (Angstroms and Degrees)  !
 --------------------------                            --------------------------
 ! Name  Definition              Value          Derivative Info.                !
 --------------------------------------------------------------------------------
 ! R1    R(1,2)                  1.4033         calculate D2E/DX2 analytically  !
 ! R2    R(1,6)                  1.4044         calculate D2E/DX2 analytically  !
 ! R3    R(1,7)                  1.5083         calculate D2E/DX2 analytically  !
 ! R4    R(2,3)                  1.3961         calculate D2E/DX2 analytically  !
 ! R5    R(2,11)                 1.0891         calculate D2E/DX2 analytically  !
 ! R6    R(3,4)                  1.3938         calculate D2E/DX2 analytically  !
 ! R7    R(3,12)                 1.0873         calculate D2E/DX2 analytically  !
 ! R8    R(4,5)                  1.3937         calculate D2E/DX2 analytically  !
 ! R9    R(4,13)                 1.0873         calculate D2E/DX2 analytically  !
 ! R10   R(5,6)                  1.3956         calculate D2E/DX2 analytically  !
 ! R11   R(5,14)                 1.0873         calculate D2E/DX2 analytically  !
 ! R12   R(6,15)                 1.0891         calculate D2E/DX2 analytically  !
 ! R13   R(7,8)                  1.3628         calculate D2E/DX2 analytically  !
 ! R14   R(7,9)                  1.3624         calculate D2E/DX2 analytically  !
 ! R15   R(7,10)                 1.3624         calculate D2E/DX2 analytically  !
 ! A1    A(2,1,6)              118.8625         calculate D2E/DX2 analytically  !
 ! A2    A(2,1,7)              121.227          calculate D2E/DX2 analytically  !
 ! A3    A(6,1,7)              119.9104         calculate D2E/DX2 analytically  !
 ! A4    A(1,2,3)              120.4828         calculate D2E/DX2 analytically  !
 ! A5    A(1,2,11)             120.3439         calculate D2E/DX2 analytically  !
 ! A6    A(3,2,11)             119.1732         calculate D2E/DX2 analytically  !
 ! A7    A(2,3,4)              120.0557         calculate D2E/DX2 analytically  !
 ! A8    A(2,3,12)             120.0056         calculate D2E/DX2 analytically  !
 ! A9    A(4,3,12)             119.9387         calculate D2E/DX2 analytically  !
 ! A10   A(3,4,5)              120.0564         calculate D2E/DX2 analytically  !
 ! A11   A(3,4,13)             119.9679         calculate D2E/DX2 analytically  !
 ! A12   A(5,4,13)             119.9756         calculate D2E/DX2 analytically  !
 ! A13   A(4,5,6)              120.0023         calculate D2E/DX2 analytically  !
 ! A14   A(4,5,14)             119.962          calculate D2E/DX2 analytically  !
 ! A15   A(6,5,14)             120.0357         calculate D2E/DX2 analytically  !
 ! A16   A(1,6,5)              120.5402         calculate D2E/DX2 analytically  !
 ! A17   A(1,6,15)             120.0972         calculate D2E/DX2 analytically  !
 ! A18   A(5,6,15)             119.3626         calculate D2E/DX2 analytically  !
 ! A19   A(1,7,8)              113.6916         calculate D2E/DX2 analytically  !
 ! A20   A(1,7,9)              112.5028         calculate D2E/DX2 analytically  !
 ! A21   A(1,7,10)             112.533          calculate D2E/DX2 analytically  !
 ! A22   A(8,7,9)              105.8031         calculate D2E/DX2 analytically  !
 ! A23   A(8,7,10)             105.8145         calculate D2E/DX2 analytically  !
 ! A24   A(9,7,10)             105.8545         calculate D2E/DX2 analytically  !
 ! D1    D(6,1,2,3)              0.1063         calculate D2E/DX2 analytically  !
 ! D2    D(6,1,2,11)          -179.9436         calculate D2E/DX2 analytically  !
 ! D3    D(7,1,2,3)           -179.8178         calculate D2E/DX2 analytically  !
 ! D4    D(7,1,2,11)             0.1324         calculate D2E/DX2 analytically  !
 ! D5    D(2,1,6,5)             -0.1051         calculate D2E/DX2 analytically  !
 ! D6    D(2,1,6,15)           179.9408         calculate D2E/DX2 analytically  !
 ! D7    D(7,1,6,5)            179.82           calculate D2E/DX2 analytically  !
 ! D8    D(7,1,6,15)            -0.1341         calculate D2E/DX2 analytically  !
 ! D9    D(2,1,7,8)              0.1695         calculate D2E/DX2 analytically  !
 ! D10   D(2,1,7,9)            120.4138         calculate D2E/DX2 analytically  !
 ! D11   D(2,1,7,10)          -120.1123         calculate D2E/DX2 analytically  !
 ! D12   D(6,1,7,8)           -179.7537         calculate D2E/DX2 analytically  !
 ! D13   D(6,1,7,9)            -59.5095         calculate D2E/DX2 analytically  !
 ! D14   D(6,1,7,10)            59.9644         calculate D2E/DX2 analytically  !
 ! D15   D(1,2,3,4)             -0.0245         calculate D2E/DX2 analytically  !
 ! D16   D(1,2,3,12)           179.9418         calculate D2E/DX2 analytically  !
 ! D17   D(11,2,3,4)          -179.9752         calculate D2E/DX2 analytically  !
 ! D18   D(11,2,3,12)           -0.009          calculate D2E/DX2 analytically  !
 ! D19   D(2,3,4,5)             -0.0605         calculate D2E/DX2 analytically  !
 ! D20   D(2,3,4,13)           179.9296         calculate D2E/DX2 analytically  !
 ! D21   D(12,3,4,5)           179.9732         calculate D2E/DX2 analytically  !
 ! D22   D(12,3,4,13)           -0.0366         calculate D2E/DX2 analytically  !
 ! D23   D(3,4,5,6)              0.0617         calculate D2E/DX2 analytically  !
 ! D24   D(3,4,5,14)          -179.9702         calculate D2E/DX2 analytically  !
 ! D25   D(13,4,5,6)          -179.9284         calculate D2E/DX2 analytically  !
 ! D26   D(13,4,5,14)            0.0397         calculate D2E/DX2 analytically  !
 ! D27   D(4,5,6,1)              0.022          calculate D2E/DX2 analytically  !
 ! D28   D(4,5,6,15)           179.9764         calculate D2E/DX2 analytically  !
 ! D29   D(14,5,6,1)          -179.9461         calculate D2E/DX2 analytically  !
 ! D30   D(14,5,6,15)            0.0084         calculate D2E/DX2 analytically  !
 --------------------------------------------------------------------------------
 Trust Radius=3.00D-01 FncErr=1.00D-07 GrdErr=1.00D-06 EigMax=2.50D+02 EigMin=1.00D-04
 Number of steps in this run=     79 maximum allowed number of steps=    100.
 GradGradGradGradGradGradGradGradGradGradGradGradGradGradGradGradGradGrad

                          Input orientation:                          
 ---------------------------------------------------------------------
 Center     Atomic      Atomic             Coordinates (Angstroms)
 Number     Number       Type             X           Y           Z
 ---------------------------------------------------------------------
      1          6           0       -1.396990   -0.065370   -0.092970
      2          6           0       -0.741350    1.174840   -0.055810
      3          6           0        0.651620    1.237740    0.014050
      4          6           0        1.402580    0.064030    0.047960
      5          6           0        0.764180   -1.174340    0.013460
      6          6           0       -0.628120   -1.240000   -0.056400
      7          6           0       -2.900690   -0.152880   -0.172560
      8          9           0       -3.518830    1.061180   -0.206420
      9          9           0       -3.326290   -0.817040   -1.283390
     10          9           0       -3.441930   -0.815650    0.887570
     11          1           0       -1.313920    2.100860   -0.081980
     12          1           0        1.151640    2.202850    0.041500
     13          1           0        2.487350    0.114680    0.101210
     14          1           0        1.351510   -2.089020    0.040480
     15          1           0       -1.116170   -2.213270   -0.083220
 ---------------------------------------------------------------------
                    Distance matrix (angstroms):
                    1          2          3          4          5
     1  C    0.000000
     2  C    1.403341   0.000000
     3  C    2.430299   1.396138   0.000000
     4  C    2.806100   2.416837   1.393803   0.000000
     5  C    2.431419   2.791069   2.414705   1.393666   0.000000
     6  C    1.404370   2.417493   2.789604   2.415601   1.395597
     7  C    1.508346   2.537562   3.819366   4.314373   3.809102
     8  F    2.405034   2.783882   4.180004   5.027852   4.836328
     9  F    2.388369   3.486611   4.661463   4.991091   4.305976
    10  F    2.388757   3.484989   4.662253   4.994803   4.310927
    11  H    2.167850   1.089052   2.148847   3.397784   3.880018
    12  H    3.414443   2.156313   1.087295   2.153500   3.399459
    13  H    3.893356   3.401926   2.153779   1.087257   2.153738
    14  H    3.415731   3.878417   3.399688   2.153669   1.087348
    15  H    2.166202   3.408890   3.878661   3.398147   2.150451
                    6          7          8          9         10
     6  C    0.000000
     7  C    2.521884   0.000000
     8  F    3.697856   1.362786   0.000000
     9  F    2.994081   1.362420   2.173625   0.000000
    10  F    2.998113   1.362380   2.173757   2.174038   0.000000
    11  H    3.410619   2.757787   2.440911   3.742614   3.738246
    12  H    3.876899   4.692192   4.814371   5.561198   5.561300
    13  H    3.400905   5.401621   6.088078   6.048440   6.053118
    14  H    2.156190   4.677096   5.805595   5.025174   5.031511
    15  H    1.089113   2.727215   4.063247   2.876542   2.881828
                   11         12         13         14         15
    11  H    0.000000
    12  H    2.470756   0.000000
    13  H    4.292799   2.479544   0.000000
    14  H    4.967354   4.296522   2.479942   0.000000
    15  H    4.318660   4.965947   4.294033   2.473901   0.000000
 Stoichiometry    C7H5F3
 Framework group  C1[X(C7H5F3)]
 Deg. of freedom    39
 Full point group                 C1      NOp   1
 Largest Abelian subgroup         C1      NOp   1
 Largest concise Abelian subgroup C1      NOp   1
                         Standard orientation:                         
 ---------------------------------------------------------------------
 Center     Atomic      Atomic             Coordinates (Angstroms)
 Number     Number       Type             X           Y           Z
 ---------------------------------------------------------------------
      1          6           0        0.051419    0.012521    0.001900
      2          6           0        0.772730    1.216297    0.002088
      3          6           0        2.168825    1.205392    0.000138
      4          6           0        2.857453   -0.006414   -0.001501
      5          6           0        2.153569   -1.209264    0.000077
      6          6           0        0.757997   -1.201152    0.002000
      7          6           0       -1.456905    0.004710   -0.000115
      8          9           0       -2.010940    1.249782   -0.005355
      9          9           0       -1.973581   -0.635881   -1.085876
     10          9           0       -1.977173   -0.628604    1.088147
     11          1           0        0.249314    2.171319    0.002941
     12          1           0        2.719901    2.142689   -0.000657
     13          1           0        3.944685   -0.013241   -0.004175
     14          1           0        2.692348   -2.153744   -0.000715
     15          1           0        0.218459   -2.147230    0.002831
 ---------------------------------------------------------------------
 Rotational constants (GHZ):           2.8310426           0.9213801           0.7930992
 Standard basis: 6-31G(d) (6D, 7F)
 There are   160 symmetry adapted cartesian basis functions of A   symmetry.
 There are   160 symmetry adapted basis functions of A   symmetry.
   160 basis functions,   300 primitive gaussians,   160 cartesian basis functions
    37 alpha electrons       37 beta electrons
       nuclear repulsion energy       523.5694217927 Hartrees.
 NAtoms=   15 NActive=   15 NUniq=   15 SFac= 1.00D+00 NAtFMM=   60 NAOKFM=F Big=F
 Integral buffers will be    131072 words long.
 Raffenetti 2 integral format.
 Two-electron integral symmetry is turned on.
 One-electron integrals computed using PRISM.
 NBasis=   160 RedAO= T EigKep=  4.64D-04  NBF=   160
 NBsUse=   160 1.00D-06 EigRej= -1.00D+00 NBFU=   160
 ExpMin= 1.61D-01 ExpMax= 7.00D+03 ExpMxC= 1.05D+03 IAcc=3 IRadAn=         5 AccDes= 0.00D+00
 Harris functional with IExCor=  402 and IRadAn=       5 diagonalized for initial guess.
 HarFok:  IExCor=  402 AccDes= 0.00D+00 IRadAn=         5 IDoV= 1 UseB2=F ITyADJ=14
 ICtDFT=  3500011 ScaDFX=  1.000000  1.000000  1.000000  1.000000
 FoFCou: FMM=F IPFlag=           0 FMFlag=      100000 FMFlg1=           0
         NFxFlg=           0 DoJE=T BraDBF=F KetDBF=T FulRan=T
         wScrn=  0.000000 ICntrl=       500 IOpCl=  0 I1Cent=   200000004 NGrid=           0
         NMat0=    1 NMatS0=      1 NMatT0=    0 NMatD0=    1 NMtDS0=    0 NMtDT0=    0
 Petite list used in FoFCou.
 Keep R1 ints in memory in canonical form, NReq=85041664.
 Gradient too large for Newton-Raphson -- use scaled steepest descent instead.
     Accept linear search using points  2 and  3.
 Gradient too large for Newton-Raphson -- use scaled steepest descent instead.
     Accept linear search using points  2 and  3.
 Gradient too large for Newton-Raphson -- use scaled steepest descent instead.
 Gradient too large for Newton-Raphson -- use scaled steepest descent instead.
     Accept linear search using points  1 and  2.
 Gradient too large for Newton-Raphson -- use scaled steepest descent instead.
 LinEq1:  Iter=  0 NonCon=     1 RMS=4.88D-05 Max=2.11D-03 NDo=     1
 AX will form     1 AO Fock derivatives at one time.
 LinEq1:  Iter=  1 NonCon=     1 RMS=2.76D-05 Max=5.69D-04 NDo=     1
 LinEq1:  Iter=  2 NonCon=     1 RMS=1.04D-05 Max=2.06D-04 NDo=     1
 LinEq1:  Iter=  3 NonCon=     1 RMS=4.52D-06 Max=1.01D-04 NDo=     1
 LinEq1:  Iter=  4 NonCon=     1 RMS=1.81D-06 Max=2.98D-05 NDo=     1
 LinEq1:  Iter=  5 NonCon=     1 RMS=9.88D-07 Max=2.78D-05 NDo=     1
 LinEq1:  Iter=  6 NonCon=     1 RMS=4.57D-07 Max=1.93D-05 NDo=     1
 LinEq1:  Iter=  7 NonCon=     1 RMS=2.89D-07 Max=1.04D-05 NDo=     1
 LinEq1:  Iter=  8 NonCon=     1 RMS=1.53D-07 Max=4.26D-06 NDo=     1
 LinEq1:  Iter=  9 NonCon=     1 RMS=8.00D-08 Max=1.80D-06 NDo=     1
 LinEq1:  Iter= 10 NonCon=     1 RMS=2.83D-08 Max=4.23D-07 NDo=     1
 LinEq1:  Iter= 11 NonCon=     1 RMS=6.57D-09 Max=1.01D-07 NDo=     1
 LinEq1:  Iter= 12 NonCon=     1 RMS=3.90D-09 Max=9.56D-08 NDo=     1
 LinEq1:  Iter= 13 NonCon=     0 RMS=1.82D-09 Max=2.94D-08 NDo=     1
 Linear equations converged to 9.540D-09 9.540D-08 after    13 iterations.
     Accept linear search using points  1 and  2.
     Minimum is close to point  2 DX= -2.39D-05 DF=  0.00D+00 DXR=  2.39D-05 DFR=  0.00D+00 which will be used.
 LinEq1:  Iter=  0 NonCon=     1 RMS=2.10D-08 Max=7.15D-07 NDo=     1
 LinEq1:  Iter=  1 NonCon=     1 RMS=6.28D-09 Max=2.62D-07 NDo=     1
 LinEq1:  Iter=  2 NonCon=     1 RMS=2.63D-09 Max=1.04D-07 NDo=     1
 LinEq1:  Iter=  3 NonCon=     1 RMS=1.76D-09 Max=5.28D-08 NDo=     1
 LinEq1:  Iter=  4 NonCon=     1 RMS=6.23D-10 Max=9.92D-09 NDo=     1
 LinEq1:  Iter=  5 NonCon=     1 RMS=3.53D-10 Max=4.51D-09 NDo=     1
 LinEq1:  Iter=  6 NonCon=     1 RMS=1.06D-10 Max=2.82D-09 NDo=     1
 LinEq1:  Iter=  7 NonCon=     1 RMS=7.30D-11 Max=3.23D-09 NDo=     1
 LinEq1:  Iter=  8 NonCon=     1 RMS=4.44D-11 Max=2.09D-09 NDo=     1
 LinEq1:  Iter=  9 NonCon=     1 RMS=2.94D-11 Max=8.94D-10 NDo=     1
 LinEq1:  Iter= 10 NonCon=     1 RMS=1.00D-11 Max=2.02D-10 NDo=     1
 LinEq1:  Iter= 11 NonCon=     0 RMS=3.57D-12 Max=5.02D-11 NDo=     1
 Linear equations converged to 1.116D-11 1.116D-10 after    11 iterations.
 SCF Done:  E(RB3LYP) =  -569.285316386     a.u. after    8 cycles
            Convg  =    0.8860D-10                    42 Fock formations.
              S**2 =  0.0000                  -V/T =  2.0083
 DoSCS=F DFT=T ScalE2(SS,OS)=  1.000000  1.000000
 Range of M.O.s used for correlation:     1   160
 NBasis=   160 NAE=    37 NBE=    37 NFC=     0 NFV=     0
 NROrb=    160 NOA=    37 NOB=    37 NVA=   123 NVB=   123

 **** Warning!!: The largest alpha MO coefficient is  0.11177190D+02

 Symmetrizing basis deriv contribution to polar:
 IMax=3 JMax=2 DiffMx= 0.00D+00
 G2DrvN: will do    16 centers at a time, making    1 passes.
 Calling FoFCou, ICntrl=  3107 FMM=F I1Cent=   0 AccDes= 0.00D+00.
 End of G2Drv F.D. properties file   721 does not exist.
 End of G2Drv F.D. properties file   722 does not exist.
 End of G2Drv F.D. properties file   788 does not exist.
          IDoAtm=111111111111111
          Differentiating once with respect to electric field.
                with respect to dipole field.
          Differentiating once with respect to nuclear coordinates.
 Keep R1 ints in memory in canonical form, NReq=85047531.
          There are    48 degrees of freedom in the 1st order CPHF.  IDoFFX=6 NUNeed=     3.
     45 vectors produced by pass  0 Test12= 9.48D-15 2.08D-09 XBig12= 9.99D+01 6.50D+00.
 AX will form    45 AO Fock derivatives at one time.
     45 vectors produced by pass  1 Test12= 9.48D-15 2.08D-09 XBig12= 1.65D+01 9.00D-01.
     45 vectors produced by pass  2 Test12= 9.48D-15 2.08D-09 XBig12= 1.85D-01 7.14D-02.
     45 vectors produced by pass  3 Test12= 9.48D-15 2.08D-09 XBig12= 1.33D-03 6.05D-03.
     45 vectors produced by pass  4 Test12= 9.48D-15 2.08D-09 XBig12= 2.16D-06 2.35D-04.
     36 vectors produced by pass  5 Test12= 9.48D-15 2.08D-09 XBig12= 2.09D-09 5.40D-06.
      7 vectors produced by pass  6 Test12= 9.48D-15 2.08D-09 XBig12= 1.78D-12 1.85D-07.
      2 vectors produced by pass  7 Test12= 9.48D-15 2.08D-09 XBig12= 1.21D-15 4.65D-09.
 InvSVY:  IOpt=1 It=  1 EMax= 3.55D-15
 Solved reduced A of dimension   270 with    48 vectors.
 Isotropic polarizability for W=    0.000000       67.18 Bohr**3.
 End of Minotr F.D. properties file   721 does not exist.
 End of Minotr F.D. properties file   722 does not exist.
 End of Minotr F.D. properties file   788 does not exist.

 **********************************************************************

            Population analysis using the SCF density.

 **********************************************************************

 Orbital symmetries:
       Occupied  (A) (A) (A) (A) (A) (A) (A) (A) (A) (A) (A) (A)
                 (A) (A) (A) (A) (A) (A) (A) (A) (A) (A) (A) (A)
                 (A) (A) (A) (A) (A) (A) (A) (A) (A) (A) (A) (A)
                 (A)
       Virtual   (A) (A) (A) (A) (A) (A) (A) (A) (A) (A) (A) (A)
                 (A) (A) (A) (A) (A) (A) (A) (A) (A) (A) (A) (A)
                 (A) (A) (A) (A) (A) (A) (A) (A) (A) (A) (A) (A)
                 (A) (A) (A) (A) (A) (A) (A) (A) (A) (A) (A) (A)
                 (A) (A) (A) (A) (A) (A) (A) (A) (A) (A) (A) (A)
                 (A) (A) (A) (A) (A) (A) (A) (A) (A) (A) (A) (A)
                 (A) (A) (A) (A) (A) (A) (A) (A) (A) (A) (A) (A)
                 (A) (A) (A) (A) (A) (A) (A) (A) (A) (A) (A) (A)
                 (A) (A) (A) (A) (A) (A) (A) (A) (A) (A) (A) (A)
                 (A) (A) (A) (A) (A) (A) (A) (A) (A) (A) (A) (A)
                 (A) (A) (A)
 The electronic state is 1-A.
 Alpha  occ. eigenvalues --  -24.72055 -24.71546 -24.71545 -10.43176 -10.22229
 Alpha  occ. eigenvalues --  -10.21274 -10.21194 -10.20839 -10.20747 -10.20687
 Alpha  occ. eigenvalues --   -1.29077  -1.20482  -1.20187  -0.87423  -0.78635
 Alpha  occ. eigenvalues --   -0.76205  -0.69448  -0.62480  -0.62215  -0.57032
 Alpha  occ. eigenvalues --   -0.56828  -0.56401  -0.50824  -0.46686  -0.46278
 Alpha  occ. eigenvalues --   -0.44936  -0.44488  -0.43803  -0.41277  -0.40548
 Alpha  occ. eigenvalues --   -0.40244  -0.39005  -0.37791  -0.36131  -0.35885
 Alpha  occ. eigenvalues --   -0.27054  -0.26700
 Alpha virt. eigenvalues --   -0.03026  -0.01671   0.08235   0.12244   0.12474
 Alpha virt. eigenvalues --    0.13517   0.14393   0.17411   0.18803   0.21634
 Alpha virt. eigenvalues --    0.21760   0.24242   0.28216   0.29042   0.33378
 Alpha virt. eigenvalues --    0.34214   0.43228   0.48159   0.49051   0.52732
 Alpha virt. eigenvalues --    0.52972   0.54018   0.55408   0.57584   0.58139
 Alpha virt. eigenvalues --    0.58213   0.59686   0.60012   0.61549   0.62971
 Alpha virt. eigenvalues --    0.64639   0.69742   0.72937   0.75316   0.80699
 Alpha virt. eigenvalues --    0.82169   0.82388   0.84677   0.88843   0.89695
 Alpha virt. eigenvalues --    0.93309   0.95673   0.99785   1.04514   1.07153
 Alpha virt. eigenvalues --    1.09162   1.09399   1.11530   1.13376   1.14649
 Alpha virt. eigenvalues --    1.17227   1.23431   1.23548   1.33101   1.33803
 Alpha virt. eigenvalues --    1.34365   1.38011   1.38117   1.39110   1.41377
 Alpha virt. eigenvalues --    1.42446   1.45809   1.45876   1.47513   1.49399
 Alpha virt. eigenvalues --    1.53374   1.61522   1.67139   1.67708   1.71932
 Alpha virt. eigenvalues --    1.76716   1.78047   1.83659   1.86271   1.86704
 Alpha virt. eigenvalues --    1.88691   1.89775   1.95304   1.96662   1.97771
 Alpha virt. eigenvalues --    2.00007   2.01684   2.03413   2.03702   2.07742
 Alpha virt. eigenvalues --    2.08277   2.10737   2.12834   2.13629   2.16943
 Alpha virt. eigenvalues --    2.18068   2.23871   2.27525   2.28140   2.29166
 Alpha virt. eigenvalues --    2.38758   2.44614   2.53208   2.57253   2.62160
 Alpha virt. eigenvalues --    2.63213   2.68718   2.71766   2.72811   2.73589
 Alpha virt. eigenvalues --    2.74117   2.85926   2.91781   2.99523   3.03398
 Alpha virt. eigenvalues --    3.09216   3.10757   3.39185   4.06309   4.08910
 Alpha virt. eigenvalues --    4.09617   4.25035   4.28326   4.30569   4.46189
 Alpha virt. eigenvalues --    4.64134   4.72920   5.55187
          Condensed to atoms (all electrons):
               1          2          3          4          5          6
     1  C    5.032934   0.512514  -0.022355  -0.036081  -0.019717   0.473004
     2  C    0.512514   4.985539   0.499756  -0.032750  -0.041384  -0.060614
     3  C   -0.022355   0.499756   4.881622   0.547676  -0.028861  -0.039612
     4  C   -0.036081  -0.032750   0.547676   4.843422   0.544984  -0.032745
     5  C   -0.019717  -0.041384  -0.028861   0.544984   4.866458   0.519116
     6  C    0.473004  -0.060614  -0.039612  -0.032745   0.519116   4.982641
     7  C    0.290934  -0.032070   0.004911  -0.000037   0.004355  -0.020895
     8  F   -0.046125   0.003831   0.000590  -0.000006  -0.000022   0.002981
     9  F   -0.051096   0.001321  -0.000025  -0.000004   0.000186   0.002361
    10  F   -0.050948   0.001302  -0.000025  -0.000004   0.000181   0.002311
    11  H   -0.044665   0.357852  -0.039037   0.004582   0.000410   0.004909
    12  H    0.003886  -0.039816   0.361620  -0.042422   0.004503   0.000759
    13  H    0.000590   0.004826  -0.042399   0.359933  -0.042563   0.004920
    14  H    0.004005   0.000748   0.004518  -0.042346   0.361510  -0.039858
    15  H   -0.048005   0.004708   0.000484   0.004566  -0.038669   0.360088
               7          8          9         10         11         12
     1  C    0.290934  -0.046125  -0.051096  -0.050948  -0.044665   0.003886
     2  C   -0.032070   0.003831   0.001321   0.001302   0.357852  -0.039816
     3  C    0.004911   0.000590  -0.000025  -0.000025  -0.039037   0.361620
     4  C   -0.000037  -0.000006  -0.000004  -0.000004   0.004582  -0.042422
     5  C    0.004355  -0.000022   0.000186   0.000181   0.000410   0.004503
     6  C   -0.020895   0.002981   0.002361   0.002311   0.004909   0.000759
     7  C    4.134021   0.283770   0.281405   0.281318  -0.006818  -0.000105
     8  F    0.283770   9.101823  -0.039020  -0.039014   0.008501   0.000001
     9  F    0.281405  -0.039020   9.113995  -0.039870   0.000139   0.000000
    10  F    0.281318  -0.039014  -0.039870   9.113971   0.000140   0.000000
    11  H   -0.006818   0.008501   0.000139   0.000140   0.563498  -0.005321
    12  H   -0.000105   0.000001   0.000000   0.000000  -0.005321   0.579761
    13  H    0.000005  -0.000000  -0.000000  -0.000000  -0.000168  -0.005519
    14  H   -0.000103   0.000000   0.000000   0.000000   0.000015  -0.000180
    15  H   -0.003685   0.000056   0.001576   0.001554  -0.000155   0.000016
              13         14         15
     1  C    0.000590   0.004005  -0.048005
     2  C    0.004826   0.000748   0.004708
     3  C   -0.042399   0.004518   0.000484
     4  C    0.359933  -0.042346   0.004566
     5  C   -0.042563   0.361510  -0.038669
     6  C    0.004920  -0.039858   0.360088
     7  C    0.000005  -0.000103  -0.003685
     8  F   -0.000000   0.000000   0.000056
     9  F   -0.000000   0.000000   0.001576
    10  F   -0.000000   0.000000   0.001554
    11  H   -0.000168   0.000015  -0.000155
    12  H   -0.005519  -0.000180   0.000016
    13  H    0.585124  -0.005500  -0.000170
    14  H   -0.005500   0.579232  -0.005479
    15  H   -0.000170  -0.005479   0.568022
 Mulliken charges:
               1
     1  C    0.001124
     2  C   -0.165764
     3  C   -0.128863
     4  C   -0.118768
     5  C   -0.130485
     6  C   -0.159367
     7  C    0.782993
     8  F   -0.277366
     9  F   -0.270971
    10  F   -0.270917
    11  H    0.156115
    12  H    0.142817
    13  H    0.140921
    14  H    0.143437
    15  H    0.155094
 Sum of Mulliken charges =   0.00000
 Mulliken charges with hydrogens summed into heavy atoms:
               1
     1  C    0.001124
     2  C   -0.009649
     3  C    0.013954
     4  C    0.022153
     5  C    0.012952
     6  C   -0.004273
     7  C    0.782993
     8  F   -0.277366
     9  F   -0.270971
    10  F   -0.270917
 APT charges:
               1
     1  C   -0.162987
     2  C   -0.010913
     3  C   -0.029178
     4  C    0.019588
     5  C   -0.031626
     6  C   -0.002360
     7  C    1.707089
     8  F   -0.526977
     9  F   -0.564863
    10  F   -0.565256
    11  H    0.052929
    12  H    0.024543
    13  H    0.022891
    14  H    0.025101
    15  H    0.042020
 Sum of APT charges =   0.00000
 APT charges with hydrogens summed into heavy atoms:
               1
     1  C   -0.162987
     2  C    0.042017
     3  C   -0.004636
     4  C    0.042478
     5  C   -0.006524
     6  C    0.039660
     7  C    1.707089
     8  F   -0.526977
     9  F   -0.564863
    10  F   -0.565256
 Electronic spatial extent (au):  <R**2>=           1396.9610
 Charge=              0.0000 electrons
 Dipole moment (field-independent basis, Debye):
    X=              2.8549    Y=              0.0222    Z=              0.0007  Tot=              2.8549
 Quadrupole moment (field-independent basis, Debye-Ang):
   XX=            -52.4275   YY=            -49.6547   ZZ=            -57.9329
   XY=             -0.0791   XZ=             -0.0121   YZ=              0.0002
 Traceless Quadrupole moment (field-independent basis, Debye-Ang):
   XX=              0.9109   YY=              3.6837   ZZ=             -4.5945
   XY=             -0.0791   XZ=             -0.0121   YZ=              0.0002
 Octapole moment (field-independent basis, Debye-Ang**2):
  XXX=            -15.3252  YYY=             -1.0607  ZZZ=             -0.0410  XYY=             -6.0548
  XXY=             -0.0190  XXZ=             -0.0601  XZZ=            -18.3217  YZZ=              0.9898
  YYZ=              0.0118  XYZ=             -0.0015
 Hexadecapole moment (field-independent basis, Debye-Ang**3):
 XXXX=          -1072.0384 YYYY=           -337.4728 ZZZZ=           -117.0636 XXXY=             -0.5250
 XXXZ=             -0.1482 YYYX=              1.4283 YYYZ=             -0.0005 ZZZX=              0.0240
 ZZZY=             -0.0029 XXYY=           -237.8470 XXZZ=           -227.0007 YYZZ=            -85.5412
 XXYZ=              0.0053 YYXZ=             -0.0263 ZZXY=             -1.6911
 N-N= 5.235694217927D+02 E-N=-2.385700696829D+03  KE= 5.646149814339D+02
  Exact polarizability:  90.482   0.297  79.101  -0.056   0.001  31.971
 Approx polarizability: 139.916   0.543 134.852  -0.111   0.003  49.009
 Calling FoFJK, ICntrl=    100127 FMM=F ISym2X=0 I1Cent= 0 IOpClX= 0 NMat=1 NMatS=1 NMatT=0.
 ***** Axes restored to original set *****
 -------------------------------------------------------------------
 Center     Atomic                   Forces (Hartrees/Bohr)
 Number     Number              X              Y              Z
 -------------------------------------------------------------------
      1        6           0.006107985    0.003126507    0.000304894
      2        6          -0.004908071    0.002600120   -0.000307963
      3        6          -0.000976246   -0.000902342   -0.000041479
      4        6           0.002680084    0.001428268    0.000146070
      5        6          -0.003039836   -0.000916602   -0.000145173
      6        6          -0.003942724   -0.002760813   -0.000262953
      7        6          -0.017064976    0.001115617   -0.000887780
      8        9           0.010288548   -0.004694186    0.000589549
      9        9           0.007017573    0.001229856    0.004901675
     10        9           0.007477971    0.001240782   -0.004104282
     11        1          -0.000358772   -0.003530533   -0.000056396
     12        1          -0.001233476   -0.000333563   -0.000050997
     13        1          -0.000339998   -0.000054989    0.000013120
     14        1          -0.001297567    0.000239767   -0.000054804
     15        1          -0.000410495    0.002212110   -0.000043480
 -------------------------------------------------------------------
 Cartesian Forces:  Max     0.017064976 RMS     0.003983866
 FormGI is forming the generalized inverse of G from B-inverse, IUseBI=4.

 GradGradGradGradGradGradGradGradGradGradGradGradGradGradGradGradGradGrad
 Berny optimization.
 Internal  Forces:  Max     0.008863592 RMS     0.003301564
 Search for a local minimum.
 Step number   1 out of a maximum of   79
 All quantities printed in internal units (Hartrees-Bohrs-Radians)
 Mixed Optimization -- RFO/linear search
 Second derivative matrix not updated -- analytic derivatives used.
 ITU=  0
     Eigenvalues ---   -0.00070   0.01456   0.01715   0.01746   0.02029
     Eigenvalues ---    0.02333   0.02533   0.02687   0.02787   0.02831
     Eigenvalues ---    0.11131   0.11629   0.12012   0.12456   0.12550
     Eigenvalues ---    0.12919   0.13055   0.18163   0.19093   0.19314
     Eigenvalues ---    0.19676   0.22623   0.24723   0.25018   0.28745
     Eigenvalues ---    0.33609   0.33960   0.35573   0.35605   0.35924
     Eigenvalues ---    0.35967   0.36156   0.38232   0.41638   0.42582
     Eigenvalues ---    0.47202   0.47320   0.50302   0.51271
 RFO step:  Lambda=-2.15582013D-03 EMin=-6.97509049D-04
 Linear search not attempted -- first point.
 Iteration  1 RMS(Cart)=  0.09415144 RMS(Int)=  0.03190982
 Iteration  2 RMS(Cart)=  0.04866899 RMS(Int)=  0.00189767
 Iteration  3 RMS(Cart)=  0.00200874 RMS(Int)=  0.00012264
 Iteration  4 RMS(Cart)=  0.00000292 RMS(Int)=  0.00012262
 Iteration  5 RMS(Cart)=  0.00000000 RMS(Int)=  0.00012262
 Variable       Old X    -DE/DX   Delta X   Delta X   Delta X     New X
                                 (Linear)    (Quad)   (Total)
    R1        2.65193  -0.00625   0.00000  -0.01520  -0.01515   2.63678
    R2        2.65387  -0.00531   0.00000  -0.00983  -0.00977   2.64410
    R3        2.85036  -0.00766   0.00000  -0.00783  -0.00783   2.84253
    R4        2.63832  -0.00141   0.00000  -0.00032  -0.00032   2.63800
    R5        2.05801  -0.00281   0.00000  -0.00887  -0.00887   2.04914
    R6        2.63391   0.00170   0.00000   0.00221   0.00215   2.63606
    R7        2.05469  -0.00086   0.00000  -0.00190  -0.00190   2.05279
    R8        2.63365   0.00314   0.00000   0.00766   0.00761   2.64125
    R9        2.05462  -0.00034   0.00000  -0.00128  -0.00128   2.05334
   R10        2.63730  -0.00282   0.00000  -0.00570  -0.00570   2.63160
   R11        2.05479  -0.00090   0.00000  -0.00203  -0.00203   2.05276
   R12        2.05812  -0.00179   0.00000  -0.00587  -0.00587   2.05226
   R13        2.57529  -0.00886   0.00000  -0.02535  -0.02535   2.54995
   R14        2.57460  -0.00679   0.00000  -0.01767  -0.01767   2.55693
   R15        2.57453  -0.00677   0.00000  -0.01495  -0.01495   2.55957
    A1        2.07454   0.00680   0.00000   0.02525   0.02519   2.09974
    A2        2.11581  -0.00228   0.00000  -0.00206  -0.00231   2.11350
    A3        2.09283  -0.00451   0.00000  -0.02314  -0.02338   2.06945
    A4        2.10282  -0.00272   0.00000  -0.01395  -0.01387   2.08895
    A5        2.10040  -0.00087   0.00000  -0.00879  -0.00884   2.09156
    A6        2.07997   0.00359   0.00000   0.02274   0.02270   2.10266
    A7        2.09537  -0.00027   0.00000   0.00152   0.00149   2.09686
    A8        2.09449  -0.00083   0.00000  -0.00555  -0.00554   2.08895
    A9        2.09333   0.00111   0.00000   0.00403   0.00405   2.09737
   A10        2.09538  -0.00090   0.00000  -0.00036  -0.00043   2.09495
   A11        2.09384   0.00049   0.00000   0.00077   0.00081   2.09464
   A12        2.09397   0.00041   0.00000  -0.00041  -0.00037   2.09359
   A13        2.09444  -0.00026   0.00000   0.00053   0.00051   2.09495
   A14        2.09373   0.00112   0.00000   0.00325   0.00325   2.09698
   A15        2.09502  -0.00086   0.00000  -0.00378  -0.00377   2.09125
   A16        2.10382  -0.00264   0.00000  -0.01298  -0.01289   2.09093
   A17        2.09609  -0.00008   0.00000  -0.00514  -0.00520   2.09089
   A18        2.08327   0.00272   0.00000   0.01811   0.01805   2.10132
   A19        1.98429  -0.00868   0.00000  -0.02135  -0.02147   1.96282
   A20        1.96354  -0.00553   0.00000  -0.02127  -0.02146   1.94209
   A21        1.96407  -0.00553   0.00000  -0.01496  -0.01515   1.94892
   A22        1.84661   0.00850   0.00000   0.03191   0.03180   1.87841
   A23        1.84681   0.00845   0.00000   0.02159   0.02146   1.86827
   A24        1.84751   0.00511   0.00000   0.01073   0.01049   1.85800
    D1        0.00185  -0.00005   0.00000  -0.00342  -0.00329  -0.00144
    D2       -3.14061  -0.00002   0.00000  -0.00815  -0.00796   3.13462
    D3       -3.13841  -0.00007   0.00000  -0.03876  -0.03914   3.10563
    D4        0.00231  -0.00004   0.00000  -0.04349  -0.04381  -0.04150
    D5       -0.00183   0.00005   0.00000   0.00494   0.00484   0.00301
    D6        3.14056   0.00002   0.00000   0.01376   0.01366  -3.12897
    D7        3.13845   0.00007   0.00000   0.03982   0.03981  -3.10492
    D8       -0.00234   0.00004   0.00000   0.04864   0.04863   0.04629
    D9        0.00296  -0.00001   0.00000   0.31839   0.31817   0.32113
   D10        2.10162   0.00064   0.00000   0.32876   0.32848   2.43010
   D11       -2.09636  -0.00060   0.00000   0.31691   0.31672  -1.77964
   D12       -3.13729  -0.00004   0.00000   0.28265   0.28289  -2.85441
   D13       -1.03864   0.00062   0.00000   0.29302   0.29320  -0.74544
   D14        1.04658  -0.00063   0.00000   0.28116   0.28144   1.32802
   D15       -0.00043   0.00002   0.00000  -0.00076  -0.00088  -0.00130
   D16        3.14058   0.00003   0.00000  -0.00287  -0.00292   3.13766
   D17       -3.14116  -0.00001   0.00000   0.00393   0.00384  -3.13732
   D18       -0.00016   0.00000   0.00000   0.00182   0.00179   0.00164
   D19       -0.00106   0.00002   0.00000   0.00354   0.00353   0.00247
   D20        3.14036   0.00002   0.00000   0.00042   0.00045   3.14081
   D21        3.14113   0.00001   0.00000   0.00564   0.00558  -3.13648
   D22       -0.00064   0.00001   0.00000   0.00253   0.00250   0.00186
   D23        0.00108  -0.00003   0.00000  -0.00203  -0.00197  -0.00089
   D24       -3.14107  -0.00001   0.00000  -0.00617  -0.00615   3.13597
   D25       -3.14034  -0.00002   0.00000   0.00109   0.00111  -3.13923
   D26        0.00069  -0.00001   0.00000  -0.00306  -0.00307  -0.00237
   D27        0.00038  -0.00002   0.00000  -0.00227  -0.00222  -0.00184
   D28        3.14118   0.00001   0.00000  -0.01104  -0.01110   3.13008
   D29       -3.14065  -0.00003   0.00000   0.00188   0.00194  -3.13871
   D30        0.00015  -0.00000   0.00000  -0.00689  -0.00694  -0.00679
         Item               Value     Threshold  Converged?
 Maximum Force            0.008864     0.000450     NO 
 RMS     Force            0.003302     0.000300     NO 
 Maximum Displacement     0.548884     0.001800     NO 
 RMS     Displacement     0.139689     0.001200     NO 
 Predicted change in Energy=-1.284227D-03
 GradGradGradGradGradGradGradGradGradGradGradGradGradGradGradGradGradGrad

                          Input orientation:                          
 ---------------------------------------------------------------------
 Center     Atomic      Atomic             Coordinates (Angstroms)
 Number     Number       Type             X           Y           Z
 ---------------------------------------------------------------------
      1          6           0       -1.387547   -0.054367   -0.115982
      2          6           0       -0.750523    1.182757   -0.012757
      3          6           0        0.641590    1.238432    0.074714
      4          6           0        1.391893    0.062546    0.060538
      5          6           0        0.750863   -1.175038   -0.044367
      6          6           0       -0.637533   -1.235433   -0.133764
      7          6           0       -2.887621   -0.153971   -0.165843
      8          9           0       -3.471310    1.016726   -0.496877
      9          9           0       -3.288416   -1.080720   -1.066564
     10          9           0       -3.403677   -0.531204    1.028294
     11          1           0       -1.338811    2.093641   -0.006207
     12          1           0        1.137753    2.201742    0.151372
     13          1           0        2.475410    0.108323    0.128004
     14          1           0        1.333596   -2.091629   -0.060853
     15          1           0       -1.141078   -2.193195   -0.226229
 ---------------------------------------------------------------------
                    Distance matrix (angstroms):
                    1          2          3          4          5
     1  C    0.000000
     2  C    1.395325   0.000000
     3  C    2.413523   1.395969   0.000000
     4  C    2.787493   2.418717   1.394942   0.000000
     5  C    2.415332   2.795417   2.418876   1.397691   0.000000
     6  C    1.399198   2.423851   2.792781   2.416831   1.392581
     7  C    1.504203   2.525364   3.801576   4.290963   3.780991
     8  F    2.373687   2.768505   4.158343   4.987176   4.778634
     9  F    2.360150   3.560160   4.703821   4.948000   4.167680
    10  F    2.366754   3.325760   4.517203   4.928143   4.338817
    11  H    2.151363   1.084360   2.158685   3.403902   3.879750
    12  H    3.396858   2.151942   1.086287   2.156154   3.404503
    13  H    3.874073   3.403067   2.154735   1.086580   2.156570
    14  H    3.399720   3.881684   3.403903   2.158380   1.086273
    15  H    2.155803   3.405166   3.878728   3.403901   2.156190
                    6          7          8          9         10
     6  C    0.000000
     7  C    2.496694   0.000000
     8  F    3.637906   1.349374   0.000000
     9  F    2.814468   1.353070   2.181117   0.000000
    10  F    3.081862   1.354468   2.174123   2.168798   0.000000
    11  H    3.404526   2.734238   2.438863   3.873226   3.496238
    12  H    3.879061   4.674788   4.802911   5.643482   5.372390
    13  H    3.400680   5.377476   6.048071   6.005207   5.981905
    14  H    2.150288   4.645881   5.739261   4.836981   5.105186
    15  H    1.086008   2.685608   3.975780   2.560239   3.074963
                   11         12         13         14         15
    11  H    0.000000
    12  H    2.483926   0.000000
    13  H    4.302068   2.484406   0.000000
    14  H    4.966008   4.303072   2.485800   0.000000
    15  H    4.297030   4.964989   4.301331   2.482272   0.000000
 Stoichiometry    C7H5F3
 Framework group  C1[X(C7H5F3)]
 Deg. of freedom    39
 Full point group                 C1      NOp   1
 Largest Abelian subgroup         C1      NOp   1
 Largest concise Abelian subgroup C1      NOp   1
                         Standard orientation:                         
 ---------------------------------------------------------------------
 Center     Atomic      Atomic             Coordinates (Angstroms)
 Number     Number       Type             X           Y           Z
 ---------------------------------------------------------------------
      1          6           0        0.048877    0.023288   -0.026973
      2          6           0        0.758835    1.224456   -0.017789
      3          6           0        2.154495    1.202540    0.001735
      4          6           0        2.835817   -0.014639    0.013583
      5          6           0        2.121754   -1.216113    0.002933
      6          6           0        0.729440   -1.199216   -0.018441
      7          6           0       -1.455051    0.009585   -0.001673
      8          9           0       -1.987603    1.194874   -0.365384
      9          9           0       -1.951446   -0.935109   -0.833505
     10          9           0       -1.931789   -0.277667    1.233151
     11          1           0        0.223783    2.167525   -0.031058
     12          1           0        2.707265    2.137663    0.005170
     13          1           0        3.922202   -0.029289    0.028039
     14          1           0        2.650454   -2.165034    0.006844
     15          1           0        0.168839   -2.129149   -0.037588
 ---------------------------------------------------------------------
 Rotational constants (GHZ):           2.8258251           0.9423109           0.8074866
 Standard basis: 6-31G(d) (6D, 7F)
 There are   160 symmetry adapted cartesian basis functions of A   symmetry.
 There are   160 symmetry adapted basis functions of A   symmetry.
   160 basis functions,   300 primitive gaussians,   160 cartesian basis functions
    37 alpha electrons       37 beta electrons
       nuclear repulsion energy       526.5457914772 Hartrees.
 NAtoms=   15 NActive=   15 NUniq=   15 SFac= 1.00D+00 NAtFMM=   60 NAOKFM=F Big=F
 Integral buffers will be    131072 words long.
 Raffenetti 2 integral format.
 Two-electron integral symmetry is turned on.
 One-electron integrals computed using PRISM.
 NBasis=   160 RedAO= T EigKep=  4.66D-04  NBF=   160
 NBsUse=   160 1.00D-06 EigRej= -1.00D+00 NBFU=   160
 Initial guess from the checkpoint file:  "solvent_41.chk"
 B after Tr=    -0.000000   -0.000000   -0.000000
         Rot=    0.997764    0.066831   -0.000887    0.000783 Ang=   7.67 deg.
 ExpMin= 1.61D-01 ExpMax= 7.00D+03 ExpMxC= 1.05D+03 IAcc=2 IRadAn=         4 AccDes= 0.00D+00
 Harris functional with IExCor=  402 and IRadAn=       4 diagonalized for initial guess.
 HarFok:  IExCor=  402 AccDes= 0.00D+00 IRadAn=         4 IDoV= 1 UseB2=F ITyADJ=14
 ICtDFT=  3500011 ScaDFX=  1.000000  1.000000  1.000000  1.000000
 FoFCou: FMM=F IPFlag=           0 FMFlag=      100000 FMFlg1=           0
         NFxFlg=           0 DoJE=T BraDBF=F KetDBF=T FulRan=T
         wScrn=  0.000000 ICntrl=       500 IOpCl=  0 I1Cent=   200000004 NGrid=           0
         NMat0=    1 NMatS0=      1 NMatT0=    0 NMatD0=    1 NMtDS0=    0 NMtDT0=    0
 Petite list used in FoFCou.
 Keep R1 ints in memory in canonical form, NReq=85041664.
 Gradient too large for Newton-Raphson -- use scaled steepest descent instead.
 Gradient too large for Newton-Raphson -- use scaled steepest descent instead.
 Gradient too large for Newton-Raphson -- use scaled steepest descent instead.
     Accept linear search using points  1 and  2.
 Gradient too large for Newton-Raphson -- use scaled steepest descent instead.
     Accept linear search using points  1 and  2.
 Gradient too large for Newton-Raphson -- use scaled steepest descent instead.
 Gradient too large for Newton-Raphson -- use scaled steepest descent instead.
     Accept linear search using points  1 and  2.
 Gradient too large for Newton-Raphson -- use scaled steepest descent instead.
     Accept linear search using points  2 and  3.
 Gradient too large for Newton-Raphson -- use scaled steepest descent instead.
     Accept linear search using points  1 and  2.
 Gradient too large for Newton-Raphson -- use scaled steepest descent instead.
     Minimum is close to point  3 DX=  2.28D-02 DF= -4.69D-08 DXR=  1.40D-02 DFR=  1.97D-04 which will be used.
 Gradient too large for Newton-Raphson -- use scaled steepest descent instead.
     Accept linear search using points  1 and  2.
 LinEq1:  Iter=  0 NonCon=     1 RMS=1.93D-04 Max=6.01D-03 NDo=     1
 AX will form     1 AO Fock derivatives at one time.
 LinEq1:  Iter=  1 NonCon=     1 RMS=1.37D-05 Max=3.96D-04 NDo=     1
 LinEq1:  Iter=  2 NonCon=     1 RMS=9.13D-06 Max=3.99D-04 NDo=     1
 LinEq1:  Iter=  3 NonCon=     1 RMS=5.01D-06 Max=1.73D-04 NDo=     1
 LinEq1:  Iter=  4 NonCon=     1 RMS=3.44D-06 Max=1.27D-04 NDo=     1
 LinEq1:  Iter=  5 NonCon=     1 RMS=8.02D-07 Max=1.48D-05 NDo=     1
 LinEq1:  Iter=  6 NonCon=     1 RMS=4.47D-07 Max=6.46D-06 NDo=     1
 LinEq1:  Iter=  7 NonCon=     1 RMS=1.30D-07 Max=2.06D-06 NDo=     1
 LinEq1:  Iter=  8 NonCon=     1 RMS=8.70D-08 Max=1.59D-06 NDo=     1
 LinEq1:  Iter=  9 NonCon=     1 RMS=2.87D-08 Max=1.23D-06 NDo=     1
 LinEq1:  Iter= 10 NonCon=     1 RMS=2.42D-08 Max=1.12D-06 NDo=     1
 LinEq1:  Iter= 11 NonCon=     1 RMS=1.01D-08 Max=2.59D-07 NDo=     1
 LinEq1:  Iter= 12 NonCon=     1 RMS=4.69D-09 Max=1.02D-07 NDo=     1
 LinEq1:  Iter= 13 NonCon=     0 RMS=2.70D-09 Max=4.78D-08 NDo=     1
 Linear equations converged to 9.540D-09 9.540D-08 after    13 iterations.
     Accept linear search using points  1 and  2.
     Minimum is close to point  2 DX= -3.99D-05 DF= -3.41D-13 DXR=  3.99D-05 DFR=  1.89D-09 which will be used.
 LinEq1:  Iter=  0 NonCon=     1 RMS=3.27D-07 Max=5.32D-06 NDo=     1
 LinEq1:  Iter=  1 NonCon=     1 RMS=1.54D-07 Max=2.99D-06 NDo=     1
 LinEq1:  Iter=  2 NonCon=     1 RMS=9.64D-08 Max=3.51D-06 NDo=     1
 LinEq1:  Iter=  3 NonCon=     1 RMS=4.12D-08 Max=9.29D-07 NDo=     1
 LinEq1:  Iter=  4 NonCon=     1 RMS=3.23D-08 Max=6.82D-07 NDo=     1
 LinEq1:  Iter=  5 NonCon=     1 RMS=8.09D-09 Max=1.05D-07 NDo=     1
 LinEq1:  Iter=  6 NonCon=     1 RMS=3.31D-09 Max=7.04D-08 NDo=     1
 LinEq1:  Iter=  7 NonCon=     1 RMS=1.57D-09 Max=2.76D-08 NDo=     1
 LinEq1:  Iter=  8 NonCon=     1 RMS=8.32D-10 Max=1.34D-08 NDo=     1
 LinEq1:  Iter=  9 NonCon=     1 RMS=2.33D-10 Max=6.99D-09 NDo=     1
 LinEq1:  Iter= 10 NonCon=     1 RMS=1.64D-10 Max=5.32D-09 NDo=     1
 LinEq1:  Iter= 11 NonCon=     1 RMS=7.96D-11 Max=3.04D-09 NDo=     1
 LinEq1:  Iter= 12 NonCon=     0 RMS=5.58D-11 Max=2.18D-09 NDo=     1
 Linear equations converged to 2.944D-10 2.944D-09 after    12 iterations.
 SCF Done:  E(RB3LYP) =  -569.286451161     a.u. after   13 cycles
            Convg  =    0.8932D-10                    55 Fock formations.
              S**2 =  0.0000                  -V/T =  2.0081
 DoSCS=F DFT=T ScalE2(SS,OS)=  1.000000  1.000000
 Range of M.O.s used for correlation:     1   160
 NBasis=   160 NAE=    37 NBE=    37 NFC=     0 NFV=     0
 NROrb=    160 NOA=    37 NOB=    37 NVA=   123 NVB=   123

 **** Warning!!: The largest alpha MO coefficient is  0.11195050D+02

 Symmetrizing basis deriv contribution to polar:
 IMax=3 JMax=2 DiffMx= 0.00D+00
 G2DrvN: will do    16 centers at a time, making    1 passes.
 Calling FoFCou, ICntrl=  3107 FMM=F I1Cent=   0 AccDes= 0.00D+00.
 End of G2Drv F.D. properties file   721 does not exist.
 End of G2Drv F.D. properties file   722 does not exist.
 End of G2Drv F.D. properties file   788 does not exist.
          IDoAtm=111111111111111
          Differentiating once with respect to electric field.
                with respect to dipole field.
          Differentiating once with respect to nuclear coordinates.
 Keep R1 ints in memory in canonical form, NReq=85047531.
          There are    48 degrees of freedom in the 1st order CPHF.  IDoFFX=6 NUNeed=     3.
     45 vectors produced by pass  0 Test12= 9.48D-15 2.08D-09 XBig12= 9.78D+01 6.30D+00.
 AX will form    45 AO Fock derivatives at one time.
     45 vectors produced by pass  1 Test12= 9.48D-15 2.08D-09 XBig12= 1.60D+01 7.77D-01.
     45 vectors produced by pass  2 Test12= 9.48D-15 2.08D-09 XBig12= 1.82D-01 6.72D-02.
     45 vectors produced by pass  3 Test12= 9.48D-15 2.08D-09 XBig12= 1.25D-03 6.15D-03.
     45 vectors produced by pass  4 Test12= 9.48D-15 2.08D-09 XBig12= 1.94D-06 2.22D-04.
     36 vectors produced by pass  5 Test12= 9.48D-15 2.08D-09 XBig12= 1.87D-09 5.12D-06.
      6 vectors produced by pass  6 Test12= 9.48D-15 2.08D-09 XBig12= 1.55D-12 1.73D-07.
      1 vectors produced by pass  7 Test12= 9.48D-15 2.08D-09 XBig12= 1.14D-15 4.45D-09.
 InvSVY:  IOpt=1 It=  1 EMax= 3.11D-15
 Solved reduced A of dimension   268 with    48 vectors.
 Isotropic polarizability for W=    0.000000       66.62 Bohr**3.
 End of Minotr F.D. properties file   721 does not exist.
 End of Minotr F.D. properties file   722 does not exist.
 End of Minotr F.D. properties file   788 does not exist.
 Calling FoFJK, ICntrl=    100127 FMM=F ISym2X=0 I1Cent= 0 IOpClX= 0 NMat=1 NMatS=1 NMatT=0.
 ***** Axes restored to original set *****
 -------------------------------------------------------------------
 Center     Atomic                   Forces (Hartrees/Bohr)
 Number     Number              X              Y              Z
 -------------------------------------------------------------------
      1        6           0.000094597   -0.001364086    0.000042143
      2        6           0.000121381    0.000265856    0.000240778
      3        6          -0.000409293    0.000273004   -0.000045151
      4        6           0.000093943   -0.000397955   -0.000011548
      5        6           0.000422921    0.000293326   -0.000032523
      6        6           0.000157892   -0.000161969   -0.000092781
      7        6           0.000790189   -0.000546298    0.000318058
      8        9          -0.000192972    0.000617918   -0.000362558
      9        9          -0.000937554    0.000121253   -0.000511246
     10        9          -0.000065900    0.000304024    0.000239668
     11        1          -0.000186749    0.000249009    0.000016054
     12        1          -0.000011044    0.000006665    0.000008539
     13        1          -0.000000533    0.000021758    0.000014135
     14        1           0.000006594   -0.000007372    0.000011325
     15        1           0.000116528    0.000324866    0.000165106
 -------------------------------------------------------------------
 Cartesian Forces:  Max     0.001364086 RMS     0.000361492
 FormGI is forming the generalized inverse of G from B-inverse, IUseBI=4.

 GradGradGradGradGradGradGradGradGradGradGradGradGradGradGradGradGradGrad
 Berny optimization.
 Using GEDIIS/GDIIS optimizer.
 Internal  Forces:  Max     0.001955579 RMS     0.000438731
 Search for a local minimum.
 Step number   2 out of a maximum of   79
 All quantities printed in internal units (Hartrees-Bohrs-Radians)
 Mixed Optimization -- En-DIIS/RFO-DIIS
 Second derivative matrix not updated -- analytic derivatives used.
 DE= -1.13D-03 DEPred=-1.28D-03 R= 8.84D-01
 TightC=F SS=  1.41D+00  RLast= 7.55D-01 DXNew= 5.0454D-01 2.2644D+00
 Trust test= 8.84D-01 RLast= 7.55D-01 DXMaxT set to 5.05D-01
 ITU=  1  0
 Use linear search instead of GDIIS.
     Eigenvalues ---    0.00022   0.01528   0.01725   0.01752   0.02043
     Eigenvalues ---    0.02368   0.02538   0.02736   0.02806   0.02832
     Eigenvalues ---    0.11099   0.11658   0.12051   0.12553   0.12869
     Eigenvalues ---    0.12985   0.13746   0.19143   0.19300   0.19658
     Eigenvalues ---    0.20296   0.23132   0.25852   0.26257   0.29425
     Eigenvalues ---    0.35756   0.36003   0.36060   0.36318   0.36429
     Eigenvalues ---    0.36791   0.37230   0.40060   0.42270   0.44009
     Eigenvalues ---    0.47659   0.47693   0.51700   0.52053
 RFO step:  Lambda=-1.65244531D-04 EMin= 2.20039701D-04
 Quintic linear search produced a step of -0.02982.
 Iteration  1 RMS(Cart)=  0.09123794 RMS(Int)=  0.00821479
 Iteration  2 RMS(Cart)=  0.01001206 RMS(Int)=  0.00009019
 Iteration  3 RMS(Cart)=  0.00010062 RMS(Int)=  0.00005110
 Iteration  4 RMS(Cart)=  0.00000001 RMS(Int)=  0.00005110
 Variable       Old X    -DE/DX   Delta X   Delta X   Delta X     New X
                                 (Linear)    (Quad)   (Total)
    R1        2.63678   0.00036   0.00045   0.00374   0.00420   2.64098
    R2        2.64410   0.00011   0.00029  -0.00283  -0.00253   2.64157
    R3        2.84253   0.00038   0.00023   0.00102   0.00125   2.84378
    R4        2.63800  -0.00030   0.00001  -0.00291  -0.00290   2.63510
    R5        2.04914   0.00031   0.00026   0.00089   0.00115   2.05029
    R6        2.63606   0.00025  -0.00006   0.00242   0.00235   2.63841
    R7        2.05279   0.00000   0.00006  -0.00004   0.00002   2.05280
    R8        2.64125  -0.00015  -0.00023  -0.00216  -0.00240   2.63886
    R9        2.05334   0.00000   0.00004  -0.00004  -0.00000   2.05333
   R10        2.63160   0.00041   0.00017   0.00284   0.00301   2.63460
   R11        2.05276   0.00001   0.00006  -0.00002   0.00004   2.05280
   R12        2.05226  -0.00035   0.00017  -0.00190  -0.00173   2.05053
   R13        2.54995   0.00071   0.00076   0.00406   0.00482   2.55477
   R14        2.55693   0.00053   0.00053  -0.00216  -0.00163   2.55530
   R15        2.55957   0.00015   0.00045  -0.00011   0.00034   2.55991
    A1        2.09974  -0.00010  -0.00075  -0.00009  -0.00087   2.09887
    A2        2.11350  -0.00186   0.00007  -0.02049  -0.02046   2.09304
    A3        2.06945   0.00196   0.00070   0.02001   0.02065   2.09010
    A4        2.08895   0.00014   0.00041   0.00082   0.00125   2.09020
    A5        2.09156  -0.00009   0.00026  -0.00087  -0.00061   2.09095
    A6        2.10266  -0.00005  -0.00068   0.00003  -0.00066   2.10201
    A7        2.09686  -0.00000  -0.00004  -0.00058  -0.00063   2.09623
    A8        2.08895  -0.00001   0.00017   0.00062   0.00078   2.08973
    A9        2.09737   0.00002  -0.00012  -0.00004  -0.00016   2.09721
   A10        2.09495   0.00000   0.00001  -0.00031  -0.00030   2.09465
   A11        2.09464  -0.00003  -0.00002  -0.00031  -0.00033   2.09431
   A12        2.09359   0.00002   0.00001   0.00061   0.00063   2.09422
   A13        2.09495   0.00007  -0.00002   0.00122   0.00121   2.09615
   A14        2.09698  -0.00004  -0.00010   0.00026   0.00016   2.09715
   A15        2.09125  -0.00003   0.00011  -0.00148  -0.00137   2.08988
   A16        2.09093  -0.00011   0.00038  -0.00106  -0.00066   2.09027
   A17        2.09089   0.00001   0.00015   0.00001   0.00016   2.09105
   A18        2.10132   0.00010  -0.00054   0.00104   0.00050   2.10182
   A19        1.96282  -0.00068   0.00064  -0.00935  -0.00871   1.95411
   A20        1.94209   0.00159   0.00064   0.01012   0.01074   1.95283
   A21        1.94892  -0.00012   0.00045   0.00112   0.00153   1.95045
   A22        1.87841  -0.00072  -0.00095  -0.00176  -0.00268   1.87573
   A23        1.86827   0.00001  -0.00064  -0.00458  -0.00524   1.86304
   A24        1.85800  -0.00013  -0.00031   0.00458   0.00421   1.86222
    D1       -0.00144   0.00005   0.00010   0.00128   0.00136  -0.00008
    D2        3.13462   0.00003   0.00024  -0.00246  -0.00228   3.13234
    D3        3.10563   0.00005   0.00117  -0.01785  -0.01647   3.08916
    D4       -0.04150   0.00002   0.00131  -0.02159  -0.02011  -0.06161
    D5        0.00301  -0.00006  -0.00014  -0.00234  -0.00249   0.00051
    D6       -3.12897  -0.00010  -0.00041  -0.00147  -0.00193  -3.13090
    D7       -3.10492   0.00002  -0.00119   0.01710   0.01611  -3.08882
    D8        0.04629  -0.00003  -0.00145   0.01796   0.01667   0.06296
    D9        0.32113  -0.00004  -0.00949   0.22703   0.21757   0.53869
   D10        2.43010  -0.00031  -0.00979   0.22543   0.21562   2.64571
   D11       -1.77964   0.00051  -0.00944   0.23871   0.22928  -1.55035
   D12       -2.85441  -0.00008  -0.00843   0.20785   0.19942  -2.65499
   D13       -0.74544  -0.00035  -0.00874   0.20625   0.19747  -0.54797
   D14        1.32802   0.00047  -0.00839   0.21953   0.21114   1.53915
   D15       -0.00130  -0.00001   0.00003   0.00013   0.00020  -0.00110
   D16        3.13766  -0.00001   0.00009  -0.00128  -0.00119   3.13646
   D17       -3.13732   0.00001  -0.00011   0.00390   0.00386  -3.13346
   D18        0.00164   0.00001  -0.00005   0.00249   0.00247   0.00411
   D19        0.00247  -0.00001  -0.00011  -0.00050  -0.00062   0.00185
   D20        3.14081   0.00001  -0.00001  -0.00093  -0.00096   3.13985
   D21       -3.13648  -0.00002  -0.00017   0.00092   0.00078  -3.13570
   D22        0.00186   0.00001  -0.00007   0.00049   0.00043   0.00230
   D23       -0.00089   0.00000   0.00006  -0.00056  -0.00052  -0.00141
   D24        3.13597   0.00004   0.00018  -0.00060  -0.00040   3.13557
   D25       -3.13923  -0.00002  -0.00003  -0.00013  -0.00018  -3.13941
   D26       -0.00237   0.00002   0.00009  -0.00017  -0.00006  -0.00243
   D27       -0.00184   0.00003   0.00007   0.00197   0.00207   0.00023
   D28        3.13008   0.00008   0.00033   0.00109   0.00150   3.13158
   D29       -3.13871  -0.00000  -0.00006   0.00200   0.00194  -3.13677
   D30       -0.00679   0.00004   0.00021   0.00113   0.00137  -0.00542
         Item               Value     Threshold  Converged?
 Maximum Force            0.001956     0.000450     NO 
 RMS     Force            0.000439     0.000300     NO 
 Maximum Displacement     0.450546     0.001800     NO 
 RMS     Displacement     0.097283     0.001200     NO 
 Predicted change in Energy=-1.004544D-04
 GradGradGradGradGradGradGradGradGradGradGradGradGradGradGradGradGradGrad

                          Input orientation:                          
 ---------------------------------------------------------------------
 Center     Atomic      Atomic             Coordinates (Angstroms)
 Number     Number       Type             X           Y           Z
 ---------------------------------------------------------------------
      1          6           0       -1.386095   -0.070725   -0.128219
      2          6           0       -0.757683    1.168488    0.022054
      3          6           0        0.631979    1.232753    0.117760
      4          6           0        1.392431    0.063026    0.064943
      5          6           0        0.761962   -1.173775   -0.086157
      6          6           0       -0.627116   -1.243318   -0.182821
      7          6           0       -2.888386   -0.151151   -0.163887
      8          9           0       -3.441796    0.961567   -0.696142
      9          9           0       -3.319598   -1.206613   -0.890882
     10          9           0       -3.413158   -0.292786    1.076929
     11          1           0       -1.353361    2.074715    0.054897
     12          1           0        1.120298    2.196621    0.229746
     13          1           0        2.475284    0.115324    0.138061
     14          1           0        1.351711   -2.084830   -0.133157
     15          1           0       -1.121883   -2.200686   -0.309646
 ---------------------------------------------------------------------
                    Distance matrix (angstroms):
                    1          2          3          4          5
     1  C    0.000000
     2  C    1.397545   0.000000
     3  C    2.414991   1.394435   0.000000
     4  C    2.788442   2.418031   1.396187   0.000000
     5  C    2.415086   2.794141   2.418647   1.396423   0.000000
     6  C    1.397858   2.424011   2.794028   2.417952   1.394173
     7  C    1.504865   2.513149   3.793083   4.292275   3.791681
     8  F    2.369402   2.786231   4.163126   4.975578   4.754297
     9  F    2.368614   3.610812   4.752138   4.972806   4.160264
    10  F    2.368686   3.209303   4.428363   4.923860   4.422730
    11  H    2.153489   1.084969   2.157411   3.403875   3.879068
    12  H    3.398676   2.151047   1.086295   2.157184   3.404080
    13  H    3.875018   3.402159   2.155652   1.086578   2.155810
    14  H    3.398857   3.880426   3.404017   2.157356   1.086294
    15  H    2.153940   3.404996   3.879073   3.403892   2.157166
                    6          7          8          9         10
     6  C    0.000000
     7  C    2.511281   0.000000
     8  F    3.612124   1.351924   0.000000
     9  F    2.784270   1.352207   2.180334   0.000000
    10  F    3.201954   1.354648   2.172096   2.171661   0.000000
    11  H    3.404891   2.712683   2.482885   3.940520   3.300359
    12  H    3.880315   4.662244   4.816152   5.705303   5.240904
    13  H    3.402022   5.378767   6.035217   6.032155   5.976769
    14  H    2.150899   4.660309   5.707468   4.813164   5.232562
    15  H    1.085095   2.709681   3.940966   2.481123   3.288254
                   11         12         13         14         15
    11  H    0.000000
    12  H    2.482825   0.000000
    13  H    4.301703   2.485194   0.000000
    14  H    4.965339   4.303030   2.485287   0.000000
    15  H    4.297153   4.965342   4.301621   2.482587   0.000000
 Stoichiometry    C7H5F3
 Framework group  C1[X(C7H5F3)]
 Deg. of freedom    39
 Full point group                 C1      NOp   1
 Largest Abelian subgroup         C1      NOp   1
 Largest concise Abelian subgroup C1      NOp   1
                         Standard orientation:                         
 ---------------------------------------------------------------------
 Center     Atomic      Atomic             Coordinates (Angstroms)
 Number     Number       Type             X           Y           Z
 ---------------------------------------------------------------------
      1          6           0        0.049330    0.001544   -0.039744
      2          6           0        0.746299    1.212810   -0.025587
      3          6           0        2.140444    1.208869    0.002560
      4          6           0        2.837175   -0.000953    0.017876
      5          6           0        2.138237   -1.209777    0.002777
      6          6           0        0.744360   -1.211200   -0.025891
      7          6           0       -1.455055    0.000626   -0.001750
      8          9           0       -1.976692    1.093057   -0.603569
      9          9           0       -1.974143   -1.087248   -0.614566
     10          9           0       -1.925160   -0.006940    1.268689
     11          1           0        0.199610    2.149776   -0.045201
     12          1           0        2.681849    2.150612    0.008718
     13          1           0        3.923563   -0.001937    0.038165
     14          1           0        2.678076   -2.152417    0.008984
     15          1           0        0.196128   -2.147375   -0.047096
 ---------------------------------------------------------------------
 Rotational constants (GHZ):           2.8254304           0.9410379           0.8067075
 Standard basis: 6-31G(d) (6D, 7F)
 There are   160 symmetry adapted cartesian basis functions of A   symmetry.
 There are   160 symmetry adapted basis functions of A   symmetry.
   160 basis functions,   300 primitive gaussians,   160 cartesian basis functions
    37 alpha electrons       37 beta electrons
       nuclear repulsion energy       526.3565587925 Hartrees.
 NAtoms=   15 NActive=   15 NUniq=   15 SFac= 1.00D+00 NAtFMM=   60 NAOKFM=F Big=F
 Integral buffers will be    131072 words long.
 Raffenetti 2 integral format.
 Two-electron integral symmetry is turned on.
 One-electron integrals computed using PRISM.
 NBasis=   160 RedAO= T EigKep=  4.67D-04  NBF=   160
 NBsUse=   160 1.00D-06 EigRej= -1.00D+00 NBFU=   160
 Initial guess from the checkpoint file:  "solvent_41.chk"
 B after Tr=     0.000000    0.000000   -0.000000
         Rot=    0.998893    0.047018   -0.000633   -0.001009 Ang=   5.39 deg.
 ExpMin= 1.61D-01 ExpMax= 7.00D+03 ExpMxC= 1.05D+03 IAcc=2 IRadAn=         4 AccDes= 0.00D+00
 Harris functional with IExCor=  402 and IRadAn=       4 diagonalized for initial guess.
 HarFok:  IExCor=  402 AccDes= 0.00D+00 IRadAn=         4 IDoV= 1 UseB2=F ITyADJ=14
 ICtDFT=  3500011 ScaDFX=  1.000000  1.000000  1.000000  1.000000
 FoFCou: FMM=F IPFlag=           0 FMFlag=      100000 FMFlg1=           0
         NFxFlg=           0 DoJE=T BraDBF=F KetDBF=T FulRan=T
         wScrn=  0.000000 ICntrl=       500 IOpCl=  0 I1Cent=   200000004 NGrid=           0
         NMat0=    1 NMatS0=      1 NMatT0=    0 NMatD0=    1 NMtDS0=    0 NMtDT0=    0
 Petite list used in FoFCou.
 Keep R1 ints in memory in canonical form, NReq=85041664.
 Gradient too large for Newton-Raphson -- use scaled steepest descent instead.
 Gradient too large for Newton-Raphson -- use scaled steepest descent instead.
 Gradient too large for Newton-Raphson -- use scaled steepest descent instead.
     Accept linear search using points  1 and  2.
 Gradient too large for Newton-Raphson -- use scaled steepest descent instead.
     Accept linear search using points  1 and  2.
 Gradient too large for Newton-Raphson -- use scaled steepest descent instead.
 Gradient too large for Newton-Raphson -- use scaled steepest descent instead.
     Accept linear search using points  1 and  2.
 Gradient too large for Newton-Raphson -- use scaled steepest descent instead.
     Accept linear search using points  2 and  3.
 Gradient too large for Newton-Raphson -- use scaled steepest descent instead.
     Accept linear search using points  1 and  2.
 Gradient too large for Newton-Raphson -- use scaled steepest descent instead.
     Accept linear search using points  2 and  3.
 Gradient too large for Newton-Raphson -- use scaled steepest descent instead.
     Accept linear search using points  1 and  2.
 LinEq1:  Iter=  0 NonCon=     1 RMS=1.27D-04 Max=4.01D-03 NDo=     1
 AX will form     1 AO Fock derivatives at one time.
 LinEq1:  Iter=  1 NonCon=     1 RMS=8.48D-06 Max=1.43D-04 NDo=     1
 LinEq1:  Iter=  2 NonCon=     1 RMS=5.92D-06 Max=2.02D-04 NDo=     1
 LinEq1:  Iter=  3 NonCon=     1 RMS=3.64D-06 Max=8.84D-05 NDo=     1
 LinEq1:  Iter=  4 NonCon=     1 RMS=1.68D-06 Max=3.72D-05 NDo=     1
 LinEq1:  Iter=  5 NonCon=     1 RMS=6.57D-07 Max=1.77D-05 NDo=     1
 LinEq1:  Iter=  6 NonCon=     1 RMS=3.97D-07 Max=9.84D-06 NDo=     1
 LinEq1:  Iter=  7 NonCon=     1 RMS=1.33D-07 Max=4.48D-06 NDo=     1
 LinEq1:  Iter=  8 NonCon=     1 RMS=9.93D-08 Max=4.19D-06 NDo=     1
 LinEq1:  Iter=  9 NonCon=     1 RMS=3.74D-08 Max=6.28D-07 NDo=     1
 LinEq1:  Iter= 10 NonCon=     1 RMS=2.05D-08 Max=3.28D-07 NDo=     1
 LinEq1:  Iter= 11 NonCon=     0 RMS=6.56D-09 Max=9.20D-08 NDo=     1
 Linear equations converged to 9.540D-09 9.540D-08 after    11 iterations.
     Accept linear search using points  1 and  2.
     Minimum is close to point  2 DX= -2.59D-05 DF=  0.00D+00 DXR=  2.59D-05 DFR=  0.00D+00 which will be used.
 LinEq1:  Iter=  0 NonCon=     1 RMS=1.46D-07 Max=2.52D-06 NDo=     1
 LinEq1:  Iter=  1 NonCon=     1 RMS=6.98D-08 Max=1.49D-06 NDo=     1
 LinEq1:  Iter=  2 NonCon=     1 RMS=4.80D-08 Max=1.60D-06 NDo=     1
 LinEq1:  Iter=  3 NonCon=     1 RMS=1.97D-08 Max=3.57D-07 NDo=     1
 LinEq1:  Iter=  4 NonCon=     1 RMS=1.55D-08 Max=4.02D-07 NDo=     1
 LinEq1:  Iter=  5 NonCon=     1 RMS=3.36D-09 Max=4.65D-08 NDo=     1
 LinEq1:  Iter=  6 NonCon=     1 RMS=1.33D-09 Max=3.04D-08 NDo=     1
 LinEq1:  Iter=  7 NonCon=     1 RMS=8.23D-10 Max=2.88D-08 NDo=     1
 LinEq1:  Iter=  8 NonCon=     1 RMS=5.20D-10 Max=1.93D-08 NDo=     1
 LinEq1:  Iter=  9 NonCon=     1 RMS=3.18D-10 Max=9.80D-09 NDo=     1
 LinEq1:  Iter= 10 NonCon=     1 RMS=1.20D-10 Max=3.21D-09 NDo=     1
 LinEq1:  Iter= 11 NonCon=     0 RMS=3.88D-11 Max=8.45D-10 NDo=     1
 Linear equations converged to 1.278D-10 1.278D-09 after    11 iterations.
 SCF Done:  E(RB3LYP) =  -569.286536557     a.u. after   13 cycles
            Convg  =    0.3055D-10                    52 Fock formations.
              S**2 =  0.0000                  -V/T =  2.0081
 DoSCS=F DFT=T ScalE2(SS,OS)=  1.000000  1.000000
 Range of M.O.s used for correlation:     1   160
 NBasis=   160 NAE=    37 NBE=    37 NFC=     0 NFV=     0
 NROrb=    160 NOA=    37 NOB=    37 NVA=   123 NVB=   123

 **** Warning!!: The largest alpha MO coefficient is  0.10995319D+02

 Symmetrizing basis deriv contribution to polar:
 IMax=3 JMax=2 DiffMx= 0.00D+00
 G2DrvN: will do    16 centers at a time, making    1 passes.
 Calling FoFCou, ICntrl=  3107 FMM=F I1Cent=   0 AccDes= 0.00D+00.
 End of G2Drv F.D. properties file   721 does not exist.
 End of G2Drv F.D. properties file   722 does not exist.
 End of G2Drv F.D. properties file   788 does not exist.
          IDoAtm=111111111111111
          Differentiating once with respect to electric field.
                with respect to dipole field.
          Differentiating once with respect to nuclear coordinates.
 Keep R1 ints in memory in canonical form, NReq=85047531.
          There are    48 degrees of freedom in the 1st order CPHF.  IDoFFX=6 NUNeed=     3.
     45 vectors produced by pass  0 Test12= 9.48D-15 2.08D-09 XBig12= 9.79D+01 6.42D+00.
 AX will form    45 AO Fock derivatives at one time.
     45 vectors produced by pass  1 Test12= 9.48D-15 2.08D-09 XBig12= 1.61D+01 7.55D-01.
     45 vectors produced by pass  2 Test12= 9.48D-15 2.08D-09 XBig12= 1.82D-01 6.75D-02.
     45 vectors produced by pass  3 Test12= 9.48D-15 2.08D-09 XBig12= 1.26D-03 6.32D-03.
     45 vectors produced by pass  4 Test12= 9.48D-15 2.08D-09 XBig12= 1.95D-06 2.15D-04.
     37 vectors produced by pass  5 Test12= 9.48D-15 2.08D-09 XBig12= 1.88D-09 5.21D-06.
      7 vectors produced by pass  6 Test12= 9.48D-15 2.08D-09 XBig12= 1.53D-12 2.01D-07.
      2 vectors produced by pass  7 Test12= 9.48D-15 2.08D-09 XBig12= 1.16D-15 6.15D-09.
 InvSVY:  IOpt=1 It=  1 EMax= 1.07D-14
 Solved reduced A of dimension   271 with    48 vectors.
 Isotropic polarizability for W=    0.000000       66.65 Bohr**3.
 End of Minotr F.D. properties file   721 does not exist.
 End of Minotr F.D. properties file   722 does not exist.
 End of Minotr F.D. properties file   788 does not exist.
 Calling FoFJK, ICntrl=    100127 FMM=F ISym2X=0 I1Cent= 0 IOpClX= 0 NMat=1 NMatS=1 NMatT=0.
 ***** Axes restored to original set *****
 -------------------------------------------------------------------
 Center     Atomic                   Forces (Hartrees/Bohr)
 Number     Number              X              Y              Z
 -------------------------------------------------------------------
      1        6          -0.000016739   -0.000273405    0.000591079
      2        6          -0.000026154   -0.000025458   -0.000092634
      3        6          -0.000079574    0.000080864   -0.000107218
      4        6          -0.000001684   -0.000082044    0.000007672
      5        6           0.000075239    0.000039143   -0.000142416
      6        6          -0.000043371    0.000072165   -0.000145261
      7        6          -0.000043621   -0.000082625   -0.000254461
      8        9           0.000037323    0.000079082   -0.000024151
      9        9          -0.000015012    0.000034615   -0.000069698
     10        9           0.000226485    0.000090017   -0.000056482
     11        1          -0.000067694    0.000065777    0.000087360
     12        1          -0.000003087   -0.000002356    0.000015977
     13        1          -0.000004311   -0.000000043    0.000028986
     14        1           0.000000518   -0.000000405    0.000014026
     15        1          -0.000038318    0.000004674    0.000147220
 -------------------------------------------------------------------
 Cartesian Forces:  Max     0.000591079 RMS     0.000125853
 FormGI is forming the generalized inverse of G from B-inverse, IUseBI=4.

 GradGradGradGradGradGradGradGradGradGradGradGradGradGradGradGradGradGrad
 Berny optimization.
 Using GEDIIS/GDIIS optimizer.
 Internal  Forces:  Max     0.000317102 RMS     0.000088490
 Search for a local minimum.
 Step number   3 out of a maximum of   79
 All quantities printed in internal units (Hartrees-Bohrs-Radians)
 Mixed Optimization -- En-DIIS/RFO-DIIS
 Swapping is turned off.
 Second derivative matrix not updated -- analytic derivatives used.
 DE= -8.54D-05 DEPred=-1.00D-04 R= 8.50D-01
 TightC=F SS=  1.41D+00  RLast= 5.22D-01 DXNew= 8.4853D-01 1.5652D+00
 Trust test= 8.50D-01 RLast= 5.22D-01 DXMaxT set to 8.49D-01
 ITU=  1  1  0
     Eigenvalues ---    0.00054   0.01525   0.01731   0.01753   0.02054
     Eigenvalues ---    0.02371   0.02541   0.02747   0.02810   0.02827
     Eigenvalues ---    0.11099   0.11665   0.12041   0.12552   0.12906
     Eigenvalues ---    0.12985   0.13677   0.19169   0.19273   0.19653
     Eigenvalues ---    0.20379   0.23167   0.25786   0.26251   0.29407
     Eigenvalues ---    0.35691   0.36006   0.36060   0.36324   0.36613
     Eigenvalues ---    0.36665   0.36977   0.39945   0.42283   0.43961
     Eigenvalues ---    0.47586   0.47643   0.51649   0.51938
 En-DIIS/RFO-DIIS/Sim-DIIS IScMMF=       -3 using points:     3    2
 RFO step:  Lambda=-7.60451466D-06.
 DidBck=F Rises=F RFO-DIIS coefs:    1.02545   -0.02545
 Iteration  1 RMS(Cart)=  0.00414975 RMS(Int)=  0.00000988
 Iteration  2 RMS(Cart)=  0.00001395 RMS(Int)=  0.00000202
 Iteration  3 RMS(Cart)=  0.00000000 RMS(Int)=  0.00000202
 Variable       Old X    -DE/DX   Delta X   Delta X   Delta X     New X
                                 (Linear)    (Quad)   (Total)
    R1        2.64098  -0.00004   0.00011   0.00002   0.00013   2.64111
    R2        2.64157  -0.00011  -0.00006  -0.00041  -0.00047   2.64110
    R3        2.84378  -0.00020   0.00003  -0.00038  -0.00035   2.84343
    R4        2.63510  -0.00007  -0.00007  -0.00018  -0.00025   2.63485
    R5        2.05029   0.00009   0.00003   0.00020   0.00023   2.05052
    R6        2.63841   0.00008   0.00006   0.00022   0.00028   2.63869
    R7        2.05280  -0.00000   0.00000  -0.00001  -0.00001   2.05279
    R8        2.63886  -0.00001  -0.00006  -0.00011  -0.00017   2.63869
    R9        2.05333  -0.00000  -0.00000  -0.00000  -0.00000   2.05333
[...]
 Alpha virt. eigenvalues --    1.08963   1.09766   1.12554   1.13541   1.15032
 Alpha virt. eigenvalues --    1.17412   1.21889   1.23422   1.33122   1.33650
 Alpha virt. eigenvalues --    1.35025   1.38292   1.38652   1.38849   1.42088
 Alpha virt. eigenvalues --    1.43383   1.44546   1.45878   1.47697   1.49369
 Alpha virt. eigenvalues --    1.53819   1.65679   1.66128   1.68441   1.71753
 Alpha virt. eigenvalues --    1.76714   1.78812   1.84512   1.85689   1.88102
 Alpha virt. eigenvalues --    1.89916   1.90079   1.95787   1.97093   1.99549
 Alpha virt. eigenvalues --    2.00007   2.01123   2.03941   2.05565   2.07148
 Alpha virt. eigenvalues --    2.09750   2.10313   2.12855   2.13288   2.16577
 Alpha virt. eigenvalues --    2.17128   2.24765   2.25010   2.29378   2.32477
 Alpha virt. eigenvalues --    2.38455   2.48872   2.52922   2.58005   2.63051
 Alpha virt. eigenvalues --    2.63280   2.71014   2.71430   2.72407   2.72988
 Alpha virt. eigenvalues --    2.77516   2.87499   2.91793   3.02592   3.04105
 Alpha virt. eigenvalues --    3.07939   3.10123   3.40032   4.06958   4.08984
 Alpha virt. eigenvalues --    4.10074   4.23707   4.31122   4.43895   4.45805
 Alpha virt. eigenvalues --    4.55347   4.73524   5.46826
          Condensed to atoms (all electrons):
               1          2          3          4          5          6
     1  C    5.195708   0.412106  -0.030199  -0.020339  -0.030198   0.412085
     2  C    0.412106   5.140492   0.435001  -0.048703  -0.023864  -0.068954
     3  C   -0.030199   0.435001   5.021802   0.473367  -0.033711  -0.023863
     4  C   -0.020339  -0.048703   0.473367   5.009511   0.473367  -0.048704
     5  C   -0.030198  -0.023864  -0.033711   0.473367   5.021795   0.435008
     6  C    0.412085  -0.068954  -0.023863  -0.048704   0.435008   5.140493
     7  C    0.321887  -0.029461   0.004490   0.000168   0.004490  -0.029455
     8  F   -0.052009   0.004962   0.000556  -0.000007  -0.000030   0.003123
     9  F   -0.052012   0.003122  -0.000030  -0.000007   0.000555   0.004963
    10  F   -0.059148   0.000744   0.000017  -0.000012   0.000017   0.000745
    11  H   -0.046861   0.360902  -0.037894   0.004493   0.000322   0.005010
    12  H    0.004111  -0.040152   0.362611  -0.041007   0.004522   0.000741
    13  H    0.000478   0.004926  -0.041910   0.363724  -0.041910   0.004926
    14  H    0.004111   0.000741   0.004522  -0.041006   0.362611  -0.040152
    15  H   -0.046863   0.005010   0.000322   0.004493  -0.037894   0.360903
               7          8          9         10         11         12
     1  C    0.321887  -0.052009  -0.052012  -0.059148  -0.046861   0.004111
     2  C   -0.029461   0.004962   0.003122   0.000744   0.360902  -0.040152
     3  C    0.004490   0.000556  -0.000030   0.000017  -0.037894   0.362611
     4  C    0.000168  -0.000007  -0.000007  -0.000012   0.004493  -0.041007
     5  C    0.004490  -0.000030   0.000555   0.000017   0.000322   0.004522
     6  C   -0.029455   0.003123   0.004963   0.000745   0.005010   0.000741
     7  C    4.127969   0.277877   0.277870   0.282238  -0.006032  -0.000112
     8  F    0.277877   9.106530  -0.036085  -0.040501   0.007534   0.000001
     9  F    0.277870  -0.036085   9.106544  -0.040502   0.000109   0.000000
    10  F    0.282238  -0.040501  -0.040502   9.118268   0.000207   0.000000
    11  H   -0.006032   0.007534   0.000109   0.000207   0.557078  -0.005345
    12  H   -0.000112   0.000001   0.000000   0.000000  -0.005345   0.572502
    13  H    0.000005  -0.000000  -0.000000  -0.000000  -0.000157  -0.005613
    14  H   -0.000112   0.000000   0.000001   0.000000   0.000016  -0.000168
    15  H   -0.006030   0.000109   0.007531   0.000207  -0.000154   0.000016
              13         14         15
     1  C    0.000478   0.004111  -0.046863
     2  C    0.004926   0.000741   0.005010
     3  C   -0.041910   0.004522   0.000322
     4  C    0.363724  -0.041006   0.004493
     5  C   -0.041910   0.362611  -0.037894
     6  C    0.004926  -0.040152   0.360903
     7  C    0.000005  -0.000112  -0.006030
     8  F   -0.000000   0.000000   0.000109
     9  F   -0.000000   0.000001   0.007531
    10  F   -0.000000   0.000000   0.000207
    11  H   -0.000157   0.000016  -0.000154
    12  H   -0.005613  -0.000168   0.000016
    13  H    0.580335  -0.005613  -0.000157
    14  H   -0.005613   0.572502  -0.005346
    15  H   -0.000157  -0.005346   0.557081
 Mulliken charges:
               1
     1  C   -0.012858
     2  C   -0.156872
     3  C   -0.135081
     4  C   -0.129338
     5  C   -0.135081
     6  C   -0.156870
     7  C    0.774206
     8  F   -0.272060
     9  F   -0.272059
    10  F   -0.262281
    11  H    0.160772
    12  H    0.147891
    13  H    0.140967
    14  H    0.147892
    15  H    0.160771
 Sum of Mulliken charges =  -0.00000
 Mulliken charges with hydrogens summed into heavy atoms:
               1
     1  C   -0.012858
     2  C    0.003900
     3  C    0.012810
     4  C    0.011628
     5  C    0.012811
     6  C    0.003902
     7  C    0.774206
     8  F   -0.272060
     9  F   -0.272059
    10  F   -0.262281
 Electronic spatial extent (au):  <R**2>=           1377.4975
 Charge=              0.0000 electrons
 Dipole moment (field-independent basis, Debye):
    X=              2.7007    Y=              0.0000    Z=             -0.0606  Tot=              2.7014
 Quadrupole moment (field-independent basis, Debye-Ang):
   XX=            -53.2122   YY=            -49.8257   ZZ=            -57.8824
   XY=             -0.0001   XZ=              0.1960   YZ=             -0.0000
 Traceless Quadrupole moment (field-independent basis, Debye-Ang):
   XX=              0.4279   YY=              3.8144   ZZ=             -4.2423
   XY=             -0.0001   XZ=              0.1960   YZ=             -0.0000
 Octapole moment (field-independent basis, Debye-Ang**2):
  XXX=            -20.2155  YYY=             -0.0006  ZZZ=             -0.6897  XYY=             -6.2967
  XXY=              0.0000  XXZ=              0.1697  XZZ=            -18.1458  YZZ=              0.0005
  YYZ=              0.9703  XYZ=              0.0000
 Hexadecapole moment (field-independent basis, Debye-Ang**3):
 XXXX=          -1065.4893 YYYY=           -339.1152 ZZZZ=           -116.9093 XXXY=             -0.0005
 XXXZ=              1.4312 YYYX=              0.0006 YYYZ=             -0.0000 ZZZX=              1.5351
 ZZZY=              0.0000 XXYY=           -235.0667 XXZZ=           -224.0416 YYZZ=            -85.9897
 XXYZ=             -0.0000 YYXZ=             -1.4963 ZZXY=             -0.0009
 N-N= 5.263824035096D+02 E-N=-2.391455302261D+03  KE= 5.650059816239D+02
 Evaluate density.
 Using the total density.
 Monte-Carlo method of calculating molar volume:
 based on  0.001 e/bohr**3 density envelope.
 Number of points per bohr**3 =   20 CutOff= 1.00D-04
 Using the CI density.
 There are       343 points.  Will hold       343 in memory.
 LenV=   536788900 MDV=   536870912.
 Box volume = 5060.302 fraction occupied=0.216
 Integrated density= 5.2443081104063374D+01 error=-2.1556918895936626D+01
 Molar volume = 1091.727 bohr**3/mol ( 97.425 cm**3/mol)
 Recommended a0 for SCRF calculation =  4.22 angstrom (  7.98 bohr)
 ******************************Gaussian NBO Version 3.1******************************
             N A T U R A L   A T O M I C   O R B I T A L   A N D
          N A T U R A L   B O N D   O R B I T A L   A N A L Y S I S
 ******************************Gaussian NBO Version 3.1******************************
       /RESON  / : Allow strongly delocalized NBO set

 Analyzing the CI density

 Job title: Title Card Required                                             

 Storage needed:     77650 in NPA ( 536869637 available)


 NATURAL POPULATIONS:  Natural atomic orbital occupancies 
                                                          
   NAO  Atom  No  lang   Type(AO)    Occupancy
 --------------------------------------------
     1    C    1  S      Cor( 1S)     1.99890
     2    C    1  S      Val( 2S)     0.91736
     3    C    1  S      Ryd( 3S)     0.00095
     4    C    1  S      Ryd( 4S)     0.00006
     5    C    1  px     Val( 2p)     1.07785
     6    C    1  px     Ryd( 3p)     0.00527
     7    C    1  py     Val( 2p)     1.10207
     8    C    1  py     Ryd( 3p)     0.00456
     9    C    1  pz     Val( 2p)     1.05265
    10    C    1  pz     Ryd( 3p)     0.00363
    11    C    1  dxy    Ryd( 3d)     0.00059
    12    C    1  dxz    Ryd( 3d)     0.00052
    13    C    1  dyz    Ryd( 3d)     0.00081
    14    C    1  dx2y2  Ryd( 3d)     0.00100
    15    C    1  dz2    Ryd( 3d)     0.00048
 
    16    C    2  S      Cor( 1S)     1.99909
    17    C    2  S      Val( 2S)     0.96707
    18    C    2  S      Ryd( 3S)     0.00066
    19    C    2  S      Ryd( 4S)     0.00005
    20    C    2  px     Val( 2p)     1.09233
    21    C    2  px     Ryd( 3p)     0.00520
    22    C    2  py     Val( 2p)     1.15545
    23    C    2  py     Ryd( 3p)     0.00481
    24    C    2  pz     Val( 2p)     0.96145
    25    C    2  pz     Ryd( 3p)     0.00460
    26    C    2  dxy    Ryd( 3d)     0.00085
    27    C    2  dxz    Ryd( 3d)     0.00068
    28    C    2  dyz    Ryd( 3d)     0.00045
    29    C    2  dx2y2  Ryd( 3d)     0.00065
    30    C    2  dz2    Ryd( 3d)     0.00045
 
    31    C    3  S      Cor( 1S)     1.99915
    32    C    3  S      Val( 2S)     0.97484
    33    C    3  S      Ryd( 3S)     0.00063
    34    C    3  S      Ryd( 4S)     0.00004
    35    C    3  px     Val( 2p)     1.08287
    36    C    3  px     Ryd( 3p)     0.00497
    37    C    3  py     Val( 2p)     1.16064
    38    C    3  py     Ryd( 3p)     0.00495
    39    C    3  pz     Val( 2p)     0.96747
    40    C    3  pz     Ryd( 3p)     0.00416
    41    C    3  dxy    Ryd( 3d)     0.00081
    42    C    3  dxz    Ryd( 3d)     0.00065
    43    C    3  dyz    Ryd( 3d)     0.00045
    44    C    3  dx2y2  Ryd( 3d)     0.00075
    45    C    3  dz2    Ryd( 3d)     0.00044
 
    46    C    4  S      Cor( 1S)     1.99916
    47    C    4  S      Val( 2S)     0.97373
    48    C    4  S      Ryd( 3S)     0.00059
    49    C    4  S      Ryd( 4S)     0.00003
    50    C    4  px     Val( 2p)     1.19339
    51    C    4  px     Ryd( 3p)     0.00473
    52    C    4  py     Val( 2p)     1.05118
    53    C    4  py     Ryd( 3p)     0.00510
    54    C    4  pz     Val( 2p)     1.01119
    55    C    4  pz     Ryd( 3p)     0.00445
    56    C    4  dxy    Ryd( 3d)     0.00068
    57    C    4  dxz    Ryd( 3d)     0.00037
    58    C    4  dyz    Ryd( 3d)     0.00064
    59    C    4  dx2y2  Ryd( 3d)     0.00085
    60    C    4  dz2    Ryd( 3d)     0.00044
 
    61    C    5  S      Cor( 1S)     1.99915
    62    C    5  S      Val( 2S)     0.97484
    63    C    5  S      Ryd( 3S)     0.00063
    64    C    5  S      Ryd( 4S)     0.00004
    65    C    5  px     Val( 2p)     1.08287
    66    C    5  px     Ryd( 3p)     0.00497
    67    C    5  py     Val( 2p)     1.16064
    68    C    5  py     Ryd( 3p)     0.00495
    69    C    5  pz     Val( 2p)     0.96747
    70    C    5  pz     Ryd( 3p)     0.00416
    71    C    5  dxy    Ryd( 3d)     0.00081
    72    C    5  dxz    Ryd( 3d)     0.00065
    73    C    5  dyz    Ryd( 3d)     0.00045
    74    C    5  dx2y2  Ryd( 3d)     0.00075
    75    C    5  dz2    Ryd( 3d)     0.00044
 
    76    C    6  S      Cor( 1S)     1.99909
    77    C    6  S      Val( 2S)     0.96707
    78    C    6  S      Ryd( 3S)     0.00066
    79    C    6  S      Ryd( 4S)     0.00005
    80    C    6  px     Val( 2p)     1.09234
    81    C    6  px     Ryd( 3p)     0.00520
    82    C    6  py     Val( 2p)     1.15545
    83    C    6  py     Ryd( 3p)     0.00481
    84    C    6  pz     Val( 2p)     0.96145
    85    C    6  pz     Ryd( 3p)     0.00460
    86    C    6  dxy    Ryd( 3d)     0.00085
    87    C    6  dxz    Ryd( 3d)     0.00068
    88    C    6  dyz    Ryd( 3d)     0.00045
    89    C    6  dx2y2  Ryd( 3d)     0.00065
    90    C    6  dz2    Ryd( 3d)     0.00045
 
    91    C    7  S      Cor( 1S)     1.99908
    92    C    7  S      Val( 2S)     0.79612
    93    C    7  S      Ryd( 3S)     0.00500
    94    C    7  S      Ryd( 4S)     0.00030
    95    C    7  px     Val( 2p)     0.86770
    96    C    7  px     Ryd( 3p)     0.01320
    97    C    7  py     Val( 2p)     0.56408
    98    C    7  py     Ryd( 3p)     0.01864
    99    C    7  pz     Val( 2p)     0.59802
   100    C    7  pz     Ryd( 3p)     0.01599
   101    C    7  dxy    Ryd( 3d)     0.00296
   102    C    7  dxz    Ryd( 3d)     0.00353
   103    C    7  dyz    Ryd( 3d)     0.00395
   104    C    7  dx2y2  Ryd( 3d)     0.00317
   105    C    7  dz2    Ryd( 3d)     0.00383
 
   106    F    8  S      Cor( 1S)     1.99993
   107    F    8  S      Val( 2S)     1.84371
   108    F    8  S      Ryd( 3S)     0.00088
   109    F    8  S      Ryd( 4S)     0.00004
   110    F    8  px     Val( 2p)     1.90025
   111    F    8  px     Ryd( 3p)     0.00042
   112    F    8  py     Val( 2p)     1.74276
   113    F    8  py     Ryd( 3p)     0.00021
   114    F    8  pz     Val( 2p)     1.87268
   115    F    8  pz     Ryd( 3p)     0.00018
   116    F    8  dxy    Ryd( 3d)     0.00097
   117    F    8  dxz    Ryd( 3d)     0.00054
   118    F    8  dyz    Ryd( 3d)     0.00104
   119    F    8  dx2y2  Ryd( 3d)     0.00115
   120    F    8  dz2    Ryd( 3d)     0.00077
 
   121    F    9  S      Cor( 1S)     1.99993
   122    F    9  S      Val( 2S)     1.84372
   123    F    9  S      Ryd( 3S)     0.00088
   124    F    9  S      Ryd( 4S)     0.00004
   125    F    9  px     Val( 2p)     1.90025
   126    F    9  px     Ryd( 3p)     0.00042
   127    F    9  py     Val( 2p)     1.74284
   128    F    9  py     Ryd( 3p)     0.00021
   129    F    9  pz     Val( 2p)     1.87261
   130    F    9  pz     Ryd( 3p)     0.00018
   131    F    9  dxy    Ryd( 3d)     0.00097
   132    F    9  dxz    Ryd( 3d)     0.00054
   133    F    9  dyz    Ryd( 3d)     0.00104
   134    F    9  dx2y2  Ryd( 3d)     0.00115
   135    F    9  dz2    Ryd( 3d)     0.00077
 
   136    F   10  S      Cor( 1S)     1.99993
   137    F   10  S      Val( 2S)     1.84773
   138    F   10  S      Ryd( 3S)     0.00100
   139    F   10  S      Ryd( 4S)     0.00003
   140    F   10  px     Val( 2p)     1.90408
   141    F   10  px     Ryd( 3p)     0.00047
   142    F   10  py     Val( 2p)     1.92900
   143    F   10  py     Ryd( 3p)     0.00014
   144    F   10  pz     Val( 2p)     1.67747
   145    F   10  pz     Ryd( 3p)     0.00023
   146    F   10  dxy    Ryd( 3d)     0.00022
   147    F   10  dxz    Ryd( 3d)     0.00124
   148    F   10  dyz    Ryd( 3d)     0.00119
   149    F   10  dx2y2  Ryd( 3d)     0.00026
   150    F   10  dz2    Ryd( 3d)     0.00149
 
   151    H   11  S      Val( 1S)     0.75345
   152    H   11  S      Ryd( 2S)     0.00147
 
   153    H   12  S      Val( 1S)     0.76289
   154    H   12  S      Ryd( 2S)     0.00083
 
   155    H   13  S      Val( 1S)     0.76430
   156    H   13  S      Ryd( 2S)     0.00082
 
   157    H   14  S      Val( 1S)     0.76289
   158    H   14  S      Ryd( 2S)     0.00083
 
   159    H   15  S      Val( 1S)     0.75345
   160    H   15  S      Ryd( 2S)     0.00147

 WARNING:  1 low occupancy (<1.9990e) core orbital  found on  C    1


 Summary of Natural Population Analysis:                  
                                                          
                                       Natural Population 
                Natural  -----------------------------------------------
    Atom  No    Charge         Core      Valence    Rydberg      Total
 -----------------------------------------------------------------------
      C    1   -0.16669      1.99890     4.14993    0.01786     6.16669
      C    2   -0.19378      1.99909     4.17631    0.01838     6.19378
      C    3   -0.20285      1.99915     4.18583    0.01787     6.20285
      C    4   -0.24654      1.99916     4.22949    0.01789     6.24654
      C    5   -0.20284      1.99915     4.18582    0.01787     6.20284
      C    6   -0.19378      1.99909     4.17631    0.01838     6.19378
      C    7    1.10443      1.99908     2.82593    0.07056     4.89557
      F    8   -0.36553      1.99993     7.35941    0.00619     9.36553
      F    9   -0.36553      1.99993     7.35941    0.00619     9.36553
      F   10   -0.36449      1.99993     7.35828    0.00628     9.36449
      H   11    0.24509      0.00000     0.75345    0.00147     0.75491
      H   12    0.23628      0.00000     0.76289    0.00083     0.76372
      H   13    0.23488      0.00000     0.76430    0.00082     0.76512
      H   14    0.23628      0.00000     0.76289    0.00083     0.76372
      H   15    0.24508      0.00000     0.75345    0.00147     0.75492
 =======================================================================
   * Total *    0.00000     19.99341    53.80370    0.20289    74.00000

                                 Natural Population      
 --------------------------------------------------------
   Core                      19.99341 ( 99.9671% of  20)
   Valence                   53.80370 ( 99.6365% of  54)
   Natural Minimal Basis     73.79711 ( 99.7258% of  74)
   Natural Rydberg Basis      0.20289 (  0.2742% of  74)
 --------------------------------------------------------

    Atom  No          Natural Electron Configuration
 ----------------------------------------------------------------------------
      C    1      [core]2S( 0.92)2p( 3.23)3p( 0.01)
      C    2      [core]2S( 0.97)2p( 3.21)3p( 0.01)
      C    3      [core]2S( 0.97)2p( 3.21)3p( 0.01)
      C    4      [core]2S( 0.97)2p( 3.26)3p( 0.01)
      C    5      [core]2S( 0.97)2p( 3.21)3p( 0.01)
      C    6      [core]2S( 0.97)2p( 3.21)3p( 0.01)
      C    7      [core]2S( 0.80)2p( 2.03)3p( 0.05)3d( 0.02)
      F    8      [core]2S( 1.84)2p( 5.52)
      F    9      [core]2S( 1.84)2p( 5.52)
      F   10      [core]2S( 1.85)2p( 5.51)
      H   11            1S( 0.75)
      H   12            1S( 0.76)
      H   13            1S( 0.76)
      H   14            1S( 0.76)
      H   15            1S( 0.75)


 NBO analysis skipped by request.
 1\1\GINC-DELLA-R4C2N1\SP\RB3LYP TD-FC\6-31G(d)\C7H5F3\BJS4\24-Aug-2020
 \0\\# TD(NStates=10, Root=1) B3LYP/6-31G* scf=qc volume pop=NPA densit
 y=current Geom=AllCheck Guess=Read\\Title Card Required\\0,1\C,0,-1.38
 61225002,-0.0723918809,-0.1236973117\C,0,-0.758428068,1.1673451162,0.0
 258511852\C,0,0.6312714289,1.2325977048,0.1183622725\C,0,1.3924484929,
 0.0633064558,0.0625056248\C,0,0.7626217544,-1.173797752,-0.0879820629\
 C,0,-0.6267881551,-1.244334809,-0.1809459016\C,0,-2.8881786044,-0.1508
 394616,-0.1651259952\F,0,-3.437263449,0.9611864166,-0.7036259048\F,0,-
 3.3188357504,-1.2078038921,-0.8899997625\F,0,-3.4171570477,-0.28623977
 56,1.0744705718\H,0,-1.3549339979,2.0730699722,0.0613900199\H,0,1.1192
 221473,2.196615576,0.2306239298\H,0,2.4754177363,0.1163475488,0.133312
 3357\H,0,1.3528984962,-2.084430207,-0.1364684206\H,0,-1.1215824833,-2.
 2020210122,-0.3051905805\\Version=ES64L-G16RevA.03\State=1-A\HF=-569.2
 865404\RMSD=9.840e-10\Dipole=1.0609661,0.0554941,0.0283421\Quadrupole=
 0.3057459,2.7821318,-3.0878777,-0.1627379,0.2863264,0.5235747\PG=C01 [
 X(C7H5F3)]\\@


 IT PROBABLY IS NOT POSSIBLE FOR A SCIENTIST TO INTERROGATE NATURE 
 FROM A WHOLLY DISINTERESTED VIEWPOINT.
 EVEN IF HE HAS NO PARTICULAR AXE TO GRIND, HE IS LIKELY TO HAVE 
 A DISTINCTIVE WAY OF VIEWING NATURE.

                                                   -- JOHN LOSEE
 Job cpu time:       0 days  0 hours 10 minutes  4.7 seconds.
 Elapsed time:       0 days  0 hours  5 minutes  4.0 seconds.
 File lengths (MBytes):  RWF=    271 Int=      0 D2E=      0 Chk=     16 Scr=      1
 Normal termination of Gaussian 16 at Mon Aug 24 16:36:48 2020.
