 Entering Gaussian System, Link 0=g16
 Input=solvent_1123.com
 Output=solvent_1123.log
 Initial command:
 /opt/export//g16/l1.exe "/scratch/bjs4/job.1961/Gau-1973.inp" -scrdir="/scratch/bjs4/job.1961/"
 Entering Link 1 = /opt/export//g16/l1.exe PID=      1976.
  
 Copyright (c) 1988,1990,1992,1993,1995,1998,2003,2009,2016,
            Gaussian, Inc.  All Rights Reserved.
  
 This is part of the Gaussian(R) 16 program.  It is based on
 the Gaussian(R) 09 system (copyright 2009, Gaussian, Inc.),
 the Gaussian(R) 03 system (copyright 2003, Gaussian, Inc.),
 the Gaussian(R) 98 system (copyright 1998, Gaussian, Inc.),
 the Gaussian(R) 94 system (copyright 1995, Gaussian, Inc.),
 the Gaussian 92(TM) system (copyright 1992, Gaussian, Inc.),
 the Gaussian 90(TM) system (copyright 1990, Gaussian, Inc.),
 the Gaussian 88(TM) system (copyright 1988, Gaussian, Inc.),
 the Gaussian 86(TM) system (copyright 1986, Carnegie Mellon
 University), and the Gaussian 82(TM) system (copyright 1983,
 Carnegie Mellon University). Gaussian is a federally registered
 trademark of Gaussian, Inc.
  
 This software contains proprietary and confidential information,
 including trade secrets, belonging to Gaussian, Inc.
  
 This software is provided under written license and may be
 used, copied, transmitted, or stored only in accord with that
 written license.
  
 The following legend is applicable only to US Government
 contracts under FAR:
  
                    RESTRICTED RIGHTS LEGEND
  
 Use, reproduction and disclosure by the US Government is
 subject to restrictions as set forth in subparagraphs (a)
 and (c) of the Commercial Computer Software - Restricted
 Rights clause in FAR 52.227-19.
  
 Gaussian, Inc.
 340 Quinnipiac St., Bldg. 40, Wallingford CT 06492
  
  
 ---------------------------------------------------------------
 Warning -- This program may not be used in any manner that
 competes with the business of Gaussian, Inc. or will provide
 assistance to any competitor of Gaussian, Inc.  The licensee
 of this program is prohibited from giving any competitor of
 Gaussian, Inc. access to this program.  By using this program,
 the user acknowledges that Gaussian, Inc. is engaged in the
 business of creating and licensing software in the field of
 computational chemistry and represents and warrants to the
 licensee that it is not a competitor of Gaussian, Inc. and that
 it will not use this program in any manner prohibited above.
 ---------------------------------------------------------------
  

 Cite this work as:
 Gaussian 16, Revision A.03,
 M. J. Frisch, G. W. Trucks, H. B. Schlegel, G. E. Scuseria, 
 M. A. Robb, J. R. Cheeseman, G. Scalmani, V. Barone, 
 G. A. Petersson, H. Nakatsuji, X. Li, M. Caricato, A. V. Marenich, 
 J. Bloino, B. G. Janesko, R. Gomperts, B. Mennucci, H. P. Hratchian, 
 J. V. Ortiz, A. F. Izmaylov, J. L. Sonnenberg, D. Williams-Young, 
 F. Ding, F. Lipparini, F. Egidi, J. Goings, B. Peng, A. Petrone, 
 T. Henderson, D. Ranasinghe, V. G. Zakrzewski, J. Gao, N. Rega, 
 G. Zheng, W. Liang, M. Hada, M. Ehara, K. Toyota, R. Fukuda, 
 J. Hasegawa, M. Ishida, T. Nakajima, Y. Honda, O. Kitao, H. Nakai, 
 T. Vreven, K. Throssell, J. A. Montgomery, Jr., J. E. Peralta, 
 F. Ogliaro, M. J. Bearpark, J. J. Heyd, E. N. Brothers, K. N. Kudin, 
 V. N. Staroverov, T. A. Keith, R. Kobayashi, J. Normand, 
 K. Raghavachari, A. P. Rendell, J. C. Burant, S. S. Iyengar, 
 J. Tomasi, M. Cossi, J. M. Millam, M. Klene, C. Adamo, R. Cammi, 
 J. W. Ochterski, R. L. Martin, K. Morokuma, O. Farkas, 
 J. B. Foresman, and D. J. Fox, Gaussian, Inc., Wallingford CT, 2016.
 
 ******************************************
 Gaussian 16:  ES64L-G16RevA.03 25-Dec-2016
                24-Aug-2020 
 ******************************************
 %nprocshared=2
 Will use up to    2 processors via shared memory.
 %Mem=4GB
 %Chk=solvent_11.chk
 ---------------------------------
 # opt=CalcAll B3LYP/6-31G* scf=qc
 ---------------------------------
 1/10=4,18=20,19=15,26=3,38=1/1,3;
 2/9=110,12=2,17=6,18=5,40=1/2;
 3/5=1,6=6,7=1,11=2,25=1,30=1,71=2,74=-5,140=1/1,2,3;
 4//1;
 5/5=2,8=3,38=5/8;
 8/6=4,10=90,11=11/1;
 11/6=1,8=1,9=11,15=111,16=1/1,2,10;
 10/6=1/2;
 6/7=2,8=2,9=2,10=2,18=1,28=1/1;
 7/10=1,25=1/1,2,3,16;
 1/10=4,18=20,19=15,26=3/3(3);
 2/9=110/2;
 7/8=1,9=1,25=1,44=-1/16;
 99//99;
 2/9=110/2;
 3/5=1,6=6,7=1,11=2,25=1,30=1,71=2,74=-5,140=1/1,2,3;
 4/5=5,16=3,69=1/1;
 5/5=2,8=3,38=5/8;
 8/6=4,10=90,11=11/1;
 11/6=1,8=1,9=11,15=111,16=1/1,2,10;
 10/6=1/2;
 7/10=1,25=1/1,2,3,16;
 1/10=4,18=20,19=15,26=3/3(-8);
 2/9=110/2;
 6/7=2,8=2,9=2,10=2,18=1,19=2,28=1/1;
 7/8=1,9=1,25=1,44=-1/16;
 99//99;
 -------------------
 Title Card Required
 -------------------
 Symbolic Z-matrix:
 Charge =  0 Multiplicity = 1
 C                     0.97452  -0.00268   0.01791 
 O                     0.27713   0.99564   0.14182 
 N                     2.35306  -0.03374   0.01386 
 C                     3.08239  -1.27564  -0.13997 
 C                     3.1178    1.18881   0.16542 
 H                     0.52336  -1.0011   -0.10589 
 H                     2.40065  -2.12402  -0.24511 
 H                     3.71115  -1.42846   0.7418 
 H                     3.71125  -1.20866  -1.0323 
 H                     2.46849   2.06151   0.2734 
 H                     3.7488    1.32139  -0.71819 
 H                     3.74849   1.10177   1.05488 
 

 GradGradGradGradGradGradGradGradGradGradGradGradGradGradGradGradGradGrad
 Berny optimization.
 Initialization pass.
                           ----------------------------
                           !    Initial Parameters    !
                           ! (Angstroms and Degrees)  !
 --------------------------                            --------------------------
 ! Name  Definition              Value          Derivative Info.                !
 --------------------------------------------------------------------------------
 ! R1    R(1,2)                  1.2241         calculate D2E/DX2 analytically  !
 ! R2    R(1,3)                  1.3789         calculate D2E/DX2 analytically  !
 ! R3    R(1,6)                  1.1026         calculate D2E/DX2 analytically  !
 ! R4    R(3,4)                  1.4484         calculate D2E/DX2 analytically  !
 ! R5    R(3,5)                  1.45           calculate D2E/DX2 analytically  !
 ! R6    R(4,7)                  1.0934         calculate D2E/DX2 analytically  !
 ! R7    R(4,8)                  1.0937         calculate D2E/DX2 analytically  !
 ! R8    R(4,9)                  1.0937         calculate D2E/DX2 analytically  !
 ! R9    R(5,10)                 1.0931         calculate D2E/DX2 analytically  !
 ! R10   R(5,11)                 1.0938         calculate D2E/DX2 analytically  !
 ! R11   R(5,12)                 1.0938         calculate D2E/DX2 analytically  !
 ! A1    A(2,1,3)              126.033          calculate D2E/DX2 analytically  !
 ! A2    A(2,1,6)              121.1152         calculate D2E/DX2 analytically  !
 ! A3    A(3,1,6)              112.8517         calculate D2E/DX2 analytically  !
 ! A4    A(1,3,4)              121.5359         calculate D2E/DX2 analytically  !
 ! A5    A(1,3,5)              120.5294         calculate D2E/DX2 analytically  !
 ! A6    A(4,3,5)              117.9347         calculate D2E/DX2 analytically  !
 ! A7    A(3,4,7)              111.1941         calculate D2E/DX2 analytically  !
 ! A8    A(3,4,8)              108.8841         calculate D2E/DX2 analytically  !
 ! A9    A(3,4,9)              108.8847         calculate D2E/DX2 analytically  !
 ! A10   A(7,4,8)              109.12           calculate D2E/DX2 analytically  !
 ! A11   A(7,4,9)              109.1207         calculate D2E/DX2 analytically  !
 ! A12   A(8,4,9)              109.62           calculate D2E/DX2 analytically  !
 ! A13   A(3,5,10)             111.727          calculate D2E/DX2 analytically  !
 ! A14   A(3,5,11)             108.7842         calculate D2E/DX2 analytically  !
 ! A15   A(3,5,12)             108.7841         calculate D2E/DX2 analytically  !
 ! A16   A(10,5,11)            109.0074         calculate D2E/DX2 analytically  !
 ! A17   A(10,5,12)            109.0079         calculate D2E/DX2 analytically  !
 ! A18   A(11,5,12)            109.5057         calculate D2E/DX2 analytically  !
 ! D1    D(2,1,3,4)            179.9865         calculate D2E/DX2 analytically  !
 ! D2    D(2,1,3,5)              0.0023         calculate D2E/DX2 analytically  !
 ! D3    D(6,1,3,4)             -0.0159         calculate D2E/DX2 analytically  !
 ! D4    D(6,1,3,5)            180.0            calculate D2E/DX2 analytically  !
 ! D5    D(1,3,4,7)              0.0128         calculate D2E/DX2 analytically  !
 ! D6    D(1,3,4,8)           -120.2477         calculate D2E/DX2 analytically  !
 ! D7    D(1,3,4,9)            120.2746         calculate D2E/DX2 analytically  !
 ! D8    D(5,3,4,7)            179.9974         calculate D2E/DX2 analytically  !
 ! D9    D(5,3,4,8)             59.7369         calculate D2E/DX2 analytically  !
 ! D10   D(5,3,4,9)            -59.7408         calculate D2E/DX2 analytically  !
 ! D11   D(1,3,5,10)            -0.0213         calculate D2E/DX2 analytically  !
 ! D12   D(1,3,5,11)          -120.4096         calculate D2E/DX2 analytically  !
 ! D13   D(1,3,5,12)           120.3676         calculate D2E/DX2 analytically  !
 ! D14   D(4,3,5,10)           179.994          calculate D2E/DX2 analytically  !
 ! D15   D(4,3,5,11)            59.6057         calculate D2E/DX2 analytically  !
 ! D16   D(4,3,5,12)           -59.6172         calculate D2E/DX2 analytically  !
 --------------------------------------------------------------------------------
 Trust Radius=3.00D-01 FncErr=1.00D-07 GrdErr=1.00D-06 EigMax=2.50D+02 EigMin=1.00D-04
 Number of steps in this run=     55 maximum allowed number of steps=    100.
 GradGradGradGradGradGradGradGradGradGradGradGradGradGradGradGradGradGrad

                          Input orientation:                          
 ---------------------------------------------------------------------
 Center     Atomic      Atomic             Coordinates (Angstroms)
 Number     Number       Type             X           Y           Z
 ---------------------------------------------------------------------
      1          6           0        0.974520   -0.002680    0.017910
      2          8           0        0.277130    0.995640    0.141820
      3          7           0        2.353060   -0.033740    0.013860
      4          6           0        3.082390   -1.275640   -0.139970
      5          6           0        3.117800    1.188810    0.165420
      6          1           0        0.523360   -1.001100   -0.105890
      7          1           0        2.400650   -2.124020   -0.245110
      8          1           0        3.711150   -1.428460    0.741800
      9          1           0        3.711250   -1.208660   -1.032300
     10          1           0        2.468490    2.061510    0.273400
     11          1           0        3.748800    1.321390   -0.718190
     12          1           0        3.748490    1.101770    1.054880
 ---------------------------------------------------------------------
                    Distance matrix (angstroms):
                    1          2          3          4          5
     1  C    0.000000
     2  O    1.224071   0.000000
     3  N    1.378896   2.320664   0.000000
     4  C    2.467482   3.620442   1.448413   0.000000
     5  C    2.456635   2.847328   1.449975   2.483552   0.000000
     6  H    1.102594   2.027057   2.073144   2.573940   3.405941
     7  H    2.569652   3.793591   2.106799   1.093422   3.414335
     8  H    3.169544   4.246025   2.078352   1.093715   2.744883
     9  H    3.169703   4.246254   2.078357   1.093711   2.744919
    10  H    2.560879   2.440379   2.114417   3.418233   1.093100
    11  H    3.160955   3.591410   2.078549   2.742810   1.093849
    12  H    3.160700   3.591000   2.078540   2.742888   1.093840
                    6          7          8          9         10
     6  H    0.000000
     7  H    2.191928   0.000000
     8  H    3.326142   1.781911   0.000000
     9  H    3.326253   1.781916   1.787664   0.000000
    10  H    3.647872   4.218070   3.734099   3.734075   0.000000
    11  H    4.021484   3.729901   3.113625   2.549751   1.780512
    12  H    4.021307   3.729929   2.549799   3.113807   1.780509
                   11         12
    11  H    0.000000
    12  H    1.786620   0.000000
 Stoichiometry    C3H7NO
 Framework group  C1[X(C3H7NO)]
 Deg. of freedom    30
 Full point group                 C1      NOp   1
 Largest Abelian subgroup         C1      NOp   1
 Largest concise Abelian subgroup C1      NOp   1
                         Standard orientation:                         
 ---------------------------------------------------------------------
 Center     Atomic      Atomic             Coordinates (Angstroms)
 Number     Number       Type             X           Y           Z
 ---------------------------------------------------------------------
      1          6           0       -0.879223   -0.639737   -0.000046
      2          8           0       -1.967470   -0.079319    0.000063
      3          7           0        0.352429   -0.019748   -0.000111
      4          6           0        1.584166   -0.781802    0.000051
      5          6           0        0.448769    1.427023    0.000001
      6          1           0       -0.804844   -1.739819   -0.000146
      7          1           0        1.383964   -1.856739   -0.000008
      8          1           0        2.159438   -0.524589    0.893983
      9          1           0        2.159718   -0.524532   -0.893681
     10          1           0       -0.537546    1.898246   -0.000243
     11          1           0        0.995121    1.743715   -0.893145
     12          1           0        0.994631    1.743605    0.893475
 ---------------------------------------------------------------------
 Rotational constants (GHZ):           8.8933132           4.1281445           2.9244454
 Standard basis: 6-31G(d) (6D, 7F)
 There are    89 symmetry adapted cartesian basis functions of A   symmetry.
 There are    89 symmetry adapted basis functions of A   symmetry.
    89 basis functions,   168 primitive gaussians,    89 cartesian basis functions
    20 alpha electrons       20 beta electrons
       nuclear repulsion energy       180.7470868021 Hartrees.
 NAtoms=   12 NActive=   12 NUniq=   12 SFac= 1.00D+00 NAtFMM=   60 NAOKFM=F Big=F
 Integral buffers will be    131072 words long.
 Raffenetti 2 integral format.
 Two-electron integral symmetry is turned on.
 One-electron integrals computed using PRISM.
 NBasis=    89 RedAO= T EigKep=  4.73D-03  NBF=    89
 NBsUse=    89 1.00D-06 EigRej= -1.00D+00 NBFU=    89
 ExpMin= 1.61D-01 ExpMax= 5.48D+03 ExpMxC= 8.25D+02 IAcc=3 IRadAn=         5 AccDes= 0.00D+00
 Harris functional with IExCor=  402 and IRadAn=       5 diagonalized for initial guess.
 HarFok:  IExCor=  402 AccDes= 0.00D+00 IRadAn=         5 IDoV= 1 UseB2=F ITyADJ=14
 ICtDFT=  3500011 ScaDFX=  1.000000  1.000000  1.000000  1.000000
 FoFCou: FMM=F IPFlag=           0 FMFlag=      100000 FMFlg1=           0
         NFxFlg=           0 DoJE=T BraDBF=F KetDBF=T FulRan=T
         wScrn=  0.000000 ICntrl=       500 IOpCl=  0 I1Cent=   200000004 NGrid=           0
         NMat0=    1 NMatS0=      1 NMatT0=    0 NMatD0=    1 NMtDS0=    0 NMtDT0=    0
 Petite list used in FoFCou.
 Keep R1 ints in memory in canonical form, NReq=9849294.
 Gradient too large for Newton-Raphson -- use scaled steepest descent instead.
     Accept linear search using points  2 and  3.
 Gradient too large for Newton-Raphson -- use scaled steepest descent instead.
 Gradient too large for Newton-Raphson -- use scaled steepest descent instead.
 Gradient too large for Newton-Raphson -- use scaled steepest descent instead.
 Gradient too large for Newton-Raphson -- use scaled steepest descent instead.
 Gradient too large for Newton-Raphson -- use scaled steepest descent instead.
     Accept linear search using points  1 and  2.
 LinEq1:  Iter=  0 NonCon=     1 RMS=1.30D-04 Max=3.73D-03 NDo=     1
 AX will form     1 AO Fock derivatives at one time.
 LinEq1:  Iter=  1 NonCon=     1 RMS=6.18D-05 Max=9.62D-04 NDo=     1
 LinEq1:  Iter=  2 NonCon=     1 RMS=3.22D-05 Max=4.10D-04 NDo=     1
 LinEq1:  Iter=  3 NonCon=     1 RMS=9.66D-06 Max=9.34D-05 NDo=     1
 LinEq1:  Iter=  4 NonCon=     1 RMS=4.02D-06 Max=5.91D-05 NDo=     1
 LinEq1:  Iter=  5 NonCon=     1 RMS=2.04D-06 Max=4.68D-05 NDo=     1
 LinEq1:  Iter=  6 NonCon=     1 RMS=9.08D-07 Max=1.04D-05 NDo=     1
 LinEq1:  Iter=  7 NonCon=     1 RMS=4.22D-07 Max=4.84D-06 NDo=     1
 LinEq1:  Iter=  8 NonCon=     1 RMS=1.07D-07 Max=8.03D-07 NDo=     1
 LinEq1:  Iter=  9 NonCon=     1 RMS=2.79D-08 Max=2.17D-07 NDo=     1
 LinEq1:  Iter= 10 NonCon=     1 RMS=6.57D-09 Max=6.24D-08 NDo=     1
 LinEq1:  Iter= 11 NonCon=     0 RMS=3.27D-09 Max=2.99D-08 NDo=     1
 Linear equations converged to 5.254D-09 5.254D-08 after    11 iterations.
     Accept linear search using points  1 and  2.
     Minimum is close to point  2 DX= -2.07D-04 DF= -1.25D-12 DXR=  2.07D-04 DFR=  4.32D-08 which will be used.
 LinEq1:  Iter=  0 NonCon=     1 RMS=2.54D-07 Max=6.30D-06 NDo=     1
 LinEq1:  Iter=  1 NonCon=     1 RMS=1.38D-07 Max=2.17D-06 NDo=     1
 LinEq1:  Iter=  2 NonCon=     1 RMS=4.36D-08 Max=7.65D-07 NDo=     1
 LinEq1:  Iter=  3 NonCon=     1 RMS=2.51D-08 Max=2.79D-07 NDo=     1
 LinEq1:  Iter=  4 NonCon=     1 RMS=2.45D-08 Max=4.65D-07 NDo=     1
 LinEq1:  Iter=  5 NonCon=     1 RMS=7.71D-09 Max=9.67D-08 NDo=     1
 LinEq1:  Iter=  6 NonCon=     1 RMS=1.67D-09 Max=1.40D-08 NDo=     1
 LinEq1:  Iter=  7 NonCon=     1 RMS=5.90D-10 Max=5.66D-09 NDo=     1
 LinEq1:  Iter=  8 NonCon=     1 RMS=2.11D-10 Max=1.68D-09 NDo=     1
 LinEq1:  Iter=  9 NonCon=     0 RMS=6.84D-11 Max=7.21D-10 NDo=     1
 Linear equations converged to 8.372D-11 8.372D-10 after     9 iterations.
 SCF Done:  E(RB3LYP) =  -248.510779074     a.u. after    9 cycles
            Convg  =    0.6026D-10                    40 Fock formations.
              S**2 =  0.0000                  -V/T =  2.0095
 DoSCS=F DFT=T ScalE2(SS,OS)=  1.000000  1.000000
 Range of M.O.s used for correlation:     1    89
 NBasis=    89 NAE=    20 NBE=    20 NFC=     0 NFV=     0
 NROrb=     89 NOA=    20 NOB=    20 NVA=    69 NVB=    69
 Symmetrizing basis deriv contribution to polar:
 IMax=3 JMax=2 DiffMx= 0.00D+00
 G2DrvN: will do    13 centers at a time, making    1 passes.
 Calling FoFCou, ICntrl=  3107 FMM=F I1Cent=   0 AccDes= 0.00D+00.
 End of G2Drv F.D. properties file   721 does not exist.
 End of G2Drv F.D. properties file   722 does not exist.
 End of G2Drv F.D. properties file   788 does not exist.
          IDoAtm=111111111111
          Differentiating once with respect to electric field.
                with respect to dipole field.
          Differentiating once with respect to nuclear coordinates.
 Keep R1 ints in memory in canonical form, NReq=9853744.
          There are    39 degrees of freedom in the 1st order CPHF.  IDoFFX=6 NUNeed=     3.
     36 vectors produced by pass  0 Test12= 3.54D-15 2.56D-09 XBig12= 4.98D+01 5.35D+00.
 AX will form    36 AO Fock derivatives at one time.
     36 vectors produced by pass  1 Test12= 3.54D-15 2.56D-09 XBig12= 1.51D+01 1.06D+00.
     36 vectors produced by pass  2 Test12= 3.54D-15 2.56D-09 XBig12= 9.18D-02 5.48D-02.
     36 vectors produced by pass  3 Test12= 3.54D-15 2.56D-09 XBig12= 2.21D-04 4.16D-03.
     36 vectors produced by pass  4 Test12= 3.54D-15 2.56D-09 XBig12= 2.14D-07 1.13D-04.
     16 vectors produced by pass  5 Test12= 3.54D-15 2.56D-09 XBig12= 1.74D-10 2.66D-06.
      3 vectors produced by pass  6 Test12= 3.54D-15 2.56D-09 XBig12= 9.35D-14 4.82D-08.
 InvSVY:  IOpt=1 It=  1 EMax= 2.66D-15
 Solved reduced A of dimension   199 with    39 vectors.
 Isotropic polarizability for W=    0.000000       42.16 Bohr**3.
 End of Minotr F.D. properties file   721 does not exist.
 End of Minotr F.D. properties file   722 does not exist.
 End of Minotr F.D. properties file   788 does not exist.

 **********************************************************************

            Population analysis using the SCF density.

 **********************************************************************

 Orbital symmetries:
       Occupied  (A) (A) (A) (A) (A) (A) (A) (A) (A) (A) (A) (A)
                 (A) (A) (A) (A) (A) (A) (A) (A)
       Virtual   (A) (A) (A) (A) (A) (A) (A) (A) (A) (A) (A) (A)
                 (A) (A) (A) (A) (A) (A) (A) (A) (A) (A) (A) (A)
                 (A) (A) (A) (A) (A) (A) (A) (A) (A) (A) (A) (A)
                 (A) (A) (A) (A) (A) (A) (A) (A) (A) (A) (A) (A)
                 (A) (A) (A) (A) (A) (A) (A) (A) (A) (A) (A) (A)
                 (A) (A) (A) (A) (A) (A) (A) (A) (A)
 The electronic state is 1-A.
 Alpha  occ. eigenvalues --  -19.11000 -14.36866 -10.27834 -10.23127 -10.21866
 Alpha  occ. eigenvalues --   -1.02278  -0.93701  -0.73491  -0.70054  -0.57054
 Alpha  occ. eigenvalues --   -0.51254  -0.48236  -0.46502  -0.41492  -0.41225
 Alpha  occ. eigenvalues --   -0.40081  -0.38955  -0.37008  -0.24875  -0.23971
 Alpha virt. eigenvalues --    0.03154   0.08240   0.11564   0.14088   0.14318
 Alpha virt. eigenvalues --    0.15097   0.15880   0.17482   0.19938   0.23412
 Alpha virt. eigenvalues --    0.28791   0.36667   0.47676   0.48024   0.50535
 Alpha virt. eigenvalues --    0.55167   0.56112   0.64995   0.65337   0.69920
 Alpha virt. eigenvalues --    0.72141   0.79005   0.79376   0.80950   0.84367
 Alpha virt. eigenvalues --    0.87690   0.88075   0.88389   0.90251   0.91843
 Alpha virt. eigenvalues --    0.95840   1.00192   1.02743   1.06275   1.14105
 Alpha virt. eigenvalues --    1.30125   1.32455   1.36848   1.39945   1.40421
 Alpha virt. eigenvalues --    1.55161   1.59504   1.77260   1.79011   1.82484
 Alpha virt. eigenvalues --    1.88855   1.93835   1.98007   1.99080   2.06825
 Alpha virt. eigenvalues --    2.06988   2.10643   2.18372   2.24954   2.31976
 Alpha virt. eigenvalues --    2.33472   2.38251   2.43291   2.55254   2.59028
 Alpha virt. eigenvalues --    2.66142   2.84787   2.94737   3.10048   3.85469
 Alpha virt. eigenvalues --    3.96198   4.20154   4.27004   4.35802
          Condensed to atoms (all electrons):
               1          2          3          4          5          6
     1  C    4.495234   0.576876   0.262977  -0.025121  -0.023510   0.364598
     2  O    0.576876   8.013223  -0.083566   0.002714  -0.005213  -0.055530
     3  N    0.262977  -0.083566   6.979510   0.298083   0.279512  -0.119772
     4  C   -0.025121   0.002714   0.298083   4.959068  -0.051482  -0.000255
     5  C   -0.023510  -0.005213   0.279512  -0.051482   4.979339   0.006831
     6  H    0.364598  -0.055530  -0.119772  -0.000255   0.006831   0.692221
     7  H   -0.000907   0.000073  -0.033490   0.374301   0.004630   0.010925
     8  H    0.000443  -0.000032  -0.049940   0.376594  -0.000778  -0.000219
     9  H    0.000445  -0.000032  -0.049934   0.376598  -0.000778  -0.000219
    10  H   -0.000535   0.018590  -0.033672   0.004395   0.372230   0.001017
    11  H    0.001374   0.000477  -0.048073  -0.001735   0.378688  -0.000177
    12  H    0.001369   0.000478  -0.048078  -0.001735   0.378694  -0.000177
               7          8          9         10         11         12
     1  C   -0.000907   0.000443   0.000445  -0.000535   0.001374   0.001369
     2  O    0.000073  -0.000032  -0.000032   0.018590   0.000477   0.000478
     3  N   -0.033490  -0.049940  -0.049934  -0.033672  -0.048073  -0.048078
     4  C    0.374301   0.376594   0.376598   0.004395  -0.001735  -0.001735
     5  C    0.004630  -0.000778  -0.000778   0.372230   0.378688   0.378694
     6  H    0.010925  -0.000219  -0.000219   0.001017  -0.000177  -0.000177
     7  H    0.529002  -0.026992  -0.026989  -0.000150  -0.000036  -0.000036
     8  H   -0.026992   0.580614  -0.045854  -0.000061  -0.002038   0.007655
     9  H   -0.026989  -0.045854   0.580598  -0.000061   0.007653  -0.002037
    10  H   -0.000150  -0.000061  -0.000061   0.484538  -0.024961  -0.024968
    11  H   -0.000036  -0.002038   0.007653  -0.024961   0.576025  -0.041781
    12  H   -0.000036   0.007655  -0.002037  -0.024968  -0.041781   0.576029
 Mulliken charges:
               1
     1  C    0.346756
     2  O   -0.468059
     3  N   -0.353557
     4  C   -0.311426
     5  C   -0.318163
     6  H    0.100756
     7  H    0.169669
     8  H    0.160607
     9  H    0.160610
    10  H    0.203638
    11  H    0.154582
    12  H    0.154587
 Sum of Mulliken charges =   0.00000
 Mulliken charges with hydrogens summed into heavy atoms:
               1
     1  C    0.447513
     2  O   -0.468059
     3  N   -0.353557
     4  C    0.179459
     5  C    0.194644
 APT charges:
               1
     1  C    0.997440
     2  O   -0.761667
     3  N   -0.723772
     4  C    0.360875
     5  C    0.292212
     6  H   -0.054490
     7  H    0.010318
     8  H   -0.047805
     9  H   -0.047786
    10  H    0.057468
    11  H   -0.041386
    12  H   -0.041407
 Sum of APT charges =   0.00000
 APT charges with hydrogens summed into heavy atoms:
               1
     1  C    0.942950
     2  O   -0.761667
     3  N   -0.723772
     4  C    0.275602
     5  C    0.266887
 Electronic spatial extent (au):  <R**2>=            445.8380
 Charge=              0.0000 electrons
 Dipole moment (field-independent basis, Debye):
    X=              3.8435    Y=             -0.3843    Z=             -0.0000  Tot=              3.8626
 Quadrupole moment (field-independent basis, Debye-Ang):
   XX=            -36.4594   YY=            -27.2178   ZZ=            -30.7066
   XY=             -0.0644   XZ=              0.0004   YZ=             -0.0001
 Traceless Quadrupole moment (field-independent basis, Debye-Ang):
   XX=             -4.9981   YY=              4.2434   ZZ=              0.7547
   XY=             -0.0644   XZ=              0.0004   YZ=             -0.0001
 Octapole moment (field-independent basis, Debye-Ang**2):
  XXX=             13.2755  YYY=             -0.9905  ZZZ=              0.0010  XYY=             -2.0895
  XXY=             -0.5918  XXZ=             -0.0015  XZZ=             -0.8830  YZZ=              0.6160
  YYZ=             -0.0007  XYZ=             -0.0001
 Hexadecapole moment (field-independent basis, Debye-Ang**3):
 XXXX=           -360.8302 YYYY=           -185.9829 ZZZZ=            -41.7628 XXXY=             -2.9646
 XXXZ=             -0.0013 YYYX=             -1.7133 YYYZ=             -0.0007 ZZZX=              0.0002
 ZZZY=              0.0004 XXYY=            -84.8777 XXZZ=            -58.9190 YYZZ=            -39.7046
 XXYZ=             -0.0008 YYXZ=             -0.0001 ZZXY=              1.2628
 N-N= 1.807470868021D+02 E-N=-9.404748845629D+02  KE= 2.461699708006D+02
  Exact polarizability:  52.938   0.844  43.988  -0.000   0.000  29.568
 Approx polarizability:  80.957  -0.777  56.721  -0.002   0.001  40.627
 Calling FoFJK, ICntrl=    100127 FMM=F ISym2X=0 I1Cent= 0 IOpClX= 0 NMat=1 NMatS=1 NMatT=0.
 ***** Axes restored to original set *****
 -------------------------------------------------------------------
 Center     Atomic                   Forces (Hartrees/Bohr)
 Number     Number              X              Y              Z
 -------------------------------------------------------------------
      1        6           0.003871606    0.008773488    0.001085809
      2        8           0.006582201   -0.003750979   -0.000467311
      3        7          -0.026009906    0.000786684    0.000096179
      4        6           0.000220506    0.007359672    0.000913022
      5        6           0.002134438   -0.002367894   -0.000297363
      6        1           0.002157726   -0.003916719   -0.000484204
      7        1          -0.001254341    0.001653792    0.000204059
      8        1           0.003940414   -0.004266947    0.000208835
      9        1           0.003939598   -0.004085847   -0.001244154
     10        1          -0.003661041   -0.005583407   -0.000690742
     11        1           0.004036729    0.002787093   -0.000388813
     12        1           0.004042070    0.002611066    0.001064682
 -------------------------------------------------------------------
 Cartesian Forces:  Max     0.026009906 RMS     0.005474377
 FormGI is forming the generalized inverse of G from B-inverse, IUseBI=4.

 GradGradGradGradGradGradGradGradGradGradGradGradGradGradGradGradGradGrad
 Berny optimization.
 Internal  Forces:  Max     0.012582968 RMS     0.003971592
 Search for a local minimum.
 Step number   1 out of a maximum of   55
 All quantities printed in internal units (Hartrees-Bohrs-Radians)
 Mixed Optimization -- RFO/linear search
 Second derivative matrix not updated -- analytic derivatives used.
 ITU=  0
     Eigenvalues ---    0.00103   0.00207   0.00441   0.01788   0.06355
     Eigenvalues ---    0.06401   0.06469   0.06540   0.08219   0.13004
     Eigenvalues ---    0.13865   0.15038   0.15792   0.17164   0.18187
     Eigenvalues ---    0.18691   0.21523   0.21681   0.25956   0.32750
     Eigenvalues ---    0.33506   0.33689   0.33732   0.33926   0.34763
     Eigenvalues ---    0.35224   0.37797   0.39712   0.42744   0.82340
 RFO step:  Lambda=-2.89574926D-03 EMin= 1.02618064D-03
 Linear search not attempted -- first point.
 Iteration  1 RMS(Cart)=  0.03410298 RMS(Int)=  0.00090354
 Iteration  2 RMS(Cart)=  0.00085261 RMS(Int)=  0.00028854
 Iteration  3 RMS(Cart)=  0.00000039 RMS(Int)=  0.00028854
 Variable       Old X    -DE/DX   Delta X   Delta X   Delta X     New X
                                 (Linear)    (Quad)   (Total)
    R1        2.31316  -0.00686   0.00000  -0.00798  -0.00798   2.30517
    R2        2.60574  -0.01258   0.00000  -0.02539  -0.02539   2.58034
    R3        2.08360   0.00272   0.00000   0.00996   0.00996   2.09356
    R4        2.73710   0.00287   0.00000   0.00022   0.00022   2.73732
    R5        2.74005   0.00127   0.00000   0.00413   0.00413   2.74418
    R6        2.06627  -0.00052   0.00000   0.00067   0.00067   2.06694
    R7        2.06682   0.00303   0.00000   0.00868   0.00868   2.07550
    R8        2.06681   0.00303   0.00000   0.00868   0.00868   2.07550
    R9        2.06566  -0.00235   0.00000  -0.00514  -0.00514   2.06052
   R10        2.06707   0.00298   0.00000   0.00740   0.00740   2.07447
   R11        2.06706   0.00299   0.00000   0.00742   0.00742   2.07448
    A1        2.19969  -0.00253   0.00000  -0.00569  -0.00569   2.19400
    A2        2.11386   0.00500   0.00000   0.02382   0.02382   2.13768
    A3        1.96963  -0.00247   0.00000  -0.01812  -0.01812   1.95151
    A4        2.12120   0.00243   0.00000   0.00736   0.00736   2.12856
    A5        2.10364  -0.00129   0.00000  -0.00868  -0.00868   2.09495
    A6        2.05835  -0.00114   0.00000   0.00132   0.00132   2.05967
    A7        1.94070  -0.00562   0.00000  -0.02698  -0.02674   1.91396
    A8        1.90039   0.00684   0.00000   0.03712   0.03678   1.93717
    A9        1.90040   0.00684   0.00000   0.03710   0.03676   1.93716
   A10        1.90450  -0.00145   0.00000  -0.01127  -0.01104   1.89346
   A11        1.90452  -0.00145   0.00000  -0.01128  -0.01105   1.89346
   A12        1.91323  -0.00523   0.00000  -0.02489  -0.02575   1.88748
   A13        1.95000  -0.01144   0.00000  -0.06745  -0.06706   1.88294
   A14        1.89864   0.00634   0.00000   0.03274   0.03255   1.93119
   A15        1.89864   0.00634   0.00000   0.03276   0.03256   1.93121
   A16        1.90254   0.00154   0.00000   0.00984   0.01022   1.91276
   A17        1.90255   0.00153   0.00000   0.00981   0.01020   1.91275
   A18        1.91123  -0.00431   0.00000  -0.01749  -0.01822   1.89302
    D1        3.14136   0.00000   0.00000   0.00013   0.00013   3.14149
    D2        0.00004   0.00000   0.00000   0.00001   0.00001   0.00005
    D3       -0.00028   0.00000   0.00000   0.00016   0.00016  -0.00012
    D4        3.14159   0.00000   0.00000   0.00004   0.00004  -3.14156
    D5        0.00022   0.00000   0.00000  -0.00006  -0.00006   0.00016
    D6       -2.09872   0.00085   0.00000   0.00663   0.00707  -2.09165
    D7        2.09919  -0.00085   0.00000  -0.00679  -0.00722   2.09196
    D8        3.14155   0.00000   0.00000   0.00005   0.00005  -3.14159
    D9        1.04261   0.00085   0.00000   0.00675   0.00718   1.04979
   D10       -1.04267  -0.00085   0.00000  -0.00668  -0.00711  -1.04978
   D11       -0.00037   0.00000   0.00000   0.00013   0.00013  -0.00024
   D12       -2.10154   0.00108   0.00000   0.00858   0.00903  -2.09251
   D13        2.10081  -0.00108   0.00000  -0.00833  -0.00878   2.09203
   D14        3.14149  -0.00000   0.00000   0.00002   0.00002   3.14151
   D15        1.04032   0.00108   0.00000   0.00847   0.00891   1.04923
   D16       -1.04052  -0.00108   0.00000  -0.00844  -0.00889  -1.04941
         Item               Value     Threshold  Converged?
 Maximum Force            0.012583     0.000450     NO 
 RMS     Force            0.003972     0.000300     NO 
 Maximum Displacement     0.108668     0.001800     NO 
 RMS     Displacement     0.034209     0.001200     NO 
 Predicted change in Energy=-1.468391D-03
 GradGradGradGradGradGradGradGradGradGradGradGradGradGradGradGradGradGrad

                          Input orientation:                          
 ---------------------------------------------------------------------
 Center     Atomic      Atomic             Coordinates (Angstroms)
 Number     Number       Type             X           Y           Z
 ---------------------------------------------------------------------
      1          6           0        0.986526    0.008058    0.019221
      2          8           0        0.305427    1.012357    0.143765
      3          7           0        2.351337   -0.033665    0.013921
      4          6           0        3.079813   -1.276185   -0.140027
      5          6           0        3.116497    1.191180    0.165732
      6          1           0        0.543377   -0.999608   -0.105653
      7          1           0        2.374621   -2.105930   -0.242881
      8          1           0        3.718813   -1.468311    0.732353
      9          1           0        3.718877   -1.249552   -1.032868
     10          1           0        2.410985    2.016257    0.267861
     11          1           0        3.755505    1.359599   -0.710846
     12          1           0        3.755312    1.140620    1.057051
 ---------------------------------------------------------------------
                    Distance matrix (angstroms):
                    1          2          3          4          5
     1  C    0.000000
     2  O    1.219846   0.000000
     3  N    1.365458   2.301471   0.000000
     4  C    2.460994   3.607656   1.448528   0.000000
     5  C    2.440905   2.816838   1.452158   2.486509   0.000000
     6  H    1.107865   2.041282   2.053306   2.551703   3.390303
     7  H    2.542528   3.762283   2.088246   1.093779   3.404157
     8  H    3.186474   4.260441   2.108162   1.098308   2.785092
     9  H    3.186568   4.260556   2.108154   1.098306   2.785081
    10  H    2.474626   2.335935   2.066452   3.384358   1.090380
    11  H    3.166529   3.571271   2.106694   2.780243   1.097764
    12  H    3.166381   3.571030   2.106707   2.780331   1.097766
                    6          7          8          9         10
     6  H    0.000000
     7  H    2.143883   0.000000
     8  H    3.317429   1.778902   0.000000
     9  H    3.317529   1.778901   1.778724   0.000000
    10  H    3.566920   4.153867   3.750784   3.750731   0.000000
    11  H    4.031115   3.759750   3.175098   2.629203   1.787960
    12  H    4.031004   3.759817   2.629312   3.175218   1.787953
                   11         12
    11  H    0.000000
    12  H    1.781407   0.000000
 Stoichiometry    C3H7NO
 Framework group  C1[X(C3H7NO)]
 Deg. of freedom    30
 Full point group                 C1      NOp   1
 Largest Abelian subgroup         C1      NOp   1
 Largest concise Abelian subgroup C1      NOp   1
                         Standard orientation:                         
 ---------------------------------------------------------------------
 Center     Atomic      Atomic             Coordinates (Angstroms)
 Number     Number       Type             X           Y           Z
 ---------------------------------------------------------------------
      1          6           0       -0.862198   -0.650789   -0.000014
      2          8           0       -1.951509   -0.101767    0.000025
      3          7           0        0.348485   -0.019344   -0.000060
      4          6           0        1.596611   -0.754475    0.000023
      5          6           0        0.411505    1.431446    0.000003
      6          1           0       -0.751560   -1.753116   -0.000035
      7          1           0        1.390989   -1.828752   -0.000043
      8          1           0        2.194576   -0.514391    0.889449
      9          1           0        2.194729   -0.514311   -0.889276
     10          1           0       -0.610675    1.811021   -0.000162
     11          1           0        0.939714    1.796022   -0.890595
     12          1           0        0.939394    1.795977    0.890812
 ---------------------------------------------------------------------
 Rotational constants (GHZ):           8.9217425           4.1690424           2.9471471
 Standard basis: 6-31G(d) (6D, 7F)
 There are    89 symmetry adapted cartesian basis functions of A   symmetry.
 There are    89 symmetry adapted basis functions of A   symmetry.
    89 basis functions,   168 primitive gaussians,    89 cartesian basis functions
    20 alpha electrons       20 beta electrons
       nuclear repulsion energy       181.2382179494 Hartrees.
 NAtoms=   12 NActive=   12 NUniq=   12 SFac= 1.00D+00 NAtFMM=   60 NAOKFM=F Big=F
 Integral buffers will be    131072 words long.
 Raffenetti 2 integral format.
 Two-electron integral symmetry is turned on.
 One-electron integrals computed using PRISM.
 NBasis=    89 RedAO= T EigKep=  4.59D-03  NBF=    89
 NBsUse=    89 1.00D-06 EigRej= -1.00D+00 NBFU=    89
 Initial guess from the checkpoint file:  "solvent_11.chk"
 B after Tr=    -0.000000   -0.000000    0.000000
         Rot=    0.999958    0.000002   -0.000004   -0.009125 Ang=   1.05 deg.
 ExpMin= 1.61D-01 ExpMax= 5.48D+03 ExpMxC= 8.25D+02 IAcc=2 IRadAn=         4 AccDes= 0.00D+00
 Harris functional with IExCor=  402 and IRadAn=       4 diagonalized for initial guess.
 HarFok:  IExCor=  402 AccDes= 0.00D+00 IRadAn=         4 IDoV= 1 UseB2=F ITyADJ=14
 ICtDFT=  3500011 ScaDFX=  1.000000  1.000000  1.000000  1.000000
 FoFCou: FMM=F IPFlag=           0 FMFlag=      100000 FMFlg1=           0
         NFxFlg=           0 DoJE=T BraDBF=F KetDBF=T FulRan=T
         wScrn=  0.000000 ICntrl=       500 IOpCl=  0 I1Cent=   200000004 NGrid=           0
         NMat0=    1 NMatS0=      1 NMatT0=    0 NMatD0=    1 NMtDS0=    0 NMtDT0=    0
 Petite list used in FoFCou.
 Keep R1 ints in memory in canonical form, NReq=9849294.
 Gradient too large for Newton-Raphson -- use scaled steepest descent instead.
     Accept linear search using points  3 and  4.
 Gradient too large for Newton-Raphson -- use scaled steepest descent instead.
     Accept linear search using points  2 and  3.
 LinEq1:  Iter=  0 NonCon=     1 RMS=2.29D-04 Max=2.67D-03 NDo=     1
 AX will form     1 AO Fock derivatives at one time.
 LinEq1:  Iter=  1 NonCon=     1 RMS=8.84D-05 Max=1.54D-03 NDo=     1
 LinEq1:  Iter=  2 NonCon=     1 RMS=5.35D-05 Max=7.91D-04 NDo=     1
 LinEq1:  Iter=  3 NonCon=     1 RMS=3.34D-05 Max=2.60D-04 NDo=     1
 LinEq1:  Iter=  4 NonCon=     1 RMS=1.77D-05 Max=3.15D-04 NDo=     1
 LinEq1:  Iter=  5 NonCon=     1 RMS=8.90D-06 Max=1.02D-04 NDo=     1
 LinEq1:  Iter=  6 NonCon=     1 RMS=2.73D-06 Max=3.19D-05 NDo=     1
 LinEq1:  Iter=  7 NonCon=     1 RMS=9.34D-07 Max=1.05D-05 NDo=     1
 LinEq1:  Iter=  8 NonCon=     1 RMS=3.46D-07 Max=3.56D-06 NDo=     1
 LinEq1:  Iter=  9 NonCon=     1 RMS=5.70D-08 Max=4.49D-07 NDo=     1
 LinEq1:  Iter= 10 NonCon=     1 RMS=1.45D-08 Max=1.31D-07 NDo=     1
 LinEq1:  Iter= 11 NonCon=     1 RMS=7.11D-09 Max=5.44D-08 NDo=     1
 LinEq1:  Iter= 12 NonCon=     0 RMS=1.05D-09 Max=7.87D-09 NDo=     1
 Linear equations converged to 5.254D-09 5.254D-08 after    12 iterations.
     Minimum is close to point  2 DX=  3.65D-04 DF= -1.36D-11 DXR=  3.64D-04 DFR=  1.33D-07 which will be used.
 LinEq1:  Iter=  0 NonCon=     1 RMS=7.14D-07 Max=2.00D-05 NDo=     1
 LinEq1:  Iter=  1 NonCon=     1 RMS=5.08D-07 Max=8.39D-06 NDo=     1
 LinEq1:  Iter=  2 NonCon=     1 RMS=1.48D-07 Max=1.98D-06 NDo=     1
 LinEq1:  Iter=  3 NonCon=     1 RMS=7.41D-08 Max=1.23D-06 NDo=     1
 LinEq1:  Iter=  4 NonCon=     1 RMS=2.78D-08 Max=2.82D-07 NDo=     1
 LinEq1:  Iter=  5 NonCon=     1 RMS=1.57D-08 Max=1.40D-07 NDo=     1
 LinEq1:  Iter=  6 NonCon=     1 RMS=5.33D-09 Max=4.68D-08 NDo=     1
 LinEq1:  Iter=  7 NonCon=     1 RMS=2.15D-09 Max=1.90D-08 NDo=     1
 LinEq1:  Iter=  8 NonCon=     1 RMS=7.06D-10 Max=5.31D-09 NDo=     1
 LinEq1:  Iter=  9 NonCon=     0 RMS=1.17D-10 Max=9.56D-10 NDo=     1
 Linear equations converged to 2.165D-10 2.165D-09 after     9 iterations.
 SCF Done:  E(RB3LYP) =  -248.512243080     a.u. after    5 cycles
            Convg  =    0.1734D-09                    32 Fock formations.
              S**2 =  0.0000                  -V/T =  2.0094
 DoSCS=F DFT=T ScalE2(SS,OS)=  1.000000  1.000000
 Range of M.O.s used for correlation:     1    89
 NBasis=    89 NAE=    20 NBE=    20 NFC=     0 NFV=     0
 NROrb=     89 NOA=    20 NOB=    20 NVA=    69 NVB=    69
 Symmetrizing basis deriv contribution to polar:
 IMax=3 JMax=2 DiffMx= 0.00D+00
 G2DrvN: will do    13 centers at a time, making    1 passes.
 Calling FoFCou, ICntrl=  3107 FMM=F I1Cent=   0 AccDes= 0.00D+00.
 End of G2Drv F.D. properties file   721 does not exist.
 End of G2Drv F.D. properties file   722 does not exist.
 End of G2Drv F.D. properties file   788 does not exist.
          IDoAtm=111111111111
          Differentiating once with respect to electric field.
                with respect to dipole field.
          Differentiating once with respect to nuclear coordinates.
 Keep R1 ints in memory in canonical form, NReq=9853744.
          There are    39 degrees of freedom in the 1st order CPHF.  IDoFFX=6 NUNeed=     3.
     36 vectors produced by pass  0 Test12= 3.54D-15 2.56D-09 XBig12= 4.93D+01 5.27D+00.
 AX will form    36 AO Fock derivatives at one time.
     36 vectors produced by pass  1 Test12= 3.54D-15 2.56D-09 XBig12= 1.46D+01 1.05D+00.
     36 vectors produced by pass  2 Test12= 3.54D-15 2.56D-09 XBig12= 9.19D-02 5.60D-02.
     36 vectors produced by pass  3 Test12= 3.54D-15 2.56D-09 XBig12= 2.14D-04 3.89D-03.
     36 vectors produced by pass  4 Test12= 3.54D-15 2.56D-09 XBig12= 1.93D-07 1.00D-04.
     16 vectors produced by pass  5 Test12= 3.54D-15 2.56D-09 XBig12= 1.69D-10 2.36D-06.
      3 vectors produced by pass  6 Test12= 3.54D-15 2.56D-09 XBig12= 9.42D-14 5.14D-08.
 InvSVY:  IOpt=1 It=  1 EMax= 1.78D-15
 Solved reduced A of dimension   199 with    39 vectors.
 Isotropic polarizability for W=    0.000000       42.22 Bohr**3.
 End of Minotr F.D. properties file   721 does not exist.
 End of Minotr F.D. properties file   722 does not exist.
 End of Minotr F.D. properties file   788 does not exist.
 Calling FoFJK, ICntrl=    100127 FMM=F ISym2X=0 I1Cent= 0 IOpClX= 0 NMat=1 NMatS=1 NMatT=0.
 ***** Axes restored to original set *****
 -------------------------------------------------------------------
 Center     Atomic                   Forces (Hartrees/Bohr)
 Number     Number              X              Y              Z
 -------------------------------------------------------------------
      1        6          -0.000351285   -0.000084087   -0.000011267
      2        8          -0.000139642    0.000126973    0.000015567
      3        7          -0.000177455   -0.000169691   -0.000019803
      4        6           0.000104167    0.000398806    0.000049206
      5        6           0.000094353   -0.000146240   -0.000018357
      6        1          -0.000019303   -0.000099100   -0.000012040
      7        1           0.000016933   -0.000032643   -0.000004031
      8        1           0.000085504   -0.000245246   -0.000007483
      9        1           0.000085368   -0.000239589   -0.000052698
     10        1           0.000069631    0.000159148    0.000019844
     11        1           0.000115611    0.000165936    0.000020193
     12        1           0.000116117    0.000165733    0.000020869
 -------------------------------------------------------------------
 Cartesian Forces:  Max     0.000398806 RMS     0.000138447
 FormGI is forming the generalized inverse of G from B-inverse, IUseBI=4.

 GradGradGradGradGradGradGradGradGradGradGradGradGradGradGradGradGradGrad
 Berny optimization.
 Using GEDIIS/GDIIS optimizer.
 Internal  Forces:  Max     0.000508241 RMS     0.000167174
 Search for a local minimum.
 Step number   2 out of a maximum of   55
 All quantities printed in internal units (Hartrees-Bohrs-Radians)
 Mixed Optimization -- En-DIIS/RFO-DIIS
 Second derivative matrix not updated -- analytic derivatives used.
 DE= -1.46D-03 DEPred=-1.47D-03 R= 9.97D-01
 TightC=F SS=  1.41D+00  RLast= 1.19D-01 DXNew= 5.0454D-01 3.5720D-01
 Trust test= 9.97D-01 RLast= 1.19D-01 DXMaxT set to 3.57D-01
 ITU=  1  0
 Use linear search instead of GDIIS.
     Eigenvalues ---    0.00128   0.00227   0.00469   0.01836   0.06312
     Eigenvalues ---    0.06399   0.06473   0.06553   0.08601   0.13096
     Eigenvalues ---    0.13595   0.15087   0.16329   0.17283   0.17834
     Eigenvalues ---    0.18318   0.21597   0.22383   0.27261   0.32169
     Eigenvalues ---    0.32754   0.32953   0.33026   0.33356   0.34626
     Eigenvalues ---    0.35598   0.37544   0.39540   0.46313   0.84898
 RFO step:  Lambda=-4.49152137D-06 EMin= 1.27865067D-03
 Quintic linear search produced a step of  0.00955.
 Iteration  1 RMS(Cart)=  0.00137006 RMS(Int)=  0.00000348
 Iteration  2 RMS(Cart)=  0.00000108 RMS(Int)=  0.00000331
 Iteration  3 RMS(Cart)=  0.00000000 RMS(Int)=  0.00000331
 Variable       Old X    -DE/DX   Delta X   Delta X   Delta X     New X
                                 (Linear)    (Quad)   (Total)
    R1        2.30517   0.00018  -0.00008   0.00008   0.00000   2.30518
    R2        2.58034   0.00051  -0.00024   0.00137   0.00112   2.58147
    R3        2.09356   0.00010   0.00010   0.00016   0.00025   2.09382
    R4        2.73732   0.00025   0.00000   0.00025   0.00025   2.73757
    R5        2.74418   0.00050   0.00004   0.00086   0.00090   2.74508
    R6        2.06694   0.00001   0.00001   0.00017   0.00018   2.06712
    R7        2.07550   0.00009   0.00008   0.00018   0.00026   2.07577
    R8        2.07550   0.00009   0.00008   0.00019   0.00027   2.07577
    R9        2.06052   0.00008  -0.00005   0.00031   0.00026   2.06078
   R10        2.07447   0.00008   0.00007   0.00016   0.00023   2.07470
   R11        2.07448   0.00008   0.00007   0.00016   0.00023   2.07470
    A1        2.19400   0.00008  -0.00005   0.00019   0.00013   2.19413
    A2        2.13768  -0.00002   0.00023   0.00010   0.00033   2.13801
    A3        1.95151  -0.00007  -0.00017  -0.00029  -0.00046   1.95105
    A4        2.12856  -0.00010   0.00007  -0.00051  -0.00044   2.12813
    A5        2.09495   0.00023  -0.00008   0.00089   0.00081   2.09576
    A6        2.05967  -0.00013   0.00001  -0.00038  -0.00037   2.05930
    A7        1.91396  -0.00010  -0.00026  -0.00030  -0.00055   1.91341
    A8        1.93717   0.00030   0.00035   0.00159   0.00193   1.93910
    A9        1.93716   0.00030   0.00035   0.00160   0.00194   1.93910
   A10        1.89346  -0.00016  -0.00011  -0.00135  -0.00145   1.89201
   A11        1.89346  -0.00016  -0.00011  -0.00135  -0.00145   1.89201
   A12        1.88748  -0.00021  -0.00025  -0.00032  -0.00058   1.88690
   A13        1.88294   0.00015  -0.00064   0.00158   0.00095   1.88389
   A14        1.93119   0.00020   0.00031   0.00082   0.00113   1.93232
   A15        1.93121   0.00020   0.00031   0.00081   0.00112   1.93232
   A16        1.91276  -0.00017   0.00010  -0.00119  -0.00109   1.91167
   A17        1.91275  -0.00017   0.00010  -0.00118  -0.00108   1.91167
   A18        1.89302  -0.00021  -0.00017  -0.00088  -0.00106   1.89195
    D1        3.14149   0.00000   0.00000   0.00010   0.00010   3.14159
    D2        0.00005   0.00000   0.00000  -0.00005  -0.00005   0.00000
    D3       -0.00012   0.00000   0.00000   0.00012   0.00012  -0.00000
    D4       -3.14156   0.00000   0.00000  -0.00004  -0.00003  -3.14159
    D5        0.00016  -0.00000  -0.00000  -0.00016  -0.00016   0.00000
    D6       -2.09165   0.00007   0.00007   0.00071   0.00078  -2.09087
    D7        2.09196  -0.00007  -0.00007  -0.00101  -0.00109   2.09088
    D8       -3.14159   0.00000   0.00000  -0.00001  -0.00001  -3.14159
    D9        1.04979   0.00007   0.00007   0.00086   0.00093   1.05072
   D10       -1.04978  -0.00007  -0.00007  -0.00086  -0.00094  -1.05072
   D11       -0.00024   0.00000   0.00000   0.00023   0.00023  -0.00000
   D12       -2.09251   0.00000   0.00009   0.00022   0.00031  -2.09220
   D13        2.09203  -0.00000  -0.00008   0.00025   0.00016   2.09220
   D14        3.14151   0.00000   0.00000   0.00008   0.00008   3.14159
   D15        1.04923   0.00000   0.00009   0.00007   0.00016   1.04939
   D16       -1.04941  -0.00000  -0.00008   0.00010   0.00001  -1.04939
         Item               Value     Threshold  Converged?
 Maximum Force            0.000508     0.000450     NO 
 RMS     Force            0.000167     0.000300     YES
 Maximum Displacement     0.003694     0.001800     NO 
 RMS     Displacement     0.001370     0.001200     NO 
 Predicted change in Energy=-2.419589D-06
 GradGradGradGradGradGradGradGradGradGradGradGradGradGradGradGradGradGrad

                          Input orientation:                          
 ---------------------------------------------------------------------
 Center     Atomic      Atomic             Coordinates (Angstroms)
 Number     Number       Type             X           Y           Z
 ---------------------------------------------------------------------
      1          6           0        0.985657    0.007641    0.019123
      2          8           0        0.303852    1.011481    0.143530
      3          7           0        2.351085   -0.033350    0.014022
      4          6           0        3.079787   -1.275887   -0.139963
      5          6           0        3.116797    1.191715    0.165821
      6          1           0        0.543496   -1.000600   -0.105811
      7          1           0        2.374177   -2.105410   -0.242748
      8          1           0        3.718876   -1.470234    0.732036
      9          1           0        3.718852   -1.251506   -1.033042
     10          1           0        2.412186    2.017717    0.268187
     11          1           0        3.756151    1.361134   -0.710465
     12          1           0        3.756174    1.142120    1.056939
 ---------------------------------------------------------------------
                    Distance matrix (angstroms):
                    1          2          3          4          5
     1  C    0.000000
     2  O    1.219849   0.000000
     3  N    1.366053   2.302087   0.000000
     4  C    2.461328   3.608079   1.448660   0.000000
     5  C    2.442399   2.818801   1.452633   2.486752   0.000000
     6  H    1.108000   2.041585   2.053610   2.551416   3.391447
     7  H    2.541958   3.761711   2.088037   1.093874   3.404328
     8  H    3.187922   4.262352   2.109748   1.098448   2.787306
     9  H    3.187924   4.262354   2.109747   1.098448   2.787306
    10  H    2.477382   2.339470   2.067657   3.385277   1.090520
    11  H    3.168578   3.573504   2.108003   2.781514   1.097886
    12  H    3.168575   3.573501   2.108004   2.781516   1.097886
                    6          7          8          9         10
     6  H    0.000000
     7  H    2.142604   0.000000
     8  H    3.317467   1.778164   0.000000
     9  H    3.317469   1.778164   1.778579   0.000000
    10  H    3.569609   4.154838   3.753452   3.753451   0.000000
    11  H    4.032933   3.761056   3.177868   2.632743   1.787485
    12  H    4.032931   3.761057   2.632745   3.177870   1.787485
                   11         12
    11  H    0.000000
    12  H    1.780922   0.000000
 Stoichiometry    C3H7NO
 Framework group  C1[X(C3H7NO)]
 Deg. of freedom    30
 Full point group                 C1      NOp   1
 Largest Abelian subgroup         C1      NOp   1
 Largest concise Abelian subgroup C1      NOp   1
                         Standard orientation:                         
 ---------------------------------------------------------------------
 Center     Atomic      Atomic             Coordinates (Angstroms)
 Number     Number       Type             X           Y           Z
 ---------------------------------------------------------------------
      1          6           0       -0.863088   -0.650483   -0.000000
      2          8           0       -1.952234   -0.101127    0.000000
      3          7           0        0.348398   -0.019294   -0.000001
      4          6           0        1.595994   -0.755583    0.000000
      5          6           0        0.413246    1.431891    0.000000
      6          1           0       -0.752410   -1.752941   -0.000000
      7          1           0        1.388821   -1.829659   -0.000001
      8          1           0        2.195418   -0.518007    0.889291
      9          1           0        2.195420   -0.518006   -0.889288
     10          1           0       -0.608230    1.813755   -0.000003
     11          1           0        0.941579    1.796993   -0.890459
     12          1           0        0.941574    1.796992    0.890463
 ---------------------------------------------------------------------
 Rotational constants (GHZ):           8.9131021           4.1669389           2.9451141
 Standard basis: 6-31G(d) (6D, 7F)
 There are    89 symmetry adapted cartesian basis functions of A   symmetry.
 There are    89 symmetry adapted basis functions of A   symmetry.
    89 basis functions,   168 primitive gaussians,    89 cartesian basis functions
    20 alpha electrons       20 beta electrons
       nuclear repulsion energy       181.1865589533 Hartrees.
 NAtoms=   12 NActive=   12 NUniq=   12 SFac= 1.00D+00 NAtFMM=   60 NAOKFM=F Big=F
 Integral buffers will be    131072 words long.
 Raffenetti 2 integral format.
 Two-electron integral symmetry is turned on.
 One-electron integrals computed using PRISM.
 NBasis=    89 RedAO= T EigKep=  4.60D-03  NBF=    89
 NBsUse=    89 1.00D-06 EigRej= -1.00D+00 NBFU=    89
 Initial guess from the checkpoint file:  "solvent_11.chk"
 B after Tr=     0.000000   -0.000000   -0.000000
         Rot=    1.000000    0.000003   -0.000006    0.000377 Ang=   0.04 deg.
 Keep R1 ints in memory in canonical form, NReq=9849294.
 LinEq1:  Iter=  0 NonCon=     1 RMS=2.15D-05 Max=1.80D-04 NDo=     1
 AX will form     1 AO Fock derivatives at one time.
 LinEq1:  Iter=  1 NonCon=     1 RMS=9.01D-06 Max=1.48D-04 NDo=     1
 LinEq1:  Iter=  2 NonCon=     1 RMS=6.82D-06 Max=1.47D-04 NDo=     1
 LinEq1:  Iter=  3 NonCon=     1 RMS=3.65D-06 Max=3.76D-05 NDo=     1
 LinEq1:  Iter=  4 NonCon=     1 RMS=1.85D-06 Max=3.73D-05 NDo=     1
 LinEq1:  Iter=  5 NonCon=     1 RMS=9.91D-07 Max=8.95D-06 NDo=     1
 LinEq1:  Iter=  6 NonCon=     1 RMS=3.05D-07 Max=2.59D-06 NDo=     1
 LinEq1:  Iter=  7 NonCon=     1 RMS=1.42D-07 Max=1.55D-06 NDo=     1
 LinEq1:  Iter=  8 NonCon=     1 RMS=4.42D-08 Max=4.21D-07 NDo=     1
 LinEq1:  Iter=  9 NonCon=     1 RMS=8.11D-09 Max=7.40D-08 NDo=     1
 LinEq1:  Iter= 10 NonCon=     0 RMS=2.16D-09 Max=2.00D-08 NDo=     1
 Linear equations converged to 5.254D-09 5.254D-08 after    10 iterations.
     Minimum is close to point  2 DX=  9.34D-06 DF=  0.00D+00 DXR=  9.34D-06 DFR=  0.00D+00 which will be used.
 SCF Done:  E(RB3LYP) =  -248.512245500     a.u. after    2 cycles
            Convg  =    0.1223D-06                    13 Fock formations.
              S**2 =  0.0000                  -V/T =  2.0095
 DoSCS=F DFT=T ScalE2(SS,OS)=  1.000000  1.000000
 Range of M.O.s used for correlation:     1    89
 NBasis=    89 NAE=    20 NBE=    20 NFC=     0 NFV=     0
 NROrb=     89 NOA=    20 NOB=    20 NVA=    69 NVB=    69
 Symmetrizing basis deriv contribution to polar:
 IMax=3 JMax=2 DiffMx= 0.00D+00
 G2DrvN: will do    13 centers at a time, making    1 passes.
 Calling FoFCou, ICntrl=  3107 FMM=F I1Cent=   0 AccDes= 0.00D+00.
 End of G2Drv F.D. properties file   721 does not exist.
 End of G2Drv F.D. properties file   722 does not exist.
 End of G2Drv F.D. properties file   788 does not exist.
          IDoAtm=111111111111
          Differentiating once with respect to electric field.
                with respect to dipole field.
          Differentiating once with respect to nuclear coordinates.
 Keep R1 ints in memory in canonical form, NReq=9853744.
          There are    39 degrees of freedom in the 1st order CPHF.  IDoFFX=6 NUNeed=     3.
     36 vectors produced by pass  0 Test12= 3.54D-15 2.56D-09 XBig12= 4.94D+01 5.27D+00.
 AX will form    36 AO Fock derivatives at one time.
     36 vectors produced by pass  1 Test12= 3.54D-15 2.56D-09 XBig12= 1.46D+01 1.05D+00.
     36 vectors produced by pass  2 Test12= 3.54D-15 2.56D-09 XBig12= 9.20D-02 5.62D-02.
     36 vectors produced by pass  3 Test12= 3.54D-15 2.56D-09 XBig12= 2.15D-04 3.91D-03.
     36 vectors produced by pass  4 Test12= 3.54D-15 2.56D-09 XBig12= 1.94D-07 1.01D-04.
     16 vectors produced by pass  5 Test12= 3.54D-15 2.56D-09 XBig12= 1.70D-10 2.35D-06.
      3 vectors produced by pass  6 Test12= 3.54D-15 2.56D-09 XBig12= 9.45D-14 5.14D-08.
 InvSVY:  IOpt=1 It=  1 EMax= 2.44D-15
 Solved reduced A of dimension   199 with    39 vectors.
 Isotropic polarizability for W=    0.000000       42.24 Bohr**3.
 End of Minotr F.D. properties file   721 does not exist.
 End of Minotr F.D. properties file   722 does not exist.
 End of Minotr F.D. properties file   788 does not exist.
 Calling FoFJK, ICntrl=    100127 FMM=F ISym2X=0 I1Cent= 0 IOpClX= 0 NMat=1 NMatS=1 NMatT=0.
 ***** Axes restored to original set *****
 -------------------------------------------------------------------
 Center     Atomic                   Forces (Hartrees/Bohr)
 Number     Number              X              Y              Z
 -------------------------------------------------------------------
      1        6          -0.000004353   -0.000001602   -0.000000216
      2        8          -0.000001940    0.000001093    0.000000136
      3        7          -0.000000540   -0.000001846   -0.000000199
      4        6           0.000001260    0.000003738    0.000000455
      5        6           0.000000483   -0.000001165   -0.000000159
      6        1          -0.000000379   -0.000000704   -0.000000086
      7        1           0.000000398   -0.000000481   -0.000000057
      8        1           0.000000787   -0.000002379   -0.000000031
      9        1           0.000000787   -0.000002315   -0.000000551
     10        1           0.000001348    0.000002382    0.000000302
     11        1           0.000001074    0.000001644    0.000000167
     12        1           0.000001074    0.000001634    0.000000238
 -------------------------------------------------------------------
 Cartesian Forces:  Max     0.000004353 RMS     0.000001459
 FormGI is forming the generalized inverse of G from B-inverse, IUseBI=4.

 GradGradGradGradGradGradGradGradGradGradGradGradGradGradGradGradGradGrad
 Berny optimization.
 Using GEDIIS/GDIIS optimizer.
 Internal  Forces:  Max     0.000006633 RMS     0.000001967
 Search for a local minimum.
 Step number   3 out of a maximum of   55
 All quantities printed in internal units (Hartrees-Bohrs-Radians)
 Mixed Optimization -- En-DIIS/RFO-DIIS
 Swapping is turned off.
 Second derivative matrix not updated -- analytic derivatives used.
 DE= -2.42D-06 DEPred=-2.42D-06 R= 1.00D+00
 TightC=F SS=  1.41D+00  RLast= 5.19D-03 DXNew= 6.0074D-01 1.5571D-02
 Trust test= 1.00D+00 RLast= 5.19D-03 DXMaxT set to 3.57D-01
 ITU=  1  1  0
     Eigenvalues ---    0.00128   0.00227   0.00467   0.01833   0.06311
     Eigenvalues ---    0.06404   0.06466   0.06553   0.08597   0.13059
     Eigenvalues ---    0.13562   0.15073   0.16300   0.17268   0.17803
     Eigenvalues ---    0.18287   0.21575   0.22341   0.27203   0.32133
     Eigenvalues ---    0.32726   0.32928   0.32997   0.33328   0.34599
     Eigenvalues ---    0.35563   0.37474   0.39452   0.46151   0.84865
 En-DIIS/RFO-DIIS/Sim-DIIS IScMMF=       -3 using points:     3    2
 RFO step:  Lambda=-5.06489860D-10.
 DidBck=F Rises=F RFO-DIIS coefs:    1.01079   -0.01079
 Iteration  1 RMS(Cart)=  0.00001632 RMS(Int)=  0.00000001
 Iteration  2 RMS(Cart)=  0.00000000 RMS(Int)=  0.00000001
 Variable       Old X    -DE/DX   Delta X   Delta X   Delta X     New X
                                 (Linear)    (Quad)   (Total)
    R1        2.30518   0.00000   0.00000  -0.00000   0.00000   2.30518
    R2        2.58147   0.00001   0.00001   0.00000   0.00001   2.58148
    R3        2.09382   0.00000   0.00000  -0.00000   0.00000   2.09382
    R4        2.73757   0.00000   0.00000   0.00000   0.00000   2.73758
    R5        2.74508   0.00001   0.00001   0.00000   0.00001   2.74509
    R6        2.06712   0.00000   0.00000  -0.00000   0.00000   2.06712
    R7        2.07577   0.00000   0.00000  -0.00000   0.00000   2.07577
    R8        2.07577   0.00000   0.00000  -0.00000   0.00000   2.07577
    R9        2.06078   0.00000   0.00000   0.00000   0.00000   2.06079
   R10        2.07470   0.00000   0.00000   0.00000   0.00000   2.07471
   R11        2.07470   0.00000   0.00000   0.00000   0.00000   2.07471
    A1        2.19413   0.00000   0.00000   0.00000   0.00000   2.19413
    A2        2.13801  -0.00000   0.00000  -0.00000   0.00000   2.13801
    A3        1.95105  -0.00000  -0.00000   0.00000  -0.00000   1.95104
    A4        2.12813  -0.00000  -0.00000  -0.00000  -0.00001   2.12812
    A5        2.09576   0.00000   0.00001   0.00000   0.00001   2.09577
    A6        2.05930  -0.00000  -0.00000  -0.00000  -0.00001   2.05929
    A7        1.91341  -0.00000  -0.00001   0.00000  -0.00000   1.91340
    A8        1.93910   0.00000   0.00002  -0.00000   0.00002   1.93912
    A9        1.93910   0.00000   0.00002  -0.00000   0.00002   1.93912
   A10        1.89201  -0.00000  -0.00002   0.00000  -0.00002   1.89200
   A11        1.89201  -0.00000  -0.00002   0.00000  -0.00002   1.89200
   A12        1.88690  -0.00000  -0.00001   0.00000  -0.00000   1.88689
   A13        1.88389   0.00000   0.00001   0.00001   0.00002   1.88391
   A14        1.93232   0.00000   0.00001  -0.00000   0.00001   1.93233
   A15        1.93232   0.00000   0.00001  -0.00000   0.00001   1.93233
   A16        1.91167  -0.00000  -0.00001  -0.00000  -0.00001   1.91166
   A17        1.91167  -0.00000  -0.00001  -0.00000  -0.00001   1.91166
   A18        1.89195  -0.00000  -0.00001  -0.00000  -0.00001   1.89194
    D1        3.14159   0.00000   0.00000   0.00000   0.00000   3.14159
    D2        0.00000  -0.00000  -0.00000  -0.00000  -0.00000   0.00000
    D3       -0.00000   0.00000   0.00000   0.00000   0.00000  -0.00000
    D4       -3.14159  -0.00000  -0.00000  -0.00000  -0.00000  -3.14159
    D5        0.00000  -0.00000  -0.00000  -0.00000  -0.00000   0.00000
    D6       -2.09087   0.00000   0.00001  -0.00000   0.00001  -2.09086
    D7        2.09088  -0.00000  -0.00001  -0.00000  -0.00001   2.09086
    D8       -3.14159   0.00000  -0.00000  -0.00000  -0.00000  -3.14159
    D9        1.05072   0.00000   0.00001  -0.00000   0.00001   1.05073
   D10       -1.05072  -0.00000  -0.00001   0.00000  -0.00001  -1.05073
   D11       -0.00000   0.00000   0.00000   0.00000   0.00000  -0.00000
   D12       -2.09220  -0.00000   0.00000  -0.00000   0.00000  -2.09220
   D13        2.09220   0.00000   0.00000   0.00000   0.00001   2.09220
   D14        3.14159   0.00000   0.00000   0.00000   0.00000   3.14159
   D15        1.04939  -0.00000   0.00000  -0.00000  -0.00000   1.04939
   D16       -1.04939   0.00000   0.00000   0.00000   0.00000  -1.04939
         Item               Value     Threshold  Converged?
 Maximum Force            0.000007     0.000450     YES
 RMS     Force            0.000002     0.000300     YES
 Maximum Displacement     0.000045     0.001800     YES
 RMS     Displacement     0.000016     0.001200     YES
 Predicted change in Energy=-3.132954D-10
 Optimization completed.
    -- Stationary point found.
                           ----------------------------
                           !   Optimized Parameters   !
                           ! (Angstroms and Degrees)  !
 --------------------------                            --------------------------
 ! Name  Definition              Value          Derivative Info.                !
 --------------------------------------------------------------------------------
 ! R1    R(1,2)                  1.2198         -DE/DX =    0.0                 !
 ! R2    R(1,3)                  1.3661         -DE/DX =    0.0                 !
 ! R3    R(1,6)                  1.108          -DE/DX =    0.0                 !
 ! R4    R(3,4)                  1.4487         -DE/DX =    0.0                 !
 ! R5    R(3,5)                  1.4526         -DE/DX =    0.0                 !
 ! R6    R(4,7)                  1.0939         -DE/DX =    0.0                 !
 ! R7    R(4,8)                  1.0984         -DE/DX =    0.0                 !
 ! R8    R(4,9)                  1.0984         -DE/DX =    0.0                 !
 ! R9    R(5,10)                 1.0905         -DE/DX =    0.0                 !
 ! R10   R(5,11)                 1.0979         -DE/DX =    0.0                 !
 ! R11   R(5,12)                 1.0979         -DE/DX =    0.0                 !
 ! A1    A(2,1,3)              125.7143         -DE/DX =    0.0                 !
 ! A2    A(2,1,6)              122.4989         -DE/DX =    0.0                 !
 ! A3    A(3,1,6)              111.7868         -DE/DX =    0.0                 !
 ! A4    A(1,3,4)              121.9326         -DE/DX =    0.0                 !
 ! A5    A(1,3,5)              120.0783         -DE/DX =    0.0                 !
 ! A6    A(4,3,5)              117.9891         -DE/DX =    0.0                 !
 ! A7    A(3,4,7)              109.6302         -DE/DX =    0.0                 !
 ! A8    A(3,4,8)              111.1023         -DE/DX =    0.0                 !
 ! A9    A(3,4,9)              111.1023         -DE/DX =    0.0                 !
 ! A10   A(7,4,8)              108.4044         -DE/DX =    0.0                 !
 ! A11   A(7,4,9)              108.4044         -DE/DX =    0.0                 !
 ! A12   A(8,4,9)              108.1112         -DE/DX =    0.0                 !
 ! A13   A(3,5,10)             107.9389         -DE/DX =    0.0                 !
 ! A14   A(3,5,11)             110.7138         -DE/DX =    0.0                 !
 ! A15   A(3,5,12)             110.7139         -DE/DX =    0.0                 !
 ! A16   A(10,5,11)            109.5306         -DE/DX =    0.0                 !
 ! A17   A(10,5,12)            109.5306         -DE/DX =    0.0                 !
 ! A18   A(11,5,12)            108.401          -DE/DX =    0.0                 !
 ! D1    D(2,1,3,4)            179.9999         -DE/DX =    0.0                 !
 ! D2    D(2,1,3,5)              0.0001         -DE/DX =    0.0                 !
 ! D3    D(6,1,3,4)             -0.0001         -DE/DX =    0.0                 !
 ! D4    D(6,1,3,5)           -180.0            -DE/DX =    0.0                 !
 ! D5    D(1,3,4,7)              0.0002         -DE/DX =    0.0                 !
 ! D6    D(1,3,4,8)           -119.798          -DE/DX =    0.0                 !
 ! D7    D(1,3,4,9)            119.7983         -DE/DX =    0.0                 !
 ! D8    D(5,3,4,7)           -180.0            -DE/DX =    0.0                 !
 ! D9    D(5,3,4,8)             60.2018         -DE/DX =    0.0                 !
 ! D10   D(5,3,4,9)            -60.2018         -DE/DX =    0.0                 !
 ! D11   D(1,3,5,10)            -0.0002         -DE/DX =    0.0                 !
 ! D12   D(1,3,5,11)          -119.8745         -DE/DX =    0.0                 !
 ! D13   D(1,3,5,12)           119.874          -DE/DX =    0.0                 !
 ! D14   D(4,3,5,10)           179.9999         -DE/DX =    0.0                 !
 ! D15   D(4,3,5,11)            60.1257         -DE/DX =    0.0                 !
 ! D16   D(4,3,5,12)           -60.1258         -DE/DX =    0.0                 !
 --------------------------------------------------------------------------------
 GradGradGradGradGradGradGradGradGradGradGradGradGradGradGradGradGradGrad

                          Input orientation:                          
 ---------------------------------------------------------------------
 Center     Atomic      Atomic             Coordinates (Angstroms)
 Number     Number       Type             X           Y           Z
 ---------------------------------------------------------------------
      1          6           0        0.985657    0.007641    0.019123
      2          8           0        0.303852    1.011481    0.143530
      3          7           0        2.351085   -0.033350    0.014022
      4          6           0        3.079787   -1.275887   -0.139963
      5          6           0        3.116797    1.191715    0.165821
      6          1           0        0.543496   -1.000600   -0.105811
      7          1           0        2.374177   -2.105410   -0.242748
      8          1           0        3.718876   -1.470234    0.732036
      9          1           0        3.718852   -1.251506   -1.033042
     10          1           0        2.412186    2.017717    0.268187
     11          1           0        3.756151    1.361134   -0.710465
     12          1           0        3.756174    1.142120    1.056939
 ---------------------------------------------------------------------
                    Distance matrix (angstroms):
                    1          2          3          4          5
     1  C    0.000000
     2  O    1.219849   0.000000
     3  N    1.366053   2.302087   0.000000
     4  C    2.461328   3.608079   1.448660   0.000000
     5  C    2.442399   2.818801   1.452633   2.486752   0.000000
     6  H    1.108000   2.041585   2.053610   2.551416   3.391447
     7  H    2.541958   3.761711   2.088037   1.093874   3.404328
     8  H    3.187922   4.262352   2.109748   1.098448   2.787306
     9  H    3.187924   4.262354   2.109747   1.098448   2.787306
    10  H    2.477382   2.339470   2.067657   3.385277   1.090520
    11  H    3.168578   3.573504   2.108003   2.781514   1.097886
    12  H    3.168575   3.573501   2.108004   2.781516   1.097886
                    6          7          8          9         10
     6  H    0.000000
     7  H    2.142604   0.000000
     8  H    3.317467   1.778164   0.000000
     9  H    3.317469   1.778164   1.778579   0.000000
    10  H    3.569609   4.154838   3.753452   3.753451   0.000000
    11  H    4.032933   3.761056   3.177868   2.632743   1.787485
    12  H    4.032931   3.761057   2.632745   3.177870   1.787485
                   11         12
    11  H    0.000000
    12  H    1.780922   0.000000
 Stoichiometry    C3H7NO
 Framework group  C1[X(C3H7NO)]
 Deg. of freedom    30
 Full point group                 C1      NOp   1
 Largest Abelian subgroup         C1      NOp   1
 Largest concise Abelian subgroup C1      NOp   1
                         Standard orientation:                         
 ---------------------------------------------------------------------
 Center     Atomic      Atomic             Coordinates (Angstroms)
 Number     Number       Type             X           Y           Z
 ---------------------------------------------------------------------
      1          6           0       -0.863088   -0.650483   -0.000000
      2          8           0       -1.952234   -0.101127    0.000000
      3          7           0        0.348398   -0.019294   -0.000001
      4          6           0        1.595994   -0.755583    0.000000
      5          6           0        0.413246    1.431891    0.000000
      6          1           0       -0.752410   -1.752941   -0.000000
      7          1           0        1.388821   -1.829659   -0.000001
      8          1           0        2.195418   -0.518007    0.889291
      9          1           0        2.195420   -0.518006   -0.889288
     10          1           0       -0.608230    1.813755   -0.000003
     11          1           0        0.941579    1.796993   -0.890459
     12          1           0        0.941574    1.796992    0.890463
 ---------------------------------------------------------------------
 Rotational constants (GHZ):           8.9131021           4.1669389           2.9451141

 **********************************************************************

            Population analysis using the SCF density.

 **********************************************************************

 Orbital symmetries:
       Occupied  (A) (A) (A) (A) (A) (A) (A) (A) (A) (A) (A) (A)
                 (A) (A) (A) (A) (A) (A) (A) (A)
       Virtual   (A) (A) (A) (A) (A) (A) (A) (A) (A) (A) (A) (A)
                 (A) (A) (A) (A) (A) (A) (A) (A) (A) (A) (A) (A)
                 (A) (A) (A) (A) (A) (A) (A) (A) (A) (A) (A) (A)
                 (A) (A) (A) (A) (A) (A) (A) (A) (A) (A) (A) (A)
                 (A) (A) (A) (A) (A) (A) (A) (A) (A) (A) (A) (A)
                 (A) (A) (A) (A) (A) (A) (A) (A) (A)
 The electronic state is 1-A.
 Alpha  occ. eigenvalues --  -19.11121 -14.37009 -10.27900 -10.23181 -10.21769
 Alpha  occ. eigenvalues --   -1.02762  -0.93848  -0.73477  -0.70213  -0.57030
 Alpha  occ. eigenvalues --   -0.51540  -0.47922  -0.46602  -0.41294  -0.41207
 Alpha  occ. eigenvalues --   -0.40183  -0.38775  -0.37255  -0.25094  -0.24217
 Alpha virt. eigenvalues --    0.03219   0.08445   0.11610   0.13661   0.14924
 Alpha virt. eigenvalues --    0.15411   0.15528   0.17025   0.20317   0.23471
 Alpha virt. eigenvalues --    0.28983   0.37104   0.47876   0.48086   0.50535
 Alpha virt. eigenvalues --    0.55064   0.56626   0.64737   0.65568   0.70380
 Alpha virt. eigenvalues --    0.71794   0.79035   0.79348   0.80529   0.84094
 Alpha virt. eigenvalues --    0.87222   0.87273   0.88135   0.90966   0.92135
 Alpha virt. eigenvalues --    0.95464   0.99293   1.02728   1.06749   1.15452
 Alpha virt. eigenvalues --    1.30102   1.32585   1.37428   1.38513   1.40901
 Alpha virt. eigenvalues --    1.55326   1.59538   1.77523   1.78803   1.83564
 Alpha virt. eigenvalues --    1.90032   1.93154   1.96984   1.97917   2.04297
 Alpha virt. eigenvalues --    2.09220   2.11271   2.18253   2.24576   2.32233
 Alpha virt. eigenvalues --    2.32643   2.39046   2.44993   2.55144   2.59446
 Alpha virt. eigenvalues --    2.66703   2.85063   2.95160   3.11181   3.86305
 Alpha virt. eigenvalues --    3.96622   4.19805   4.27039   4.36207
          Condensed to atoms (all electrons):
               1          2          3          4          5          6
     1  C    4.487482   0.577779   0.271235  -0.026319  -0.026853   0.365741
     2  O    0.577779   8.010486  -0.084840   0.002812  -0.009394  -0.053648
     3  N    0.271235  -0.084840   6.953229   0.300631   0.285488  -0.122261
     4  C   -0.026319   0.002812   0.300631   4.963419  -0.052033  -0.001074
     5  C   -0.026853  -0.009394   0.285488  -0.052033   4.990231   0.006636
     6  H    0.365741  -0.053648  -0.122261  -0.001074   0.006636   0.692392
     7  H   -0.001102   0.000074  -0.036044   0.373064   0.004862   0.012174
     8  H    0.000427  -0.000028  -0.046108   0.375449  -0.000775  -0.000192
     9  H    0.000427  -0.000028  -0.046108   0.375449  -0.000775  -0.000192
    10  H   -0.001158   0.023673  -0.039467   0.004873   0.369974   0.001275
    11  H    0.001346   0.000535  -0.044305  -0.001635   0.377223  -0.000161
    12  H    0.001346   0.000535  -0.044305  -0.001635   0.377223  -0.000161
               7          8          9         10         11         12
     1  C   -0.001102   0.000427   0.000427  -0.001158   0.001346   0.001346
     2  O    0.000074  -0.000028  -0.000028   0.023673   0.000535   0.000535
     3  N   -0.036044  -0.046108  -0.046108  -0.039467  -0.044305  -0.044305
     4  C    0.373064   0.375449   0.375449   0.004873  -0.001635  -0.001635
     5  C    0.004862  -0.000775  -0.000775   0.369974   0.377223   0.377223
     6  H    0.012174  -0.000192  -0.000192   0.001275  -0.000161  -0.000161
     7  H    0.534924  -0.027305  -0.027305  -0.000179  -0.000034  -0.000034
     8  H   -0.027305   0.581469  -0.047996  -0.000053  -0.001784   0.006551
     9  H   -0.027305  -0.047996   0.581468  -0.000053   0.006551  -0.001784
    10  H   -0.000179  -0.000053  -0.000053   0.484911  -0.023774  -0.023774
    11  H   -0.000034  -0.001784   0.006551  -0.023774   0.574696  -0.043377
    12  H   -0.000034   0.006551  -0.001784  -0.023774  -0.043377   0.574696
 Mulliken charges:
               1
     1  C    0.349649
     2  O   -0.467955
     3  N   -0.347144
     4  C   -0.313002
     5  C   -0.321807
     6  H    0.099472
     7  H    0.166906
     8  H    0.160345
     9  H    0.160345
    10  H    0.203750
    11  H    0.154720
    12  H    0.154720
 Sum of Mulliken charges =  -0.00000
 Mulliken charges with hydrogens summed into heavy atoms:
               1
     1  C    0.449121
     2  O   -0.467955
     3  N   -0.347144
     4  C    0.174594
     5  C    0.191384
 APT charges:
               1
     1  C    1.004705
     2  O   -0.765884
     3  N   -0.728141
     4  C    0.367728
     5  C    0.287714
     6  H   -0.057330
     7  H    0.006168
     8  H   -0.048987
     9  H   -0.048987
    10  H    0.062486
    11  H   -0.039735
    12  H   -0.039736
 Sum of APT charges =  -0.00000
 APT charges with hydrogens summed into heavy atoms:
               1
     1  C    0.947375
     2  O   -0.765884
     3  N   -0.728141
     4  C    0.275922
     5  C    0.270729
 Electronic spatial extent (au):  <R**2>=            443.7717
 Charge=              0.0000 electrons
 Dipole moment (field-independent basis, Debye):
    X=              3.8141    Y=             -0.3449    Z=              0.0000  Tot=              3.8297
 Quadrupole moment (field-independent basis, Debye-Ang):
   XX=            -36.2313   YY=            -27.4050   ZZ=            -30.7516
   XY=             -0.1241   XZ=              0.0000   YZ=             -0.0000
 Traceless Quadrupole moment (field-independent basis, Debye-Ang):
   XX=             -4.7687   YY=              4.0576   ZZ=              0.7111
   XY=             -0.1241   XZ=              0.0000   YZ=             -0.0000
 Octapole moment (field-independent basis, Debye-Ang**2):
  XXX=             13.3966  YYY=             -1.0329  ZZZ=              0.0000  XYY=             -1.8790
  XXY=             -0.3161  XXZ=             -0.0000  XZZ=             -0.9714  YZZ=              0.6106
  YYZ=             -0.0000  XYZ=             -0.0000
 Hexadecapole moment (field-independent basis, Debye-Ang**3):
 XXXX=           -355.9349 YYYY=           -187.4306 ZZZZ=            -41.8065 XXXY=             -3.6537
[...]
         9        -0.0000      0.0001     -0.0007     -0.0002
        10        -0.0002      0.0000      0.0006      0.0002
  1/2[<0|del|b>*<b|r|0> + (<0|r|b>*<b|del|0>)*] (Au)
       state          X           Y           Z        Dip. S.   Osc.(frdel)
         1        -0.0000     -0.0000     -0.0005      0.0005      0.0004
         2        -0.2990     -0.0380     -0.0000      0.3370      0.2247
         3        -0.0000     -0.0000     -0.0449      0.0449      0.0300
         4        -0.0452     -0.0023     -0.0000      0.0475      0.0317
         5        -0.0000     -0.0000     -0.0212      0.0212      0.0141
         6        -0.0236     -0.0742     -0.0000      0.0978      0.0652
         7        -0.0000     -0.0000     -0.0012      0.0012      0.0008
         8        -0.0000     -0.0000     -0.0003      0.0003      0.0002
         9        -0.0016     -0.0003     -0.0000      0.0019      0.0013
        10        -0.0000     -0.0000     -0.0153      0.0153      0.0102

 Excitation energies and oscillator strengths:
 
 Excited State   1:      Singlet-A      5.7805 eV  214.49 nm  f=0.0008  <S**2>=0.000
      19 -> 21         0.70608
 This state for optimization and/or second-order correction.
 Total Energy, E(TD-HF/TD-DFT) =  -248.299817425    
 Copying the excited state density for this state as the 1-particle RhoCI density.
 
 Excited State   2:      Singlet-A      7.1928 eV  172.37 nm  f=0.2319  <S**2>=0.000
      19 -> 22        -0.14492
      19 -> 27        -0.10670
      20 -> 21         0.67041
 
 Excited State   3:      Singlet-A      7.8294 eV  158.36 nm  f=0.0295  <S**2>=0.000
      20 -> 22         0.70321
 
 Excited State   4:      Singlet-A      8.4128 eV  147.38 nm  f=0.0320  <S**2>=0.000
      19 -> 22         0.68735
      20 -> 21         0.12662
 
 Excited State   5:      Singlet-A      8.5703 eV  144.67 nm  f=0.0146  <S**2>=0.000
      20 -> 23         0.70147
 
 Excited State   6:      Singlet-A      9.1221 eV  135.92 nm  f=0.0661  <S**2>=0.000
      19 -> 23         0.68554
 
 Excited State   7:      Singlet-A      9.1989 eV  134.78 nm  f=0.0005  <S**2>=0.000
      20 -> 24         0.67302
      20 -> 25        -0.18818
 
 Excited State   8:      Singlet-A      9.4207 eV  131.61 nm  f=0.0000  <S**2>=0.000
      20 -> 24         0.18833
      20 -> 25         0.67980
 
 Excited State   9:      Singlet-A      9.6682 eV  128.24 nm  f=0.0010  <S**2>=0.000
      19 -> 24         0.69266
 
 Excited State  10:      Singlet-A      9.6874 eV  127.98 nm  f=0.0072  <S**2>=0.000
      20 -> 27         0.70040
 SavETr:  write IOETrn=   770 NScale= 10 NData=  16 NLR=1 NState=   10 LETran=     190.
          Differentiating once with respect to electric field.
                with respect to dipole field.
          Electric field/nuclear overlap derivatives assumed to be zero.
 Keep R1 ints in memory in canonical form, NReq=9850670.
          There are     1 degrees of freedom in the 1st order CPHF.  IDoFFX=0 NUNeed=     1.
 LinEq1:  Iter=  0 NonCon=     1 RMS=4.12D-02 Max=9.23D-01 NDo=     1
 AX will form     1 AO Fock derivatives at one time.
 LinEq1:  Iter=  1 NonCon=     1 RMS=1.16D-02 Max=1.79D-01 NDo=     1
 LinEq1:  Iter=  2 NonCon=     1 RMS=8.02D-03 Max=8.59D-02 NDo=     1
 LinEq1:  Iter=  3 NonCon=     1 RMS=2.54D-03 Max=1.84D-02 NDo=     1
 LinEq1:  Iter=  4 NonCon=     1 RMS=1.13D-03 Max=1.35D-02 NDo=     1
 LinEq1:  Iter=  5 NonCon=     1 RMS=3.51D-04 Max=3.39D-03 NDo=     1
 LinEq1:  Iter=  6 NonCon=     1 RMS=1.35D-04 Max=1.12D-03 NDo=     1
 LinEq1:  Iter=  7 NonCon=     1 RMS=5.92D-05 Max=5.41D-04 NDo=     1
 LinEq1:  Iter=  8 NonCon=     1 RMS=1.24D-05 Max=1.45D-04 NDo=     1
 LinEq1:  Iter=  9 NonCon=     1 RMS=2.24D-06 Max=1.49D-05 NDo=     1
 LinEq1:  Iter= 10 NonCon=     1 RMS=9.72D-07 Max=9.99D-06 NDo=     1
 LinEq1:  Iter= 11 NonCon=     1 RMS=2.95D-07 Max=2.11D-06 NDo=     1
 LinEq1:  Iter= 12 NonCon=     1 RMS=6.41D-08 Max=4.92D-07 NDo=     1
 LinEq1:  Iter= 13 NonCon=     1 RMS=1.14D-08 Max=8.06D-08 NDo=     1
 LinEq1:  Iter= 14 NonCon=     1 RMS=2.41D-09 Max=1.87D-08 NDo=     1
 LinEq1:  Iter= 15 NonCon=     1 RMS=2.54D-10 Max=2.58D-09 NDo=     1
 LinEq1:  Iter= 16 NonCon=     0 RMS=3.73D-11 Max=2.64D-10 NDo=     1
 Linear equations converged to 1.000D-10 1.000D-09 after    16 iterations.
 End of Minotr F.D. properties file   721 does not exist.
 End of Minotr F.D. properties file   722 does not exist.
 End of Minotr F.D. properties file   788 does not exist.

 **********************************************************************

            Population analysis using the CI density.

 **********************************************************************

 Orbital symmetries:
       Occupied  (A) (A) (A) (A) (A) (A) (A) (A) (A) (A) (A) (A)
                 (A) (A) (A) (A) (A) (A) (A) (A)
       Virtual   (A) (A) (A) (A) (A) (A) (A) (A) (A) (A) (A) (A)
                 (A) (A) (A) (A) (A) (A) (A) (A) (A) (A) (A) (A)
                 (A) (A) (A) (A) (A) (A) (A) (A) (A) (A) (A) (A)
                 (A) (A) (A) (A) (A) (A) (A) (A) (A) (A) (A) (A)
                 (A) (A) (A) (A) (A) (A) (A) (A) (A) (A) (A) (A)
                 (A) (A) (A) (A) (A) (A) (A) (A) (A)
 The electronic state is 1-A.
 Alpha  occ. eigenvalues --  -19.11121 -14.37009 -10.27900 -10.23181 -10.21769
 Alpha  occ. eigenvalues --   -1.02762  -0.93848  -0.73477  -0.70213  -0.57030
 Alpha  occ. eigenvalues --   -0.51540  -0.47922  -0.46602  -0.41294  -0.41207
 Alpha  occ. eigenvalues --   -0.40183  -0.38775  -0.37255  -0.25094  -0.24217
 Alpha virt. eigenvalues --    0.03219   0.08445   0.11610   0.13661   0.14924
 Alpha virt. eigenvalues --    0.15411   0.15528   0.17025   0.20317   0.23471
 Alpha virt. eigenvalues --    0.28983   0.37104   0.47876   0.48086   0.50535
 Alpha virt. eigenvalues --    0.55064   0.56626   0.64737   0.65568   0.70380
 Alpha virt. eigenvalues --    0.71794   0.79035   0.79348   0.80529   0.84094
 Alpha virt. eigenvalues --    0.87222   0.87273   0.88135   0.90966   0.92135
 Alpha virt. eigenvalues --    0.95464   0.99293   1.02728   1.06749   1.15452
 Alpha virt. eigenvalues --    1.30102   1.32585   1.37428   1.38513   1.40901
 Alpha virt. eigenvalues --    1.55326   1.59538   1.77523   1.78803   1.83564
 Alpha virt. eigenvalues --    1.90032   1.93154   1.96984   1.97917   2.04297
 Alpha virt. eigenvalues --    2.09220   2.11271   2.18253   2.24576   2.32233
 Alpha virt. eigenvalues --    2.32643   2.39046   2.44993   2.55144   2.59446
 Alpha virt. eigenvalues --    2.66703   2.85063   2.95160   3.11181   3.86305
 Alpha virt. eigenvalues --    3.96622   4.19805   4.27039   4.36207
          Condensed to atoms (all electrons):
               1          2          3          4          5          6
     1  C    5.056835   0.204573   0.304134  -0.037378  -0.047693   0.357138
     2  O    0.204573   8.138031  -0.021546   0.002129  -0.004829  -0.033455
     3  N    0.304134  -0.021546   6.705885   0.345670   0.338629  -0.049695
     4  C   -0.037378   0.002129   0.345670   4.927401  -0.055217  -0.006014
     5  C   -0.047693  -0.004829   0.338629  -0.055217   4.958356   0.005433
     6  H    0.357138  -0.033455  -0.049695  -0.006014   0.005433   0.567683
     7  H   -0.005008   0.000065  -0.029807   0.374490   0.004502   0.007460
     8  H    0.003055  -0.000059  -0.053463   0.373290  -0.001726   0.000091
     9  H    0.003055  -0.000059  -0.053463   0.373290  -0.001726   0.000091
    10  H   -0.009818   0.008232  -0.030188   0.004420   0.384109   0.000386
    11  H    0.005292  -0.000007  -0.055395  -0.002097   0.363586  -0.000186
    12  H    0.005293  -0.000007  -0.055396  -0.002097   0.363586  -0.000186
               7          8          9         10         11         12
     1  C   -0.005008   0.003055   0.003055  -0.009818   0.005292   0.005293
     2  O    0.000065  -0.000059  -0.000059   0.008232  -0.000007  -0.000007
     3  N   -0.029807  -0.053463  -0.053463  -0.030188  -0.055395  -0.055396
     4  C    0.374490   0.373290   0.373290   0.004420  -0.002097  -0.002097
     5  C    0.004502  -0.001726  -0.001726   0.384109   0.363586   0.363586
     6  H    0.007460   0.000091   0.000091   0.000386  -0.000186  -0.000186
     7  H    0.543697  -0.027496  -0.027496  -0.000239  -0.000049  -0.000049
     8  H   -0.027496   0.603605  -0.055239  -0.000024  -0.003010   0.009876
     9  H   -0.027496  -0.055239   0.603604  -0.000024   0.009876  -0.003010
    10  H   -0.000239  -0.000024  -0.000024   0.516744  -0.025904  -0.025904
    11  H   -0.000049  -0.003010   0.009876  -0.025904   0.623029  -0.060744
    12  H   -0.000049   0.009876  -0.003010  -0.025904  -0.060744   0.623030
 Mulliken charges:
               1
     1  C    0.160522
     2  O   -0.293068
     3  N   -0.345365
     4  C   -0.297887
     5  C   -0.307010
     6  H    0.151254
     7  H    0.159930
     8  H    0.151099
     9  H    0.151100
    10  H    0.178210
    11  H    0.145608
    12  H    0.145607
 Sum of Mulliken charges =  -0.00000
 Mulliken charges with hydrogens summed into heavy atoms:
               1
     1  C    0.311776
     2  O   -0.293068
     3  N   -0.345365
     4  C    0.164242
     5  C    0.162415
 Electronic spatial extent (au):  <R**2>=            442.5973
 Charge=              0.0000 electrons
 Dipole moment (field-independent basis, Debye):
    X=              2.3504    Y=             -0.2444    Z=             -0.0000  Tot=              2.3631
 Quadrupole moment (field-independent basis, Debye-Ang):
   XX=            -33.3821   YY=            -27.1131   ZZ=            -32.3131
   XY=             -0.1289   XZ=             -0.0000   YZ=             -0.0000
 Traceless Quadrupole moment (field-independent basis, Debye-Ang):
   XX=             -2.4460   YY=              3.8230   ZZ=             -1.3770
   XY=             -0.1289   XZ=             -0.0000   YZ=             -0.0000
 Octapole moment (field-independent basis, Debye-Ang**2):
  XXX=              4.4058  YYY=             -3.5391  ZZZ=              0.0000  XYY=             -3.5627
  XXY=             -1.7341  XXZ=             -0.0000  XZZ=             -0.3629  YZZ=              1.2029
  YYZ=             -0.0000  XYZ=             -0.0000
 Hexadecapole moment (field-independent basis, Debye-Ang**3):
 XXXX=           -340.4251 YYYY=           -186.4967 ZZZZ=            -44.8520 XXXY=              1.2050
 XXXZ=             -0.0000 YYYX=             -0.2582 YYYZ=             -0.0000 ZZZX=             -0.0000
 ZZZY=             -0.0000 XXYY=            -82.5270 XXZZ=            -61.1270 YYZZ=            -41.3172
 XXYZ=             -0.0000 YYXZ=             -0.0000 ZZXY=              0.3191
 N-N= 1.811865589533D+02 E-N=-9.413037316759D+02  KE= 2.464326366006D+02
 Evaluate density.
 Using the total density.
 Monte-Carlo method of calculating molar volume:
 based on  0.001 e/bohr**3 density envelope.
 Number of points per bohr**3 =   20 CutOff= 1.00D-04
 Using the CI density.
 There are       319 points.  Will hold       319 in memory.
 LenV=   536833235 MDV=   536870912.
 Box volume = 4065.306 fraction occupied=0.185
 Integrated density= 3.7372065486843930D+01 error=-2.6279345131560703D+00
 Molar volume =  751.891 bohr**3/mol ( 67.098 cm**3/mol)
 Recommended a0 for SCRF calculation =  3.79 angstrom (  7.15 bohr)
 ******************************Gaussian NBO Version 3.1******************************
             N A T U R A L   A T O M I C   O R B I T A L   A N D
          N A T U R A L   B O N D   O R B I T A L   A N A L Y S I S
 ******************************Gaussian NBO Version 3.1******************************
       /RESON  / : Allow strongly delocalized NBO set

 Analyzing the CI density

 Job title: Title Card Required                                             

 Storage needed:     24296 in NPA ( 536870072 available)


 NATURAL POPULATIONS:  Natural atomic orbital occupancies 
                                                          
   NAO  Atom  No  lang   Type(AO)    Occupancy
 --------------------------------------------
     1    C    1  S      Cor( 1S)     1.99952
     2    C    1  S      Val( 2S)     0.83068
     3    C    1  S      Ryd( 3S)     0.00631
     4    C    1  S      Ryd( 4S)     0.00017
     5    C    1  px     Val( 2p)     0.73083
     6    C    1  px     Ryd( 3p)     0.01460
     7    C    1  py     Val( 2p)     1.02617
     8    C    1  py     Ryd( 3p)     0.00439
     9    C    1  pz     Val( 2p)     1.25109
    10    C    1  pz     Ryd( 3p)     0.01432
    11    C    1  dxy    Ryd( 3d)     0.00185
    12    C    1  dxz    Ryd( 3d)     0.00335
    13    C    1  dyz    Ryd( 3d)     0.00104
    14    C    1  dx2y2  Ryd( 3d)     0.00173
    15    C    1  dz2    Ryd( 3d)     0.00068
 
    16    O    2  S      Cor( 1S)     1.99984
    17    O    2  S      Val( 2S)     1.71445
    18    O    2  S      Ryd( 3S)     0.00103
    19    O    2  S      Ryd( 4S)     0.00005
    20    O    2  px     Val( 2p)     1.50241
    21    O    2  px     Ryd( 3p)     0.00081
    22    O    2  py     Val( 2p)     1.14351
    23    O    2  py     Ryd( 3p)     0.00138
    24    O    2  pz     Val( 2p)     1.89851
    25    O    2  pz     Ryd( 3p)     0.00613
    26    O    2  dxy    Ryd( 3d)     0.00108
    27    O    2  dxz    Ryd( 3d)     0.00209
    28    O    2  dyz    Ryd( 3d)     0.00056
    29    O    2  dx2y2  Ryd( 3d)     0.00140
    30    O    2  dz2    Ryd( 3d)     0.00031
 
    31    N    3  S      Cor( 1S)     1.99939
    32    N    3  S      Val( 2S)     1.18679
    33    N    3  S      Ryd( 3S)     0.00063
    34    N    3  S      Ryd( 4S)     0.00001
    35    N    3  px     Val( 2p)     1.26733
    36    N    3  px     Ryd( 3p)     0.00100
    37    N    3  py     Val( 2p)     1.26313
    38    N    3  py     Ryd( 3p)     0.00144
    39    N    3  pz     Val( 2p)     1.73610
    40    N    3  pz     Ryd( 3p)     0.00502
    41    N    3  dxy    Ryd( 3d)     0.00060
    42    N    3  dxz    Ryd( 3d)     0.00101
    43    N    3  dyz    Ryd( 3d)     0.00055
    44    N    3  dx2y2  Ryd( 3d)     0.00055
    45    N    3  dz2    Ryd( 3d)     0.00058
 
    46    C    4  S      Cor( 1S)     1.99948
    47    C    4  S      Val( 2S)     1.08043
    48    C    4  S      Ryd( 3S)     0.00103
    49    C    4  S      Ryd( 4S)     0.00002
    50    C    4  px     Val( 2p)     0.97813
    51    C    4  px     Ryd( 3p)     0.00188
    52    C    4  py     Val( 2p)     1.14657
    53    C    4  py     Ryd( 3p)     0.00285
    54    C    4  pz     Val( 2p)     1.23537
    55    C    4  pz     Ryd( 3p)     0.00090
    56    C    4  dxy    Ryd( 3d)     0.00084
    57    C    4  dxz    Ryd( 3d)     0.00194
    58    C    4  dyz    Ryd( 3d)     0.00041
    59    C    4  dx2y2  Ryd( 3d)     0.00098
    60    C    4  dz2    Ryd( 3d)     0.00084
 
    61    C    5  S      Cor( 1S)     1.99948
    62    C    5  S      Val( 2S)     1.08350
    63    C    5  S      Ryd( 3S)     0.00102
    64    C    5  S      Ryd( 4S)     0.00002
    65    C    5  px     Val( 2p)     1.25596
    66    C    5  px     Ryd( 3p)     0.00323
    67    C    5  py     Val( 2p)     0.87471
    68    C    5  py     Ryd( 3p)     0.00190
    69    C    5  pz     Val( 2p)     1.23461
    70    C    5  pz     Ryd( 3p)     0.00096
    71    C    5  dxy    Ryd( 3d)     0.00063
    72    C    5  dxz    Ryd( 3d)     0.00079
    73    C    5  dyz    Ryd( 3d)     0.00150
    74    C    5  dx2y2  Ryd( 3d)     0.00123
    75    C    5  dz2    Ryd( 3d)     0.00087
 
    76    H    6  S      Val( 1S)     0.78309
    77    H    6  S      Ryd( 2S)     0.00058
 
    78    H    7  S      Val( 1S)     0.76881
    79    H    7  S      Ryd( 2S)     0.00060
 
    80    H    8  S      Val( 1S)     0.78284
    81    H    8  S      Ryd( 2S)     0.00249
 
    82    H    9  S      Val( 1S)     0.78284
    83    H    9  S      Ryd( 2S)     0.00249
 
    84    H   10  S      Val( 1S)     0.75891
    85    H   10  S      Ryd( 2S)     0.00109
 
    86    H   11  S      Val( 1S)     0.78669
    87    H   11  S      Ryd( 2S)     0.00320
 
    88    H   12  S      Val( 1S)     0.78669
    89    H   12  S      Ryd( 2S)     0.00320


 Summary of Natural Population Analysis:                  
                                                          
                                       Natural Population 
                Natural  -----------------------------------------------
    Atom  No    Charge         Core      Valence    Rydberg      Total
 -----------------------------------------------------------------------
      C    1    0.11328      1.99952     3.83876    0.04844     5.88672
      O    2   -0.27355      1.99984     6.25888    0.01484     8.27355
      N    3   -0.46415      1.99939     5.45334    0.01141     7.46415
      C    4   -0.45165      1.99948     4.44049    0.01168     6.45165
      C    5   -0.46041      1.99948     4.44878    0.01214     6.46041
      H    6    0.21632      0.00000     0.78309    0.00058     0.78368
      H    7    0.23059      0.00000     0.76881    0.00060     0.76941
      H    8    0.21467      0.00000     0.78284    0.00249     0.78533
      H    9    0.21467      0.00000     0.78284    0.00249     0.78533
      H   10    0.24000      0.00000     0.75891    0.00109     0.76000
      H   11    0.21011      0.00000     0.78669    0.00320     0.78989
      H   12    0.21011      0.00000     0.78669    0.00320     0.78989
 =======================================================================
   * Total *   -0.00000      9.99771    29.89013    0.11216    40.00000

                                 Natural Population      
 --------------------------------------------------------
   Core                       9.99771 ( 99.9771% of  10)
   Valence                   29.89013 ( 99.6338% of  30)
   Natural Minimal Basis     39.88784 ( 99.7196% of  40)
   Natural Rydberg Basis      0.11216 (  0.2804% of  40)
 --------------------------------------------------------

    Atom  No          Natural Electron Configuration
 ----------------------------------------------------------------------------
      C    1      [core]2S( 0.83)2p( 3.01)3S( 0.01)3p( 0.03)3d( 0.01)
      O    2      [core]2S( 1.71)2p( 4.54)3p( 0.01)3d( 0.01)
      N    3      [core]2S( 1.19)2p( 4.27)3p( 0.01)
      C    4      [core]2S( 1.08)2p( 3.36)3p( 0.01)3d( 0.01)
      C    5      [core]2S( 1.08)2p( 3.37)3p( 0.01)3d( 0.01)
      H    6            1S( 0.78)
      H    7            1S( 0.77)
      H    8            1S( 0.78)
      H    9            1S( 0.78)
      H   10            1S( 0.76)
      H   11            1S( 0.79)
      H   12            1S( 0.79)


 NBO analysis skipped by request.
 1\1\GINC-DELLA-R4C3N1\SP\RB3LYP TD-FC\6-31G(d)\C3H7N1O1\BJS4\24-Aug-20
 20\0\\# TD(NStates=10, Root=1) B3LYP/6-31G* scf=qc volume pop=NPA dens
 ity=current Geom=AllCheck Guess=Read\\Title Card Required\\0,1\C,0,0.9
 856567711,0.0076405068,0.0191231293\O,0,0.3038521536,1.011481284,0.143
 5298713\N,0,2.3510850326,-0.0333497435,0.0140218444\C,0,3.0797871575,-
 1.2758869756,-0.1399628947\C,0,3.1167970883,1.1917153184,0.1658210218\
 H,0,0.5434956316,-1.0005997521,-0.105811197\H,0,2.3741768907,-2.105410
 3392,-0.242747695\H,0,3.7188762287,-1.4702344595,0.7320362688\H,0,3.71
 88521564,-1.2515063041,-1.0330417096\H,0,2.4121857005,2.0177166141,0.2
 681870842\H,0,3.7561514249,1.3611341956,-0.710464715\H,0,3.7561737641,
 1.1421196552,1.0569389915\\Version=ES64L-G16RevA.03\State=1-A\HF=-248.
 5122455\RMSD=2.328e-09\Dipole=0.7598125,-0.5316895,-0.0658988\Quadrupo
 le=-0.787303,1.7682172,-0.9809143,1.9223768,0.2382155,0.3459537\PG=C01
  [X(C3H7N1O1)]\\@


 REALITY IS FOR PEOPLE WHO CAN'T FACE SCIENCE FICTION.
 Job cpu time:       0 days  0 hours  3 minutes 13.7 seconds.
 Elapsed time:       0 days  0 hours  1 minutes 37.1 seconds.
 File lengths (MBytes):  RWF=    128 Int=      0 D2E=      0 Chk=      8 Scr=      1
 Normal termination of Gaussian 16 at Mon Aug 24 08:26:55 2020.
