 Entering Gaussian System, Link 0=g16
 Input=base_3123.com
 Output=base_3123.log
 Initial command:
 /opt/export/g16/l1.exe "/scratch/bjs4/job.13919/Gau-13921.inp" -scrdir="/scratch/bjs4/job.13919/"
 Entering Link 1 = /opt/export/g16/l1.exe PID=     13922.
  
 Copyright (c) 1988,1990,1992,1993,1995,1998,2003,2009,2016,
            Gaussian, Inc.  All Rights Reserved.
  
 This is part of the Gaussian(R) 16 program.  It is based on
 the Gaussian(R) 09 system (copyright 2009, Gaussian, Inc.),
 the Gaussian(R) 03 system (copyright 2003, Gaussian, Inc.),
 the Gaussian(R) 98 system (copyright 1998, Gaussian, Inc.),
 the Gaussian(R) 94 system (copyright 1995, Gaussian, Inc.),
 the Gaussian 92(TM) system (copyright 1992, Gaussian, Inc.),
 the Gaussian 90(TM) system (copyright 1990, Gaussian, Inc.),
 the Gaussian 88(TM) system (copyright 1988, Gaussian, Inc.),
 the Gaussian 86(TM) system (copyright 1986, Carnegie Mellon
 University), and the Gaussian 82(TM) system (copyright 1983,
 Carnegie Mellon University). Gaussian is a federally registered
 trademark of Gaussian, Inc.
  
 This software contains proprietary and confidential information,
 including trade secrets, belonging to Gaussian, Inc.
  
 This software is provided under written license and may be
 used, copied, transmitted, or stored only in accord with that
 written license.
  
 The following legend is applicable only to US Government
 contracts under FAR:
  
                    RESTRICTED RIGHTS LEGEND
  
 Use, reproduction and disclosure by the US Government is
 subject to restrictions as set forth in subparagraphs (a)
 and (c) of the Commercial Computer Software - Restricted
 Rights clause in FAR 52.227-19.
  
 Gaussian, Inc.
 340 Quinnipiac St., Bldg. 40, Wallingford CT 06492
  
  
 ---------------------------------------------------------------
 Warning -- This program may not be used in any manner that
 competes with the business of Gaussian, Inc. or will provide
 assistance to any competitor of Gaussian, Inc.  The licensee
 of this program is prohibited from giving any competitor of
 Gaussian, Inc. access to this program.  By using this program,
 the user acknowledges that Gaussian, Inc. is engaged in the
 business of creating and licensing software in the field of
 computational chemistry and represents and warrants to the
 licensee that it is not a competitor of Gaussian, Inc. and that
 it will not use this program in any manner prohibited above.
 ---------------------------------------------------------------
  

 Cite this work as:
 Gaussian 16, Revision A.03,
 M. J. Frisch, G. W. Trucks, H. B. Schlegel, G. E. Scuseria, 
 M. A. Robb, J. R. Cheeseman, G. Scalmani, V. Barone, 
 G. A. Petersson, H. Nakatsuji, X. Li, M. Caricato, A. V. Marenich, 
 J. Bloino, B. G. Janesko, R. Gomperts, B. Mennucci, H. P. Hratchian, 
 J. V. Ortiz, A. F. Izmaylov, J. L. Sonnenberg, D. Williams-Young, 
 F. Ding, F. Lipparini, F. Egidi, J. Goings, B. Peng, A. Petrone, 
 T. Henderson, D. Ranasinghe, V. G. Zakrzewski, J. Gao, N. Rega, 
 G. Zheng, W. Liang, M. Hada, M. Ehara, K. Toyota, R. Fukuda, 
 J. Hasegawa, M. Ishida, T. Nakajima, Y. Honda, O. Kitao, H. Nakai, 
 T. Vreven, K. Throssell, J. A. Montgomery, Jr., J. E. Peralta, 
 F. Ogliaro, M. J. Bearpark, J. J. Heyd, E. N. Brothers, K. N. Kudin, 
 V. N. Staroverov, T. A. Keith, R. Kobayashi, J. Normand, 
 K. Raghavachari, A. P. Rendell, J. C. Burant, S. S. Iyengar, 
 J. Tomasi, M. Cossi, J. M. Millam, M. Klene, C. Adamo, R. Cammi, 
 J. W. Ochterski, R. L. Martin, K. Morokuma, O. Farkas, 
 J. B. Foresman, and D. J. Fox, Gaussian, Inc., Wallingford CT, 2016.
 
 ******************************************
 Gaussian 16:  ES64L-G16RevA.03 25-Dec-2016
                10-Dec-2019 
 ******************************************
 %nprocshared=1
 Will use up to    1 processors via shared memory.
 %Mem=2GB
 %Chk=base_31.chk
 --------------------------
 # opt=CalcAll B3LYP/genecp
 --------------------------
 1/10=4,18=20,19=15,26=3,38=1/1,3;
 2/9=110,12=2,17=6,18=5,40=1/2;
 3/5=7,11=2,16=1,17=8,25=1,30=1,71=2,74=-5,140=1/1,2,3;
 4//1;
 5/5=2,38=5/2;
 8/6=4,10=90,11=11/1;
 11/6=1,8=1,9=11,15=111,16=1/1,2,10;
 10/6=1/2;
 6/7=2,8=2,9=2,10=2,18=1,28=1/1;
 7/10=1,25=1/1,2,3,16;
 1/10=4,18=20,19=15,26=3/3(3);
 2/9=110/2;
 7/8=1,9=1,25=1,44=-1/16;
 99//99;
 2/9=110/2;
 3/5=7,6=1,11=2,16=1,17=8,25=1,30=1,71=2,74=-5,82=7,140=1/1,2,3;
 4/5=5,16=3,69=1/1;
 5/5=2,38=5/2;
 8/6=4,10=90,11=11/1;
 11/6=1,8=1,9=11,15=111,16=1/1,2,10;
 10/6=1/2;
 7/10=1,25=1/1,2,3,16;
 1/10=4,18=20,19=15,26=3/3(-8);
 2/9=110/2;
 6/7=2,8=2,9=2,10=2,18=1,19=2,28=1/1;
 7/8=1,9=1,25=1,44=-1/16;
 99//99;
 -------------------
 Title Card Required
 -------------------
 Symbolic Z-matrix:
 Charge =  0 Multiplicity = 1
 O1                    1.45011  -1.1296   -0.0035 
 C                     2.01382   0.0045    0.0029 
 O2                    1.43429   1.12972  -0.00377 
 C                     3.55397   0.00694   0.00458 
 Cs3                  -1.24153  -0.00066   0.0004 
 H                     3.93175  -0.50105  -0.89016 
 H                     3.95247  -0.4755    0.90092 
 H                     3.91783   1.04097  -0.0397 
 

 GradGradGradGradGradGradGradGradGradGradGradGradGradGradGradGradGradGrad
 Berny optimization.
 Initialization pass.
                           ----------------------------
                           !    Initial Parameters    !
                           ! (Angstroms and Degrees)  !
 --------------------------                            --------------------------
 ! Name  Definition              Value          Derivative Info.                !
 --------------------------------------------------------------------------------
 ! R1    R(1,2)                  1.2665         calculate D2E/DX2 analytically  !
 ! R2    R(1,5)                  2.9188         calculate D2E/DX2 analytically  !
 ! R3    R(2,3)                  1.2657         calculate D2E/DX2 analytically  !
 ! R4    R(2,4)                  1.5401         calculate D2E/DX2 analytically  !
 ! R5    R(2,5)                  3.2554         calculate D2E/DX2 analytically  !
 ! R6    R(3,5)                  2.9048         calculate D2E/DX2 analytically  !
 ! R7    R(4,6)                  1.0961         calculate D2E/DX2 analytically  !
 ! R8    R(4,7)                  1.0932         calculate D2E/DX2 analytically  !
 ! R9    R(4,8)                  1.0971         calculate D2E/DX2 analytically  !
 ! A1    A(1,2,3)              126.3167         calculate D2E/DX2 analytically  !
 ! A2    A(1,2,4)              116.5209         calculate D2E/DX2 analytically  !
 ! A3    A(3,2,4)              117.1593         calculate D2E/DX2 analytically  !
 ! A4    A(2,4,6)              110.0627         calculate D2E/DX2 analytically  !
 ! A5    A(2,4,7)              111.3918         calculate D2E/DX2 analytically  !
 ! A6    A(2,4,8)              109.4582         calculate D2E/DX2 analytically  !
 ! A7    A(6,4,7)              109.8254         calculate D2E/DX2 analytically  !
 ! A8    A(6,4,8)              106.8325         calculate D2E/DX2 analytically  !
 ! A9    A(7,4,8)              109.1568         calculate D2E/DX2 analytically  !
 ! A10   A(1,5,3)               45.6557         calculate D2E/DX2 analytically  !
 ! A11   L(4,2,5,1,-1)         180.0002         calculate D2E/DX2 analytically  !
 ! A12   L(4,2,5,1,-2)         179.9793         calculate D2E/DX2 analytically  !
 ! D1    D(1,2,4,6)             60.1043         calculate D2E/DX2 analytically  !
 ! D2    D(1,2,4,7)            -61.9582         calculate D2E/DX2 analytically  !
 ! D3    D(1,2,4,8)            177.2326         calculate D2E/DX2 analytically  !
 ! D4    D(3,2,4,6)           -119.297          calculate D2E/DX2 analytically  !
 ! D5    D(3,2,4,7)            118.6405         calculate D2E/DX2 analytically  !
 ! D6    D(3,2,4,8)             -2.1687         calculate D2E/DX2 analytically  !
 ! D7    D(3,2,5,1)            179.3825         calculate D2E/DX2 analytically  !
 --------------------------------------------------------------------------------
 Trust Radius=3.00D-01 FncErr=1.00D-07 GrdErr=1.00D-06 EigMax=2.50D+02 EigMin=1.00D-04
 Number of steps in this run=     38 maximum allowed number of steps=    100.
 GradGradGradGradGradGradGradGradGradGradGradGradGradGradGradGradGradGrad

                          Input orientation:                          
 ---------------------------------------------------------------------
 Center     Atomic      Atomic             Coordinates (Angstroms)
 Number     Number       Type             X           Y           Z
 ---------------------------------------------------------------------
      1          8           0        1.450110   -1.129605   -0.003496
      2          6           0        2.013824    0.004500    0.002896
      3          8           0        1.434289    1.129722   -0.003765
      4          6           0        3.553965    0.006944    0.004578
      5         55           0       -1.241529   -0.000661    0.000395
      6          1           0        3.931747   -0.501050   -0.890159
      7          1           0        3.952475   -0.475501    0.900920
      8          1           0        3.917830    1.040974   -0.039701
 ---------------------------------------------------------------------
                    Distance matrix (angstroms):
                    1          2          3          4          5
     1  O    0.000000
     2  C    1.266495   0.000000
     3  O    2.259382   1.265713   0.000000
     4  C    2.391237   1.540144   2.398693   0.000000
     5  Cs   2.918810   3.255358   2.904787   4.795502   0.000000
     6  H    2.709202   2.175214   3.111657   1.096052   5.273164
     7  H    2.740009   2.189798   3.120330   1.093157   5.292834
     8  H    3.286695   2.168256   2.485386   1.097076   5.263611
                    6          7          8
     6  H    0.000000
     7  H    1.791381   0.000000
     8  H    1.761053   1.784843   0.000000
 Stoichiometry    C2H3CsO2
 Framework group  C1[X(C2H3CsO2)]
 Deg. of freedom    18
 Full point group                 C1      NOp   1
 Largest Abelian subgroup         C1      NOp   1
 Largest concise Abelian subgroup C1      NOp   1
                         Standard orientation:                         
 ---------------------------------------------------------------------
 Center     Atomic      Atomic             Coordinates (Angstroms)
 Number     Number       Type             X           Y           Z
 ---------------------------------------------------------------------
      1          8           0        1.448550   -1.132737   -0.004290
      2          6           0        2.013827    0.000580    0.003691
      3          8           0        1.435848    1.126608   -0.001706
      4          6           0        3.553970    0.000895    0.005800
      5         55           0       -1.241529   -0.000083    0.000290
      6          1           0        3.931297   -0.506488   -0.889475
      7          1           0        3.951565   -0.483232    0.901641
      8          1           0        3.919274    1.034477   -0.037072
 ---------------------------------------------------------------------
 Rotational constants (GHZ):          11.4817761           0.9877617           0.9148481
 General basis read from cards:  (5D, 7F)
 ======================================================================================================
                                       Pseudopotential Parameters
 ======================================================================================================
  Center     Atomic      Valence      Angular      Power
  Number     Number     Electrons     Momentum     of R      Exponent        Coefficient   SO-Coeffient
 ======================================================================================================
    1          8
                                   No pseudopotential on this center.
    2          6
                                   No pseudopotential on this center.
    3          8
                                   No pseudopotential on this center.
    4          6
                                   No pseudopotential on this center.
    5         55            9
                                      F and up 
                                                     0      636.7840130       -0.08051090    0.00000000
                                                     1      147.8912446      -33.43114480    0.00000000
                                                     2       42.5724911     -193.92708870    0.00000000
                                                     2       11.2427883      -56.83014330    0.00000000
                                                     2        3.5689707      -18.65049750    0.00000000
                                                     2        1.3107462       -2.54113990    0.00000000
                                      S - F
                                                     0       40.8648070        3.04999340    0.00000000
                                                     1       10.9329329       37.96775140    0.00000000
                                                     2        2.2294903       45.23406730    0.00000000
                                      P - F
                                                     0      118.8598171        4.64069510    0.00000000
                                                     1       30.6847958       62.03135330    0.00000000
                                                     2       10.1762999      129.59094810    0.00000000
                                                     2        1.8272850       31.51868250    0.00000000
                                      D - F
                                                     0       16.0081704        7.30544730    0.00000000
                                                     1        2.6488291       33.27857600    0.00000000
                                                     2       14.5555672       53.12969480    0.00000000
                                                     2        0.6703604       16.21188780    0.00000000
    6          1
                                   No pseudopotential on this center.
    7          1
                                   No pseudopotential on this center.
    8          1
                                   No pseudopotential on this center.
 ======================================================================================================
 There are    78 symmetry adapted cartesian basis functions of A   symmetry.
 There are    74 symmetry adapted basis functions of A   symmetry.
    74 basis functions,   149 primitive gaussians,    78 cartesian basis functions
    20 alpha electrons       20 beta electrons
       nuclear repulsion energy       155.0870846360 Hartrees.
 NAtoms=    8 NActive=    8 NUniq=    8 SFac= 1.00D+00 NAtFMM=   60 NAOKFM=F Big=F
 Integral buffers will be    131072 words long.
 Raffenetti 2 integral format.
 Two-electron integral symmetry is turned on.
 One-electron integrals computed using PRISM.
   1 Symmetry operations used in ECPInt.
 ECPInt:  NShTT=     406 NPrTT=    2506 LenC2=     407 LenP2D=    2118.
 LDataN:  DoStor=T MaxTD1= 5 Len=  102
 NBasis=    74 RedAO= T EigKep=  7.19D-03  NBF=    74
 NBsUse=    74 1.00D-06 EigRej= -1.00D+00 NBFU=    74
 Defaulting to unpruned grid for atomic number  55.
 ExpMin= 1.13D-02 ExpMax= 5.48D+03 ExpMxC= 8.25D+02 IAcc=3 IRadAn=         5 AccDes= 0.00D+00
 Harris functional with IExCor=  402 and IRadAn=       5 diagonalized for initial guess.
 HarFok:  IExCor=  402 AccDes= 0.00D+00 IRadAn=         5 IDoV= 1 UseB2=F ITyADJ=14
 ICtDFT=  3500011 ScaDFX=  1.000000  1.000000  1.000000  1.000000
 Defaulting to unpruned grid for atomic number  55.
 FoFCou: FMM=F IPFlag=           0 FMFlag=      100000 FMFlg1=           0
         NFxFlg=           0 DoJE=T BraDBF=F KetDBF=T FulRan=T
         wScrn=  0.000000 ICntrl=       500 IOpCl=  0 I1Cent=   200000004 NGrid=           0
         NMat0=    1 NMatS0=      1 NMatT0=    0 NMatD0=    1 NMtDS0=    0 NMtDT0=    0
 Petite list used in FoFCou.
 Keep R1 ints in memory in canonical form, NReq=4752931.
 Requested convergence on RMS density matrix=1.00D-08 within 128 cycles.
 Requested convergence on MAX density matrix=1.00D-06.
 Requested convergence on             energy=1.00D-06.
 No special actions if energy rises.
 Defaulting to unpruned grid for atomic number  55.
 SCF Done:  E(RB3LYP) =  -248.405728572     A.U. after   13 cycles
            NFock= 13  Conv=0.39D-08     -V/T= 2.0703
 DoSCS=F DFT=T ScalE2(SS,OS)=  1.000000  1.000000
 Range of M.O.s used for correlation:     1    74
 NBasis=    74 NAE=    20 NBE=    20 NFC=     0 NFV=     0
 NROrb=     74 NOA=    20 NOB=    20 NVA=    54 NVB=    54
   1 Symmetry operations used in ECPInt.
 ECPInt:  NShTT=     406 NPrTT=    2506 LenC2=     407 LenP2D=    2118.
 LDataN:  DoStor=T MaxTD1= 6 Len=  172
 Symmetrizing basis deriv contribution to polar:
 IMax=3 JMax=2 DiffMx= 0.00D+00
 G2DrvN: will do     9 centers at a time, making    1 passes.
 Calling FoFCou, ICntrl=  3107 FMM=F I1Cent=   0 AccDes= 0.00D+00.
 Defaulting to unpruned grid for atomic number  55.
 End of G2Drv F.D. properties file   721 does not exist.
 End of G2Drv F.D. properties file   722 does not exist.
 End of G2Drv F.D. properties file   788 does not exist.
          IDoAtm=11111111
          Differentiating once with respect to electric field.
                with respect to dipole field.
          Differentiating once with respect to nuclear coordinates.
 Defaulting to unpruned grid for atomic number  55.
 Keep R1 ints in memory in canonical form, NReq=4757101.
 Defaulting to unpruned grid for atomic number  55.
          There are    27 degrees of freedom in the 1st order CPHF.  IDoFFX=6 NUNeed=     3.
     24 vectors produced by pass  0 Test12= 4.00D-15 3.70D-09 XBig12= 1.02D+02 9.15D+00.
 AX will form    24 AO Fock derivatives at one time.
     24 vectors produced by pass  1 Test12= 4.00D-15 3.70D-09 XBig12= 2.13D+01 1.83D+00.
     24 vectors produced by pass  2 Test12= 4.00D-15 3.70D-09 XBig12= 2.16D-01 2.38D-01.
     24 vectors produced by pass  3 Test12= 4.00D-15 3.70D-09 XBig12= 6.19D-04 8.65D-03.
     24 vectors produced by pass  4 Test12= 4.00D-15 3.70D-09 XBig12= 9.79D-07 2.69D-04.
     14 vectors produced by pass  5 Test12= 4.00D-15 3.70D-09 XBig12= 8.61D-10 7.04D-06.
      4 vectors produced by pass  6 Test12= 4.00D-15 3.70D-09 XBig12= 6.76D-13 1.89D-07.
      2 vectors produced by pass  7 Test12= 4.00D-15 3.70D-09 XBig12= 5.58D-16 4.94D-09.
 InvSVY:  IOpt=1 It=  1 EMax= 5.33D-15
 Solved reduced A of dimension   140 with    27 vectors.
 Isotropic polarizability for W=    0.000000       51.12 Bohr**3.
 End of Minotr F.D. properties file   721 does not exist.
 End of Minotr F.D. properties file   722 does not exist.
 End of Minotr F.D. properties file   788 does not exist.

 **********************************************************************

            Population analysis using the SCF density.

 **********************************************************************

 Orbital symmetries:
       Occupied  (A) (A) (A) (A) (A) (A) (A) (A) (A) (A) (A) (A)
                 (A) (A) (A) (A) (A) (A) (A) (A)
       Virtual   (A) (A) (A) (A) (A) (A) (A) (A) (A) (A) (A) (A)
                 (A) (A) (A) (A) (A) (A) (A) (A) (A) (A) (A) (A)
                 (A) (A) (A) (A) (A) (A) (A) (A) (A) (A) (A) (A)
                 (A) (A) (A) (A) (A) (A) (A) (A) (A) (A) (A) (A)
                 (A) (A) (A) (A) (A) (A)
 The electronic state is 1-A.
 Alpha  occ. eigenvalues --  -19.02047 -19.01850 -10.20648 -10.11011  -1.02161
 Alpha  occ. eigenvalues --   -0.95368  -0.86349  -0.65347  -0.53025  -0.52696
 Alpha  occ. eigenvalues --   -0.51978  -0.43155  -0.37262  -0.36099  -0.35548
 Alpha  occ. eigenvalues --   -0.31216  -0.29356  -0.18309  -0.17487  -0.16607
 Alpha virt. eigenvalues --   -0.05379  -0.00437   0.00022   0.01256   0.04636
 Alpha virt. eigenvalues --    0.05057   0.06502   0.12028   0.19035   0.22195
 Alpha virt. eigenvalues --    0.24185   0.30290   0.41121   0.46258   0.56949
 Alpha virt. eigenvalues --    0.61124   0.64606   0.66775   0.70894   0.73341
 Alpha virt. eigenvalues --    0.73840   0.87828   0.92609   0.93337   1.01851
 Alpha virt. eigenvalues --    1.02767   1.03783   1.04420   1.12729   1.13769
 Alpha virt. eigenvalues --    1.17326   1.29147   1.48025   1.53207   1.71368
 Alpha virt. eigenvalues --    1.74002   1.84347   1.87507   1.87821   1.91410
 Alpha virt. eigenvalues --    1.96881   1.98538   2.03476   2.07159   2.17715
 Alpha virt. eigenvalues --    2.28790   2.31479   2.51097   2.54381   2.77212
 Alpha virt. eigenvalues --    2.85739   3.00263   3.00901   3.17710
          Condensed to atoms (all electrons):
               1          2          3          4          5          6
     1  O    8.315714   0.492630  -0.092409  -0.115144   0.019239   0.001984
     2  C    0.492630   4.289368   0.514057   0.285617  -0.036947  -0.016142
     3  O   -0.092409   0.514057   8.290765  -0.114484   0.017744   0.002018
     4  C   -0.115144   0.285617  -0.114484   5.404155   0.018208   0.349715
     5  Cs   0.019239  -0.036947   0.017744   0.018208   8.137896  -0.000497
     6  H    0.001984  -0.016142   0.002018   0.349715  -0.000497   0.581110
     7  H    0.001799  -0.014952   0.001930   0.351554  -0.000476  -0.025207
     8  H    0.004442  -0.016434   0.008307   0.325921  -0.000484  -0.031599
               7          8
     1  O    0.001799   0.004442
     2  C   -0.014952  -0.016434
     3  O    0.001930   0.008307
     4  C    0.351554   0.325921
     5  Cs  -0.000476  -0.000484
     6  H   -0.025207  -0.031599
     7  H    0.574680  -0.028724
     8  H   -0.028724   0.602979
 Mulliken charges:
               1
     1  O   -0.628256
     2  C    0.502804
     3  O   -0.627929
     4  C   -0.505543
     5  Cs   0.845318
     6  H    0.138618
     7  H    0.139396
     8  H    0.135591
 Sum of Mulliken charges =  -0.00000
 Mulliken charges with hydrogens summed into heavy atoms:
               1
     1  O   -0.628256
     2  C    0.502804
     3  O   -0.627929
     4  C   -0.091938
     5  Cs   0.845318
 APT charges:
               1
     1  O   -0.945388
     2  C    1.049453
     3  O   -0.929899
     4  C    0.005686
     5  Cs   0.945841
     6  H   -0.039938
     7  H   -0.036889
     8  H   -0.048866
 Sum of APT charges =  -0.00000
 APT charges with hydrogens summed into heavy atoms:
               1
     1  O   -0.945388
     2  C    1.049453
     3  O   -0.929899
     4  C   -0.120007
     5  Cs   0.945841
 Electronic spatial extent (au):  <R**2>=            876.3181
 Charge=             -0.0000 electrons
 Dipole moment (field-independent basis, Debye):
    X=            -10.1527    Y=             -0.0085    Z=              0.0178  Tot=             10.1527
 Quadrupole moment (field-independent basis, Debye-Ang):
   XX=            -42.0388   YY=            -51.2137   ZZ=            -41.7615
   XY=             -0.0896   XZ=              0.0062   YZ=             -0.0461
 Traceless Quadrupole moment (field-independent basis, Debye-Ang):
   XX=              2.9658   YY=             -6.2090   ZZ=              3.2432
   XY=             -0.0896   XZ=              0.0062   YZ=             -0.0461
 Octapole moment (field-independent basis, Debye-Ang**2):
  XXX=           -110.9131  YYY=              0.3876  ZZZ=              0.0452  XYY=            -43.7475
  XXY=             -0.7260  XXZ=              0.0197  XZZ=            -29.9735  YZZ=             -0.4680
  YYZ=             -0.0051  XYZ=             -0.1620
 Hexadecapole moment (field-independent basis, Debye-Ang**3):
 XXXX=          -1147.7336 YYYY=           -168.5230 ZZZZ=            -61.0189 XXXY=             -3.1002
 XXXZ=              0.0276 YYYX=              1.9311 YYYZ=             -0.0657 ZZZX=              0.0379
 ZZZY=             -0.0257 XXYY=           -228.8892 XXZZ=           -190.4679 YYZZ=            -36.4970
 XXYZ=             -0.6289 YYXZ=             -0.1137 ZZXY=             -1.8020
 N-N= 1.550870846360D+02 E-N=-8.880738604593D+02  KE= 2.320830853433D+02
  Exact polarizability:  80.610  -0.477  42.549   0.079  -0.033  30.201
 Approx polarizability:  79.753  -0.986  66.741   0.096  -0.050  36.936
   1 Symmetry operations used in ECPInt.
 ECPInt:  NShTT=     406 NPrTT=    2506 LenC2=     407 LenP2D=    2118.
 LDataN:  DoStor=T MaxTD1= 7 Len=  274
 Calling FoFJK, ICntrl=    100127 FMM=F ISym2X=0 I1Cent= 0 IOpClX= 0 NMat=1 NMatS=1 NMatT=0.
 Defaulting to unpruned grid for atomic number  55.
 ***** Axes restored to original set *****
 -------------------------------------------------------------------
 Center     Atomic                   Forces (Hartrees/Bohr)
 Number     Number              X              Y              Z
 -------------------------------------------------------------------
      1        8          -0.000529471   -0.000168832    0.000677107
      2        6          -0.000128438   -0.001878436   -0.000616006
      3        8          -0.000209083    0.000153852    0.000460401
      4        6           0.000542959    0.012184152   -0.005079823
      5       55           0.000015289   -0.000286158   -0.000025441
      6        1          -0.000126218   -0.005038009    0.002539926
      7        1           0.000269261   -0.003513347   -0.000564127
      8        1           0.000165701   -0.001453223    0.002607964
 -------------------------------------------------------------------
 Cartesian Forces:  Max     0.012184152 RMS     0.003116694
 FormGI is forming the generalized inverse of G from B-inverse, IUseBI=4.

 GradGradGradGradGradGradGradGradGradGradGradGradGradGradGradGradGradGrad
 Berny optimization.
 Internal  Forces:  Max     0.003509014 RMS     0.001539612
 Search for a local minimum.
 Step number   1 out of a maximum of   38
 All quantities printed in internal units (Hartrees-Bohrs-Radians)
 Mixed Optimization -- RFO/linear search
 Second derivative matrix not updated -- analytic derivatives used.
 ITU=  0
     Eigenvalues ---   -0.00034   0.00900   0.01734   0.01979   0.05272
     Eigenvalues ---    0.05726   0.06232   0.11345   0.12079   0.13644
     Eigenvalues ---    0.17100   0.17561   0.27187   0.33627   0.34045
     Eigenvalues ---    0.34814   0.55388   0.68994
 RFO step:  Lambda=-1.05456081D-03 EMin=-3.36610947D-04
 Linear search not attempted -- first point.
 Iteration  1 RMS(Cart)=  0.08640080 RMS(Int)=  0.05168809
 Iteration  2 RMS(Cart)=  0.04757766 RMS(Int)=  0.00158241
 Iteration  3 RMS(Cart)=  0.00144446 RMS(Int)=  0.00038924
 Iteration  4 RMS(Cart)=  0.00000085 RMS(Int)=  0.00038924
 Variable       Old X    -DE/DX   Delta X   Delta X   Delta X     New X
                                 (Linear)    (Quad)   (Total)
    R1        2.39333   0.00035   0.00000   0.00105   0.00105   2.39438
    R2        5.51575  -0.00039   0.00000  -0.01757  -0.01757   5.49818
    R3        2.39185   0.00023   0.00000  -0.00051  -0.00050   2.39135
    R4        2.91045   0.00085   0.00000  -0.00003  -0.00003   2.91042
    R5        6.15174   0.00020   0.00000  -0.00130  -0.00129   6.15045
    R6        5.48925   0.00016   0.00000   0.01552   0.01551   5.50476
    R7        2.07124   0.00022   0.00000   0.00355   0.00355   2.07479
    R8        2.06577   0.00119   0.00000   0.00398   0.00398   2.06975
    R9        2.07317  -0.00142   0.00000  -0.00774  -0.00774   2.06543
    A1        2.20464  -0.00023   0.00000   0.00015   0.00014   2.20478
    A2        2.03367  -0.00021   0.00000  -0.00615  -0.00617   2.02750
    A3        2.04482   0.00044   0.00000   0.00588   0.00584   2.05066
    A4        1.92096  -0.00067   0.00000  -0.01737  -0.01817   1.90279
    A5        1.94415  -0.00186   0.00000  -0.01981  -0.02054   1.92361
    A6        1.91041   0.00278   0.00000   0.03723   0.03703   1.94744
    A7        1.91682  -0.00284   0.00000  -0.05329  -0.05468   1.86213
    A8        1.86458   0.00276   0.00000   0.03215   0.03190   1.89648
    A9        1.90515   0.00005   0.00000   0.02400   0.02387   1.92901
   A10        0.79684   0.00007   0.00000   0.00032   0.00030   0.79714
   A11        3.14160  -0.00044   0.00000  -0.01298  -0.01300   3.12859
   A12        3.14123  -0.00021   0.00000   0.01108   0.01106   3.15229
    D1        1.04902  -0.00295   0.00000   0.25274   0.25321   1.30223
    D2       -1.08138   0.00237   0.00000   0.34577   0.34524  -0.73613
    D3        3.09329   0.00165   0.00000   0.30365   0.30369  -2.88621
    D4       -2.08213  -0.00351   0.00000   0.26452   0.26500  -1.81713
    D5        2.07067   0.00181   0.00000   0.35755   0.35703   2.42770
    D6       -0.03785   0.00109   0.00000   0.31543   0.31548   0.27763
    D7        3.13081   0.00038   0.00000  -0.00168  -0.00167   3.12915
         Item               Value     Threshold  Converged?
 Maximum Force            0.003509     0.000450     NO 
 RMS     Force            0.001540     0.000300     NO 
 Maximum Displacement     0.365875     0.001800     NO 
 RMS     Displacement     0.132875     0.001200     NO 
 Predicted change in Energy=-6.433210D-04
 GradGradGradGradGradGradGradGradGradGradGradGradGradGradGradGradGradGrad

                          Input orientation:                          
 ---------------------------------------------------------------------
 Center     Atomic      Atomic             Coordinates (Angstroms)
 Number     Number       Type             X           Y           Z
 ---------------------------------------------------------------------
      1          8           0        1.458432   -1.099908    0.190117
      2          6           0        2.013885    0.024390    0.008877
      3          8           0        1.426364    1.127148   -0.191371
      4          6           0        3.554003    0.028213    0.004456
      5         55           0       -1.240297   -0.030440   -0.005745
      6          1           0        3.910198   -0.400964   -0.941264
      7          1           0        3.936356   -0.613938    0.805112
      8          1           0        3.953770    1.040821    0.101487
 ---------------------------------------------------------------------
                    Distance matrix (angstroms):
                    1          2          3          4          5
     1  O    0.000000
     2  C    1.267052   0.000000
     3  O    2.259721   1.265446   0.000000
     4  C    2.387162   1.540129   2.402676   0.000000
     5  Cs   2.909512   3.254676   2.912996   4.794669   0.000000
     6  H    2.789211   2.163261   3.011129   1.097931   5.247864
     7  H    2.598940   2.176545   3.213163   1.095263   5.272162
     8  H    3.288964   2.192000   2.545781   1.092979   5.304472
                    6          7          8
     6  H    0.000000
     7  H    1.759508   0.000000
     8  H    1.779880   1.798227   0.000000
 Stoichiometry    C2H3CsO2
 Framework group  C1[X(C2H3CsO2)]
 Deg. of freedom    18
 Full point group                 C1      NOp   1
 Largest Abelian subgroup         C1      NOp   1
 Largest concise Abelian subgroup C1      NOp   1
                         Standard orientation:                         
 ---------------------------------------------------------------------
 Center     Atomic      Atomic             Coordinates (Angstroms)
 Number     Number       Type             X           Y           Z
 ---------------------------------------------------------------------
      1          8           0        1.443861   -1.121949    0.001614
      2          6           0        2.013407    0.009848    0.010304
      3          8           0        1.439764    1.137768    0.001145
      4          6           0        3.553436   -0.004703    0.000500
      5         55           0       -1.241232   -0.001445   -0.000485
      6          1           0        3.902366   -0.272651   -1.005435
      7          1           0        3.928943   -0.777345    0.679927
      8          1           0        3.966376    0.972018    0.265263
 ---------------------------------------------------------------------
 Rotational constants (GHZ):          11.4769929           0.9883249           0.9150952
 Basis read from rwf:  (5D, 7F)
 Pseudo-potential data read from rwf file.
 There are    78 symmetry adapted cartesian basis functions of A   symmetry.
 There are    74 symmetry adapted basis functions of A   symmetry.
    74 basis functions,   149 primitive gaussians,    78 cartesian basis functions
    20 alpha electrons       20 beta electrons
       nuclear repulsion energy       155.0947464470 Hartrees.
 NAtoms=    8 NActive=    8 NUniq=    8 SFac= 1.00D+00 NAtFMM=   60 NAOKFM=F Big=F
 Integral buffers will be    131072 words long.
 Raffenetti 2 integral format.
 Two-electron integral symmetry is turned on.
 One-electron integrals computed using PRISM.
   1 Symmetry operations used in ECPInt.
 ECPInt:  NShTT=     406 NPrTT=    2506 LenC2=     407 LenP2D=    2114.
 LDataN:  DoStor=T MaxTD1= 5 Len=  102
 NBasis=    74 RedAO= T EigKep=  7.29D-03  NBF=    74
 NBsUse=    74 1.00D-06 EigRej= -1.00D+00 NBFU=    74
 Defaulting to unpruned grid for atomic number  55.
 Initial guess from the checkpoint file:  "base_31.chk"
 B after Tr=    -0.000000    0.000000    0.000000
         Rot=    0.999807   -0.019662   -0.000056    0.000526 Ang=  -2.25 deg.
 ExpMin= 1.13D-02 ExpMax= 5.48D+03 ExpMxC= 8.25D+02 IAcc=3 IRadAn=         5 AccDes= 0.00D+00
 Harris functional with IExCor=  402 and IRadAn=       5 diagonalized for initial guess.
 HarFok:  IExCor=  402 AccDes= 0.00D+00 IRadAn=         5 IDoV= 1 UseB2=F ITyADJ=14
 ICtDFT=  3500011 ScaDFX=  1.000000  1.000000  1.000000  1.000000
 Defaulting to unpruned grid for atomic number  55.
 FoFCou: FMM=F IPFlag=           0 FMFlag=      100000 FMFlg1=           0
         NFxFlg=           0 DoJE=T BraDBF=F KetDBF=T FulRan=T
         wScrn=  0.000000 ICntrl=       500 IOpCl=  0 I1Cent=   200000004 NGrid=           0
         NMat0=    1 NMatS0=      1 NMatT0=    0 NMatD0=    1 NMtDS0=    0 NMtDT0=    0
 Petite list used in FoFCou.
 Keep R1 ints in memory in canonical form, NReq=4752931.
 Requested convergence on RMS density matrix=1.00D-08 within 128 cycles.
 Requested convergence on MAX density matrix=1.00D-06.
 Requested convergence on             energy=1.00D-06.
 No special actions if energy rises.
 Defaulting to unpruned grid for atomic number  55.
 SCF Done:  E(RB3LYP) =  -248.406246049     A.U. after   11 cycles
            NFock= 11  Conv=0.97D-08     -V/T= 2.0703
 DoSCS=F DFT=T ScalE2(SS,OS)=  1.000000  1.000000
 Range of M.O.s used for correlation:     1    74
 NBasis=    74 NAE=    20 NBE=    20 NFC=     0 NFV=     0
 NROrb=     74 NOA=    20 NOB=    20 NVA=    54 NVB=    54
   1 Symmetry operations used in ECPInt.
 ECPInt:  NShTT=     406 NPrTT=    2506 LenC2=     407 LenP2D=    2114.
 LDataN:  DoStor=T MaxTD1= 6 Len=  172
 Symmetrizing basis deriv contribution to polar:
 IMax=3 JMax=2 DiffMx= 0.00D+00
 G2DrvN: will do     9 centers at a time, making    1 passes.
 Calling FoFCou, ICntrl=  3107 FMM=F I1Cent=   0 AccDes= 0.00D+00.
 Defaulting to unpruned grid for atomic number  55.
 End of G2Drv F.D. properties file   721 does not exist.
 End of G2Drv F.D. properties file   722 does not exist.
 End of G2Drv F.D. properties file   788 does not exist.
          IDoAtm=11111111
          Differentiating once with respect to electric field.
                with respect to dipole field.
          Differentiating once with respect to nuclear coordinates.
 Defaulting to unpruned grid for atomic number  55.
 Keep R1 ints in memory in canonical form, NReq=4757101.
 Defaulting to unpruned grid for atomic number  55.
          There are    27 degrees of freedom in the 1st order CPHF.  IDoFFX=6 NUNeed=     3.
     24 vectors produced by pass  0 Test12= 4.00D-15 3.70D-09 XBig12= 1.02D+02 9.15D+00.
 AX will form    24 AO Fock derivatives at one time.
     24 vectors produced by pass  1 Test12= 4.00D-15 3.70D-09 XBig12= 2.14D+01 1.86D+00.
     24 vectors produced by pass  2 Test12= 4.00D-15 3.70D-09 XBig12= 2.21D-01 2.40D-01.
     24 vectors produced by pass  3 Test12= 4.00D-15 3.70D-09 XBig12= 6.28D-04 8.61D-03.
     24 vectors produced by pass  4 Test12= 4.00D-15 3.70D-09 XBig12= 1.02D-06 2.84D-04.
     15 vectors produced by pass  5 Test12= 4.00D-15 3.70D-09 XBig12= 7.88D-10 5.70D-06.
      4 vectors produced by pass  6 Test12= 4.00D-15 3.70D-09 XBig12= 7.18D-13 1.86D-07.
      2 vectors produced by pass  7 Test12= 4.00D-15 3.70D-09 XBig12= 5.72D-16 4.86D-09.
 InvSVY:  IOpt=1 It=  1 EMax= 4.44D-15
 Solved reduced A of dimension   141 with    27 vectors.
 Isotropic polarizability for W=    0.000000       51.11 Bohr**3.
 End of Minotr F.D. properties file   721 does not exist.
 End of Minotr F.D. properties file   722 does not exist.
 End of Minotr F.D. properties file   788 does not exist.
   1 Symmetry operations used in ECPInt.
 ECPInt:  NShTT=     406 NPrTT=    2506 LenC2=     407 LenP2D=    2114.
 LDataN:  DoStor=T MaxTD1= 7 Len=  274
 Calling FoFJK, ICntrl=    100127 FMM=F ISym2X=0 I1Cent= 0 IOpClX= 0 NMat=1 NMatS=1 NMatT=0.
 Defaulting to unpruned grid for atomic number  55.
 ***** Axes restored to original set *****
 -------------------------------------------------------------------
 Center     Atomic                   Forces (Hartrees/Bohr)
 Number     Number              X              Y              Z
 -------------------------------------------------------------------
      1        8          -0.000336597    0.000184460   -0.000051851
      2        6          -0.000031467   -0.000664862    0.000186928
      3        8           0.000174941    0.000188660    0.000003211
      4        6          -0.000040052   -0.000875799   -0.000405415
      5       55          -0.000015192    0.000007865   -0.000000575
      6        1           0.000049904    0.000395863   -0.000179015
      7        1           0.000073299    0.000585610    0.000292622
      8        1           0.000125164    0.000178203    0.000154095
 -------------------------------------------------------------------
 Cartesian Forces:  Max     0.000875799 RMS     0.000311169
 FormGI is forming the generalized inverse of G from B-inverse, IUseBI=4.

 GradGradGradGradGradGradGradGradGradGradGradGradGradGradGradGradGradGrad
 Berny optimization.
 Using GEDIIS/GDIIS optimizer.
 Internal  Forces:  Max     0.000567182 RMS     0.000243520
 Search for a local minimum.
 Step number   2 out of a maximum of   38
 All quantities printed in internal units (Hartrees-Bohrs-Radians)
 Mixed Optimization -- En-DIIS/RFO-DIIS
 Second derivative matrix not updated -- analytic derivatives used.
 DE= -5.17D-04 DEPred=-6.43D-04 R= 8.04D-01
 TightC=F SS=  1.41D+00  RLast= 7.62D-01 DXNew= 5.0454D-01 2.2856D+00
 Trust test= 8.04D-01 RLast= 7.62D-01 DXMaxT set to 5.05D-01
 ITU=  1  0
 Use linear search instead of GDIIS.
     Eigenvalues ---    0.00006   0.00923   0.01755   0.01967   0.05173
     Eigenvalues ---    0.05982   0.06019   0.11297   0.12055   0.13706
     Eigenvalues ---    0.17098   0.17496   0.27045   0.33426   0.34213
     Eigenvalues ---    0.34886   0.55330   0.68915
 RFO step:  Lambda=-8.60326139D-06 EMin= 5.65468434D-05
 Quintic linear search produced a step of -0.09829.
 Iteration  1 RMS(Cart)=  0.01671403 RMS(Int)=  0.00018304
 Iteration  2 RMS(Cart)=  0.00017245 RMS(Int)=  0.00003283
 Iteration  3 RMS(Cart)=  0.00000001 RMS(Int)=  0.00003283
 Variable       Old X    -DE/DX   Delta X   Delta X   Delta X     New X
                                 (Linear)    (Quad)   (Total)
    R1        2.39438  -0.00003  -0.00010  -0.00038  -0.00048   2.39390
    R2        5.49818  -0.00012   0.00173  -0.00087   0.00085   5.49903
    R3        2.39135   0.00009   0.00005   0.00046   0.00051   2.39186
    R4        2.91042   0.00021   0.00000   0.00096   0.00096   2.91139
    R5        6.15045   0.00007   0.00013   0.00061   0.00074   6.15119
    R6        5.50476   0.00006  -0.00152   0.00107  -0.00045   5.50431
    R7        2.07479   0.00002  -0.00035  -0.00014  -0.00049   2.07430
    R8        2.06975  -0.00010  -0.00039   0.00051   0.00011   2.06986
    R9        2.06543   0.00022   0.00076   0.00001   0.00077   2.06620
    A1        2.20478  -0.00007  -0.00001  -0.00037  -0.00039   2.20439
    A2        2.02750   0.00057   0.00061   0.00310   0.00371   2.03121
    A3        2.05066  -0.00049  -0.00057  -0.00269  -0.00326   2.04740
    A4        1.90279   0.00017   0.00179   0.00225   0.00411   1.90689
    A5        1.92361   0.00020   0.00202  -0.00087   0.00121   1.92482
    A6        1.94744  -0.00017  -0.00364  -0.00008  -0.00370   1.94374
    A7        1.86213   0.00031   0.00537  -0.00039   0.00510   1.86724
    A8        1.89648  -0.00015  -0.00314   0.00352   0.00041   1.89689
    A9        1.92901  -0.00034  -0.00235  -0.00428  -0.00662   1.92239
   A10        0.79714  -0.00000  -0.00003  -0.00008  -0.00011   0.79703
   A11        3.12859   0.00049   0.00128   0.00249   0.00377   3.13236
   A12        3.15229  -0.00000  -0.00109  -0.00056  -0.00165   3.15064
    D1        1.30223   0.00024  -0.02489  -0.00875  -0.03367   1.26855
    D2       -0.73613  -0.00035  -0.03393  -0.00910  -0.04299  -0.77912
    D3       -2.88621   0.00006  -0.02985  -0.00294  -0.03280  -2.91901
    D4       -1.81713   0.00023  -0.02605  -0.01062  -0.03670  -1.85383
    D5        2.42770  -0.00036  -0.03509  -0.01097  -0.04601   2.38169
    D6        0.27763   0.00005  -0.03101  -0.00481  -0.03583   0.24180
    D7        3.12915   0.00000   0.00016   0.00132   0.00149   3.13064
         Item               Value     Threshold  Converged?
 Maximum Force            0.000567     0.000450     NO 
 RMS     Force            0.000244     0.000300     YES
 Maximum Displacement     0.044791     0.001800     NO 
 RMS     Displacement     0.016717     0.001200     NO 
 Predicted change in Energy=-1.091475D-05
 GradGradGradGradGradGradGradGradGradGradGradGradGradGradGradGradGradGrad

                          Input orientation:                          
 ---------------------------------------------------------------------
 Center     Atomic      Atomic             Coordinates (Angstroms)
 Number     Number       Type             X           Y           Z
 ---------------------------------------------------------------------
      1          8           0        1.455588   -1.105803    0.166414
      2          6           0        2.013535    0.020318    0.007299
      3          8           0        1.427961    1.128630   -0.168164
      4          6           0        3.554154    0.026361    0.002438
      5         55           0       -1.241183   -0.025904   -0.004269
      6          1           0        3.914944   -0.414859   -0.935665
      7          1           0        3.938893   -0.596017    0.817517
      8          1           0        3.948819    1.042596    0.086097
 ---------------------------------------------------------------------
                    Distance matrix (angstroms):
                    1          2          3          4          5
     1  O    0.000000
     2  C    1.266796   0.000000
     3  O    2.259512   1.265717   0.000000
     4  C    2.390118   1.540639   2.400999   0.000000
     5  Cs   2.909963   3.255067   2.912756   4.795627   0.000000
     6  H    2.782161   2.166545   3.025971   1.097671   5.253992
     7  H    2.617370   2.177919   3.201680   1.095324   5.275752
     8  H    3.292153   2.190111   2.535108   1.093386   5.299621
                    6          7          8
     6  H    0.000000
     7  H    1.762680   0.000000
     8  H    1.780259   1.794472   0.000000
 Stoichiometry    C2H3CsO2
 Framework group  C1[X(C2H3CsO2)]
 Deg. of freedom    18
 Full point group                 C1      NOp   1
 Largest Abelian subgroup         C1      NOp   1
 Largest concise Abelian subgroup C1      NOp   1
                         Standard orientation:                         
 ---------------------------------------------------------------------
 Center     Atomic      Atomic             Coordinates (Angstroms)
 Number     Number       Type             X           Y           Z
 ---------------------------------------------------------------------
      1          8           0        1.443232   -1.123814    0.000986
      2          6           0        2.013627    0.007275    0.008667
      3          8           0        1.440355    1.135696    0.000792
      4          6           0        3.554210   -0.002905    0.000379
      5         55           0       -1.241416   -0.001074   -0.000372
      6          1           0        3.908899   -0.304362   -0.993704
      7          1           0        3.932889   -0.743230    0.713300
      8          1           0        3.960385    0.985375    0.232366
 ---------------------------------------------------------------------
 Rotational constants (GHZ):          11.4796557           0.9879903           0.9148462
 Basis read from rwf:  (5D, 7F)
 Pseudo-potential data read from rwf file.
 There are    78 symmetry adapted cartesian basis functions of A   symmetry.
 There are    74 symmetry adapted basis functions of A   symmetry.
    74 basis functions,   149 primitive gaussians,    78 cartesian basis functions
    20 alpha electrons       20 beta electrons
       nuclear repulsion energy       155.0755071740 Hartrees.
 NAtoms=    8 NActive=    8 NUniq=    8 SFac= 1.00D+00 NAtFMM=   60 NAOKFM=F Big=F
 Integral buffers will be    131072 words long.
 Raffenetti 2 integral format.
 Two-electron integral symmetry is turned on.
 One-electron integrals computed using PRISM.
   1 Symmetry operations used in ECPInt.
 ECPInt:  NShTT=     406 NPrTT=    2506 LenC2=     407 LenP2D=    2115.
 LDataN:  DoStor=T MaxTD1= 5 Len=  102
 NBasis=    74 RedAO= T EigKep=  7.29D-03  NBF=    74
 NBsUse=    74 1.00D-06 EigRej= -1.00D+00 NBFU=    74
 Defaulting to unpruned grid for atomic number  55.
 Initial guess from the checkpoint file:  "base_31.chk"
 B after Tr=     0.000000    0.000000   -0.000000
         Rot=    0.999997    0.002484    0.000020    0.000001 Ang=   0.28 deg.
 ExpMin= 1.13D-02 ExpMax= 5.48D+03 ExpMxC= 8.25D+02 IAcc=3 IRadAn=         5 AccDes= 0.00D+00
 Harris functional with IExCor=  402 and IRadAn=       5 diagonalized for initial guess.
 HarFok:  IExCor=  402 AccDes= 0.00D+00 IRadAn=         5 IDoV= 1 UseB2=F ITyADJ=14
 ICtDFT=  3500011 ScaDFX=  1.000000  1.000000  1.000000  1.000000
 Defaulting to unpruned grid for atomic number  55.
 FoFCou: FMM=F IPFlag=           0 FMFlag=      100000 FMFlg1=           0
         NFxFlg=           0 DoJE=T BraDBF=F KetDBF=T FulRan=T
         wScrn=  0.000000 ICntrl=       500 IOpCl=  0 I1Cent=   200000004 NGrid=           0
         NMat0=    1 NMatS0=      1 NMatT0=    0 NMatD0=    1 NMtDS0=    0 NMtDT0=    0
 Petite list used in FoFCou.
 Keep R1 ints in memory in canonical form, NReq=4752931.
 Requested convergence on RMS density matrix=1.00D-08 within 128 cycles.
 Requested convergence on MAX density matrix=1.00D-06.
 Requested convergence on             energy=1.00D-06.
 No special actions if energy rises.
 Defaulting to unpruned grid for atomic number  55.
 SCF Done:  E(RB3LYP) =  -248.406257212     A.U. after    9 cycles
            NFock=  9  Conv=0.75D-08     -V/T= 2.0703
 DoSCS=F DFT=T ScalE2(SS,OS)=  1.000000  1.000000
 Range of M.O.s used for correlation:     1    74
 NBasis=    74 NAE=    20 NBE=    20 NFC=     0 NFV=     0
 NROrb=     74 NOA=    20 NOB=    20 NVA=    54 NVB=    54
   1 Symmetry operations used in ECPInt.
 ECPInt:  NShTT=     406 NPrTT=    2506 LenC2=     407 LenP2D=    2115.
 LDataN:  DoStor=T MaxTD1= 6 Len=  172
 Symmetrizing basis deriv contribution to polar:
 IMax=3 JMax=2 DiffMx= 0.00D+00
 G2DrvN: will do     9 centers at a time, making    1 passes.
 Calling FoFCou, ICntrl=  3107 FMM=F I1Cent=   0 AccDes= 0.00D+00.
 Defaulting to unpruned grid for atomic number  55.
 End of G2Drv F.D. properties file   721 does not exist.
 End of G2Drv F.D. properties file   722 does not exist.
 End of G2Drv F.D. properties file   788 does not exist.
          IDoAtm=11111111
          Differentiating once with respect to electric field.
                with respect to dipole field.
          Differentiating once with respect to nuclear coordinates.
 Defaulting to unpruned grid for atomic number  55.
 Keep R1 ints in memory in canonical form, NReq=4757101.
 Defaulting to unpruned grid for atomic number  55.
          There are    27 degrees of freedom in the 1st order CPHF.  IDoFFX=6 NUNeed=     3.
     24 vectors produced by pass  0 Test12= 4.00D-15 3.70D-09 XBig12= 1.02D+02 9.15D+00.
 AX will form    24 AO Fock derivatives at one time.
     24 vectors produced by pass  1 Test12= 4.00D-15 3.70D-09 XBig12= 2.14D+01 1.85D+00.
     24 vectors produced by pass  2 Test12= 4.00D-15 3.70D-09 XBig12= 2.21D-01 2.40D-01.
     24 vectors produced by pass  3 Test12= 4.00D-15 3.70D-09 XBig12= 6.27D-04 8.62D-03.
     24 vectors produced by pass  4 Test12= 4.00D-15 3.70D-09 XBig12= 1.01D-06 2.82D-04.
     15 vectors produced by pass  5 Test12= 4.00D-15 3.70D-09 XBig12= 7.78D-10 5.89D-06.
      4 vectors produced by pass  6 Test12= 4.00D-15 3.70D-09 XBig12= 7.14D-13 1.91D-07.
      2 vectors produced by pass  7 Test12= 4.00D-15 3.70D-09 XBig12= 5.66D-16 4.94D-09.
 InvSVY:  IOpt=1 It=  1 EMax= 5.33D-15
 Solved reduced A of dimension   141 with    27 vectors.
 Isotropic polarizability for W=    0.000000       51.11 Bohr**3.
 End of Minotr F.D. properties file   721 does not exist.
 End of Minotr F.D. properties file   722 does not exist.
 End of Minotr F.D. properties file   788 does not exist.
   1 Symmetry operations used in ECPInt.
 ECPInt:  NShTT=     406 NPrTT=    2506 LenC2=     407 LenP2D=    2115.
 LDataN:  DoStor=T MaxTD1= 7 Len=  274
 Calling FoFJK, ICntrl=    100127 FMM=F ISym2X=0 I1Cent= 0 IOpClX= 0 NMat=1 NMatS=1 NMatT=0.
 Defaulting to unpruned grid for atomic number  55.
 ***** Axes restored to original set *****
 -------------------------------------------------------------------
 Center     Atomic                   Forces (Hartrees/Bohr)
 Number     Number              X              Y              Z
 -------------------------------------------------------------------
      1        8           0.000027764   -0.000017423   -0.000019015
      2        6           0.000007567    0.000052763    0.000016724
      3        8          -0.000011026   -0.000013660    0.000000667
      4        6          -0.000005349    0.000075216    0.000038243
      5       55           0.000001582   -0.000001172    0.000000269
      6        1           0.000000191   -0.000039485    0.000017077
      7        1          -0.000009929   -0.000045143   -0.000024544
      8        1          -0.000010801   -0.000011096   -0.000029421
 -------------------------------------------------------------------
 Cartesian Forces:  Max     0.000075216 RMS     0.000027167
 FormGI is forming the generalized inverse of G from B-inverse, IUseBI=4.

 GradGradGradGradGradGradGradGradGradGradGradGradGradGradGradGradGradGrad
 Berny optimization.
 Using GEDIIS/GDIIS optimizer.
 Internal  Forces:  Max     0.000044307 RMS     0.000020887
 Search for a local minimum.
 Step number   3 out of a maximum of   38
 All quantities printed in internal units (Hartrees-Bohrs-Radians)
 Mixed Optimization -- En-DIIS/RFO-DIIS
 Swapping is turned off.
 Second derivative matrix not updated -- analytic derivatives used.
 DE= -1.12D-05 DEPred=-1.09D-05 R= 1.02D+00
 TightC=F SS=  1.41D+00  RLast= 9.46D-02 DXNew= 8.4853D-01 2.8389D-01
 Trust test= 1.02D+00 RLast= 9.46D-02 DXMaxT set to 5.05D-01
 ITU=  1  1  0
     Eigenvalues ---    0.00000   0.00915   0.01754   0.01965   0.05185
     Eigenvalues ---    0.05982   0.06006   0.11299   0.12048   0.13685
     Eigenvalues ---    0.17099   0.17473   0.26996   0.33481   0.34175
     Eigenvalues ---    0.34825   0.55319   0.68913
 En-DIIS/RFO-DIIS/Sim-DIIS IScMMF=       -3 using points:     3    2
 RFO step:  Lambda=-1.62664763D-05.
 RFO step:  ModMin= 1 Lambda=-1.62664763D-05 EMin= 4.31442098D-06
 Using NR instead of RFO step for point 1.
 RFO step:  ModMin= 1 Lambda=-1.62664763D-05 EMin= 4.31442098D-06
 Using NR instead of RFO step for point 2.
 DidBck=F Rises=F RFO-DIIS coefs:    3.00000   -2.00000
 Iteration  1 RMS(Cart)=  0.08671988 RMS(Int)=  0.24626081
 Iteration  2 RMS(Cart)=  0.08540781 RMS(Int)=  0.15355002
 Iteration  3 RMS(Cart)=  0.08532830 RMS(Int)=  0.06108503
 Iteration  4 RMS(Cart)=  0.05609739 RMS(Int)=  0.00199466
 Iteration  5 RMS(Cart)=  0.00190383 RMS(Int)=  0.00031495
 Iteration  6 RMS(Cart)=  0.00000125 RMS(Int)=  0.00031495
 Iteration  7 RMS(Cart)=  0.00000000 RMS(Int)=  0.00031495
 Variable       Old X    -DE/DX   Delta X   Delta X   Delta X     New X
                                 (Linear)    (Quad)   (Total)
    R1        2.39390   0.00000  -0.00097   0.00301   0.00205   2.39595
    R2        5.49903   0.00001   0.00171  -0.00733  -0.00558   5.49345
    R3        2.39186  -0.00001   0.00102  -0.00338  -0.00235   2.38951
    R4        2.91139  -0.00003   0.00193  -0.00191   0.00002   2.91140
    R5        6.15119  -0.00001   0.00148  -0.00147   0.00001   6.15120
    R6        5.50431  -0.00000  -0.00091   0.00698   0.00601   5.51032
    R7        2.07430   0.00000  -0.00099  -0.00367  -0.00465   2.06964
    R8        2.06986   0.00000   0.00023   0.00675   0.00698   2.07684
    R9        2.06620  -0.00002   0.00154  -0.00400  -0.00246   2.06374
    A1        2.20439   0.00001  -0.00077   0.00123   0.00013   2.20452
    A2        2.03121  -0.00004   0.00742  -0.02449  -0.01732   2.01389
    A3        2.04740   0.00004  -0.00652   0.02402   0.01702   2.06442
    A4        1.90689  -0.00001   0.00821   0.00811   0.01569   1.92259
    A5        1.92482  -0.00002   0.00242  -0.03435  -0.03209   1.89273
    A6        1.94374   0.00001  -0.00740   0.02248   0.01443   1.95817
    A7        1.86724  -0.00003   0.01020  -0.03417  -0.02410   1.84314
    A8        1.89689   0.00001   0.00082   0.04675   0.04658   1.94348
    A9        1.92239   0.00004  -0.01324  -0.00966  -0.02308   1.89931
   A10        0.79703   0.00000  -0.00022   0.00022  -0.00006   0.79697
   A11        3.13236  -0.00004   0.00753  -0.02690  -0.01960   3.11276
   A12        3.15064   0.00001  -0.00330  -0.01945  -0.02259   3.12805
    D1        1.26855  -0.00003  -0.06735  -0.67914  -0.74676   0.52179
    D2       -0.77912   0.00002  -0.08597  -0.62238  -0.70827  -1.48739
    D3       -2.91901  -0.00002  -0.06560  -0.60147  -0.66671   2.69746
    D4       -1.85383  -0.00002  -0.07340  -0.71917  -0.79295  -2.64677
    D5        2.38169   0.00003  -0.09202  -0.66240  -0.75446   1.62723
    D6        0.24180  -0.00001  -0.07166  -0.64149  -0.71290  -0.47110
    D7        3.13064  -0.00001   0.00297   0.02253   0.02533  -3.12722
         Item               Value     Threshold  Converged?
 Maximum Force            0.000044     0.000450     YES
 RMS     Force            0.000021     0.000300     YES
 Maximum Displacement     0.860636     0.001800     NO 
 RMS     Displacement     0.309260     0.001200     NO 
 Predicted change in Energy=-2.578232D-05
 GradGradGradGradGradGradGradGradGradGradGradGradGradGradGradGradGradGrad

                          Input orientation:                          
 ---------------------------------------------------------------------
 Center     Atomic      Atomic             Coordinates (Angstroms)
 Number     Number       Type             X           Y           Z
 ---------------------------------------------------------------------
      1          8           0        1.464270   -1.070537   -0.289015
      2          6           0        2.013670    0.039094   -0.016241
      3          8           0        1.420266    1.115242    0.281534
      4          6           0        3.554294    0.032218   -0.021084
      5         55           0       -1.240164   -0.047017    0.009577
      6          1           0        3.926125   -0.711997   -0.733380
      7          1           0        3.903638   -0.302625    0.965669
      8          1           0        3.970613    1.020946   -0.225391
 ---------------------------------------------------------------------
                    Distance matrix (angstroms):
                    1          2          3          4          5
     1  O    0.000000
     2  C    1.267883   0.000000
     3  O    2.259445   1.264473   0.000000
     4  C    2.378247   1.540647   2.412176   0.000000
     5  Cs   2.907010   3.255075   2.915937   4.795210   0.000000
     6  H    2.527200   2.176215   3.263155   1.095208   5.261627
     7  H    2.848585   2.157058   2.940327   1.099019   5.238143
     8  H    3.264982   2.199410   2.601948   1.092083   5.324279
                    6          7          8
     6  H    0.000000
     7  H    1.747816   0.000000
     8  H    1.806412   1.781839   0.000000
 Stoichiometry    C2H3CsO2
 Framework group  C1[X(C2H3CsO2)]
 Deg. of freedom    18
 Full point group                 C1      NOp   1
 Largest Abelian subgroup         C1      NOp   1
 Largest concise Abelian subgroup C1      NOp   1
                         Standard orientation:                         
 ---------------------------------------------------------------------
 Center     Atomic      Atomic             Coordinates (Angstroms)
 Number     Number       Type             X           Y           Z
 ---------------------------------------------------------------------
      1          8           0        1.445080   -1.113675   -0.004972
      2          6           0        2.013634    0.019549   -0.013734
      3          8           0        1.438842    1.145758   -0.001159
      4          6           0        3.553866   -0.014098   -0.001517
      5         55           0       -1.241331   -0.002877    0.000788
      6          1           0        3.915538   -0.919322   -0.500761
      7          1           0        3.891622   -0.096483    1.041064
      8          1           0        3.989655    0.884647   -0.443093
 ---------------------------------------------------------------------
 Rotational constants (GHZ):          11.4759094           0.9881724           0.9149193
 Basis read from rwf:  (5D, 7F)
 Pseudo-potential data read from rwf file.
 There are    78 symmetry adapted cartesian basis functions of A   symmetry.
 There are    74 symmetry adapted basis functions of A   symmetry.
    74 basis functions,   149 primitive gaussians,    78 cartesian basis functions
    20 alpha electrons       20 beta electrons
       nuclear repulsion energy       155.0908743964 Hartrees.
 NAtoms=    8 NActive=    8 NUniq=    8 SFac= 1.00D+00 NAtFMM=   60 NAOKFM=F Big=F
 Integral buffers will be    131072 words long.
 Raffenetti 2 integral format.
 Two-electron integral symmetry is turned on.
 One-electron integrals computed using PRISM.
   1 Symmetry operations used in ECPInt.
 ECPInt:  NShTT=     406 NPrTT=    2506 LenC2=     407 LenP2D=    2113.
 LDataN:  DoStor=T MaxTD1= 5 Len=  102
 NBasis=    74 RedAO= T EigKep=  7.30D-03  NBF=    74
 NBsUse=    74 1.00D-06 EigRej= -1.00D+00 NBFU=    74
 Defaulting to unpruned grid for atomic number  55.
 Initial guess from the checkpoint file:  "base_31.chk"
 B after Tr=    -0.000000   -0.000000    0.000000
         Rot=    0.998970    0.045380    0.000169    0.000038 Ang=   5.20 deg.
 ExpMin= 1.13D-02 ExpMax= 5.48D+03 ExpMxC= 8.25D+02 IAcc=3 IRadAn=         5 AccDes= 0.00D+00
 Harris functional with IExCor=  402 and IRadAn=       5 diagonalized for initial guess.
 HarFok:  IExCor=  402 AccDes= 0.00D+00 IRadAn=         5 IDoV= 1 UseB2=F ITyADJ=14
 ICtDFT=  3500011 ScaDFX=  1.000000  1.000000  1.000000  1.000000
 Defaulting to unpruned grid for atomic number  55.
 FoFCou: FMM=F IPFlag=           0 FMFlag=      100000 FMFlg1=           0
         NFxFlg=           0 DoJE=T BraDBF=F KetDBF=T FulRan=T
         wScrn=  0.000000 ICntrl=       500 IOpCl=  0 I1Cent=   200000004 NGrid=           0
         NMat0=    1 NMatS0=      1 NMatT0=    0 NMatD0=    1 NMtDS0=    0 NMtDT0=    0
 Petite list used in FoFCou.
 Keep R1 ints in memory in canonical form, NReq=4752931.
 Requested convergence on RMS density matrix=1.00D-08 within 128 cycles.
 Requested convergence on MAX density matrix=1.00D-06.
 Requested convergence on             energy=1.00D-06.
 No special actions if energy rises.
 Defaulting to unpruned grid for atomic number  55.
 SCF Done:  E(RB3LYP) =  -248.405980209     A.U. after   12 cycles
            NFock= 12  Conv=0.38D-08     -V/T= 2.0703
 DoSCS=F DFT=T ScalE2(SS,OS)=  1.000000  1.000000
 Range of M.O.s used for correlation:     1    74
 NBasis=    74 NAE=    20 NBE=    20 NFC=     0 NFV=     0
 NROrb=     74 NOA=    20 NOB=    20 NVA=    54 NVB=    54
   1 Symmetry operations used in ECPInt.
 ECPInt:  NShTT=     406 NPrTT=    2506 LenC2=     407 LenP2D=    2113.
 LDataN:  DoStor=T MaxTD1= 6 Len=  172
 Symmetrizing basis deriv contribution to polar:
 IMax=3 JMax=2 DiffMx= 0.00D+00
 G2DrvN: will do     9 centers at a time, making    1 passes.
 Calling FoFCou, ICntrl=  3107 FMM=F I1Cent=   0 AccDes= 0.00D+00.
 Defaulting to unpruned grid for atomic number  55.
 End of G2Drv F.D. properties file   721 does not exist.
 End of G2Drv F.D. properties file   722 does not exist.
 End of G2Drv F.D. properties file   788 does not exist.
          IDoAtm=11111111
          Differentiating once with respect to electric field.
                with respect to dipole field.
          Differentiating once with respect to nuclear coordinates.
 Defaulting to unpruned grid for atomic number  55.
 Keep R1 ints in memory in canonical form, NReq=4757101.
 Defaulting to unpruned grid for atomic number  55.
          There are    27 degrees of freedom in the 1st order CPHF.  IDoFFX=6 NUNeed=     3.
     24 vectors produced by pass  0 Test12= 4.00D-15 3.70D-09 XBig12= 1.02D+02 9.09D+00.
 AX will form    24 AO Fock derivatives at one time.
     24 vectors produced by pass  1 Test12= 4.00D-15 3.70D-09 XBig12= 2.14D+01 1.87D+00.
     24 vectors produced by pass  2 Test12= 4.00D-15 3.70D-09 XBig12= 2.22D-01 2.37D-01.
     24 vectors produced by pass  3 Test12= 4.00D-15 3.70D-09 XBig12= 6.27D-04 8.58D-03.
     24 vectors produced by pass  4 Test12= 4.00D-15 3.70D-09 XBig12= 1.03D-06 2.85D-04.
     14 vectors produced by pass  5 Test12= 4.00D-15 3.70D-09 XBig12= 9.69D-10 5.34D-06.
      3 vectors produced by pass  6 Test12= 4.00D-15 3.70D-09 XBig12= 8.74D-13 1.81D-07.
      1 vectors produced by pass  7 Test12= 4.00D-15 3.70D-09 XBig12= 6.29D-16 5.48D-09.
 InvSVY:  IOpt=1 It=  1 EMax= 7.99D-15
 Solved reduced A of dimension   138 with    27 vectors.
 Isotropic polarizability for W=    0.000000       51.13 Bohr**3.
 End of Minotr F.D. properties file   721 does not exist.
 End of Minotr F.D. properties file   722 does not exist.
 End of Minotr F.D. properties file   788 does not exist.
   1 Symmetry operations used in ECPInt.
 ECPInt:  NShTT=     406 NPrTT=    2506 LenC2=     407 LenP2D=    2113.
 LDataN:  DoStor=T MaxTD1= 7 Len=  274
 Calling FoFJK, ICntrl=    100127 FMM=F ISym2X=0 I1Cent= 0 IOpClX= 0 NMat=1 NMatS=1 NMatT=0.
 Defaulting to unpruned grid for atomic number  55.
 ***** Axes restored to original set *****
 -------------------------------------------------------------------
 Center     Atomic                   Forces (Hartrees/Bohr)
 Number     Number              X              Y              Z
 -------------------------------------------------------------------
      1        8          -0.001742069    0.000609899    0.000576293
      2        6           0.000242207   -0.003837648   -0.002218604
      3        8           0.001504087    0.000995673    0.000292007
      4        6          -0.000383763   -0.003970490    0.002188136
      5       55           0.000009470    0.000098881    0.000016241
      6        1          -0.000319416    0.002533071   -0.001797858
      7        1           0.000146149    0.002765170    0.000796501
      8        1           0.000543336    0.000805444    0.000147284
 -------------------------------------------------------------------
 Cartesian Forces:  Max     0.003970490 RMS     0.001664766
 FormGI is forming the generalized inverse of G from B-inverse, IUseBI=4.

 GradGradGradGradGradGradGradGradGradGradGradGradGradGradGradGradGradGrad
 Berny optimization.
 Using GEDIIS/GDIIS optimizer.
 Internal  Forces:  Max     0.003243485 RMS     0.001335319
 Search for a local minimum.
 Step number   4 out of a maximum of   38
 All quantities printed in internal units (Hartrees-Bohrs-Radians)
 Mixed Optimization -- RFO/linear search
 Second derivative matrix not updated -- analytic derivatives used.
 DE=  2.77D-04 DEPred=-2.58D-05 R=-1.07D+01
 Trust test=-1.07D+01 RLast= 1.79D+00 DXMaxT set to 2.52D-01
 ITU= -1  1  1  0
 Use linear search instead of GDIIS.
     Eigenvalues ---    0.00008   0.00975   0.01746   0.01971   0.05108
     Eigenvalues ---    0.05881   0.06147   0.11278   0.12002   0.13735
     Eigenvalues ---    0.16996   0.17583   0.27019   0.33198   0.34284
     Eigenvalues ---    0.35018   0.55343   0.68964
 RFO step:  Lambda=-9.56113033D-05 EMin= 7.57157180D-05
 Quintic linear search produced a step of -0.78203.
 Iteration  1 RMS(Cart)=  0.08783528 RMS(Int)=  0.05094204
 Iteration  2 RMS(Cart)=  0.04749144 RMS(Int)=  0.00155961
 Iteration  3 RMS(Cart)=  0.00144693 RMS(Int)=  0.00016948
 Iteration  4 RMS(Cart)=  0.00000060 RMS(Int)=  0.00016948
 Variable       Old X    -DE/DX   Delta X   Delta X   Delta X     New X
                                 (Linear)    (Quad)   (Total)
    R1        2.39595   0.00005  -0.00161  -0.00168  -0.00329   2.39267
    R2        5.49345  -0.00052   0.00436   0.00441   0.00876   5.50221
    R3        2.38951   0.00023   0.00184   0.00185   0.00369   2.39319
    R4        2.91140  -0.00003  -0.00001   0.00035   0.00033   2.91174
    R5        6.15120   0.00003  -0.00001   0.00013   0.00012   6.15132
    R6        5.51032   0.00048  -0.00470  -0.00485  -0.00954   5.50079
    R7        2.06964  -0.00066   0.00364  -0.00260   0.00104   2.07068
    R8        2.07684  -0.00008  -0.00546   0.00040  -0.00506   2.07178
    R9        2.06374   0.00091   0.00193   0.00207   0.00399   2.06773
    A1        2.20452  -0.00003  -0.00010  -0.00031  -0.00032   2.20420
    A2        2.01389   0.00324   0.01355   0.01426   0.02788   2.04176
    A3        2.06442  -0.00322  -0.01331  -0.01404  -0.02722   2.03720
    A4        1.92259   0.00023  -0.01227   0.01197  -0.00050   1.92209
    A5        1.89273   0.00069   0.02509   0.00283   0.02781   1.92054
    A6        1.95817  -0.00071  -0.01129  -0.01392  -0.02501   1.93316
    A7        1.84314   0.00217   0.01884   0.02163   0.03997   1.88311
    A8        1.94348  -0.00093  -0.03643  -0.00127  -0.03759   1.90589
    A9        1.89931  -0.00126   0.01805  -0.01946  -0.00114   1.89816
   A10        0.79697   0.00005   0.00005   0.00000   0.00007   0.79704
   A11        3.11276   0.00301   0.01533   0.01600   0.03140   3.14416
   A12        3.12805  -0.00011   0.01766  -0.00216   0.01556   3.14361
    D1        0.52179   0.00181   0.58399  -0.25187   0.33238   0.85418
    D2       -1.48739  -0.00131   0.55389  -0.28576   0.26783  -1.21956
    D3        2.69746   0.00025   0.52139  -0.25469   0.26678   2.96424
    D4       -2.64677   0.00159   0.62011  -0.25548   0.36486  -2.28191
    D5        1.62723  -0.00152   0.59001  -0.28937   0.30031   1.92753
    D6       -0.47110   0.00004   0.55751  -0.25830   0.29925  -0.17185
    D7       -3.12722   0.00016  -0.01981   0.00182  -0.01805   3.13791
         Item               Value     Threshold  Converged?
 Maximum Force            0.003243     0.000450     NO 
 RMS     Force            0.001335     0.000300     NO 
 Maximum Displacement     0.355573     0.001800     NO 
 RMS     Displacement     0.133231     0.001200     NO 
 Predicted change in Energy=-2.050126D-04
 GradGradGradGradGradGradGradGradGradGradGradGradGradGradGradGradGradGrad

                          Input orientation:                          
 ---------------------------------------------------------------------
 Center     Atomic      Atomic             Coordinates (Angstroms)
 Number     Number       Type             X           Y           Z
 ---------------------------------------------------------------------
      1          8           0        1.448695   -1.121112   -0.102232
      2          6           0        2.013493    0.007687   -0.002553
      3          8           0        1.434302    1.129812    0.093373
      4          6           0        3.554255    0.021233   -0.005506
      5         55           0       -1.241582   -0.012093   -0.001412
      6          1           0        3.935012   -0.579230   -0.839262
      7          1           0        3.935556   -0.414765    0.925340
      8          1           0        3.932981    1.043793   -0.096080
 ---------------------------------------------------------------------
                    Distance matrix (angstroms):
                    1          2          3          4          5
     1  O    0.000000
     2  C    1.266144   0.000000
     3  O    2.259453   1.266424   0.000000
     4  C    2.397435   1.540824   2.394353   0.000000
     5  Cs   2.911645   3.255136   2.910891   4.795955   0.000000
     6  H    2.649269   2.176416   3.169256   1.095756   5.274540
     7  H    2.781961   2.175724   3.055185   1.096339   5.274824
     8  H    3.295228   2.183276   2.507327   1.094196   5.282042
                    6          7          8
     6  H    0.000000
     7  H    1.772250   0.000000
     8  H    1.785085   1.780645   0.000000
 Stoichiometry    C2H3CsO2
 Framework group  C1[X(C2H3CsO2)]
 Deg. of freedom    18
 Full point group                 C1      NOp   1
 Largest Abelian subgroup         C1      NOp   1
 Largest concise Abelian subgroup C1      NOp   1
                         Standard orientation:                         
 ---------------------------------------------------------------------
 Center     Atomic      Atomic             Coordinates (Angstroms)
 Number     Number       Type             X           Y           Z
 ---------------------------------------------------------------------
      1          8           0        1.441830   -1.130244   -0.000933
      2          6           0        2.013680   -0.000597    0.001386
      3          8           0        1.441524    1.129209   -0.000917
      4          6           0        3.554499    0.003037   -0.000759
      5         55           0       -1.241456    0.000090    0.000076
      6          1           0        3.932063   -0.669709   -0.778923
      7          1           0        3.932352   -0.353115    0.964820
      8          1           0        3.939747    1.011536   -0.179020
 ---------------------------------------------------------------------
 Rotational constants (GHZ):          11.4809177           0.9878722           0.9148150
 Basis read from rwf:  (5D, 7F)
 Pseudo-potential data read from rwf file.
 There are    78 symmetry adapted cartesian basis functions of A   symmetry.
 There are    74 symmetry adapted basis functions of A   symmetry.
    74 basis functions,   149 primitive gaussians,    78 cartesian basis functions
    20 alpha electrons       20 beta electrons
       nuclear repulsion energy       155.0678266716 Hartrees.
 NAtoms=    8 NActive=    8 NUniq=    8 SFac= 1.00D+00 NAtFMM=   60 NAOKFM=F Big=F
 Integral buffers will be    131072 words long.
 Raffenetti 2 integral format.
 Two-electron integral symmetry is turned on.
 One-electron integrals computed using PRISM.
   1 Symmetry operations used in ECPInt.
 ECPInt:  NShTT=     406 NPrTT=    2506 LenC2=     407 LenP2D=    2117.
 LDataN:  DoStor=T MaxTD1= 5 Len=  102
 NBasis=    74 RedAO= T EigKep=  7.24D-03  NBF=    74
 NBsUse=    74 1.00D-06 EigRej= -1.00D+00 NBFU=    74
 Defaulting to unpruned grid for atomic number  55.
 Lowest energy guess from the checkpoint file:  "base_31.chk"
 B after Tr=    -0.000000   -0.000000   -0.000000
         Rot=    0.999610    0.027927    0.000081   -0.000030 Ang=   3.20 deg.
 B after Tr=     0.000000    0.000000   -0.000000
         Rot=    0.999811   -0.019416   -0.000173   -0.000057 Ang=  -2.23 deg.
 Keep R1 ints in memory in canonical form, NReq=4752931.
 Requested convergence on RMS density matrix=1.00D-08 within 128 cycles.
 Requested convergence on MAX density matrix=1.00D-06.
 Requested convergence on             energy=1.00D-06.
 No special actions if energy rises.
 Defaulting to unpruned grid for atomic number  55.
 SCF Done:  E(RB3LYP) =  -248.406156109     A.U. after   11 cycles
            NFock= 11  Conv=0.24D-08     -V/T= 2.0703
 DoSCS=F DFT=T ScalE2(SS,OS)=  1.000000  1.000000
 Range of M.O.s used for correlation:     1    74
 NBasis=    74 NAE=    20 NBE=    20 NFC=     0 NFV=     0
 NROrb=     74 NOA=    20 NOB=    20 NVA=    54 NVB=    54
   1 Symmetry operations used in ECPInt.
 ECPInt:  NShTT=     406 NPrTT=    2506 LenC2=     407 LenP2D=    2117.
 LDataN:  DoStor=T MaxTD1= 6 Len=  172
 Symmetrizing basis deriv contribution to polar:
 IMax=3 JMax=2 DiffMx= 0.00D+00
 G2DrvN: will do     9 centers at a time, making    1 passes.
 Calling FoFCou, ICntrl=  3107 FMM=F I1Cent=   0 AccDes= 0.00D+00.
 Defaulting to unpruned grid for atomic number  55.
 End of G2Drv F.D. properties file   721 does not exist.
 End of G2Drv F.D. properties file   722 does not exist.
 End of G2Drv F.D. properties file   788 does not exist.
          IDoAtm=11111111
          Differentiating once with respect to electric field.
                with respect to dipole field.
          Differentiating once with respect to nuclear coordinates.
 Defaulting to unpruned grid for atomic number  55.
 Keep R1 ints in memory in canonical form, NReq=4757101.
 Defaulting to unpruned grid for atomic number  55.
          There are    27 degrees of freedom in the 1st order CPHF.  IDoFFX=6 NUNeed=     3.
     24 vectors produced by pass  0 Test12= 4.00D-15 3.70D-09 XBig12= 1.02D+02 9.15D+00.
 AX will form    24 AO Fock derivatives at one time.
     24 vectors produced by pass  1 Test12= 4.00D-15 3.70D-09 XBig12= 2.14D+01 1.85D+00.
     24 vectors produced by pass  2 Test12= 4.00D-15 3.70D-09 XBig12= 2.18D-01 2.38D-01.
     24 vectors produced by pass  3 Test12= 4.00D-15 3.70D-09 XBig12= 6.21D-04 8.61D-03.
     24 vectors produced by pass  4 Test12= 4.00D-15 3.70D-09 XBig12= 9.90D-07 2.78D-04.
     14 vectors produced by pass  5 Test12= 4.00D-15 3.70D-09 XBig12= 7.47D-10 5.97D-06.
      4 vectors produced by pass  6 Test12= 4.00D-15 3.70D-09 XBig12= 7.24D-13 1.95D-07.
      2 vectors produced by pass  7 Test12= 4.00D-15 3.70D-09 XBig12= 6.32D-16 4.80D-09.
 InvSVY:  IOpt=1 It=  1 EMax= 3.55D-15
 Solved reduced A of dimension   140 with    27 vectors.
 Isotropic polarizability for W=    0.000000       51.13 Bohr**3.
 End of Minotr F.D. properties file   721 does not exist.
 End of Minotr F.D. properties file   722 does not exist.
 End of Minotr F.D. properties file   788 does not exist.
   1 Symmetry operations used in ECPInt.
 ECPInt:  NShTT=     406 NPrTT=    2506 LenC2=     407 LenP2D=    2117.
 LDataN:  DoStor=T MaxTD1= 7 Len=  274
 Calling FoFJK, ICntrl=    100127 FMM=F ISym2X=0 I1Cent= 0 IOpClX= 0 NMat=1 NMatS=1 NMatT=0.
 Defaulting to unpruned grid for atomic number  55.
 ***** Axes restored to original set *****
 -------------------------------------------------------------------
 Center     Atomic                   Forces (Hartrees/Bohr)
 Number     Number              X              Y              Z
 -------------------------------------------------------------------
      1        8           0.000779137   -0.000500984    0.001026934
      2        6          -0.000061782    0.002228620   -0.002209040
      3        8          -0.000865417   -0.000554428    0.000971973
      4        6           0.000147589    0.002089619   -0.001399545
      5       55          -0.000009037   -0.000046764   -0.000026928
      6        1           0.000086213   -0.001510749    0.001116981
      7        1           0.000154155   -0.001331611   -0.000176474
      8        1          -0.000230858   -0.000373703    0.000696099
 -------------------------------------------------------------------
 Cartesian Forces:  Max     0.002228620 RMS     0.001043974
 FormGI is forming the generalized inverse of G from B-inverse, IUseBI=4.

 GradGradGradGradGradGradGradGradGradGradGradGradGradGradGradGradGradGrad
 Berny optimization.
 Using GEDIIS/GDIIS optimizer.
 Internal  Forces:  Max     0.001651848 RMS     0.000762236
 Search for a local minimum.
 Step number   5 out of a maximum of   38
 All quantities printed in internal units (Hartrees-Bohrs-Radians)
 Mixed Optimization -- En-DIIS/RFO-DIIS
 Second derivative matrix not updated -- analytic derivatives used.
 DE=  1.01D-04 DEPred=-2.05D-04 R=-4.93D-01
 Trust test=-4.93D-01 RLast= 1.04D+00 DXMaxT set to 1.26D-01
 ITU= -1 -1  1  1  0
 Use linear search instead of GDIIS.
 Energy rises -- skip Quadratic/GDIIS search.
 Quartic linear search produced a step of -0.97021.
 Iteration  1 RMS(Cart)=  0.08546041 RMS(Int)=  0.09895650
 Iteration  2 RMS(Cart)=  0.08522627 RMS(Int)=  0.00840598
 Iteration  3 RMS(Cart)=  0.00799220 RMS(Int)=  0.00005193
 Iteration  4 RMS(Cart)=  0.00004714 RMS(Int)=  0.00000215
 Iteration  5 RMS(Cart)=  0.00000000 RMS(Int)=  0.00000215
 Variable       Old X    -DE/DX   Delta X   Delta X   Delta X     New X
                                 (Linear)    (Quad)   (Total)
    R1        2.39267   0.00004   0.00120   0.00000   0.00119   2.39386
    R2        5.50221   0.00023  -0.00308   0.00000  -0.00308   5.49913
    R3        2.39319  -0.00004  -0.00130   0.00000  -0.00130   2.39190
    R4        2.91174   0.00015  -0.00034   0.00000  -0.00034   2.91140
    R5        6.15132   0.00005  -0.00013   0.00000  -0.00013   6.15119
    R6        5.50079  -0.00028   0.00342   0.00000   0.00342   5.50421
    R7        2.07068   0.00001   0.00351   0.00000   0.00351   2.07419
    R8        2.07178   0.00043  -0.00186   0.00000  -0.00186   2.06992
    R9        2.06773  -0.00049  -0.00148   0.00000  -0.00148   2.06625
    A1        2.20420  -0.00005   0.00018   0.00000   0.00019   2.20439
    A2        2.04176  -0.00159  -0.01024   0.00000  -0.01024   2.03152
    A3        2.03720   0.00165   0.00989   0.00000   0.00989   2.04710
    A4        1.92209   0.00003  -0.01474   0.00000  -0.01474   1.90734
    A5        1.92054  -0.00046   0.00415   0.00000   0.00416   1.92470
    A6        1.93316   0.00044   0.01027   0.00000   0.01027   1.94343
    A7        1.88311  -0.00115  -0.01540   0.00000  -0.01540   1.86771
    A8        1.90589   0.00087  -0.00873   0.00000  -0.00873   1.89716
    A9        1.89816   0.00025   0.02350   0.00000   0.02351   1.92168
   A10        0.79704  -0.00001  -0.00000   0.00000  -0.00000   0.79703
   A11        3.14416  -0.00151  -0.01145   0.00000  -0.01145   3.13271
   A12        3.14361  -0.00046   0.00682   0.00000   0.00682   3.15043
    D1        0.85418  -0.00048   0.40203   0.00000   0.40203   1.25621
    D2       -1.21956   0.00121   0.42732   0.00000   0.42732  -0.79224
    D3        2.96424   0.00092   0.38802   0.00000   0.38802  -2.93092
    D4       -2.28191  -0.00154   0.41534   0.00000   0.41534  -1.86658
    D5        1.92753   0.00015   0.44063   0.00000   0.44063   2.36816
    D6       -0.17185  -0.00014   0.40133   0.00000   0.40133   0.22948
    D7        3.13791   0.00064  -0.00706   0.00000  -0.00706   3.13085
         Item               Value     Threshold  Converged?
 Maximum Force            0.001652     0.000450     NO 
 RMS     Force            0.000762     0.000300     NO 
[...]
         1         0.0014      0.0011     -0.0033     -0.0609     -0.0000     -0.0000
         2         0.2027     -0.0116     -0.0532     -0.0046     -0.0000     -0.0000
         3        -0.0000      0.0000      0.0000      0.0000     -0.0031     -0.0945
         4        -0.0000     -0.0000      0.0000      0.0000     -0.0089     -0.0395
         5        -0.0735     -0.2553     -0.0243      0.0107      0.0000     -0.0000
         6        -0.0000      0.0000      0.0000      0.0000      0.1441     -0.0025
         7        -0.0076     -0.0001      0.0077      0.3277      0.0000      0.0000
         8        -0.0034      0.0108     -0.0212     -0.1640     -0.0000      0.0000
         9        -0.0148      0.0034      0.0069     -0.1148      0.0000      0.0000
        10         0.0000      0.0000     -0.0000     -0.0000     -0.1179      0.0048
 <0|del|b> * <b|rxdel|0> + <0|del|b> * <b|delr+rdel|0>
 Rotatory Strengths (R) in cgs (10**-40 erg-esu-cm/Gauss)
       state          XX          YY          ZZ    R(velocity)    E-M Angle
         1        -0.0000     -0.0001     -0.0000     -0.0000       90.00
         2        -0.0000     -0.0022      0.0001     -0.0007       90.00
         3         0.0000      0.0023     -0.0002      0.0007       90.00
         4        -0.0001      0.0001     -0.0000      0.0000       90.00
         5        -0.0000      0.0001      0.0000      0.0000       90.00
         6        -0.0001      0.0000     -0.0000     -0.0000       90.00
         7         0.0001     -0.0001      0.0000      0.0000       90.00
         8        -0.0003     -0.0001     -0.0000     -0.0002       90.00
         9         0.0001     -0.0001      0.0001      0.0000       90.00
        10         0.0003     -0.0001     -0.0000      0.0000       90.00
 1/2[<0|r|b>*<b|rxdel|0> + (<0|rxdel|b>*<b|r|0>)*]
 Rotatory Strengths (R) in cgs (10**-40 erg-esu-cm/Gauss)
       state          XX          YY          ZZ     R(length)
         1        -0.0001     -0.0001      0.0000     -0.0000
         2        -0.0024     -0.0000     -0.0000     -0.0008
         3         0.0024      0.0000     -0.0000      0.0008
         4        -0.0000      0.0000      0.0000      0.0000
         5        -0.0000     -0.0000      0.0000     -0.0000
         6        -0.0000      0.0000     -0.0002     -0.0001
         7         0.0000      0.0002     -0.0000      0.0001
         8        -0.0000     -0.0003      0.0001     -0.0001
         9         0.0000      0.0001     -0.0004     -0.0001
        10        -0.0001      0.0003      0.0000      0.0001
  1/2[<0|del|b>*<b|r|0> + (<0|r|b>*<b|del|0>)*] (Au)
       state          X           Y           Z        Dip. S.   Osc.(frdel)
         1        -0.0000     -0.0015      0.0000      0.0015      0.0010
         2        -0.2203     -0.0000     -0.0000      0.2203      0.1468
         3        -0.0000     -0.0000     -0.0000      0.0000      0.0000
         4         0.0000      0.0000     -0.0001      0.0001      0.0000
         5         0.0009      0.0000     -0.0000     -0.0009     -0.0006
         6         0.0000     -0.0000     -0.0345      0.0345      0.0230
         7         0.0000     -0.0094     -0.0000      0.0094      0.0063
         8         0.0000     -0.0259      0.0000      0.0259      0.0172
         9         0.0000     -0.0069     -0.0000      0.0069      0.0046
        10         0.0000     -0.0000     -0.0048      0.0048      0.0032

 Excitation energies and oscillator strengths:
 
 Excited State   1:      Singlet-A      2.4849 eV  498.95 nm  f=0.0037  <S**2>=0.000
      20 -> 21         0.70489
 This state for optimization and/or second-order correction.
 Total Energy, E(TD-HF/TD-DFT) =  -248.314944882    
 Copying the excited state density for this state as the 1-particle RhoCI density.
 
 Excited State   2:      Singlet-A      2.8667 eV  432.49 nm  f=0.1696  <S**2>=0.000
      19 -> 21         0.70449
 
 Excited State   3:      Singlet-A      2.8899 eV  429.03 nm  f=0.0000  <S**2>=0.000
      18 -> 21         0.70557
 
 Excited State   4:      Singlet-A      3.8193 eV  324.62 nm  f=0.0000  <S**2>=0.000
      20 -> 22         0.70359
 
 Excited State   5:      Singlet-A      3.9630 eV  312.85 nm  f=0.0122  <S**2>=0.000
      20 -> 23         0.69999
 
 Excited State   6:      Singlet-A      4.0231 eV  308.18 nm  f=0.0425  <S**2>=0.000
      19 -> 22         0.70372
 
 Excited State   7:      Singlet-A      4.1448 eV  299.13 nm  f=0.0286  <S**2>=0.000
      19 -> 23         0.64560
      20 -> 24        -0.27433
 
 Excited State   8:      Singlet-A      4.2638 eV  290.79 nm  f=0.0138  <S**2>=0.000
      19 -> 23         0.27827
      20 -> 24         0.64154
 
 Excited State   9:      Singlet-A      4.2731 eV  290.15 nm  f=0.0014  <S**2>=0.000
      18 -> 22         0.70171
 
 Excited State  10:      Singlet-A      4.4023 eV  281.64 nm  f=0.0007  <S**2>=0.000
      18 -> 23         0.70314
 SavETr:  write IOETrn=   770 NScale= 10 NData=  16 NLR=1 NState=   10 LETran=     190.
          Differentiating once with respect to electric field.
                with respect to dipole field.
          Electric field/nuclear overlap derivatives assumed to be zero.
 Keep R1 ints in memory in canonical form, NReq=4754247.
          There are     1 degrees of freedom in the 1st order CPHF.  IDoFFX=0 NUNeed=     1.
 Defaulting to unpruned grid for atomic number  55.
 LinEq1:  Iter=  0 NonCon=     1 RMS=5.27D-02 Max=1.25D+00 NDo=     1
 AX will form     1 AO Fock derivatives at one time.
 LinEq1:  Iter=  1 NonCon=     1 RMS=2.15D-02 Max=3.14D-01 NDo=     1
 LinEq1:  Iter=  2 NonCon=     1 RMS=1.29D-02 Max=1.49D-01 NDo=     1
 LinEq1:  Iter=  3 NonCon=     1 RMS=2.00D-03 Max=2.93D-02 NDo=     1
 LinEq1:  Iter=  4 NonCon=     1 RMS=9.71D-04 Max=1.92D-02 NDo=     1
 LinEq1:  Iter=  5 NonCon=     1 RMS=5.92D-04 Max=7.64D-03 NDo=     1
 LinEq1:  Iter=  6 NonCon=     1 RMS=3.16D-04 Max=3.67D-03 NDo=     1
 LinEq1:  Iter=  7 NonCon=     1 RMS=7.47D-05 Max=6.69D-04 NDo=     1
 LinEq1:  Iter=  8 NonCon=     1 RMS=1.20D-05 Max=1.09D-04 NDo=     1
 LinEq1:  Iter=  9 NonCon=     1 RMS=1.95D-06 Max=2.74D-05 NDo=     1
 LinEq1:  Iter= 10 NonCon=     1 RMS=4.26D-07 Max=6.85D-06 NDo=     1
 LinEq1:  Iter= 11 NonCon=     1 RMS=7.66D-08 Max=9.14D-07 NDo=     1
 LinEq1:  Iter= 12 NonCon=     1 RMS=1.61D-08 Max=1.07D-07 NDo=     1
 LinEq1:  Iter= 13 NonCon=     1 RMS=2.39D-09 Max=1.89D-08 NDo=     1
 LinEq1:  Iter= 14 NonCon=     1 RMS=2.26D-10 Max=2.23D-09 NDo=     1
 LinEq1:  Iter= 15 NonCon=     0 RMS=2.66D-11 Max=2.61D-10 NDo=     1
 Linear equations converged to 1.000D-10 1.000D-09 after    15 iterations.
 End of Minotr F.D. properties file   721 does not exist.
 End of Minotr F.D. properties file   722 does not exist.
 End of Minotr F.D. properties file   788 does not exist.

 **********************************************************************

            Population analysis using the CI density.

 **********************************************************************

 Orbital symmetries:
       Occupied  (A) (A) (A) (A) (A) (A) (A) (A) (A) (A) (A) (A)
                 (A) (A) (A) (A) (A) (A) (A) (A)
       Virtual   (A) (A) (A) (A) (A) (A) (A) (A) (A) (A) (A) (A)
                 (A) (A) (A) (A) (A) (A) (A) (A) (A) (A) (A) (A)
                 (A) (A) (A) (A) (A) (A) (A) (A) (A) (A) (A) (A)
                 (A) (A) (A) (A) (A) (A) (A) (A) (A) (A) (A) (A)
                 (A) (A) (A) (A) (A) (A)
 The electronic state is 1-A.
 Alpha  occ. eigenvalues --  -19.02062 -19.01845 -10.20667 -10.11036  -1.02158
 Alpha  occ. eigenvalues --   -0.53021  -0.52693  -0.51975  -0.95363  -0.86347
 Alpha  occ. eigenvalues --   -0.65357  -0.43158  -0.36908  -0.36387  -0.35563
 Alpha  occ. eigenvalues --   -0.31510  -0.29129  -0.18312  -0.17493  -0.16646
 Alpha virt. eigenvalues --   -0.05377  -0.00434   0.00021   0.01258   0.04638
 Alpha virt. eigenvalues --    0.05056   0.06505   0.12038   0.19082   0.22389
 Alpha virt. eigenvalues --    0.23997   0.30167   0.41132   0.46033   0.56931
 Alpha virt. eigenvalues --    0.60888   0.64565   0.68085   0.70063   0.73269
 Alpha virt. eigenvalues --    0.73923   0.88079   0.92115   0.93638   1.02110
 Alpha virt. eigenvalues --    1.02686   1.04132   1.04544   1.12733   1.13603
 Alpha virt. eigenvalues --    1.17200   1.28785   1.47465   1.53086   1.71146
 Alpha virt. eigenvalues --    1.74266   1.83893   1.87617   1.88110   1.91425
 Alpha virt. eigenvalues --    1.97016   1.98266   2.03568   2.08257   2.17796
 Alpha virt. eigenvalues --    2.29191   2.30232   2.51119   2.53960   2.77225
 Alpha virt. eigenvalues --    2.85822   3.00354   3.00939   3.17595
          Condensed to atoms (all electrons):
               1          2          3          4          5          6
     1  O    8.105974   0.409066  -0.026308  -0.109928  -0.019073   0.002029
     2  C    0.409066   4.263715   0.435761   0.373394  -0.022550  -0.018097
     3  O   -0.026308   0.435761   8.076565  -0.107266  -0.019206   0.001743
     4  C   -0.109928   0.373394  -0.107266   5.329072  -0.006952   0.361858
     5  Cs  -0.019073  -0.022550  -0.019206  -0.006952   8.960617   0.001337
     6  H    0.002029  -0.018097   0.001743   0.361858   0.001337   0.494711
     7  H    0.002033  -0.018099   0.001745   0.361852   0.001337  -0.022703
     8  H    0.003537  -0.020554   0.007249   0.351694   0.002210  -0.021124
               7          8
     1  O    0.002033   0.003537
     2  C   -0.018099  -0.020554
     3  O    0.001745   0.007249
     4  C    0.361852   0.351694
     5  Cs   0.001337   0.002210
     6  H   -0.022703  -0.021124
     7  H    0.494719  -0.021124
     8  H   -0.021124   0.506907
 Mulliken charges:
               1
     1  O   -0.367329
     2  C    0.597363
     3  O   -0.370284
     4  C   -0.553723
     5  Cs   0.102280
     6  H    0.200247
     7  H    0.200241
     8  H    0.191205
 Sum of Mulliken charges =  -0.00000
 Mulliken charges with hydrogens summed into heavy atoms:
               1
     1  O   -0.367329
     2  C    0.597363
     3  O   -0.370284
     4  C    0.037970
     5  Cs   0.102280
 Electronic spatial extent (au):  <R**2>=            909.9558
 Charge=             -0.0000 electrons
 Dipole moment (field-independent basis, Debye):
    X=              8.2546    Y=             -0.0241    Z=             -0.0000  Tot=              8.2546
 Quadrupole moment (field-independent basis, Debye-Ang):
   XX=            -66.1187   YY=            -58.8698   ZZ=            -55.3433
   XY=             -0.3668   XZ=             -0.0002   YZ=              0.0000
 Traceless Quadrupole moment (field-independent basis, Debye-Ang):
   XX=             -6.0081   YY=              1.2408   ZZ=              4.7673
   XY=             -0.3668   XZ=             -0.0002   YZ=              0.0000
 Octapole moment (field-independent basis, Debye-Ang**2):
  XXX=            122.6025  YYY=              1.0733  ZZZ=             -0.0007  XYY=              9.5003
  XXY=             -0.5251  XXZ=             -0.0007  XZZ=             14.2032  YZZ=             -0.5248
  YYZ=              0.0007  XYZ=              0.0000
 Hexadecapole moment (field-independent basis, Debye-Ang**3):
 XXXX=          -1717.2974 YYYY=           -308.2603 ZZZZ=           -230.0134 XXXY=             -4.6472
 XXXZ=             -0.0033 YYYX=              1.0484 YYYZ=             -0.0001 ZZZX=             -0.0036
 ZZZY=              0.0001 XXYY=           -340.4749 XXZZ=           -323.7258 YYZZ=            -89.6303
 XXYZ=              0.0001 YYXZ=              0.0026 ZZXY=             -3.3823
 N-N= 1.550774506272D+02 E-N=-8.827179777524D+02  KE= 2.319695114884D+02
 Evaluate density.
 Using the total density.
 Monte-Carlo method of calculating molar volume:
 based on  0.001 e/bohr**3 density envelope.
 Number of points per bohr**3 =   20 CutOff= 1.00D-04
 Using the CI density.
 There are       805 points.  Will hold       805 in memory.
 LenV=   268363590 MDV=   268435456.
 Box volume =65367.614 fraction occupied=0.021
 Integrated density= 1.2364347546632610D+01 error=-2.7635652453367392D+01
 Molar volume = 1380.434 bohr**3/mol (123.188 cm**3/mol)
 Recommended a0 for SCRF calculation =  4.52 angstrom (  8.55 bohr)
 ******************************Gaussian NBO Version 3.1******************************
             N A T U R A L   A T O M I C   O R B I T A L   A N D
          N A T U R A L   B O N D   O R B I T A L   A N A L Y S I S
 ******************************Gaussian NBO Version 3.1******************************
       /RESON  / : Allow strongly delocalized NBO set

 Analyzing the CI density

 Job title: Title Card Required                                             

 Storage needed:     16778 in NPA ( 268435056 available)
 GSVD:  LWork=        3172 too small for GESVD, short by        1148 words or        1148 for optimal perf.


 NATURAL POPULATIONS:  Natural atomic orbital occupancies 
                                                          
   NAO  Atom  No  lang   Type(AO)    Occupancy
 --------------------------------------------
     1    O    1  S      Cor( 1S)     1.99977
     2    O    1  S      Val( 2S)     1.74604
     3    O    1  S      Ryd( 3S)     0.00040
     4    O    1  px     Val( 2p)     1.62716
     5    O    1  px     Ryd( 3p)     0.00077
     6    O    1  py     Val( 2p)     1.42080
     7    O    1  py     Ryd( 3p)     0.00015
     8    O    1  pz     Val( 2p)     1.64915
     9    O    1  pz     Ryd( 3p)     0.00000
    10    O    1  dxy    Ryd( 3d)     0.00409
    11    O    1  dxz    Ryd( 3d)     0.00077
    12    O    1  dyz    Ryd( 3d)     0.00362
    13    O    1  dx2y2  Ryd( 3d)     0.00325
    14    O    1  dz2    Ryd( 3d)     0.00123
 
    15    C    2  S      Cor( 1S)     1.99946
    16    C    2  S      Val( 2S)     0.79482
    17    C    2  S      Ryd( 3S)     0.00951
    18    C    2  px     Val( 2p)     0.92253
    19    C    2  px     Ryd( 3p)     0.01386
    20    C    2  py     Val( 2p)     0.69634
    21    C    2  py     Ryd( 3p)     0.01718
    22    C    2  pz     Val( 2p)     0.73451
    23    C    2  pz     Ryd( 3p)     0.00071
    24    C    2  dxy    Ryd( 3d)     0.00213
    25    C    2  dxz    Ryd( 3d)     0.00094
    26    C    2  dyz    Ryd( 3d)     0.00261
    27    C    2  dx2y2  Ryd( 3d)     0.00326
    28    C    2  dz2    Ryd( 3d)     0.00047
 
    29    O    3  S      Cor( 1S)     1.99977
    30    O    3  S      Val( 2S)     1.74487
    31    O    3  S      Ryd( 3S)     0.00030
    32    O    3  px     Val( 2p)     1.63633
    33    O    3  px     Ryd( 3p)     0.00066
    34    O    3  py     Val( 2p)     1.42220
    35    O    3  py     Ryd( 3p)     0.00016
    36    O    3  pz     Val( 2p)     1.63786
    37    O    3  pz     Ryd( 3p)     0.00000
    38    O    3  dxy    Ryd( 3d)     0.00413
    39    O    3  dxz    Ryd( 3d)     0.00079
    40    O    3  dyz    Ryd( 3d)     0.00367
    41    O    3  dx2y2  Ryd( 3d)     0.00325
    42    O    3  dz2    Ryd( 3d)     0.00122
 
    43    C    4  S      Cor( 1S)     1.99924
    44    C    4  S      Val( 2S)     1.14794
    45    C    4  S      Ryd( 3S)     0.00073
    46    C    4  px     Val( 2p)     1.12147
    47    C    4  px     Ryd( 3p)     0.00190
    48    C    4  py     Val( 2p)     1.26769
    49    C    4  py     Ryd( 3p)     0.00137
    50    C    4  pz     Val( 2p)     1.26325
    51    C    4  pz     Ryd( 3p)     0.00027
    52    C    4  dxy    Ryd( 3d)     0.00040
    53    C    4  dxz    Ryd( 3d)     0.00023
    54    C    4  dyz    Ryd( 3d)     0.00083
    55    C    4  dx2y2  Ryd( 3d)     0.00097
    56    C    4  dz2    Ryd( 3d)     0.00065
 
    57   Cs    5  S      Cor( 5S)     2.00000
    58   Cs    5  S      Val( 6S)     0.75463
    59   Cs    5  S      Ryd( 7S)     0.00000
    60   Cs    5  px     Cor( 5p)     2.00187
    61   Cs    5  px     Ryd( 6p)     0.12431
    62   Cs    5  px     Ryd( 7p)     0.00000
    63   Cs    5  py     Cor( 5p)     1.99827
    64   Cs    5  py     Ryd( 7p)     0.00000
    65   Cs    5  py     Ryd( 6p)     0.00000
    66   Cs    5  pz     Cor( 5p)     2.00000
    67   Cs    5  pz     Ryd( 7p)     0.00000
    68   Cs    5  pz     Ryd( 6p)     0.00000
 
    69    H    6  S      Val( 1S)     0.73509
    70    H    6  S      Ryd( 2S)     0.00025
 
    71    H    7  S      Val( 1S)     0.73509
    72    H    7  S      Ryd( 2S)     0.00025
 
    73    H    8  S      Val( 1S)     0.74015
    74    H    8  S      Ryd( 2S)     0.00016

 [ 46 electrons found in the effective core potential]

 WARNING:  1 low occupancy (<1.9990e) core orbital  found on Cs    5


 Summary of Natural Population Analysis:                  
                                                          
                                       Natural Population 
                Natural  -----------------------------------------------
    Atom  No    Charge         Core      Valence    Rydberg      Total
 -----------------------------------------------------------------------
      O    1   -0.45721      1.99977     6.44316    0.01428     8.45721
      C    2    0.80166      1.99946     3.14820    0.05067     5.19834
      O    3   -0.45523      1.99977     6.44127    0.01419     8.45523
      C    4   -0.80695      1.99924     4.80035    0.00735     6.80695
     Cs    5    0.12092     54.00014     0.75463    0.12431    54.87908
      H    6    0.26466      0.00000     0.73509    0.00025     0.73534
      H    7    0.26466      0.00000     0.73509    0.00025     0.73534
      H    8    0.25969      0.00000     0.74015    0.00016     0.74031
 =======================================================================
   * Total *   -0.00780     61.99839    23.79793    0.21148    86.00780

                                 Natural Population      
 --------------------------------------------------------
   Effective Core            46.00000
   Core                      15.99839 ( 99.9899% of  16)
   Valence                   23.79793 ( 99.1580% of  24)
   Natural Minimal Basis     85.79632 ( 99.7632% of  86)
   Natural Rydberg Basis      0.21148 (  0.2459% of  86)
 --------------------------------------------------------

    Atom  No          Natural Electron Configuration
 ----------------------------------------------------------------------------
      O    1      [core]2S( 1.75)2p( 4.70)3d( 0.01)
      C    2      [core]2S( 0.79)2p( 2.35)3S( 0.01)3p( 0.03)3d( 0.01)
      O    3      [core]2S( 1.74)2p( 4.70)3d( 0.01)
      C    4      [core]2S( 1.15)2p( 3.65)
     Cs    5      [core]6S( 0.75)6p( 0.12)
      H    6            1S( 0.74)
      H    7            1S( 0.74)
      H    8            1S( 0.74)


 NBO analysis skipped by request.
 1\1\GINC-DELLA-R4C3N15\SP\RB3LYP TD-FC\GenECP\C2H3Cs1O2\BJS4\10-Dec-20
 19\0\\# TD(NStates=10, Root=1) B3LYP/genecp volume pop=NPA density=cur
 rent Geom=AllCheck Guess=Read\\Title Card Required\\0,1\O,0,1.45803661
 52,-1.1154115385,0.0099687332\C,0,2.0135446316,0.0232365791,-0.0036585
 132\O,0,1.4255726517,1.1437449276,-0.0170031288\C,0,3.5541363883,0.028
 2649767,-0.0038519345\Cs,0,-1.2410720204,-0.0294484994,-0.002783682\H,
 0,3.9251548955,-0.5209255837,-0.8775165393\H,0,3.9253341502,-0.5004943
 144,0.882248211\H,0,3.9520040379,1.0463564425,-0.0157347963\\Version=E
 S64L-G16RevA.03\State=1-A\HF=-248.406264\RMSD=6.145e-09\Dipole=3.24746
 99,0.0314129,-0.0006503\Quadrupole=-4.4591816,0.9151835,3.5439981,-0.3
 404504,0.0045574,0.0314219\PG=C01 [X(C2H3Cs1O2)]\\@


 IT IS BY EATING THE LIGHT OF A STAR THAT WE EXIST, 
 IN THE FINAL ANALYSIS, 
 JUST AS IT IS BY PERCEIVING THE LIGHT OF STARS
 THAT WE DEFINE THE WORLD AROUND US.

                                    -- GILBERT GROSVENOR
 Job cpu time:       0 days  0 hours  1 minutes 45.6 seconds.
 Elapsed time:       0 days  0 hours  1 minutes 45.6 seconds.
 File lengths (MBytes):  RWF=     98 Int=      0 D2E=      0 Chk=      8 Scr=      1
 Normal termination of Gaussian 16 at Tue Dec 10 13:09:02 2019.
