 Entering Gaussian System, Link 0=g16
 Input=base_1123.com
 Output=base_1123.log
 Initial command:
 /opt/export/g16/l1.exe "/scratch/bjs4/job.19592/Gau-19595.inp" -scrdir="/scratch/bjs4/job.19592/"
 Entering Link 1 = /opt/export/g16/l1.exe PID=     19598.
  
 Copyright (c) 1988,1990,1992,1993,1995,1998,2003,2009,2016,
            Gaussian, Inc.  All Rights Reserved.
  
 This is part of the Gaussian(R) 16 program.  It is based on
 the Gaussian(R) 09 system (copyright 2009, Gaussian, Inc.),
 the Gaussian(R) 03 system (copyright 2003, Gaussian, Inc.),
 the Gaussian(R) 98 system (copyright 1998, Gaussian, Inc.),
 the Gaussian(R) 94 system (copyright 1995, Gaussian, Inc.),
 the Gaussian 92(TM) system (copyright 1992, Gaussian, Inc.),
 the Gaussian 90(TM) system (copyright 1990, Gaussian, Inc.),
 the Gaussian 88(TM) system (copyright 1988, Gaussian, Inc.),
 the Gaussian 86(TM) system (copyright 1986, Carnegie Mellon
 University), and the Gaussian 82(TM) system (copyright 1983,
 Carnegie Mellon University). Gaussian is a federally registered
 trademark of Gaussian, Inc.
  
 This software contains proprietary and confidential information,
 including trade secrets, belonging to Gaussian, Inc.
  
 This software is provided under written license and may be
 used, copied, transmitted, or stored only in accord with that
 written license.
  
 The following legend is applicable only to US Government
 contracts under FAR:
  
                    RESTRICTED RIGHTS LEGEND
  
 Use, reproduction and disclosure by the US Government is
 subject to restrictions as set forth in subparagraphs (a)
 and (c) of the Commercial Computer Software - Restricted
 Rights clause in FAR 52.227-19.
  
 Gaussian, Inc.
 340 Quinnipiac St., Bldg. 40, Wallingford CT 06492
  
  
 ---------------------------------------------------------------
 Warning -- This program may not be used in any manner that
 competes with the business of Gaussian, Inc. or will provide
 assistance to any competitor of Gaussian, Inc.  The licensee
 of this program is prohibited from giving any competitor of
 Gaussian, Inc. access to this program.  By using this program,
 the user acknowledges that Gaussian, Inc. is engaged in the
 business of creating and licensing software in the field of
 computational chemistry and represents and warrants to the
 licensee that it is not a competitor of Gaussian, Inc. and that
 it will not use this program in any manner prohibited above.
 ---------------------------------------------------------------
  

 Cite this work as:
 Gaussian 16, Revision A.03,
 M. J. Frisch, G. W. Trucks, H. B. Schlegel, G. E. Scuseria, 
 M. A. Robb, J. R. Cheeseman, G. Scalmani, V. Barone, 
 G. A. Petersson, H. Nakatsuji, X. Li, M. Caricato, A. V. Marenich, 
 J. Bloino, B. G. Janesko, R. Gomperts, B. Mennucci, H. P. Hratchian, 
 J. V. Ortiz, A. F. Izmaylov, J. L. Sonnenberg, D. Williams-Young, 
 F. Ding, F. Lipparini, F. Egidi, J. Goings, B. Peng, A. Petrone, 
 T. Henderson, D. Ranasinghe, V. G. Zakrzewski, J. Gao, N. Rega, 
 G. Zheng, W. Liang, M. Hada, M. Ehara, K. Toyota, R. Fukuda, 
 J. Hasegawa, M. Ishida, T. Nakajima, Y. Honda, O. Kitao, H. Nakai, 
 T. Vreven, K. Throssell, J. A. Montgomery, Jr., J. E. Peralta, 
 F. Ogliaro, M. J. Bearpark, J. J. Heyd, E. N. Brothers, K. N. Kudin, 
 V. N. Staroverov, T. A. Keith, R. Kobayashi, J. Normand, 
 K. Raghavachari, A. P. Rendell, J. C. Burant, S. S. Iyengar, 
 J. Tomasi, M. Cossi, J. M. Millam, M. Klene, C. Adamo, R. Cammi, 
 J. W. Ochterski, R. L. Martin, K. Morokuma, O. Farkas, 
 J. B. Foresman, and D. J. Fox, Gaussian, Inc., Wallingford CT, 2016.
 
 ******************************************
 Gaussian 16:  ES64L-G16RevA.03 25-Dec-2016
                 8-Dec-2019 
 ******************************************
 %nprocshared=1
 Will use up to    1 processors via shared memory.
 %Mem=2GB
 %Chk=base_11.chk
 -----------------------------------------
 # opt=CalcFc B3LYP/6-31G* scf=xqc scf=xqc
 -----------------------------------------
 1/10=4,18=20,19=15,26=3,38=1/1,3;
 2/9=110,12=2,17=6,18=5,40=1/2;
 3/5=1,6=6,7=1,11=2,25=1,30=1,71=2,74=-5,140=1/1,2,3;
 4//1;
 5/5=2,38=5/2;
 8/6=4,10=90,11=11/1;
 11/6=1,8=1,9=11,15=111,16=1/1,2,10;
 10/6=1,13=1/2;
 6/7=2,8=2,9=2,10=2,28=1/1;
 7/10=1,18=20,25=1/1,2,3,16;
 1/10=4,18=20,19=15,26=3/3(2);
 2/9=110/2;
 99//99;
 2/9=110/2;
 3/5=1,6=6,7=1,11=2,25=1,30=1,71=1,74=-5/1,2,3;
 4/5=5,16=3,69=1/1;
 5/5=2,38=5/2;
 7//1,2,3,16;
 1/18=20,19=15,26=3/3(-5);
 2/9=110/2;
 6/7=2,8=2,9=2,10=2,19=2,28=1/1;
 99/9=1/99;
 -------------------
 Title Card Required
 -------------------
 Symbolic Z-matrix:
 Charge =  0 Multiplicity = 1
 O1                    0.48032   1.24362   1.28802 
 C                     1.66011   0.53465   0.38428 
 O2                    1.3314   -0.36346  -0.70931 
 C                     3.13765   0.82715   0.70505 
 K3                   -1.06141  -0.4958    0.18285 
 H                     3.22567   1.81207   1.11382 
 H                     3.71738   0.76008  -0.19179 
 H                     3.49652   0.11254   1.416 
 

 GradGradGradGradGradGradGradGradGradGradGradGradGradGradGradGradGradGrad
 Berny optimization.
 Initialization pass.
                           ----------------------------
                           !    Initial Parameters    !
                           ! (Angstroms and Degrees)  !
 --------------------------                            --------------------------
 ! Name  Definition              Value          Derivative Info.                !
 --------------------------------------------------------------------------------
 ! R1    R(1,2)                  1.6466         calculate D2E/DX2 analytically  !
 ! R2    R(1,5)                  2.5737         calculate D2E/DX2 analytically  !
 ! R3    R(2,3)                  1.4528         calculate D2E/DX2 analytically  !
 ! R4    R(2,4)                  1.54           calculate D2E/DX2 analytically  !
 ! R5    R(2,5)                  2.917          calculate D2E/DX2 analytically  !
 ! R6    R(3,5)                  2.5571         calculate D2E/DX2 analytically  !
 ! R7    R(4,6)                  1.07           calculate D2E/DX2 analytically  !
 ! R8    R(4,7)                  1.07           calculate D2E/DX2 analytically  !
 ! R9    R(4,8)                  1.07           calculate D2E/DX2 analytically  !
 ! A1    A(1,2,3)              121.1455         calculate D2E/DX2 analytically  !
 ! A2    A(1,2,4)              119.4285         calculate D2E/DX2 analytically  !
 ! A3    A(3,2,4)              119.426          calculate D2E/DX2 analytically  !
 ! A4    A(2,4,6)              109.4712         calculate D2E/DX2 analytically  !
 ! A5    A(2,4,7)              109.4712         calculate D2E/DX2 analytically  !
 ! A6    A(2,4,8)              109.4712         calculate D2E/DX2 analytically  !
 ! A7    A(6,4,7)              109.4712         calculate D2E/DX2 analytically  !
 ! A8    A(6,4,8)              109.4712         calculate D2E/DX2 analytically  !
 ! A9    A(7,4,8)              109.4712         calculate D2E/DX2 analytically  !
 ! A10   A(1,5,3)               63.5319         calculate D2E/DX2 analytically  !
 ! A11   L(4,2,5,3,-1)         180.6455         calculate D2E/DX2 analytically  !
 ! A12   L(4,2,5,3,-2)         165.8024         calculate D2E/DX2 analytically  !
 ! D1    D(1,2,4,6)            -30.0415         calculate D2E/DX2 analytically  !
 ! D2    D(1,2,4,7)           -150.0415         calculate D2E/DX2 analytically  !
 ! D3    D(1,2,4,8)             89.9585         calculate D2E/DX2 analytically  !
 ! D4    D(3,2,4,6)            150.0415         calculate D2E/DX2 analytically  !
 ! D5    D(3,2,4,7)             30.0415         calculate D2E/DX2 analytically  !
 ! D6    D(3,2,4,8)            -89.9585         calculate D2E/DX2 analytically  !
 ! D7    D(3,2,5,1)           -166.2515         calculate D2E/DX2 analytically  !
 --------------------------------------------------------------------------------
 Trust Radius=3.00D-01 FncErr=1.00D-07 GrdErr=1.00D-06 EigMax=2.50D+02 EigMin=1.00D-04
 Number of steps in this run=     38 maximum allowed number of steps=    100.
 GradGradGradGradGradGradGradGradGradGradGradGradGradGradGradGradGradGrad

                          Input orientation:                          
 ---------------------------------------------------------------------
 Center     Atomic      Atomic             Coordinates (Angstroms)
 Number     Number       Type             X           Y           Z
 ---------------------------------------------------------------------
      1          8           0        0.480325    1.243623    1.288020
      2          6           0        1.660107    0.534651    0.384278
      3          8           0        1.331398   -0.363455   -0.709310
      4          6           0        3.137654    0.827152    0.705054
      5         19           0       -1.061413   -0.495796    0.182850
      6          1           0        3.225675    1.812068    1.113822
      7          1           0        3.717378    0.760079   -0.191786
      8          1           0        3.496517    0.112539    1.416001
 ---------------------------------------------------------------------
                    Distance matrix (angstroms):
                    1          2          3          4          5
     1  O    0.000000
     2  C    1.646595   0.000000
     3  O    2.701176   1.452783   0.000000
     4  C    2.752217   1.540000   2.584672   0.000000
     5  K    2.573701   2.917030   2.557148   4.433402   0.000000
     6  H    2.808989   2.148263   3.412477   1.070000   4.957022
     7  H    3.591957   2.148263   2.687575   1.070000   4.955241
     8  H    3.223840   2.148263   3.071035   1.070000   4.760825
                    6          7          8
     6  H    0.000000
     7  H    1.747303   0.000000
     8  H    1.747303   1.747303   0.000000
 Stoichiometry    C2H3KO2
 Framework group  C1[X(C2H3KO2)]
 Deg. of freedom    18
 Full point group                 C1      NOp   1
 Largest Abelian subgroup         C1      NOp   1
 Largest concise Abelian subgroup C1      NOp   1
                         Standard orientation:                         
 ---------------------------------------------------------------------
 Center     Atomic      Atomic             Coordinates (Angstroms)
 Number     Number       Type             X           Y           Z
 ---------------------------------------------------------------------
      1          8           0        0.248334    1.412938   -0.177669
      2          6           0        1.052688   -0.019826   -0.070531
      3          8           0        0.353112   -1.286079   -0.203858
      4          6           0        2.572627   -0.017591    0.177220
      5         19           0       -1.859863   -0.038903    0.089910
      6          1           0        3.002305    0.864425   -0.249775
      7          1           0        3.009242   -0.882658   -0.276571
      8          1           0        2.762396   -0.032986    1.230145
 ---------------------------------------------------------------------
 Rotational constants (GHZ):           7.9511732           1.9524980           1.6030279
 Standard basis: 6-31G(d) (6D, 7F)
 There are    89 symmetry adapted cartesian basis functions of A   symmetry.
 There are    89 symmetry adapted basis functions of A   symmetry.
    89 basis functions,   200 primitive gaussians,    89 cartesian basis functions
    25 alpha electrons       25 beta electrons
       nuclear repulsion energy       202.4772662476 Hartrees.
 NAtoms=    8 NActive=    8 NUniq=    8 SFac= 1.00D+00 NAtFMM=   60 NAOKFM=F Big=F
 Integral buffers will be    131072 words long.
 Raffenetti 2 integral format.
 Two-electron integral symmetry is turned on.
 One-electron integrals computed using PRISM.
 NBasis=    89 RedAO= T EigKep=  7.02D-03  NBF=    89
 NBsUse=    89 1.00D-06 EigRej= -1.00D+00 NBFU=    89
 ExpMin= 1.65D-02 ExpMax= 3.16D+04 ExpMxC= 4.74D+03 IAcc=3 IRadAn=         5 AccDes= 0.00D+00
 Harris functional with IExCor=  402 and IRadAn=       5 diagonalized for initial guess.
 HarFok:  IExCor=  402 AccDes= 0.00D+00 IRadAn=         5 IDoV= 1 UseB2=F ITyADJ=14
 ICtDFT=  3500011 ScaDFX=  1.000000  1.000000  1.000000  1.000000
 FoFCou: FMM=F IPFlag=           0 FMFlag=      100000 FMFlg1=           0
         NFxFlg=           0 DoJE=T BraDBF=F KetDBF=T FulRan=T
         wScrn=  0.000000 ICntrl=       500 IOpCl=  0 I1Cent=   200000004 NGrid=           0
         NMat0=    1 NMatS0=      1 NMatT0=    0 NMatD0=    1 NMtDS0=    0 NMtDT0=    0
 Petite list used in FoFCou.
 Keep R1 ints in memory in canonical form, NReq=8935621.
 Requested convergence on RMS density matrix=1.00D-08 within 128 cycles.
 Requested convergence on MAX density matrix=1.00D-06.
 Requested convergence on             energy=1.00D-06.
 No special actions if energy rises.
 EnCoef did     3 forward-backward iterations
 EnCoef did     2 forward-backward iterations
 SCF Done:  E(RB3LYP) =  -828.331355449     A.U. after   14 cycles
            NFock= 14  Conv=0.37D-08     -V/T= 2.0046
 DoSCS=F DFT=T ScalE2(SS,OS)=  1.000000  1.000000
 Range of M.O.s used for correlation:     1    89
 NBasis=    89 NAE=    25 NBE=    25 NFC=     0 NFV=     0
 NROrb=     89 NOA=    25 NOB=    25 NVA=    64 NVB=    64
 Symmetrizing basis deriv contribution to polar:
 IMax=3 JMax=2 DiffMx= 0.00D+00
 G2DrvN: will do     9 centers at a time, making    1 passes.
 Calling FoFCou, ICntrl=  3107 FMM=F I1Cent=   0 AccDes= 0.00D+00.
 End of G2Drv F.D. properties file   721 does not exist.
 End of G2Drv F.D. properties file   722 does not exist.
 End of G2Drv F.D. properties file   788 does not exist.
          IDoAtm=11111111
          Differentiating once with respect to nuclear coordinates.
 Keep R1 ints in memory in canonical form, NReq=8939801.
          There are    27 degrees of freedom in the 1st order CPHF.  IDoFFX=6 NUNeed=     0.
     21 vectors produced by pass  0 Test12= 5.93D-15 3.70D-09 XBig12= 9.80D-02 9.75D-02.
 AX will form    21 AO Fock derivatives at one time.
     21 vectors produced by pass  1 Test12= 5.93D-15 3.70D-09 XBig12= 1.13D-01 1.21D-01.
     21 vectors produced by pass  2 Test12= 5.93D-15 3.70D-09 XBig12= 6.68D-04 6.89D-03.
     21 vectors produced by pass  3 Test12= 5.93D-15 3.70D-09 XBig12= 8.16D-06 6.41D-04.
     21 vectors produced by pass  4 Test12= 5.93D-15 3.70D-09 XBig12= 2.55D-08 2.96D-05.
     18 vectors produced by pass  5 Test12= 5.93D-15 3.70D-09 XBig12= 4.10D-11 1.73D-06.
      7 vectors produced by pass  6 Test12= 5.93D-15 3.70D-09 XBig12= 5.62D-14 5.16D-08.
 InvSVY:  IOpt=1 It=  1 EMax= 1.11D-15
 Solved reduced A of dimension   130 with    21 vectors.
 End of Minotr F.D. properties file   721 does not exist.
 End of Minotr F.D. properties file   722 does not exist.
 End of Minotr F.D. properties file   788 does not exist.

 **********************************************************************

            Population analysis using the SCF density.

 **********************************************************************

 Orbital symmetries:
       Occupied  (A) (A) (A) (A) (A) (A) (A) (A) (A) (A) (A) (A)
                 (A) (A) (A) (A) (A) (A) (A) (A) (A) (A) (A) (A)
                 (A)
       Virtual   (A) (A) (A) (A) (A) (A) (A) (A) (A) (A) (A) (A)
                 (A) (A) (A) (A) (A) (A) (A) (A) (A) (A) (A) (A)
                 (A) (A) (A) (A) (A) (A) (A) (A) (A) (A) (A) (A)
                 (A) (A) (A) (A) (A) (A) (A) (A) (A) (A) (A) (A)
                 (A) (A) (A) (A) (A) (A) (A) (A) (A) (A) (A) (A)
                 (A) (A) (A) (A)
 The electronic state is 1-A.
 Alpha  occ. eigenvalues -- -129.76255 -19.09815 -19.07025 -13.19868 -10.54058
 Alpha  occ. eigenvalues --  -10.54016 -10.53985 -10.29083 -10.17094  -1.36688
 Alpha  occ. eigenvalues --   -0.90188  -0.81093  -0.73607  -0.73110  -0.72833
 Alpha  occ. eigenvalues --   -0.71109  -0.49911  -0.41252  -0.40785  -0.36395
 Alpha  occ. eigenvalues --   -0.31374  -0.28264  -0.22074  -0.19731  -0.19252
 Alpha virt. eigenvalues --   -0.04370  -0.00601   0.00689   0.01082   0.01686
 Alpha virt. eigenvalues --    0.04256   0.07142   0.07572   0.09474   0.13176
 Alpha virt. eigenvalues --    0.17816   0.18374   0.20250   0.26101   0.28427
 Alpha virt. eigenvalues --    0.29872   0.30553   0.30592   0.36659   0.37595
 Alpha virt. eigenvalues --    0.42903   0.57400   0.57757   0.58976   0.68593
 Alpha virt. eigenvalues --    0.68786   0.81127   0.83914   0.89908   0.91818
 Alpha virt. eigenvalues --    0.99407   1.00535   1.00898   1.03999   1.09714
 Alpha virt. eigenvalues --    1.16856   1.18265   1.29800   1.38705   1.43253
 Alpha virt. eigenvalues --    1.46835   1.50419   1.70205   1.79673   1.87401
 Alpha virt. eigenvalues --    1.87632   1.90603   1.92199   1.93381   1.97181
 Alpha virt. eigenvalues --    1.98989   2.18444   2.19886   2.32327   2.34253
 Alpha virt. eigenvalues --    2.37174   2.43329   2.66081   2.82969   2.87949
 Alpha virt. eigenvalues --    3.69842   3.82353   4.14255   4.39520
          Condensed to atoms (all electrons):
               1          2          3          4          5          6
     1  O    8.356563   0.273651  -0.034079  -0.041315   0.079239   0.002865
     2  C    0.273651   4.735208   0.301256   0.309268  -0.014487  -0.020039
     3  O   -0.034079   0.301256   8.320512  -0.052900   0.065168   0.002052
     4  C   -0.041315   0.309268  -0.052900   5.201787   0.008430   0.355201
     5  K    0.079239  -0.014487   0.065168   0.008430  18.125212   0.000948
     6  H    0.002865  -0.020039   0.002052   0.355201   0.000948   0.524277
     7  H    0.001457  -0.020778   0.002415   0.353414   0.001270  -0.029035
     8  H   -0.000042  -0.022132  -0.000339   0.368673   0.000320  -0.025035
               7          8
     1  O    0.001457  -0.000042
     2  C   -0.020778  -0.022132
     3  O    0.002415  -0.000339
     4  C    0.353414   0.368673
     5  K    0.001270   0.000320
     6  H   -0.029035  -0.025035
     7  H    0.535223  -0.025969
     8  H   -0.025969   0.522266
 Mulliken charges:
               1
     1  O   -0.638338
     2  C    0.458053
     3  O   -0.604085
     4  C   -0.502558
     5  K    0.733901
     6  H    0.188766
     7  H    0.182003
     8  H    0.182258
 Sum of Mulliken charges =   0.00000
 Mulliken charges with hydrogens summed into heavy atoms:
               1
     1  O   -0.638338
     2  C    0.458053
     3  O   -0.604085
     4  C    0.050469
     5  K    0.733901
 APT charges:
               1
     1  O   -0.670074
     2  C    0.158980
     3  O   -0.576286
     4  C   -1.148242
     5  K    0.835219
     6  H    0.474751
     7  H    0.476970
     8  H    0.448683
 Sum of APT charges =   0.00000
 APT charges with hydrogens summed into heavy atoms:
               1
     1  O   -0.670074
     2  C    0.158980
     3  O   -0.576286
     4  C    0.252161
     5  K    0.835219
 Electronic spatial extent (au):  <R**2>=            687.2545
 Charge=              0.0000 electrons
 Dipole moment (field-independent basis, Debye):
    X=             -5.6144    Y=             -1.0358    Z=              1.4291  Tot=              5.8853
 Quadrupole moment (field-independent basis, Debye-Ang):
   XX=            -15.9078   YY=            -45.0538   ZZ=            -34.1666
   XY=              0.3342   XZ=             -0.2777   YZ=             -0.0197
 Traceless Quadrupole moment (field-independent basis, Debye-Ang):
   XX=             15.8016   YY=            -13.3444   ZZ=             -2.4572
   XY=              0.3342   XZ=             -0.2777   YZ=             -0.0197
 Octapole moment (field-independent basis, Debye-Ang**2):
  XXX=            -41.5373  YYY=             -3.6362  ZZZ=              2.2586  XYY=            -12.0213
  XXY=             -0.8540  XXZ=              1.8465  XZZ=             -8.8269  YZZ=             -0.7949
  YYZ=              1.5769  XYZ=             -0.0253
 Hexadecapole moment (field-independent basis, Debye-Ang**3):
 XXXX=           -526.8600 YYYY=           -196.1094 ZZZZ=            -46.2348 XXXY=              1.6267
 XXXZ=             -4.7944 YYYX=              0.5541 YYYZ=              0.1023 ZZZX=             -0.7487
 ZZZY=              0.0645 XXYY=           -127.1616 XXZZ=           -102.8124 YYZZ=            -38.6995
 XXYZ=             -0.0760 YYXZ=             -1.8816 ZZXY=              0.2046
 N-N= 2.024772662476D+02 E-N=-2.366018665748D+03  KE= 8.245482528092D+02
  Exact polarizability:   0.000   0.000   0.000   0.000   0.000   0.000
 Approx polarizability:  73.489  -4.127 104.708   2.441  -0.083  39.295
 Calling FoFJK, ICntrl=    100147 FMM=F ISym2X=0 I1Cent= 0 IOpClX= 0 NMat=1 NMatS=1 NMatT=0.
 ***** Axes restored to original set *****
 -------------------------------------------------------------------
 Center     Atomic                   Forces (Hartrees/Bohr)
 Number     Number              X              Y              Z
 -------------------------------------------------------------------
      1        8           0.103826919   -0.068389551   -0.080769605
      2        6          -0.114869298   -0.026409396   -0.033380119
      3        8           0.032432605    0.091209591    0.115629569
      4        6          -0.039006052    0.000610832   -0.009724785
      5       19           0.004673178    0.005441325    0.001457222
      6        1          -0.000042885    0.013728087    0.008683838
      7        1           0.007674072   -0.003980173   -0.014180349
      8        1           0.005311461   -0.012210715    0.012284230
 -------------------------------------------------------------------
 Cartesian Forces:  Max     0.115629569 RMS     0.050935696
 FormGI is forming the generalized inverse of G from B-inverse, IUseBI=4.

 GradGradGradGradGradGradGradGradGradGradGradGradGradGradGradGradGradGrad
 Berny optimization.
 Internal  Forces:  Max     0.139546444 RMS     0.039115559
 Search for a local minimum.
 Step number   1 out of a maximum of   38
 All quantities printed in internal units (Hartrees-Bohrs-Radians)
 Mixed Optimization -- RFO/linear search
 Second derivative matrix not updated -- analytic derivatives used.
 ITU=  0
     Eigenvalues ---   -0.04161  -0.00022   0.01768   0.01831   0.02722
     Eigenvalues ---    0.03289   0.05639   0.05885   0.07410   0.10591
     Eigenvalues ---    0.11295   0.12039   0.13750   0.15953   0.24184
     Eigenvalues ---    0.39482   0.39600   0.40148
 RFO step:  Lambda=-1.82889547D-01 EMin=-4.16111369D-02
 Linear search not attempted -- first point.
 Maximum step size (   0.300) exceeded in Quadratic search.
    -- Step size scaled by   0.253
 Iteration  1 RMS(Cart)=  0.04600259 RMS(Int)=  0.01483752
 Iteration  2 RMS(Cart)=  0.01340858 RMS(Int)=  0.00035402
 Iteration  3 RMS(Cart)=  0.00007889 RMS(Int)=  0.00033748
 Iteration  4 RMS(Cart)=  0.00000001 RMS(Int)=  0.00033748
 Variable       Old X    -DE/DX   Delta X   Delta X   Delta X     New X
                                 (Linear)    (Quad)   (Total)
    R1        3.11161  -0.13623   0.00000  -0.27858  -0.27865   2.83297
    R2        4.86359  -0.00917   0.00000   0.00070   0.00130   4.86489
    R3        2.74536  -0.13955   0.00000  -0.08043  -0.08046   2.66490
    R4        2.91018  -0.02597   0.00000  -0.00761  -0.00761   2.90256
    R5        5.51239  -0.00685   0.00000  -0.00773  -0.00860   5.50378
    R6        4.83231  -0.00429   0.00000  -0.01143  -0.01098   4.82133
    R7        2.02201   0.01595   0.00000   0.00737   0.00737   2.02937
    R8        2.02201   0.01629   0.00000   0.00635   0.00635   2.02836
    R9        2.02201   0.01810   0.00000   0.00781   0.00781   2.02981
    A1        2.11439   0.00595   0.00000   0.01105   0.01009   2.12448
    A2        2.08442  -0.00695   0.00000  -0.00570  -0.00499   2.07943
    A3        2.08438   0.00100   0.00000  -0.00536  -0.00511   2.07927
    A4        1.91063  -0.00045   0.00000   0.00080   0.00080   1.91143
    A5        1.91063  -0.00188   0.00000   0.00163   0.00163   1.91226
    A6        1.91063  -0.00133   0.00000   0.00172   0.00171   1.91235
    A7        1.91063   0.00334   0.00000   0.00077   0.00077   1.91140
    A8        1.91063  -0.00020   0.00000  -0.00511  -0.00511   1.90553
    A9        1.91063   0.00053   0.00000   0.00019   0.00018   1.91082
   A10        1.10884  -0.05443   0.00000  -0.07145  -0.07128   1.03756
   A11        3.15286   0.00256   0.00000  -0.00653  -0.00608   3.14678
   A12        2.89380   0.00336   0.00000   0.00134   0.00159   2.89539
    D1       -0.52432   0.00038   0.00000  -0.04943  -0.04952  -0.57384
    D2       -2.61872  -0.00228   0.00000  -0.05187  -0.05196  -2.67067
    D3        1.57007  -0.00096   0.00000  -0.05414  -0.05423   1.51584
    D4        2.61872   0.00227   0.00000  -0.04699  -0.04690   2.57182
    D5        0.52432  -0.00040   0.00000  -0.04942  -0.04933   0.47499
    D6       -1.57007   0.00092   0.00000  -0.05170  -0.05161  -1.62169
    D7       -2.90164  -0.00645   0.00000  -0.00684  -0.00692  -2.90856
         Item               Value     Threshold  Converged?
 Maximum Force            0.139546     0.000450     NO 
 RMS     Force            0.039116     0.000300     NO 
 Maximum Displacement     0.189293     0.001800     NO 
 RMS     Displacement     0.056603     0.001200     NO 
 Predicted change in Energy=-5.390896D-02
 GradGradGradGradGradGradGradGradGradGradGradGradGradGradGradGradGradGrad

                          Input orientation:                          
 ---------------------------------------------------------------------
 Center     Atomic      Atomic             Coordinates (Angstroms)
 Number     Number       Type             X           Y           Z
 ---------------------------------------------------------------------
      1          8           0        0.580494    1.168678    1.246026
      2          6           0        1.643143    0.542181    0.394141
      3          8           0        1.323291   -0.308470   -0.684173
      4          6           0        3.119064    0.829961    0.707262
      5         19           0       -1.070243   -0.494145    0.179453
      6          1           0        3.215978    1.827146    1.093896
      7          1           0        3.701853    0.734695   -0.189055
      8          1           0        3.474059    0.130812    1.441379
 ---------------------------------------------------------------------
                    Distance matrix (angstroms):
                    1          2          3          4          5
     1  O    0.000000
     2  C    1.499143   0.000000
     3  O    2.541531   1.410203   0.000000
     4  C    2.617123   1.535971   2.541046   0.000000
     5  K    2.574391   2.912477   2.551339   4.425170   0.000000
     6  H    2.720753   2.148162   3.362238   1.073897   4.959464
     7  H    3.462756   2.148363   2.644029   1.073360   4.941532
     8  H    3.080267   2.148996   3.055608   1.074131   4.757489
                    6          7          8
     6  H    0.000000
     7  H    1.753707   0.000000
     8  H    1.750686   1.753533   0.000000
 Stoichiometry    C2H3KO2
 Framework group  C1[X(C2H3KO2)]
 Deg. of freedom    18
 Full point group                 C1      NOp   1
 Largest Abelian subgroup         C1      NOp   1
 Largest concise Abelian subgroup C1      NOp   1
                         Standard orientation:                         
 ---------------------------------------------------------------------
 Center     Atomic      Atomic             Coordinates (Angstroms)
 Number     Number       Type             X           Y           Z
 ---------------------------------------------------------------------
      1          8           0        0.319985    1.304925   -0.175363
      2          6           0        1.034756   -0.008798   -0.072102
      3          8           0        0.350839   -1.236374   -0.190376
      4          6           0        2.550796   -0.018146    0.174355
      5         19           0       -1.873471   -0.017373    0.084954
      6          1           0        2.996890    0.835035   -0.301395
      7          1           0        2.975216   -0.917101   -0.230429
      8          1           0        2.743948    0.025401    1.230080
 ---------------------------------------------------------------------
 Rotational constants (GHZ):           8.9156074           1.9498874           1.6354912
 Standard basis: 6-31G(d) (6D, 7F)
 There are    89 symmetry adapted cartesian basis functions of A   symmetry.
 There are    89 symmetry adapted basis functions of A   symmetry.
    89 basis functions,   200 primitive gaussians,    89 cartesian basis functions
    25 alpha electrons       25 beta electrons
       nuclear repulsion energy       206.2853443578 Hartrees.
 NAtoms=    8 NActive=    8 NUniq=    8 SFac= 1.00D+00 NAtFMM=   60 NAOKFM=F Big=F
 Integral buffers will be    131072 words long.
 Raffenetti 2 integral format.
 Two-electron integral symmetry is turned on.
 One-electron integrals computed using PRISM.
 NBasis=    89 RedAO= T EigKep=  6.68D-03  NBF=    89
 NBsUse=    89 1.00D-06 EigRej= -1.00D+00 NBFU=    89
 Initial guess from the checkpoint file:  "base_11.chk"
 B after Tr=    -0.000000   -0.000000   -0.000000
         Rot=    0.999968    0.006118    0.001046    0.004986 Ang=   0.91 deg.
 ExpMin= 1.65D-02 ExpMax= 3.16D+04 ExpMxC= 4.74D+03 IAcc=3 IRadAn=         5 AccDes= 0.00D+00
 Harris functional with IExCor=  402 and IRadAn=       5 diagonalized for initial guess.
 HarFok:  IExCor=  402 AccDes= 0.00D+00 IRadAn=         5 IDoV= 1 UseB2=F ITyADJ=14
 ICtDFT=  3500011 ScaDFX=  1.000000  1.000000  1.000000  1.000000
 FoFCou: FMM=F IPFlag=           0 FMFlag=      100000 FMFlg1=           0
         NFxFlg=           0 DoJE=T BraDBF=F KetDBF=T FulRan=T
         wScrn=  0.000000 ICntrl=       500 IOpCl=  0 I1Cent=   200000004 NGrid=           0
         NMat0=    1 NMatS0=      1 NMatT0=    0 NMatD0=    1 NMtDS0=    0 NMtDT0=    0
 Petite list used in FoFCou.
 Keep R1 ints in memory in canonical form, NReq=8935621.
 Requested convergence on RMS density matrix=1.00D-08 within 128 cycles.
 Requested convergence on MAX density matrix=1.00D-06.
 Requested convergence on             energy=1.00D-06.
 No special actions if energy rises.
 SCF Done:  E(RB3LYP) =  -828.384063252     A.U. after   11 cycles
            NFock= 11  Conv=0.41D-08     -V/T= 2.0044
 Calling FoFJK, ICntrl=      2127 FMM=F ISym2X=0 I1Cent= 0 IOpClX= 0 NMat=1 NMatS=1 NMatT=0.
 ***** Axes restored to original set *****
 -------------------------------------------------------------------
 Center     Atomic                   Forces (Hartrees/Bohr)
 Number     Number              X              Y              Z
 -------------------------------------------------------------------
      1        8           0.098701204   -0.062861099   -0.078903263
      2        6          -0.112009921   -0.014608597   -0.018754911
      3        8           0.028003873    0.074408889    0.099414340
      4        6          -0.031553893    0.000535721   -0.008714414
      5       19           0.005067765    0.004639277    0.000762907
      6        1           0.000318995    0.011487855    0.007140214
      7        1           0.006823040   -0.003817715   -0.011366664
      8        1           0.004648937   -0.009784330    0.010421791
 -------------------------------------------------------------------
 Cartesian Forces:  Max     0.112009921 RMS     0.046076779

 GradGradGradGradGradGradGradGradGradGradGradGradGradGradGradGradGradGrad
 Berny optimization.
 Using GEDIIS/GDIIS optimizer.
 FormGI is forming the generalized inverse of G from B-inverse, IUseBI=4.
 Internal  Forces:  Max     0.130810313 RMS     0.035075670
 Search for a local minimum.
 Step number   2 out of a maximum of   38
 All quantities printed in internal units (Hartrees-Bohrs-Radians)
 Mixed Optimization -- RFO/linear search
 Update second derivatives using D2CorX and points    1    2
 DE= -5.27D-02 DEPred=-5.39D-02 R= 9.78D-01
 TightC=F SS=  1.41D+00  RLast= 3.24D-01 DXNew= 5.0454D-01 9.7337D-01
 Trust test= 9.78D-01 RLast= 3.24D-01 DXMaxT set to 5.05D-01
 ITU=  1  0
 Use linear search instead of GDIIS.
 Linear search step of   0.519 exceeds DXMaxT=   0.505 but not scaled.
 Quartic linear search produced a step of  1.73094.
 Iteration  1 RMS(Cart)=  0.06200742 RMS(Int)=  0.05305893
 Iteration  2 RMS(Cart)=  0.03552770 RMS(Int)=  0.01402645
 Iteration  3 RMS(Cart)=  0.01275938 RMS(Int)=  0.00185315
 Iteration  4 RMS(Cart)=  0.00006509 RMS(Int)=  0.00185092
 Iteration  5 RMS(Cart)=  0.00000010 RMS(Int)=  0.00185092
 Variable       Old X    -DE/DX   Delta X   Delta X   Delta X     New X
                                 (Linear)    (Quad)   (Total)
    R1        2.83297  -0.13081  -0.48232   0.00000  -0.48238   2.35059
    R2        4.86489  -0.00654   0.00226   0.00000   0.00595   4.87085
    R3        2.66490  -0.11723  -0.13928   0.00000  -0.13942   2.52548
    R4        2.90256  -0.01980  -0.01318   0.00000  -0.01318   2.88938
    R5        5.50378  -0.00785  -0.01489   0.00000  -0.02014   5.48365
    R6        4.82133  -0.00335  -0.01900   0.00000  -0.01666   4.80467
    R7        2.02937   0.01327   0.01275   0.00000   0.01275   2.04212
    R8        2.02836   0.01354   0.01099   0.00000   0.01099   2.03935
    R9        2.02981   0.01503   0.01351   0.00000   0.01351   2.04333
    A1        2.12448   0.00502   0.01747   0.00000   0.01261   2.13709
    A2        2.07943  -0.00519  -0.00864   0.00000  -0.00492   2.07451
    A3        2.07927   0.00017  -0.00884   0.00000  -0.00773   2.07154
    A4        1.91143  -0.00009   0.00139   0.00000   0.00138   1.91281
    A5        1.91226  -0.00094   0.00282   0.00000   0.00280   1.91506
    A6        1.91235  -0.00090   0.00297   0.00000   0.00296   1.91531
    A7        1.91140   0.00255   0.00133   0.00000   0.00132   1.91273
    A8        1.90553  -0.00052  -0.00884   0.00000  -0.00884   1.89669
    A9        1.91082  -0.00009   0.00032   0.00000   0.00030   1.91112
   A10        1.03756  -0.04877  -0.12338   0.00000  -0.12243   0.91513
   A11        3.14678   0.00158  -0.01053   0.00000  -0.00792   3.13886
   A12        2.89539   0.00322   0.00276   0.00000   0.00402   2.89942
    D1       -0.57384   0.00022  -0.08571   0.00000  -0.08616  -0.66000
    D2       -2.67067  -0.00228  -0.08993   0.00000  -0.09038  -2.76105
    D3        1.51584  -0.00103  -0.09388   0.00000  -0.09433   1.42151
    D4        2.57182   0.00225  -0.08118   0.00000  -0.08072   2.49110
    D5        0.47499  -0.00024  -0.08539   0.00000  -0.08495   0.39004
    D6       -1.62169   0.00100  -0.08934   0.00000  -0.08890  -1.71058
    D7       -2.90856  -0.00616  -0.01199   0.00000  -0.01237  -2.92093
         Item               Value     Threshold  Converged?
 Maximum Force            0.130810     0.000450     NO 
 RMS     Force            0.035076     0.000300     NO 
 Maximum Displacement     0.315370     0.001800     NO 
 RMS     Displacement     0.097180     0.001200     NO 
 Predicted change in Energy=-8.089013D-02
 GradGradGradGradGradGradGradGradGradGradGradGradGradGradGradGradGradGrad

                          Input orientation:                          
 ---------------------------------------------------------------------
 Center     Atomic      Atomic             Coordinates (Angstroms)
 Number     Number       Type             X           Y           Z
 ---------------------------------------------------------------------
      1          8           0        0.747381    1.038133    1.160773
      2          6           0        1.615016    0.553311    0.412848
      3          8           0        1.308685   -0.214152   -0.637485
      4          6           0        3.087910    0.834299    0.711946
      5         19           0       -1.083760   -0.487049    0.178701
      6          1           0        3.199075    1.850349    1.062766
      7          1           0        3.674466    0.694276   -0.183022
      8          1           0        3.438867    0.161694    1.482403
 ---------------------------------------------------------------------
                    Distance matrix (angstroms):
                    1          2          3          4          5
     1  O    0.000000
     2  C    1.243879   0.000000
     3  O    2.262082   1.336428   0.000000
     4  C    2.391876   1.528996   2.466953   0.000000
     5  K    2.577542   2.901821   2.542523   4.408303   0.000000
     6  H    2.584590   2.148009   3.275148   1.080644   4.958596
     7  H    3.239112   2.148549   2.574626   1.079177   4.916003
     8  H    2.848805   2.150289   3.028674   1.081283   4.751280
                    6          7          8
     6  H    0.000000
     7  H    1.764792   0.000000
     8  H    1.756460   1.764310   0.000000
 Stoichiometry    C2H3KO2
 Framework group  C1[X(C2H3KO2)]
 Deg. of freedom    18
 Full point group                 C1      NOp   1
 Largest Abelian subgroup         C1      NOp   1
 Largest concise Abelian subgroup C1      NOp   1
                         Standard orientation:                         
 ---------------------------------------------------------------------
 Center     Atomic      Atomic             Coordinates (Angstroms)
 Number     Number       Type             X           Y           Z
 ---------------------------------------------------------------------
      1          8           0        0.425941    1.111114   -0.171862
      2          6           0        1.004576    0.014279   -0.075051
      3          8           0        0.354260   -1.149820   -0.164499
      4          6           0        2.514021   -0.004924    0.167920
      5         19           0       -1.893291    0.014186    0.076398
      6          1           0        2.981390    0.792635   -0.391773
      7          1           0        2.921347   -0.953857   -0.145504
      8          1           0        2.716596    0.145198    1.219394
 ---------------------------------------------------------------------
 Rotational constants (GHZ):          11.0657276           1.9464835           1.6906984
 Standard basis: 6-31G(d) (6D, 7F)
 There are    89 symmetry adapted cartesian basis functions of A   symmetry.
 There are    89 symmetry adapted basis functions of A   symmetry.
    89 basis functions,   200 primitive gaussians,    89 cartesian basis functions
    25 alpha electrons       25 beta electrons
       nuclear repulsion energy       214.1941416095 Hartrees.
 NAtoms=    8 NActive=    8 NUniq=    8 SFac= 1.00D+00 NAtFMM=   60 NAOKFM=F Big=F
 Integral buffers will be    131072 words long.
 Raffenetti 2 integral format.
 Two-electron integral symmetry is turned on.
 One-electron integrals computed using PRISM.
 NBasis=    89 RedAO= T EigKep=  5.04D-03  NBF=    89
 NBsUse=    89 1.00D-06 EigRej= -1.00D+00 NBFU=    89
 Initial guess from the checkpoint file:  "base_11.chk"
 B after Tr=     0.000000    0.000000    0.000000
         Rot=    0.999887    0.013577    0.001594    0.006284 Ang=   1.72 deg.
 ExpMin= 1.65D-02 ExpMax= 3.16D+04 ExpMxC= 4.74D+03 IAcc=3 IRadAn=         5 AccDes= 0.00D+00
 Harris functional with IExCor=  402 and IRadAn=       5 diagonalized for initial guess.
 HarFok:  IExCor=  402 AccDes= 0.00D+00 IRadAn=         5 IDoV= 1 UseB2=F ITyADJ=14
 ICtDFT=  3500011 ScaDFX=  1.000000  1.000000  1.000000  1.000000
 FoFCou: FMM=F IPFlag=           0 FMFlag=      100000 FMFlg1=           0
         NFxFlg=           0 DoJE=T BraDBF=F KetDBF=T FulRan=T
         wScrn=  0.000000 ICntrl=       500 IOpCl=  0 I1Cent=   200000004 NGrid=           0
         NMat0=    1 NMatS0=      1 NMatT0=    0 NMatD0=    1 NMtDS0=    0 NMtDT0=    0
 Petite list used in FoFCou.
 Keep R1 ints in memory in canonical form, NReq=8935621.
 Requested convergence on RMS density matrix=1.00D-08 within 128 cycles.
 Requested convergence on MAX density matrix=1.00D-06.
 Requested convergence on             energy=1.00D-06.
 No special actions if energy rises.
 SCF Done:  E(RB3LYP) =  -828.439039073     A.U. after   12 cycles
            NFock= 12  Conv=0.24D-08     -V/T= 2.0037
 Calling FoFJK, ICntrl=      2127 FMM=F ISym2X=0 I1Cent= 0 IOpClX= 0 NMat=1 NMatS=1 NMatT=0.
 ***** Axes restored to original set *****
 -------------------------------------------------------------------
 Center     Atomic                   Forces (Hartrees/Bohr)
 Number     Number              X              Y              Z
 -------------------------------------------------------------------
      1        8          -0.012790306    0.008282572    0.018319530
      2        6          -0.011424990   -0.037684097   -0.057007684
      3        8           0.018692307    0.028022486    0.043880565
      4        6          -0.011209115   -0.000687391   -0.009653854
      5       19           0.005853099    0.003013992   -0.001026392
      6        1           0.000801217    0.008022379    0.004851319
      7        1           0.006510773   -0.002799624   -0.006530930
      8        1           0.003567015   -0.006170317    0.007167446
 -------------------------------------------------------------------
 Cartesian Forces:  Max     0.057007684 RMS     0.019338818

 GradGradGradGradGradGradGradGradGradGradGradGradGradGradGradGradGradGrad
 Berny optimization.
 Using GEDIIS/GDIIS optimizer.
 FormGI is forming the generalized inverse of G from B-inverse, IUseBI=4.
 Internal  Forces:  Max     0.053949639 RMS     0.011961329
 Search for a local minimum.
 Step number   3 out of a maximum of   38
 All quantities printed in internal units (Hartrees-Bohrs-Radians)
 Mixed Optimization -- RFO/linear search
 Update second derivatives using D2CorX and points    2    3
 ITU=  0  1  0
 Use linear search instead of GDIIS.
     Eigenvalues ---   -0.00023   0.01767   0.01830   0.02810   0.03286
     Eigenvalues ---    0.05651   0.05885   0.07932   0.10427   0.11982
     Eigenvalues ---    0.13747   0.15755   0.21733   0.33572   0.38706
     Eigenvalues ---    0.39498   0.39609   4.73479
 RFO step:  Lambda=-5.31477909D-03 EMin=-2.25376887D-04
 Quartic linear search produced a step of -0.01535.
 Iteration  1 RMS(Cart)=  0.10940409 RMS(Int)=  0.09780493
 Iteration  2 RMS(Cart)=  0.08527257 RMS(Int)=  0.00832990
 Iteration  3 RMS(Cart)=  0.00721862 RMS(Int)=  0.00105217
 Iteration  4 RMS(Cart)=  0.00004294 RMS(Int)=  0.00105123
 Iteration  5 RMS(Cart)=  0.00000004 RMS(Int)=  0.00105123
 Variable       Old X    -DE/DX   Delta X   Delta X   Delta X     New X
                                 (Linear)    (Quad)   (Total)
    R1        2.35059   0.02408   0.00740  -0.00041   0.00731   2.35790
    R2        4.87085   0.00066  -0.00009   0.06238   0.06363   4.93447
    R3        2.52548  -0.05395   0.00214  -0.03744  -0.03487   2.49061
    R4        2.88938  -0.00143   0.00020   0.05653   0.05673   2.94612
    R5        5.48365  -0.00805   0.00031  -0.10654  -0.10852   5.37513
    R6        4.80467   0.00024   0.00026  -0.11780  -0.11672   4.68796
    R7        2.04212   0.00920  -0.00020   0.00753   0.00733   2.04945
    R8        2.03935   0.00932  -0.00017  -0.00065  -0.00082   2.03853
    R9        2.04333   0.01010  -0.00021   0.00446   0.00425   2.04758
    A1        2.13709   0.00703  -0.00019   0.07725   0.07534   2.21244
    A2        2.07451  -0.00084   0.00008  -0.00864  -0.00758   2.06692
    A3        2.07154  -0.00620   0.00012  -0.06892  -0.06879   2.00276
    A4        1.91281   0.00008  -0.00002   0.01039   0.01012   1.92293
    A5        1.91506   0.00241  -0.00004   0.02592   0.02561   1.94067
    A6        1.91531  -0.00063  -0.00005  -0.00500  -0.00513   1.91018
    A7        1.91273   0.00061  -0.00002   0.00560   0.00517   1.91790
    A8        1.89669  -0.00094   0.00014  -0.04070  -0.04063   1.85605
    A9        1.91112  -0.00157  -0.00000   0.00319   0.00309   1.91421
   A10        0.91513  -0.00440   0.00188   0.01826   0.01825   0.93338
   A11        3.13886  -0.00381   0.00012  -0.07849  -0.07733   3.06152
   A12        2.89942   0.00240  -0.00006   0.05185   0.05404   2.95346
    D1       -0.66000   0.00050   0.00132  -0.40057  -0.39996  -1.05995
    D2       -2.76105  -0.00180   0.00139  -0.43009  -0.42967   3.09246
    D3        1.42151  -0.00099   0.00145  -0.44712  -0.44652   0.97499
    D4        2.49110   0.00202   0.00124  -0.36541  -0.36320   2.12790
    D5        0.39004  -0.00029   0.00130  -0.39494  -0.39291  -0.00287
    D6       -1.71058   0.00053   0.00136  -0.41196  -0.40976  -2.12034
    D7       -2.92093  -0.00526   0.00019  -0.10313  -0.10078  -3.02171
         Item               Value     Threshold  Converged?
 Maximum Force            0.053950     0.000450     NO 
 RMS     Force            0.011961     0.000300     NO 
 Maximum Displacement     0.420389     0.001800     NO 
 RMS     Displacement     0.188593     0.001200     NO 
 Predicted change in Energy=-2.781734D-03
 GradGradGradGradGradGradGradGradGradGradGradGradGradGradGradGradGradGrad

                          Input orientation:                          
 ---------------------------------------------------------------------
 Center     Atomic      Atomic             Coordinates (Angstroms)
 Number     Number       Type             X           Y           Z
 ---------------------------------------------------------------------
      1          8           0        0.770966    0.832094    1.383233
      2          6           0        1.568422    0.548856    0.466327
      3          8           0        1.277245   -0.029041   -0.681850
      4          6           0        3.085228    0.833063    0.687831
      5         19           0       -1.051694   -0.475592    0.046710
      6          1           0        3.246857    1.892448    0.854473
      7          1           0        3.671372    0.500466   -0.154490
      8          1           0        3.419244    0.328565    1.586695
 ---------------------------------------------------------------------
                    Distance matrix (angstroms):
                    1          2          3          4          5
     1  O    0.000000
     2  C    1.247749   0.000000
     3  O    2.294001   1.317976   0.000000
     4  C    2.416484   1.559018   2.426530   0.000000
     5  K    2.611211   2.844395   2.480759   4.386084   0.000000
     6  H    2.744809   2.184729   3.151473   1.084523   4.973694
     7  H    3.299535   2.193207   2.508053   1.078745   4.827062
     8  H    2.703390   2.174694   3.140436   1.083533   4.796614
                    6          7          8
     6  H    0.000000
     7  H    1.770828   0.000000
     8  H    1.735396   1.767723   0.000000
 Stoichiometry    C2H3KO2
 Framework group  C1[X(C2H3KO2)]
 Deg. of freedom    18
 Full point group                 C1      NOp   1
 Largest Abelian subgroup         C1      NOp   1
 Largest concise Abelian subgroup C1      NOp   1
                         Standard orientation:                         
 ---------------------------------------------------------------------
 Center     Atomic      Atomic             Coordinates (Angstroms)
 Number     Number       Type             X           Y           Z
 ---------------------------------------------------------------------
      1          8           0        0.446901    1.174297   -0.105630
      2          6           0        0.963141    0.038902   -0.070242
      3          8           0        0.331600   -1.116745   -0.122154
      4          6           0        2.506899   -0.068859    0.118799
      5         19           0       -1.878219   -0.003289    0.054154
      6          1           0        3.019339    0.423940   -0.700192
      7          1           0        2.821133   -1.098912    0.181551
      8          1           0        2.797434    0.456789    1.020645
 ---------------------------------------------------------------------
 Rotational constants (GHZ):          10.9832631           1.9796759           1.7036639
 Standard basis: 6-31G(d) (6D, 7F)
 There are    89 symmetry adapted cartesian basis functions of A   symmetry.
 There are    89 symmetry adapted basis functions of A   symmetry.
    89 basis functions,   200 primitive gaussians,    89 cartesian basis functions
    25 alpha electrons       25 beta electrons
       nuclear repulsion energy       214.8179911537 Hartrees.
 NAtoms=    8 NActive=    8 NUniq=    8 SFac= 1.00D+00 NAtFMM=   60 NAOKFM=F Big=F
 Integral buffers will be    131072 words long.
 Raffenetti 2 integral format.
 Two-electron integral symmetry is turned on.
 One-electron integrals computed using PRISM.
 NBasis=    89 RedAO= T EigKep=  4.65D-03  NBF=    89
 NBsUse=    89 1.00D-06 EigRej= -1.00D+00 NBFU=    89
 Initial guess from the checkpoint file:  "base_11.chk"
 B after Tr=    -0.000000   -0.000000   -0.000000
         Rot=    0.999888    0.014557   -0.000723    0.003388 Ang=   1.71 deg.
 ExpMin= 1.65D-02 ExpMax= 3.16D+04 ExpMxC= 4.74D+03 IAcc=3 IRadAn=         5 AccDes= 0.00D+00
 Harris functional with IExCor=  402 and IRadAn=       5 diagonalized for initial guess.
 HarFok:  IExCor=  402 AccDes= 0.00D+00 IRadAn=         5 IDoV= 1 UseB2=F ITyADJ=14
 ICtDFT=  3500011 ScaDFX=  1.000000  1.000000  1.000000  1.000000
 FoFCou: FMM=F IPFlag=           0 FMFlag=      100000 FMFlg1=           0
         NFxFlg=           0 DoJE=T BraDBF=F KetDBF=T FulRan=T
         wScrn=  0.000000 ICntrl=       500 IOpCl=  0 I1Cent=   200000004 NGrid=           0
         NMat0=    1 NMatS0=      1 NMatT0=    0 NMatD0=    1 NMtDS0=    0 NMtDT0=    0
 Petite list used in FoFCou.
 Keep R1 ints in memory in canonical form, NReq=8935621.
 Requested convergence on RMS density matrix=1.00D-08 within 128 cycles.
 Requested convergence on MAX density matrix=1.00D-06.
 Requested convergence on             energy=1.00D-06.
 No special actions if energy rises.
 SCF Done:  E(RB3LYP) =  -828.441225016     A.U. after   12 cycles
            NFock= 12  Conv=0.26D-08     -V/T= 2.0037
 Calling FoFJK, ICntrl=      2127 FMM=F ISym2X=0 I1Cent= 0 IOpClX= 0 NMat=1 NMatS=1 NMatT=0.
 ***** Axes restored to original set *****
 -------------------------------------------------------------------
 Center     Atomic                   Forces (Hartrees/Bohr)
 Number     Number              X              Y              Z
 -------------------------------------------------------------------
      1        8          -0.012625280    0.000610980    0.004466732
      2        6           0.020361590   -0.022842863   -0.044996823
      3        8           0.003642935    0.019442101    0.038576643
      4        6          -0.017921208   -0.000069474    0.000020816
      5       19           0.000990925    0.002031171    0.001631586
      6        1           0.000197314    0.008174022    0.000401022
      7        1           0.003621724   -0.002473271   -0.007307842
      8        1           0.001731999   -0.004872666    0.007207866
 -------------------------------------------------------------------
 Cartesian Forces:  Max     0.044996823 RMS     0.015230923

 GradGradGradGradGradGradGradGradGradGradGradGradGradGradGradGradGradGrad
 Berny optimization.
 Using GEDIIS/GDIIS optimizer.
 FormGI is forming the generalized inverse of G from B-inverse, IUseBI=4.
 Internal  Forces:  Max     0.041569653 RMS     0.009298084
 Search for a local minimum.
 Step number   4 out of a maximum of   38
 All quantities printed in internal units (Hartrees-Bohrs-Radians)
 Mixed Optimization -- RFO/linear search
 Update second derivatives using D2CorX and points    3    4
 DE= -2.19D-03 DEPred=-2.78D-03 R= 7.86D-01
 TightC=F SS=  1.41D+00  RLast= 1.03D+00 DXNew= 8.4853D-01 3.0952D+00
 Trust test= 7.86D-01 RLast= 1.03D+00 DXMaxT set to 8.49D-01
 ITU=  1  0  1  0
 Use linear search instead of GDIIS.
     Eigenvalues ---   -0.00026   0.01627   0.01880   0.02854   0.03466
     Eigenvalues ---    0.05645   0.05949   0.07935   0.11956   0.13478
     Eigenvalues ---    0.13978   0.16036   0.20147   0.34728   0.38481
     Eigenvalues ---    0.39495   0.39610   4.01663
 RFO step:  Lambda=-1.24978168D-03 EMin=-2.56362989D-04
 Quartic linear search produced a step of -0.12970.
 Iteration  1 RMS(Cart)=  0.09865851 RMS(Int)=  0.12115229
 Iteration  2 RMS(Cart)=  0.08550406 RMS(Int)=  0.02928128
 Iteration  3 RMS(Cart)=  0.02609812 RMS(Int)=  0.00061167
 Iteration  4 RMS(Cart)=  0.00046183 RMS(Int)=  0.00035764
 Iteration  5 RMS(Cart)=  0.00000020 RMS(Int)=  0.00035764
 Variable       Old X    -DE/DX   Delta X   Delta X   Delta X     New X
                                 (Linear)    (Quad)   (Total)
    R1        2.35790   0.01305  -0.00095   0.00667   0.00573   2.36364
    R2        4.93447  -0.00477  -0.00825   0.01813   0.00992   4.94440
    R3        2.49061  -0.04157   0.00452  -0.01854  -0.01399   2.47662
    R4        2.94612  -0.01185  -0.00736   0.02278   0.01542   2.96154
    R5        5.37513   0.00268   0.01407   0.00462   0.01851   5.39364
    R6        4.68796  -0.00172   0.01514  -0.04925  -0.03397   4.65398
    R7        2.04945   0.00808  -0.00095   0.00258   0.00163   2.05108
    R8        2.03853   0.00844   0.00011   0.00919   0.00930   2.04783
    R9        2.04758   0.00878  -0.00055   0.00546   0.00491   2.05249
    A1        2.21244  -0.00536  -0.00977  -0.00837  -0.01874   2.19370
    A2        2.06692   0.00002   0.00098   0.01473   0.01532   2.08225
    A3        2.00276   0.00543   0.00892  -0.00426   0.00447   2.00723
    A4        1.92293  -0.00114  -0.00131   0.00802   0.00661   1.92954
    A5        1.94067  -0.00121  -0.00332   0.00154  -0.00178   1.93889
    A6        1.91018  -0.00101   0.00067   0.00483   0.00535   1.91552
    A7        1.91790   0.00073  -0.00067  -0.01096  -0.01158   1.90632
    A8        1.85605   0.00156   0.00527   0.02914   0.03417   1.89022
    A9        1.91421   0.00119  -0.00040  -0.03167  -0.03212   1.88209
   A10        0.93338  -0.00667  -0.00237  -0.00208  -0.00453   0.92885
   A11        3.06152   0.00328   0.01003  -0.02592  -0.01608   3.04544
   A12        2.95346   0.00305  -0.00701   0.12138   0.11342   3.06687
    D1       -1.05995   0.00046   0.05187   0.41261   0.46470  -0.59525
    D2        3.09246   0.00114   0.05573   0.41994   0.47605  -2.71467
    D3        0.97499   0.00110   0.05791   0.45542   0.51376   1.48875
    D4        2.12790  -0.00119   0.04711   0.36734   0.41399   2.54189
    D5       -0.00287  -0.00052   0.05096   0.37468   0.42534   0.42247
    D6       -2.12034  -0.00056   0.05315   0.41016   0.46304  -1.65730
    D7       -3.02171  -0.00024   0.01307  -0.06139  -0.04940  -3.07112
         Item               Value     Threshold  Converged?
 Maximum Force            0.041570     0.000450     NO 
 RMS     Force            0.009298     0.000300     NO 
 Maximum Displacement     0.529223     0.001800     NO 
 RMS     Displacement     0.200208     0.001200     NO 
 Predicted change in Energy=-1.019631D-03
 GradGradGradGradGradGradGradGradGradGradGradGradGradGradGradGradGradGrad

                          Input orientation:                          
 ---------------------------------------------------------------------
 Center     Atomic      Atomic             Coordinates (Angstroms)
 Number     Number       Type             X           Y           Z
 ---------------------------------------------------------------------
      1          8           0        0.722599    1.022244    1.247075
      2          6           0        1.573331    0.509283    0.487086
      3          8           0        1.318359   -0.309094   -0.504299
      4          6           0        3.089497    0.848128    0.693184
      5         19           0       -1.087176   -0.409553    0.013970
      6          1           0        3.208153    1.870971    1.036366
      7          1           0        3.647661    0.713085   -0.225808
      8          1           0        3.515215    0.185796    1.441356
 ---------------------------------------------------------------------
                    Distance matrix (angstroms):
                    1          2          3          4          5
     1  O    0.000000
     2  C    1.250782   0.000000
     3  O    2.279189   1.310572   0.000000
     4  C    2.437071   1.567179   2.431061   0.000000
     5  K    2.616463   2.854190   2.462782   4.414486   0.000000
     6  H    2.634903   2.197395   3.270727   1.085385   4.969501
     7  H    3.289521   2.202862   2.558917   1.083665   4.872012
     8  H    2.921660   2.187736   2.976016   1.086132   4.855294
                    6          7          8
     6  H    0.000000
     7  H    1.768318   0.000000
     8  H    1.760148   1.753571   0.000000
 Stoichiometry    C2H3KO2
 Framework group  C1[X(C2H3KO2)]
 Deg. of freedom    18
 Full point group                 C1      NOp   1
 Largest Abelian subgroup         C1      NOp   1
 Largest concise Abelian subgroup C1      NOp   1
                         Standard orientation:                         
 ---------------------------------------------------------------------
 Center     Atomic      Atomic             Coordinates (Angstroms)
 Number     Number       Type             X           Y           Z
 ---------------------------------------------------------------------
      1          8           0        0.443141    1.180880   -0.048371
      2          6           0        0.967652    0.045658   -0.023575
      3          8           0        0.323515   -1.095142   -0.059080
      4          6           0        2.528312   -0.076785    0.049894
      5         19           0       -1.885593   -0.009726    0.024652
      6          1           0        3.000274    0.732307   -0.498452
      7          1           0        2.864487   -1.024806   -0.353311
      8          1           0        2.852472   -0.021843    1.085067
 ---------------------------------------------------------------------
 Rotational constants (GHZ):          11.2565156           1.9631277           1.6907741
 Standard basis: 6-31G(d) (6D, 7F)
 There are    89 symmetry adapted cartesian basis functions of A   symmetry.
 There are    89 symmetry adapted basis functions of A   symmetry.
    89 basis functions,   200 primitive gaussians,    89 cartesian basis functions
    25 alpha electrons       25 beta electrons
       nuclear repulsion energy       214.6678655044 Hartrees.
 NAtoms=    8 NActive=    8 NUniq=    8 SFac= 1.00D+00 NAtFMM=   60 NAOKFM=F Big=F
 Integral buffers will be    131072 words long.
 Raffenetti 2 integral format.
 Two-electron integral symmetry is turned on.
 One-electron integrals computed using PRISM.
 NBasis=    89 RedAO= T EigKep=  4.77D-03  NBF=    89
 NBsUse=    89 1.00D-06 EigRej= -1.00D+00 NBFU=    89
 Initial guess from the checkpoint file:  "base_11.chk"
 B after Tr=     0.000000   -0.000000    0.000000
         Rot=    0.999541   -0.030305   -0.000559   -0.000104 Ang=  -3.47 deg.
 ExpMin= 1.65D-02 ExpMax= 3.16D+04 ExpMxC= 4.74D+03 IAcc=3 IRadAn=         5 AccDes= 0.00D+00
 Harris functional with IExCor=  402 and IRadAn=       5 diagonalized for initial guess.
 HarFok:  IExCor=  402 AccDes= 0.00D+00 IRadAn=         5 IDoV= 1 UseB2=F ITyADJ=14
 ICtDFT=  3500011 ScaDFX=  1.000000  1.000000  1.000000  1.000000
 FoFCou: FMM=F IPFlag=           0 FMFlag=      100000 FMFlg1=           0
         NFxFlg=           0 DoJE=T BraDBF=F KetDBF=T FulRan=T
         wScrn=  0.000000 ICntrl=       500 IOpCl=  0 I1Cent=   200000004 NGrid=           0
         NMat0=    1 NMatS0=      1 NMatT0=    0 NMatD0=    1 NMtDS0=    0 NMtDT0=    0
 Petite list used in FoFCou.
 Keep R1 ints in memory in canonical form, NReq=8935621.
 Requested convergence on RMS density matrix=1.00D-08 within 128 cycles.
 Requested convergence on MAX density matrix=1.00D-06.
 Requested convergence on             energy=1.00D-06.
 No special actions if energy rises.
 SCF Done:  E(RB3LYP) =  -828.442058446     A.U. after   12 cycles
            NFock= 12  Conv=0.32D-08     -V/T= 2.0037
 Calling FoFJK, ICntrl=      2127 FMM=F ISym2X=0 I1Cent= 0 IOpClX= 0 NMat=1 NMatS=1 NMatT=0.
 ***** Axes restored to original set *****
 -------------------------------------------------------------------
 Center     Atomic                   Forces (Hartrees/Bohr)
 Number     Number              X              Y              Z
 -------------------------------------------------------------------
      1        8          -0.007349851    0.000043978    0.004940776
      2        6           0.017145342   -0.021336720   -0.037028051
      3        8           0.006542485    0.021009036    0.028830985
      4        6          -0.018288128   -0.000898011   -0.002195636
      5       19           0.000200748    0.002216639    0.001988119
      6        1          -0.000570343    0.005367964    0.003816454
      7        1           0.000827875   -0.002160674   -0.006206262
      8        1           0.001491871   -0.004242212    0.005853615
 -------------------------------------------------------------------
 Cartesian Forces:  Max     0.037028051 RMS     0.012918319

 GradGradGradGradGradGradGradGradGradGradGradGradGradGradGradGradGradGrad
 Berny optimization.
 Using GEDIIS/GDIIS optimizer.
 FormGI is forming the generalized inverse of G from B-inverse, IUseBI=4.
 Internal  Forces:  Max     0.034949829 RMS     0.008038692
 Search for a local minimum.
 Step number   5 out of a maximum of   38
 All quantities printed in internal units (Hartrees-Bohrs-Radians)
 Mixed Optimization -- RFO/linear search
 Update second derivatives using D2CorX and points    3    4    5
 DE= -8.33D-04 DEPred=-1.02D-03 R= 8.17D-01
 TightC=F SS=  1.41D+00  RLast= 1.14D+00 DXNew= 1.4270D+00 3.4126D+00
 Trust test= 8.17D-01 RLast= 1.14D+00 DXMaxT set to 1.43D+00
 ITU=  1  1  0  1  0
 Use linear search instead of GDIIS.
     Eigenvalues ---   -0.00126   0.00782   0.01879   0.02997   0.04140
     Eigenvalues ---    0.05734   0.06299   0.08025   0.11677   0.12791
     Eigenvalues ---    0.13947   0.16263   0.21186   0.36139   0.37223
     Eigenvalues ---    0.39504   0.39635   1.52673
 RFO step:  Lambda=-2.01094505D-03 EMin=-1.26351473D-03
 Quartic linear search produced a step of  0.62776.
 Iteration  1 RMS(Cart)=  0.12401598 RMS(Int)=  0.04374237
 Iteration  2 RMS(Cart)=  0.08990280 RMS(Int)=  0.01170454
 Iteration  3 RMS(Cart)=  0.00537167 RMS(Int)=  0.00862347
 Iteration  4 RMS(Cart)=  0.00004007 RMS(Int)=  0.00862343
 Iteration  5 RMS(Cart)=  0.00000087 RMS(Int)=  0.00862343
 Variable       Old X    -DE/DX   Delta X   Delta X   Delta X     New X
                                 (Linear)    (Quad)   (Total)
    R1        2.36364   0.00926   0.00360   0.02376   0.02837   2.39200
    R2        4.94440  -0.00336   0.00623  -0.00737   0.01488   4.95928
    R3        2.47662  -0.03495  -0.00878  -0.05973  -0.06570   2.41092
    R4        2.96154  -0.01625   0.00968   0.01453   0.02422   2.98575
    R5        5.39364  -0.00041   0.01162   0.05020   0.03719   5.43082
    R6        4.65398   0.00133  -0.02133  -0.04507  -0.05657   4.59741
    R7        2.05108   0.00620   0.00102   0.02668   0.02770   2.07878
    R8        2.04783   0.00596   0.00584   0.02238   0.02821   2.07604
    R9        2.05249   0.00720   0.00308   0.02670   0.02978   2.08227
    A1        2.19370  -0.00140  -0.01176  -0.04069  -0.07240   2.12130
    A2        2.08225  -0.00222   0.00962  -0.02162   0.00433   2.08658
    A3        2.00723   0.00362   0.00281   0.06238   0.06775   2.07498
    A4        1.92954  -0.00068   0.00415  -0.00232   0.00158   1.93112
    A5        1.93889  -0.00311  -0.00112   0.03780   0.03645   1.97534
    A6        1.91552  -0.00129   0.00336   0.00350   0.00669   1.92221
    A7        1.90632   0.00293  -0.00727   0.00309  -0.00446   1.90186
    A8        1.89022   0.00016   0.02145  -0.03800  -0.01672   1.87350
    A9        1.88209   0.00215  -0.02017  -0.00609  -0.02641   1.85567
   A10        0.92885  -0.00549  -0.00284  -0.01308  -0.02376   0.90509
   A11        3.04544   0.00352  -0.01010   0.02475   0.02857   3.07401
   A12        3.06687   0.00022   0.07120   0.30513   0.36613   3.43300
    D1       -0.59525  -0.00017   0.29172  -0.35842  -0.06305  -0.65830
    D2       -2.71467  -0.00132   0.29884  -0.38628  -0.08388  -2.79856
    D3        1.48875  -0.00121   0.32252  -0.40464  -0.07852   1.41023
    D4        2.54189   0.00179   0.25988  -0.34177  -0.08545   2.45644
    D5        0.42247   0.00064   0.26701  -0.36963  -0.10628   0.31619
    D6       -1.65730   0.00076   0.29068  -0.38800  -0.10092  -1.75822
    D7       -3.07112  -0.00195  -0.03101  -0.28353  -0.31664   2.89543
         Item               Value     Threshold  Converged?
 Maximum Force            0.034950     0.000450     NO 
 RMS     Force            0.008039     0.000300     NO 
 Maximum Displacement     0.525073     0.001800     NO 
 RMS     Displacement     0.205134     0.001200     NO 
 Predicted change in Energy=-2.151770D-03
 GradGradGradGradGradGradGradGradGradGradGradGradGradGradGradGradGradGrad

                          Input orientation:                          
 ---------------------------------------------------------------------
 Center     Atomic      Atomic             Coordinates (Angstroms)
 Number     Number       Type             X           Y           Z
 ---------------------------------------------------------------------
      1          8           0        0.738866    0.793047    1.396806
      2          6           0        1.597125    0.363976    0.571261
      3          8           0        1.280410   -0.451229   -0.357612
      4          6           0        3.089946    0.873205    0.663720
      5         19           0       -1.126276   -0.131696   -0.201081
      6          1           0        3.120108    1.939136    0.933867
      7          1           0        3.655979    0.724283   -0.265979
      8          1           0        3.631483    0.320137    1.447950
 ---------------------------------------------------------------------
                    Distance matrix (angstroms):
                    1          2          3          4          5
     1  O    0.000000
     2  C    1.265794   0.000000
     3  O    2.217989   1.275802   0.000000
     4  C    2.464025   1.579993   2.464075   0.000000
     5  K    2.624337   2.873868   2.432846   4.419755   0.000000
     6  H    2.682936   2.220832   3.281197   1.100045   4.858830
     7  H    3.358442   2.251593   2.652084   1.098596   4.858691
     8  H    2.931466   2.215653   3.063104   1.101890   5.055663
                    6          7          8
     6  H    0.000000
     7  H    1.789597   0.000000
     8  H    1.773962   1.761104   0.000000
 Stoichiometry    C2H3KO2
 Framework group  C1[X(C2H3KO2)]
 Deg. of freedom    18
 Full point group                 C1      NOp   1
 Largest Abelian subgroup         C1      NOp   1
 Largest concise Abelian subgroup C1      NOp   1
                         Standard orientation:                         
 ---------------------------------------------------------------------
 Center     Atomic      Atomic             Coordinates (Angstroms)
 Number     Number       Type             X           Y           Z
 ---------------------------------------------------------------------
      1          8           0        0.444755    1.167170    0.168491
      2          6           0        0.982813    0.023957    0.092382
      3          8           0        0.297286   -1.045511    0.210547
      4          6           0        2.532799   -0.090442   -0.191930
      5         19           0       -1.885080   -0.012935   -0.089124
      6          1           0        2.853801    0.680790   -0.907651
      7          1           0        2.830971   -1.076976   -0.572398
      8          1           0        3.101749    0.067581    0.738386
 ---------------------------------------------------------------------
 Rotational constants (GHZ):          11.2996018           1.9424016           1.6987605
 Standard basis: 6-31G(d) (6D, 7F)
 There are    89 symmetry adapted cartesian basis functions of A   symmetry.
 There are    89 symmetry adapted basis functions of A   symmetry.
    89 basis functions,   200 primitive gaussians,    89 cartesian basis functions
    25 alpha electrons       25 beta electrons
       nuclear repulsion energy       214.7756906592 Hartrees.
 NAtoms=    8 NActive=    8 NUniq=    8 SFac= 1.00D+00 NAtFMM=   60 NAOKFM=F Big=F
 Integral buffers will be    131072 words long.
 Raffenetti 2 integral format.
 Two-electron integral symmetry is turned on.
 One-electron integrals computed using PRISM.
 NBasis=    89 RedAO= T EigKep=  5.10D-03  NBF=    89
 NBsUse=    89 1.00D-06 EigRej= -1.00D+00 NBFU=    89
 Initial guess from the checkpoint file:  "base_11.chk"
 B after Tr=    -0.000000    0.000000   -0.000000
         Rot=    0.999970    0.007331   -0.002357    0.001105 Ang=   0.89 deg.
 ExpMin= 1.65D-02 ExpMax= 3.16D+04 ExpMxC= 4.74D+03 IAcc=3 IRadAn=         5 AccDes= 0.00D+00
 Harris functional with IExCor=  402 and IRadAn=       5 diagonalized for initial guess.
 HarFok:  IExCor=  402 AccDes= 0.00D+00 IRadAn=         5 IDoV= 1 UseB2=F ITyADJ=14
 ICtDFT=  3500011 ScaDFX=  1.000000  1.000000  1.000000  1.000000
 FoFCou: FMM=F IPFlag=           0 FMFlag=      100000 FMFlg1=           0
         NFxFlg=           0 DoJE=T BraDBF=F KetDBF=T FulRan=T
         wScrn=  0.000000 ICntrl=       500 IOpCl=  0 I1Cent=   200000004 NGrid=           0
         NMat0=    1 NMatS0=      1 NMatT0=    0 NMatD0=    1 NMtDS0=    0 NMtDT0=    0
 Petite list used in FoFCou.
 Keep R1 ints in memory in canonical form, NReq=8935621.
 Requested convergence on RMS density matrix=1.00D-08 within 128 cycles.
 Requested convergence on MAX density matrix=1.00D-06.
 Requested convergence on             energy=1.00D-06.
 No special actions if energy rises.
 SCF Done:  E(RB3LYP) =  -828.440684652     A.U. after   12 cycles
            NFock= 12  Conv=0.32D-08     -V/T= 2.0037
 Calling FoFJK, ICntrl=      2127 FMM=F ISym2X=0 I1Cent= 0 IOpClX= 0 NMat=1 NMatS=1 NMatT=0.
 ***** Axes restored to original set *****
 -------------------------------------------------------------------
 Center     Atomic                   Forces (Hartrees/Bohr)
 Number     Number              X              Y              Z
 -------------------------------------------------------------------
      1        8           0.008166696    0.006915270    0.003902438
      2        6          -0.003668419   -0.000994855   -0.007093452
      3        8           0.019324785    0.000826158   -0.003586585
      4        6          -0.009897296   -0.004668088    0.002144095
      5       19          -0.000426847    0.001616474    0.004447352
      6        1          -0.002439002   -0.003821880    0.000258989
      7        1          -0.006714528   -0.001142543    0.000128988
      8        1          -0.004345389    0.001269464   -0.000201825
 -------------------------------------------------------------------
 Cartesian Forces:  Max     0.019324785 RMS     0.005830900

 GradGradGradGradGradGradGradGradGradGradGradGradGradGradGradGradGradGrad
 Berny optimization.
 Using GEDIIS/GDIIS optimizer.
 FormGI is forming the generalized inverse of G from B-inverse, IUseBI=4.
 Internal  Forces:  Max     0.024664434 RMS     0.006945368
 Search for a local minimum.
 Step number   6 out of a maximum of   38
 All quantities printed in internal units (Hartrees-Bohrs-Radians)
 Mixed Optimization -- RFO/linear search
 Update second derivatives using D2CorX and points    3    6    5
 DE=  1.37D-03 DEPred=-2.15D-03 R=-6.38D-01
 Trust test=-6.38D-01 RLast= 5.54D-01 DXMaxT set to 7.14D-01
 ITU= -1  1  1  0  1  0
 Use linear search instead of GDIIS.
     Eigenvalues ---   -0.00159   0.01484   0.01939   0.03057   0.04265
     Eigenvalues ---    0.05715   0.06396   0.07652   0.11881   0.13089
     Eigenvalues ---    0.13964   0.16101   0.28389   0.34851   0.37825
     Eigenvalues ---    0.39505   0.39621   1.03651
 RFO step:  Lambda=-1.65157602D-03 EMin=-1.59461782D-03
 I=     1 Eig=   -1.59D-03 Dot1= -2.39D-05
 I=     1 Stepn= -6.00D-01 RXN=   6.00D-01 EDone=F
 Mixed    1 eigenvectors in step.  Raw Step.Grad=  2.39D-05.
 RFO eigenvector is Hessian eigenvector with negative curvature.
 Taking step of  6.00D-01 in eigenvector direction(s).  Step.Grad= -5.86D-04.
 Quartic linear search produced a step of -0.61997.
 Iteration  1 RMS(Cart)=  0.13176832 RMS(Int)=  0.01921918
 Iteration  2 RMS(Cart)=  0.02824815 RMS(Int)=  0.00165221
 Iteration  3 RMS(Cart)=  0.00058439 RMS(Int)=  0.00149540
 Iteration  4 RMS(Cart)=  0.00000055 RMS(Int)=  0.00149540
 Variable       Old X    -DE/DX   Delta X   Delta X   Delta X     New X
                                 (Linear)    (Quad)   (Total)
    R1        2.39200  -0.00113  -0.01759  -0.00154  -0.01934   2.37267
    R2        4.95928   0.00150  -0.00923  -0.01342  -0.02497   4.93431
    R3        2.41092  -0.00199   0.04073   0.00929   0.04963   2.46055
    R4        2.98575  -0.02466  -0.01501  -0.00838  -0.02339   2.96236
    R5        5.43082  -0.01133  -0.02305   0.02645   0.00701   5.43783
    R6        4.59741   0.01037   0.03507   0.01654   0.05016   4.64758
    R7        2.07878  -0.00371  -0.01717  -0.00001  -0.01719   2.06160
    R8        2.07604  -0.00341  -0.01749  -0.00322  -0.02072   2.05533
    R9        2.08227  -0.00292  -0.01846  -0.00238  -0.02084   2.06143
    A1        2.12130   0.01414   0.04488  -0.01364   0.03421   2.15551
    A2        2.08658  -0.00789  -0.00268  -0.00148  -0.00655   2.08003
    A3        2.07498  -0.00623  -0.04201   0.01477  -0.02765   2.04734
    A4        1.93112  -0.00158  -0.00098  -0.00887  -0.00992   1.92120
    A5        1.97534  -0.00687  -0.02260  -0.00056  -0.02315   1.95219
    A6        1.92221  -0.00226  -0.00414   0.00387  -0.00022   1.92199
    A7        1.90186   0.00443   0.00277  -0.00092   0.00174   1.90360
    A8        1.87350   0.00158   0.01036  -0.01029   0.00005   1.87356
    A9        1.85567   0.00540   0.01638   0.01715   0.03365   1.88932
   A10        0.90509   0.00217   0.01473  -0.00198   0.01401   0.91910
   A11        3.07401   0.00225  -0.01771   0.01221  -0.00751   3.06650
   A12        3.43300  -0.00388  -0.22699  -0.00828  -0.23250   3.20050
    D1       -0.65830  -0.00059   0.03909  -0.23372  -0.19559  -0.85389
    D2       -2.79856  -0.00024   0.05200  -0.22546  -0.17453  -2.97309
    D3        1.41023  -0.00104   0.04868  -0.24953  -0.20178   1.20845
    D4        2.45644   0.00068   0.05297  -0.24862  -0.19463   2.26181
    D5        0.31619   0.00103   0.06589  -0.24036  -0.17358   0.14261
    D6       -1.75822   0.00023   0.06256  -0.26443  -0.20082  -1.95904
    D7        2.89543   0.00547   0.19631   0.01779   0.21694   3.11237
         Item               Value     Threshold  Converged?
 Maximum Force            0.024664     0.000450     NO 
 RMS     Force            0.006945     0.000300     NO 
 Maximum Displacement     0.377766     0.001800     NO 
 RMS     Displacement     0.147105     0.001200     NO 
 Predicted change in Energy=-1.052577D-03
 GradGradGradGradGradGradGradGradGradGradGradGradGradGradGradGradGradGrad

                          Input orientation:                          
 ---------------------------------------------------------------------
 Center     Atomic      Atomic             Coordinates (Angstroms)
 Number     Number       Type             X           Y           Z
 ---------------------------------------------------------------------
      1          8           0        0.757275    0.810436    1.374054
      2          6           0        1.593821    0.440730    0.513856
      3          8           0        1.279550   -0.251323   -0.543343
      4          6           0        3.096765    0.853099    0.682767
      5         19           0       -1.130388   -0.291632   -0.054282
      6          1           0        3.171090    1.922160    0.887105
      7          1           0        3.682781    0.619084   -0.203105
      8          1           0        3.536746    0.328307    1.531878
 ---------------------------------------------------------------------
                    Distance matrix (angstroms):
                    1          2          3          4          5
     1  O    0.000000
     2  C    1.255561   0.000000
     3  O    2.253112   1.302065   0.000000
     4  C    2.439859   1.567616   2.454661   0.000000
     5  K    2.611124   2.877578   2.459392   4.440999   0.000000
     6  H    2.701769   2.195843   3.216851   1.090949   4.928468
     7  H    3.329059   2.215761   2.578544   1.087633   4.900831
     8  H    2.825388   2.196353   3.120488   1.090862   4.968136
                    6          7          8
     6  H    0.000000
     7  H    1.774371   0.000000
     8  H    1.757783   1.765232   0.000000
 Stoichiometry    C2H3KO2
 Framework group  C1[X(C2H3KO2)]
 Deg. of freedom    18
 Full point group                 C1      NOp   1
 Largest Abelian subgroup         C1      NOp   1
 Largest concise Abelian subgroup C1      NOp   1
                         Standard orientation:                         
 ---------------------------------------------------------------------
 Center     Atomic      Atomic             Coordinates (Angstroms)
 Number     Number       Type             X           Y           Z
 ---------------------------------------------------------------------
      1          8           0        0.441063    1.161581    0.029082
      2          6           0        0.982571    0.028811    0.023282
      3          8           0        0.313058   -1.087887    0.033892
      4          6           0        2.545924   -0.070611   -0.035565
      5         19           0       -1.894546   -0.004998   -0.015549
      6          1           0        2.932029    0.567233   -0.831962
      7          1           0        2.880571   -1.091628   -0.204330
      8          1           0        2.979833    0.280607    0.901637
 ---------------------------------------------------------------------
 Rotational constants (GHZ):          11.5369183           1.9410730           1.6794270
 Standard basis: 6-31G(d) (6D, 7F)
 There are    89 symmetry adapted cartesian basis functions of A   symmetry.
 There are    89 symmetry adapted basis functions of A   symmetry.
    89 basis functions,   200 primitive gaussians,    89 cartesian basis functions
    25 alpha electrons       25 beta electrons
       nuclear repulsion energy       214.4692068127 Hartrees.
 NAtoms=    8 NActive=    8 NUniq=    8 SFac= 1.00D+00 NAtFMM=   60 NAOKFM=F Big=F
 Integral buffers will be    131072 words long.
 Raffenetti 2 integral format.
 Two-electron integral symmetry is turned on.
 One-electron integrals computed using PRISM.
 NBasis=    89 RedAO= T EigKep=  4.95D-03  NBF=    89
 NBsUse=    89 1.00D-06 EigRej= -1.00D+00 NBFU=    89
 Lowest energy guess from the checkpoint file:  "base_11.chk"
 B after Tr=    -0.000000    0.000000    0.000000
         Rot=    0.999832    0.018311   -0.001194    0.000147 Ang=   2.10 deg.
 B after Tr=    -0.000000   -0.000000    0.000000
         Rot=    0.999956    0.009171    0.001229   -0.001234 Ang=   1.07 deg.
 Keep R1 ints in memory in canonical form, NReq=8935621.
 Requested convergence on RMS density matrix=1.00D-08 within 128 cycles.
 Requested convergence on MAX density matrix=1.00D-06.
 Requested convergence on             energy=1.00D-06.
 No special actions if energy rises.
 SCF Done:  E(RB3LYP) =  -828.442571102     A.U. after   10 cycles
            NFock= 10  Conv=0.46D-08     -V/T= 2.0037
 Calling FoFJK, ICntrl=      2127 FMM=F ISym2X=0 I1Cent= 0 IOpClX= 0 NMat=1 NMatS=1 NMatT=0.
 ***** Axes restored to original set *****
 -------------------------------------------------------------------
 Center     Atomic                   Forces (Hartrees/Bohr)
 Number     Number              X              Y              Z
[...]
         8        -0.0129      0.0041      0.0102     -0.0175      0.0000     -0.0001
         9         0.0096     -0.0078      0.0116      0.2411     -0.0000     -0.0000
        10        -0.0000     -0.0000      0.0000     -0.0000     -0.0106      0.0086
 <0|del|b> * <b|rxdel|0> + <0|del|b> * <b|delr+rdel|0>
 Rotatory Strengths (R) in cgs (10**-40 erg-esu-cm/Gauss)
       state          XX          YY          ZZ    R(velocity)    E-M Angle
         1         0.0001      0.0002      0.0001      0.0001       90.00
         2        -0.0000      0.0058     -0.0000      0.0019       90.00
         3         0.0001     -0.0063      0.0003     -0.0020       90.00
         4         0.0006     -0.0008     -0.0001     -0.0001       90.00
         5         0.0001     -0.0007     -0.0000     -0.0002       90.00
         6        -0.0000     -0.0018     -0.0001     -0.0006       90.00
         7        -0.0006      0.0005      0.0000     -0.0000       90.00
         8         0.0007      0.0025     -0.0003      0.0009       90.00
         9         0.0006     -0.0006     -0.0001     -0.0000       90.00
        10        -0.0042      0.0023     -0.0005     -0.0008       90.00
 1/2[<0|r|b>*<b|rxdel|0> + (<0|rxdel|b>*<b|r|0>)*]
 Rotatory Strengths (R) in cgs (10**-40 erg-esu-cm/Gauss)
       state          XX          YY          ZZ     R(length)
         1         0.0003      0.0002     -0.0003      0.0001
         2         0.0058     -0.0001      0.0001      0.0019
         3        -0.0059      0.0001      0.0000     -0.0019
         4         0.0005     -0.0003      0.0001      0.0001
         5         0.0004     -0.0000     -0.0002      0.0000
         6        -0.0000     -0.0011     -0.0000     -0.0004
         7         0.0002     -0.0001     -0.0007     -0.0002
         8        -0.0005     -0.0005      0.0024      0.0005
         9        -0.0001     -0.0008     -0.0002     -0.0004
        10         0.0005     -0.0009     -0.0004     -0.0002
  1/2[<0|del|b>*<b|r|0> + (<0|r|b>*<b|del|0>)*] (Au)
       state          X           Y           Z        Dip. S.   Osc.(frdel)
         1        -0.0000     -0.0026     -0.0000      0.0026      0.0017
         2        -0.0000     -0.0000     -0.0000      0.0000      0.0000
         3        -0.1590     -0.0000     -0.0000      0.1590      0.1060
         4         0.0000     -0.0000     -0.0001      0.0001      0.0000
         5         0.0002      0.0000     -0.0000     -0.0002     -0.0002
         6        -0.0000     -0.0000     -0.0186      0.0186      0.0124
         7        -0.0000     -0.0012      0.0000      0.0012      0.0008
         8         0.0000     -0.0107     -0.0000      0.0106      0.0071
         9         0.0000     -0.0286      0.0000      0.0286      0.0190
        10         0.0000     -0.0000     -0.0097      0.0097      0.0065

 Excitation energies and oscillator strengths:
 
 Excited State   1:      Singlet-A      3.4125 eV  363.32 nm  f=0.0031  <S**2>=0.000
      25 -> 26         0.70383
 This state for optimization and/or second-order correction.
 Total Energy, E(TD-HF/TD-DFT) =  -828.319912100    
 Copying the excited state density for this state as the 1-particle RhoCI density.
 
 Excited State   2:      Singlet-A      3.7898 eV  327.15 nm  f=0.0000  <S**2>=0.000
      23 -> 26         0.70431
 
 Excited State   3:      Singlet-A      3.8555 eV  321.58 nm  f=0.1037  <S**2>=0.000
      24 -> 26         0.70366
 
 Excited State   4:      Singlet-A      4.7502 eV  261.01 nm  f=0.0000  <S**2>=0.000
      25 -> 27         0.70266
 
 Excited State   5:      Singlet-A      4.9383 eV  251.07 nm  f=0.0078  <S**2>=0.000
      25 -> 28         0.70033
 
 Excited State   6:      Singlet-A      5.0740 eV  244.35 nm  f=0.0107  <S**2>=0.000
      24 -> 27         0.70288
 
 Excited State   7:      Singlet-A      5.1312 eV  241.63 nm  f=0.0001  <S**2>=0.000
      24 -> 28         0.28989
      25 -> 29         0.62848
      25 -> 30         0.12634
 
 Excited State   8:      Singlet-A      5.1733 eV  239.66 nm  f=0.0025  <S**2>=0.000
      23 -> 27         0.70309
 
 Excited State   9:      Singlet-A      5.2863 eV  234.54 nm  f=0.0124  <S**2>=0.000
      24 -> 28         0.64121
      25 -> 29        -0.28982
 
 Excited State  10:      Singlet-A      5.3428 eV  232.06 nm  f=0.0018  <S**2>=0.000
      23 -> 28         0.70398
 SavETr:  write IOETrn=   770 NScale= 10 NData=  16 NLR=1 NState=   10 LETran=     190.
          Differentiating once with respect to electric field.
                with respect to dipole field.
          Electric field/nuclear overlap derivatives assumed to be zero.
 Keep R1 ints in memory in canonical form, NReq=8937003.
          There are     1 degrees of freedom in the 1st order CPHF.  IDoFFX=0 NUNeed=     1.
 LinEq1:  Iter=  0 NonCon=     1 RMS=3.66D-02 Max=6.79D-01 NDo=     1
 AX will form     1 AO Fock derivatives at one time.
 LinEq1:  Iter=  1 NonCon=     1 RMS=1.52D-02 Max=2.07D-01 NDo=     1
 LinEq1:  Iter=  2 NonCon=     1 RMS=9.25D-03 Max=1.28D-01 NDo=     1
 LinEq1:  Iter=  3 NonCon=     1 RMS=2.07D-03 Max=3.48D-02 NDo=     1
 LinEq1:  Iter=  4 NonCon=     1 RMS=6.29D-04 Max=1.51D-02 NDo=     1
 LinEq1:  Iter=  5 NonCon=     1 RMS=5.51D-04 Max=8.57D-03 NDo=     1
 LinEq1:  Iter=  6 NonCon=     1 RMS=2.59D-04 Max=2.88D-03 NDo=     1
 LinEq1:  Iter=  7 NonCon=     1 RMS=9.70D-05 Max=1.39D-03 NDo=     1
 LinEq1:  Iter=  8 NonCon=     1 RMS=2.13D-05 Max=3.64D-04 NDo=     1
 LinEq1:  Iter=  9 NonCon=     1 RMS=2.36D-06 Max=2.72D-05 NDo=     1
 LinEq1:  Iter= 10 NonCon=     1 RMS=2.58D-07 Max=3.22D-06 NDo=     1
 LinEq1:  Iter= 11 NonCon=     1 RMS=5.01D-08 Max=6.66D-07 NDo=     1
 LinEq1:  Iter= 12 NonCon=     1 RMS=9.81D-09 Max=1.71D-07 NDo=     1
 LinEq1:  Iter= 13 NonCon=     1 RMS=2.17D-09 Max=3.08D-08 NDo=     1
 LinEq1:  Iter= 14 NonCon=     1 RMS=3.10D-10 Max=3.49D-09 NDo=     1
 LinEq1:  Iter= 15 NonCon=     0 RMS=4.80D-11 Max=3.94D-10 NDo=     1
 Linear equations converged to 1.000D-10 1.000D-09 after    15 iterations.
 End of Minotr F.D. properties file   721 does not exist.
 End of Minotr F.D. properties file   722 does not exist.
 End of Minotr F.D. properties file   788 does not exist.

 **********************************************************************

            Population analysis using the CI density.

 **********************************************************************

 Orbital symmetries:
       Occupied  (A) (A) (A) (A) (A) (A) (A) (A) (A) (A) (A) (A)
                 (A) (A) (A) (A) (A) (A) (A) (A) (A) (A) (A) (A)
                 (A)
       Virtual   (A) (A) (A) (A) (A) (A) (A) (A) (A) (A) (A) (A)
                 (A) (A) (A) (A) (A) (A) (A) (A) (A) (A) (A) (A)
                 (A) (A) (A) (A) (A) (A) (A) (A) (A) (A) (A) (A)
                 (A) (A) (A) (A) (A) (A) (A) (A) (A) (A) (A) (A)
                 (A) (A) (A) (A) (A) (A) (A) (A) (A) (A) (A) (A)
                 (A) (A) (A) (A)
 The electronic state is 1-A.
 Alpha  occ. eigenvalues -- -129.76792 -19.05504 -19.05269 -13.20421 -10.54609
 Alpha  occ. eigenvalues --  -10.54571 -10.54530 -10.23849 -10.13894  -1.37309
 Alpha  occ. eigenvalues --   -0.98600  -0.89292  -0.74215  -0.73785  -0.73482
 Alpha  occ. eigenvalues --   -0.67531  -0.46059  -0.39260  -0.38985  -0.38386
 Alpha  occ. eigenvalues --   -0.33973  -0.31687  -0.21260  -0.20946  -0.19743
 Alpha virt. eigenvalues --   -0.04683   0.00303   0.00866   0.01943   0.04119
 Alpha virt. eigenvalues --    0.06683   0.07340   0.09337   0.09635   0.19084
 Alpha virt. eigenvalues --    0.20702   0.22241   0.27632   0.29180   0.29717
 Alpha virt. eigenvalues --    0.29868   0.33513   0.34950   0.41827   0.44974
 Alpha virt. eigenvalues --    0.46801   0.59245   0.62496   0.66062   0.70143
 Alpha virt. eigenvalues --    0.71018   0.78066   0.86740   0.90376   0.92560
 Alpha virt. eigenvalues --    0.99164   1.01271   1.01665   1.02991   1.13319
 Alpha virt. eigenvalues --    1.16184   1.21324   1.29319   1.44868   1.50258
 Alpha virt. eigenvalues --    1.60274   1.63625   1.81692   1.85589   1.85993
 Alpha virt. eigenvalues --    1.88941   1.93682   1.95882   2.02193   2.05927
 Alpha virt. eigenvalues --    2.15525   2.27049   2.28073   2.48131   2.52183
 Alpha virt. eigenvalues --    2.73432   2.82846   2.97760   2.99061   3.15188
 Alpha virt. eigenvalues --    3.90645   4.14653   4.18453   4.49220
          Condensed to atoms (all electrons):
               1          2          3          4          5          6
     1  O    8.148293   0.331318  -0.030313  -0.097148   0.005640   0.001213
     2  C    0.331318   4.349180   0.361366   0.367824  -0.011901  -0.018483
     3  O   -0.030313   0.361366   8.117265  -0.092296   0.005714   0.001366
     4  C   -0.097148   0.367824  -0.092296   5.303564  -0.003491   0.361536
     5  K    0.005640  -0.011901   0.005714  -0.003491  18.996825   0.001562
     6  H    0.001213  -0.018483   0.001366   0.361536   0.001562   0.483454
     7  H    0.003276  -0.020620   0.005846   0.352357   0.002256  -0.020535
     8  H    0.001231  -0.018494   0.001377   0.361510   0.001565  -0.022046
               7          8
     1  O    0.003276   0.001231
     2  C   -0.020620  -0.018494
     3  O    0.005846   0.001377
     4  C    0.352357   0.361510
     5  K    0.002256   0.001565
     6  H   -0.020535  -0.022046
     7  H    0.495726  -0.020537
     8  H   -0.020537   0.483504
 Mulliken charges:
               1
     1  O   -0.363511
     2  C    0.659809
     3  O   -0.370326
     4  C   -0.553857
     5  K    0.001831
     6  H    0.211933
     7  H    0.202231
     8  H    0.211889
 Sum of Mulliken charges =   0.00000
 Mulliken charges with hydrogens summed into heavy atoms:
               1
     1  O   -0.363511
     2  C    0.659809
     3  O   -0.370326
     4  C    0.072196
     5  K    0.001831
 Electronic spatial extent (au):  <R**2>=            685.0531
 Charge=              0.0000 electrons
 Dipole moment (field-independent basis, Debye):
    X=              8.5244    Y=              0.0401    Z=             -0.0002  Tot=              8.5245
 Quadrupole moment (field-independent basis, Debye-Ang):
   XX=            -61.8956   YY=            -47.1120   ZZ=            -44.1058
   XY=              0.2936   XZ=             -0.0013   YZ=             -0.0000
 Traceless Quadrupole moment (field-independent basis, Debye-Ang):
   XX=            -10.8578   YY=              3.9258   ZZ=              6.9321
   XY=              0.2936   XZ=             -0.0013   YZ=             -0.0000
 Octapole moment (field-independent basis, Debye-Ang**2):
  XXX=            179.5313  YYY=             -0.9711  ZZZ=             -0.0031  XYY=             29.8384
  XXY=             -0.0004  XXZ=             -0.0008  XZZ=             30.7409  YZZ=              0.6251
  YYZ=              0.0045  XYZ=             -0.0001
 Hexadecapole moment (field-independent basis, Debye-Ang**3):
 XXXX=          -1476.3265 YYYY=           -226.9763 ZZZZ=           -149.3174 XXXY=              3.1586
 XXXZ=             -0.0136 YYYX=             -0.6268 YYYZ=              0.0006 ZZZX=             -0.0182
 ZZZY=             -0.0007 XXYY=           -248.3645 XXZZ=           -237.7498 YYZZ=            -62.7947
 XXYZ=             -0.0001 YYXZ=              0.0104 ZZXY=              2.7613
 N-N= 2.167226928381D+02 E-N=-2.390431367825D+03  KE= 8.254163585122D+02
 Evaluate density.
 Using the total density.
 Monte-Carlo method of calculating molar volume:
 based on  0.001 e/bohr**3 density envelope.
 Number of points per bohr**3 =   20 CutOff= 1.00D-04
 Using the CI density.
 There are       695 points.  Will hold       695 in memory.
 LenV=   268362811 MDV=   268435456.
 Box volume =42126.571 fraction occupied=0.014
 Integrated density= 1.0970382580557988D+01 error=-3.9029617419442012D+01
 Molar volume =  606.138 bohr**3/mol ( 54.091 cm**3/mol)
 Recommended a0 for SCRF calculation =  3.56 angstrom (  6.72 bohr)
 ******************************Gaussian NBO Version 3.1******************************
             N A T U R A L   A T O M I C   O R B I T A L   A N D
          N A T U R A L   B O N D   O R B I T A L   A N A L Y S I S
 ******************************Gaussian NBO Version 3.1******************************
       /RESON  / : Allow strongly delocalized NBO set

 Analyzing the CI density

 Job title: Title Card Required                                             

 Storage needed:     24281 in NPA ( 268435056 available)


 NATURAL POPULATIONS:  Natural atomic orbital occupancies 
                                                          
   NAO  Atom  No  lang   Type(AO)    Occupancy
 --------------------------------------------
     1    O    1  S      Cor( 1S)     1.99983
     2    O    1  S      Val( 2S)     1.74877
     3    O    1  S      Ryd( 3S)     0.00095
     4    O    1  S      Ryd( 4S)     0.00040
     5    O    1  px     Val( 2p)     1.60887
     6    O    1  px     Ryd( 3p)     0.00000
     7    O    1  py     Val( 2p)     1.40743
     8    O    1  py     Ryd( 3p)     0.00065
     9    O    1  pz     Val( 2p)     1.65461
    10    O    1  pz     Ryd( 3p)     0.00000
    11    O    1  dxy    Ryd( 3d)     0.00424
    12    O    1  dxz    Ryd( 3d)     0.00071
    13    O    1  dyz    Ryd( 3d)     0.00376
    14    O    1  dx2y2  Ryd( 3d)     0.00326
    15    O    1  dz2    Ryd( 3d)     0.00110
 
    16    C    2  S      Cor( 1S)     1.99960
    17    C    2  S      Val( 2S)     0.81471
    18    C    2  S      Ryd( 3S)     0.01036
    19    C    2  S      Ryd( 4S)     0.00052
    20    C    2  px     Val( 2p)     0.92429
    21    C    2  px     Ryd( 3p)     0.01360
    22    C    2  py     Val( 2p)     0.69234
    23    C    2  py     Ryd( 3p)     0.01771
    24    C    2  pz     Val( 2p)     0.72822
    25    C    2  pz     Ryd( 3p)     0.00059
    26    C    2  dxy    Ryd( 3d)     0.00212
    27    C    2  dxz    Ryd( 3d)     0.00100
    28    C    2  dyz    Ryd( 3d)     0.00261
    29    C    2  dx2y2  Ryd( 3d)     0.00308
    30    C    2  dz2    Ryd( 3d)     0.00027
 
    31    O    3  S      Cor( 1S)     1.99983
    32    O    3  S      Val( 2S)     1.74754
    33    O    3  S      Ryd( 3S)     0.00093
    34    O    3  S      Ryd( 4S)     0.00031
    35    O    3  px     Val( 2p)     1.62019
    36    O    3  px     Ryd( 3p)     0.00000
    37    O    3  py     Val( 2p)     1.40868
    38    O    3  py     Ryd( 3p)     0.00070
    39    O    3  pz     Val( 2p)     1.64223
    40    O    3  pz     Ryd( 3p)     0.00000
    41    O    3  dxy    Ryd( 3d)     0.00432
    42    O    3  dxz    Ryd( 3d)     0.00074
    43    O    3  dyz    Ryd( 3d)     0.00380
    44    O    3  dx2y2  Ryd( 3d)     0.00326
    45    O    3  dz2    Ryd( 3d)     0.00108
 
    46    C    4  S      Cor( 1S)     1.99936
    47    C    4  S      Val( 2S)     1.15181
    48    C    4  S      Ryd( 3S)     0.00061
    49    C    4  S      Ryd( 4S)     0.00001
    50    C    4  px     Val( 2p)     1.10338
    51    C    4  px     Ryd( 3p)     0.00183
    52    C    4  py     Val( 2p)     1.27334
    53    C    4  py     Ryd( 3p)     0.00139
    54    C    4  pz     Val( 2p)     1.26837
    55    C    4  pz     Ryd( 3p)     0.00029
    56    C    4  dxy    Ryd( 3d)     0.00036
    57    C    4  dxz    Ryd( 3d)     0.00021
    58    C    4  dyz    Ryd( 3d)     0.00084
    59    C    4  dx2y2  Ryd( 3d)     0.00095
    60    C    4  dz2    Ryd( 3d)     0.00066
 
    61    K    5  S      Cor( 1S)     2.00000
    62    K    5  S      Cor( 2S)     2.00000
    63    K    5  S      Cor( 3S)     1.99964
    64    K    5  S      Val( 4S)     0.85275
    65    K    5  S      Ryd( 5S)     0.00000
    66    K    5  S      Ryd( 6S)     0.00000
    67    K    5  px     Cor( 2p)     2.00113
    68    K    5  px     Cor( 3p)     1.99999
    69    K    5  px     Ryd( 4p)     0.09544
    70    K    5  px     Ryd( 5p)     0.00034
    71    K    5  py     Cor( 3p)     1.99921
    72    K    5  py     Cor( 2p)     2.00000
    73    K    5  py     Ryd( 4p)     0.00000
    74    K    5  py     Ryd( 5p)     0.00000
    75    K    5  pz     Cor( 2p)     2.00081
    76    K    5  pz     Cor( 3p)     2.00000
    77    K    5  pz     Ryd( 5p)     0.00000
    78    K    5  pz     Ryd( 4p)     0.00000
    79    K    5  dxy    Ryd( 3d)     0.00000
    80    K    5  dxz    Ryd( 3d)     0.00000
    81    K    5  dyz    Ryd( 3d)     0.00000
    82    K    5  dx2y2  Ryd( 3d)     0.00000
    83    K    5  dz2    Ryd( 3d)     0.00038
 
    84    H    6  S      Val( 1S)     0.72756
    85    H    6  S      Ryd( 2S)     0.00007
 
    86    H    7  S      Val( 1S)     0.73340
    87    H    7  S      Ryd( 2S)     0.00011
 
    88    H    8  S      Val( 1S)     0.72758
    89    H    8  S      Ryd( 2S)     0.00007


 Summary of Natural Population Analysis:                  
                                                          
                                       Natural Population 
                Natural  -----------------------------------------------
    Atom  No    Charge         Core      Valence    Rydberg      Total
 -----------------------------------------------------------------------
      O    1   -0.43458      1.99983     6.41968    0.01507     8.43458
      C    2    0.78899      1.99960     3.15956    0.05185     5.21101
      O    3   -0.43362      1.99983     6.41864    0.01515     8.43362
      C    4   -0.80342      1.99936     4.79690    0.00716     6.80342
      K    5    0.05032     18.00078     0.85275    0.09615    18.94968
      H    6    0.27237      0.00000     0.72756    0.00007     0.72763
      H    7    0.26650      0.00000     0.73340    0.00011     0.73350
      H    8    0.27235      0.00000     0.72758    0.00007     0.72765
 =======================================================================
   * Total *   -0.02110     25.99940    23.83608    0.18562    50.02110

                                 Natural Population      
 --------------------------------------------------------
   Core                      25.99940 ( 99.9977% of  26)
   Valence                   23.83608 ( 99.3170% of  24)
   Natural Minimal Basis     49.83548 ( 99.6710% of  50)
   Natural Rydberg Basis      0.18562 (  0.3712% of  50)
 --------------------------------------------------------

    Atom  No          Natural Electron Configuration
 ----------------------------------------------------------------------------
      O    1      [core]2S( 1.75)2p( 4.67)3d( 0.01)
      C    2      [core]2S( 0.81)2p( 2.34)3S( 0.01)3p( 0.03)3d( 0.01)
      O    3      [core]2S( 1.75)2p( 4.67)3d( 0.01)
      C    4      [core]2S( 1.15)2p( 3.65)
      K    5      [core]4S( 0.85)4p( 0.09)
      H    6            1S( 0.73)
      H    7            1S( 0.73)
      H    8            1S( 0.73)


 NBO analysis skipped by request.
 1\1\GINC-DELLA-R4C2N7\SP\RB3LYP TD-FC\6-31G(d)\C2H3K1O2\BJS4\08-Dec-20
 19\0\\# TD(NStates=10, Root=1) B3LYP/6-31G* scf=xqc volume pop=NPA den
 sity=current Geom=AllCheck Guess=Read\\Title Card Required\\0,1\O,0,0.
 7883022941,0.7340051565,1.3710071836\C,0,1.6136709109,0.4424900656,0.4
 502349641\O,0,1.3192333763,-0.1477885647,-0.6336620136\C,0,3.075293078
 2,0.8410127005,0.6799972983\K,0,-1.0981759184,-0.2807348791,0.05624693
 02\H,0,3.1406014975,1.9247191284,0.8301277866\H,0,3.7046830229,0.54753
 08259,-0.1631751523\H,0,3.4440317385,0.3696255668,1.5981530132\\Versio
 n=ES64L-G16RevA.03\State=1-A\HF=-828.4453203\RMSD=1.332e-09\Dipole=3.2
 012578,0.8687206,0.4951468\Quadrupole=-7.1525858,3.9824782,3.1701076,-
 2.9736073,-1.1616148,-1.2018781\PG=C01 [X(C2H3K1O2)]\\@


 PATIENCE IS THE ABILITY TO IDLE YOUR MOTOR WHEN
 YOU FEEL LIKE STRIPPING YOUR GEARS.
 Job cpu time:       0 days  0 hours  2 minutes 15.8 seconds.
 Elapsed time:       0 days  0 hours  2 minutes 15.8 seconds.
 File lengths (MBytes):  RWF=    128 Int=      0 D2E=      0 Chk=      8 Scr=      1
 Normal termination of Gaussian 16 at Sun Dec  8 18:03:02 2019.
