 Entering Gaussian System, Link 0=g16
 Input=science_arx_5123.com
 Output=science_arx_5123.log
 Initial command:
 /opt/export/g16/l1.exe "/scratch/bjs4/job.115205/Gau-115212.inp" -scrdir="/scratch/bjs4/job.115205/"
 Entering Link 1 = /opt/export/g16/l1.exe PID=    115219.
  
 Copyright (c) 1988,1990,1992,1993,1995,1998,2003,2009,2016,
            Gaussian, Inc.  All Rights Reserved.
  
 This is part of the Gaussian(R) 16 program.  It is based on
 the Gaussian(R) 09 system (copyright 2009, Gaussian, Inc.),
 the Gaussian(R) 03 system (copyright 2003, Gaussian, Inc.),
 the Gaussian(R) 98 system (copyright 1998, Gaussian, Inc.),
 the Gaussian(R) 94 system (copyright 1995, Gaussian, Inc.),
 the Gaussian 92(TM) system (copyright 1992, Gaussian, Inc.),
 the Gaussian 90(TM) system (copyright 1990, Gaussian, Inc.),
 the Gaussian 88(TM) system (copyright 1988, Gaussian, Inc.),
 the Gaussian 86(TM) system (copyright 1986, Carnegie Mellon
 University), and the Gaussian 82(TM) system (copyright 1983,
 Carnegie Mellon University). Gaussian is a federally registered
 trademark of Gaussian, Inc.
  
 This software contains proprietary and confidential information,
 including trade secrets, belonging to Gaussian, Inc.
  
 This software is provided under written license and may be
 used, copied, transmitted, or stored only in accord with that
 written license.
  
 The following legend is applicable only to US Government
 contracts under FAR:
  
                    RESTRICTED RIGHTS LEGEND
  
 Use, reproduction and disclosure by the US Government is
 subject to restrictions as set forth in subparagraphs (a)
 and (c) of the Commercial Computer Software - Restricted
 Rights clause in FAR 52.227-19.
  
 Gaussian, Inc.
 340 Quinnipiac St., Bldg. 40, Wallingford CT 06492
  
  
 ---------------------------------------------------------------
 Warning -- This program may not be used in any manner that
 competes with the business of Gaussian, Inc. or will provide
 assistance to any competitor of Gaussian, Inc.  The licensee
 of this program is prohibited from giving any competitor of
 Gaussian, Inc. access to this program.  By using this program,
 the user acknowledges that Gaussian, Inc. is engaged in the
 business of creating and licensing software in the field of
 computational chemistry and represents and warrants to the
 licensee that it is not a competitor of Gaussian, Inc. and that
 it will not use this program in any manner prohibited above.
 ---------------------------------------------------------------
  

 Cite this work as:
 Gaussian 16, Revision A.03,
 M. J. Frisch, G. W. Trucks, H. B. Schlegel, G. E. Scuseria, 
 M. A. Robb, J. R. Cheeseman, G. Scalmani, V. Barone, 
 G. A. Petersson, H. Nakatsuji, X. Li, M. Caricato, A. V. Marenich, 
 J. Bloino, B. G. Janesko, R. Gomperts, B. Mennucci, H. P. Hratchian, 
 J. V. Ortiz, A. F. Izmaylov, J. L. Sonnenberg, D. Williams-Young, 
 F. Ding, F. Lipparini, F. Egidi, J. Goings, B. Peng, A. Petrone, 
 T. Henderson, D. Ranasinghe, V. G. Zakrzewski, J. Gao, N. Rega, 
 G. Zheng, W. Liang, M. Hada, M. Ehara, K. Toyota, R. Fukuda, 
 J. Hasegawa, M. Ishida, T. Nakajima, Y. Honda, O. Kitao, H. Nakai, 
 T. Vreven, K. Throssell, J. A. Montgomery, Jr., J. E. Peralta, 
 F. Ogliaro, M. J. Bearpark, J. J. Heyd, E. N. Brothers, K. N. Kudin, 
 V. N. Staroverov, T. A. Keith, R. Kobayashi, J. Normand, 
 K. Raghavachari, A. P. Rendell, J. C. Burant, S. S. Iyengar, 
 J. Tomasi, M. Cossi, J. M. Millam, M. Klene, C. Adamo, R. Cammi, 
 J. W. Ochterski, R. L. Martin, K. Morokuma, O. Farkas, 
 J. B. Foresman, and D. J. Fox, Gaussian, Inc., Wallingford CT, 2016.
 
 ******************************************
 Gaussian 16:  ES64L-G16RevA.03 25-Dec-2016
                27-Aug-2018 
 ******************************************
 %nprocshared=3
 Will use up to    3 processors via shared memory.
 %Mem=6GB
 %Chk=science_arx_51.chk
 -------------------------
 # opt b3lyp/6-31G* scf=qc
 -------------------------
 1/18=20,19=15,26=3,38=1/1,3;
 2/9=110,12=2,17=6,18=5,40=1/2;
 3/5=1,6=6,7=1,11=2,25=1,30=1,71=1,74=-5/1,2,3;
 4//1;
 5/5=2,8=3,38=5/8;
 6/7=2,8=2,9=2,10=2,28=1/1;
 7//1,2,3,16;
 1/18=20,19=15,26=3/3(2);
 2/9=110/2;
 99//99;
 2/9=110/2;
 3/5=1,6=6,7=1,11=2,25=1,30=1,71=1,74=-5/1,2,3;
 4/5=5,16=3,69=1/1;
 5/5=2,8=3,38=5/8;
 7//1,2,3,16;
 1/18=20,19=15,26=3/3(-5);
 2/9=110/2;
 6/7=2,8=2,9=2,10=2,19=2,28=1/1;
 99/9=1/99;
 -------------------
 Title Card Required
 -------------------
 Symbolic Z-matrix:
 Charge =  0 Multiplicity = 1
 C3                   -0.81665   1.15837  -0.0062 
 C4                    0.57512   1.26776  -0.02612 
 C                     1.35308   0.10568  -0.03138 
 C                     0.75246  -1.15535  -0.02299 
 C1                   -0.63573  -1.25321  -0.00933 
 C2                   -1.42268  -0.10298   0.00068 
 H5                   -2.50723  -0.17539   0.01251 
 Br0                  -1.45831  -2.95455  -0.00606 
 O                     1.29045   2.43272  -0.04498 
 C                     0.54788   3.64512  -0.05506 
 H6                   -1.45959   2.03256   0.00291 
 H                     2.43776   0.18519  -0.04402 
 H                     1.37523  -2.04594  -0.02919 
 H                     1.2605    4.47313  -0.1199 
 H                    -0.0198    3.76369   0.87365 
 H                    -0.10774   3.7038   -0.93023 
 

 GradGradGradGradGradGradGradGradGradGradGradGradGradGradGradGradGradGrad
 Berny optimization.
 Initialization pass.
                           ----------------------------
                           !    Initial Parameters    !
                           ! (Angstroms and Degrees)  !
 --------------------------                            --------------------------
 ! Name  Definition              Value          Derivative Info.                !
 --------------------------------------------------------------------------------
 ! R1    R(1,2)                  1.3962         estimate D2E/DX2                !
 ! R2    R(1,6)                  1.3994         estimate D2E/DX2                !
 ! R3    R(1,11)                 1.0852         estimate D2E/DX2                !
 ! R4    R(2,3)                  1.3985         estimate D2E/DX2                !
 ! R5    R(2,9)                  1.3672         estimate D2E/DX2                !
 ! R6    R(3,4)                  1.3968         estimate D2E/DX2                !
 ! R7    R(3,12)                 1.0877         estimate D2E/DX2                !
 ! R8    R(4,5)                  1.3917         estimate D2E/DX2                !
 ! R9    R(4,13)                 1.0868         estimate D2E/DX2                !
 ! R10   R(5,6)                  1.3937         estimate D2E/DX2                !
 ! R11   R(5,8)                  1.8898         estimate D2E/DX2                !
 ! R12   R(6,7)                  1.087          estimate D2E/DX2                !
 ! R13   R(9,10)                 1.4218         estimate D2E/DX2                !
 ! R14   R(10,14)                1.0944         estimate D2E/DX2                !
 ! R15   R(10,15)                1.0949         estimate D2E/DX2                !
 ! R16   R(10,16)                1.0951         estimate D2E/DX2                !
 ! A1    A(2,1,6)              120.1574         estimate D2E/DX2                !
 ! A2    A(2,1,11)             121.8425         estimate D2E/DX2                !
 ! A3    A(6,1,11)             118.0            estimate D2E/DX2                !
 ! A4    A(1,2,3)              119.3065         estimate D2E/DX2                !
 ! A5    A(1,2,9)              126.0513         estimate D2E/DX2                !
 ! A6    A(3,2,9)              114.642          estimate D2E/DX2                !
 ! A7    A(2,3,4)              120.729          estimate D2E/DX2                !
 ! A8    A(2,3,12)             119.6085         estimate D2E/DX2                !
 ! A9    A(4,3,12)             119.6624         estimate D2E/DX2                !
 ! A10   A(3,4,5)              119.5023         estimate D2E/DX2                !
 ! A11   A(3,4,13)             119.5642         estimate D2E/DX2                !
 ! A12   A(5,4,13)             120.9334         estimate D2E/DX2                !
 ! A13   A(4,5,6)              120.3485         estimate D2E/DX2                !
 ! A14   A(4,5,8)              119.8351         estimate D2E/DX2                !
 ! A15   A(6,5,8)              119.8163         estimate D2E/DX2                !
 ! A16   A(1,6,5)              119.9553         estimate D2E/DX2                !
 ! A17   A(1,6,7)              119.4834         estimate D2E/DX2                !
 ! A18   A(5,6,7)              120.5613         estimate D2E/DX2                !
 ! A19   A(2,9,10)             116.9647         estimate D2E/DX2                !
 ! A20   A(9,10,14)            107.7892         estimate D2E/DX2                !
 ! A21   A(9,10,15)            110.9236         estimate D2E/DX2                !
 ! A22   A(9,10,16)            111.3492         estimate D2E/DX2                !
 ! A23   A(14,10,15)           107.8145         estimate D2E/DX2                !
 ! A24   A(14,10,16)           107.5754         estimate D2E/DX2                !
 ! A25   A(15,10,16)           111.2024         estimate D2E/DX2                !
 ! D1    D(6,1,2,3)             -0.3609         estimate D2E/DX2                !
 ! D2    D(6,1,2,9)            179.4682         estimate D2E/DX2                !
 ! D3    D(11,1,2,3)           179.7297         estimate D2E/DX2                !
 ! D4    D(11,1,2,9)            -0.4411         estimate D2E/DX2                !
 ! D5    D(2,1,6,5)              0.1445         estimate D2E/DX2                !
 ! D6    D(2,1,6,7)           -179.7753         estimate D2E/DX2                !
 ! D7    D(11,1,6,5)          -179.9428         estimate D2E/DX2                !
 ! D8    D(11,1,6,7)             0.1375         estimate D2E/DX2                !
 ! D9    D(1,2,3,4)              0.288          estimate D2E/DX2                !
 ! D10   D(1,2,3,12)          -179.8269         estimate D2E/DX2                !
 ! D11   D(9,2,3,4)           -179.56           estimate D2E/DX2                !
 ! D12   D(9,2,3,12)             0.3251         estimate D2E/DX2                !
 ! D13   D(1,2,9,10)            -0.4895         estimate D2E/DX2                !
 ! D14   D(3,2,9,10)           179.3466         estimate D2E/DX2                !
 ! D15   D(2,3,4,5)              0.0039         estimate D2E/DX2                !
 ! D16   D(2,3,4,13)           179.8843         estimate D2E/DX2                !
 ! D17   D(12,3,4,5)          -179.8812         estimate D2E/DX2                !
 ! D18   D(12,3,4,13)           -0.0008         estimate D2E/DX2                !
 ! D19   D(3,4,5,6)             -0.2248         estimate D2E/DX2                !
 ! D20   D(3,4,5,8)            179.7145         estimate D2E/DX2                !
 ! D21   D(13,4,5,6)           179.8965         estimate D2E/DX2                !
 ! D22   D(13,4,5,8)            -0.1642         estimate D2E/DX2                !
 ! D23   D(4,5,6,1)              0.1515         estimate D2E/DX2                !
 ! D24   D(4,5,6,7)           -179.9296         estimate D2E/DX2                !
 ! D25   D(8,5,6,1)           -179.7878         estimate D2E/DX2                !
 ! D26   D(8,5,6,7)              0.131          estimate D2E/DX2                !
 ! D27   D(2,9,10,14)         -177.2432         estimate D2E/DX2                !
 ! D28   D(2,9,10,15)           64.9394         estimate D2E/DX2                !
 ! D29   D(2,9,10,16)          -59.4746         estimate D2E/DX2                !
 --------------------------------------------------------------------------------
 Trust Radius=3.00D-01 FncErr=1.00D-07 GrdErr=1.00D-06 EigMax=2.50D+02 EigMin=1.00D-04
 Number of steps in this run=     80 maximum allowed number of steps=    100.
 GradGradGradGradGradGradGradGradGradGradGradGradGradGradGradGradGradGrad

                          Input orientation:                          
 ---------------------------------------------------------------------
 Center     Atomic      Atomic             Coordinates (Angstroms)
 Number     Number       Type             X           Y           Z
 ---------------------------------------------------------------------
      1          6           0       -0.816650    1.158370   -0.006200
      2          6           0        0.575120    1.267760   -0.026120
      3          6           0        1.353080    0.105680   -0.031380
      4          6           0        0.752460   -1.155350   -0.022990
      5          6           0       -0.635730   -1.253210   -0.009330
      6          6           0       -1.422680   -0.102980    0.000680
      7          1           0       -2.507230   -0.175390    0.012510
      8         35           0       -1.458310   -2.954550   -0.006060
      9          8           0        1.290450    2.432720   -0.044980
     10          6           0        0.547880    3.645120   -0.055060
     11          1           0       -1.459590    2.032560    0.002910
     12          1           0        2.437760    0.185190   -0.044020
     13          1           0        1.375230   -2.045940   -0.029190
     14          1           0        1.260500    4.473130   -0.119900
     15          1           0       -0.019800    3.763690    0.873650
     16          1           0       -0.107740    3.703800   -0.930230
 ---------------------------------------------------------------------
                    Distance matrix (angstroms):
                    1          2          3          4          5
     1  C    0.000000
     2  C    1.396204   0.000000
     3  C    2.411746   1.398456   0.000000
     4  C    2.795655   2.429593   1.396786   0.000000
     5  C    2.418359   2.796735   2.408824   1.391702   0.000000
     6  C    1.399401   2.422984   2.783776   2.416460   1.393707
     7  H    2.153445   3.403683   3.870778   3.403992   2.159788
     8  Br   4.162672   4.686485   4.155666   2.850423   1.889764
     9  O    2.462792   1.367181   2.327922   3.628245   4.159029
    10  C    2.836945   2.377692   3.629951   4.804934   5.039510
    11  H    1.085202   2.173892   3.409568   3.880284   3.387503
    12  H    3.397013   2.154462   1.087664   2.153538   3.393603
    13  H    3.882328   3.408928   2.151735   1.086753   2.161660
    14  H    3.913453   3.279167   4.369328   5.652193   6.033149
    15  H    2.863005   2.719041   4.010600   5.059378   5.131112
    16  H    2.799214   2.686634   3.986025   5.017406   5.069396
                    6          7          8          9         10
     6  C    0.000000
     7  H    1.087029   0.000000
     8  Br   2.851801   2.970574   0.000000
     9  O    3.713884   4.607376   6.048130   0.000000
    10  C    4.234911   4.892296   6.898032   1.421768   0.000000
    11  H    2.135860   2.443908   4.987118   2.779414   2.575587
    12  H    3.871439   4.958441   5.003875   2.523433   3.942446
    13  H    3.406506   4.309779   2.975745   4.479490   5.750943
    14  H    5.306108   5.985153   7.910456   2.042005   1.094364
    15  H    4.204912   4.737639   6.926612   2.081374   1.094907
    16  H    4.133671   4.657728   6.856512   2.086683   1.095081
                   11         12         13         14         15
    11  H    0.000000
    12  H    4.313272   0.000000
    13  H    4.967031   2.471261   0.000000
    14  H    3.656549   4.447261   6.520710   0.000000
    15  H    2.414124   4.437046   6.042601   1.769072   0.000000
    16  H    2.343351   4.432331   6.005879   1.766517   1.807015
                   16
    16  H    0.000000
 Stoichiometry    C7H7BrO
 Framework group  C1[X(C7H7BrO)]
 Deg. of freedom    42
 Full point group                 C1      NOp   1
 Largest Abelian subgroup         C1      NOp   1
 Largest concise Abelian subgroup C1      NOp   1
                         Standard orientation:                         
 ---------------------------------------------------------------------
 Center     Atomic      Atomic             Coordinates (Angstroms)
 Number     Number       Type             X           Y           Z
 ---------------------------------------------------------------------
      1          6           0       -1.441039   -0.993279    0.013660
      2          6           0       -2.044228    0.265889    0.007081
      3          6           0       -1.240162    1.410073    0.005612
      4          6           0        0.152566    1.303682    0.004606
      5          6           0        0.743670    0.043749    0.004994
      6          6           0       -0.046074   -1.104591    0.011094
      7          1           0        0.411971   -2.090402    0.012566
      8         35           0        2.627051   -0.111151   -0.004526
      9          8           0       -3.388687    0.513962   -0.001599
     10          6           0       -4.252532   -0.615204   -0.014987
     11          1           0       -2.025102   -1.907884    0.019379
     12          1           0       -1.704884    2.393456    0.003351
     13          1           0        0.759207    2.205351    0.001560
     14          1           0       -5.281945   -0.247999   -0.070680
     15          1           0       -4.153074   -1.194586    0.908726
     16          1           0       -4.076659   -1.241277   -0.896068
 ---------------------------------------------------------------------
 Rotational constants (GHZ):           4.8321989           0.4555502           0.4174429
 Standard basis: 6-31G(d) (6D, 7F)
 There are   164 symmetry adapted cartesian basis functions of A   symmetry.
 There are   164 symmetry adapted basis functions of A   symmetry.
   164 basis functions,   335 primitive gaussians,   164 cartesian basis functions
    46 alpha electrons       46 beta electrons
       nuclear repulsion energy       616.6168574822 Hartrees.
 NAtoms=   16 NActive=   16 NUniq=   16 SFac= 1.00D+00 NAtFMM=   60 NAOKFM=F Big=F
 Integral buffers will be    131072 words long.
 Raffenetti 2 integral format.
 Two-electron integral symmetry is turned on.
 One-electron integrals computed using PRISM.
 NBasis=   164 RedAO= T EigKep=  4.48D-04  NBF=   164
 NBsUse=   164 1.00D-06 EigRej= -1.00D+00 NBFU=   164
 ExpMin= 1.43D-01 ExpMax= 5.74D+05 ExpMxC= 5.74D+03 IAcc=3 IRadAn=         5 AccDes= 0.00D+00
 Harris functional with IExCor=  402 and IRadAn=       5 diagonalized for initial guess.
 HarFok:  IExCor=  402 AccDes= 0.00D+00 IRadAn=         5 IDoV= 1 UseB2=F ITyADJ=14
 ICtDFT=  3500011 ScaDFX=  1.000000  1.000000  1.000000  1.000000
 FoFCou: FMM=F IPFlag=           0 FMFlag=      100000 FMFlg1=           0
         NFxFlg=           0 DoJE=T BraDBF=F KetDBF=T FulRan=T
         wScrn=  0.000000 ICntrl=       500 IOpCl=  0 I1Cent=   200000004 NGrid=           0
         NMat0=    1 NMatS0=      1 NMatT0=    0 NMatD0=    1 NMtDS0=    0 NMtDT0=    0
 Petite list used in FoFCou.
 Keep R1 ints in memory in canonical form, NReq=94514300.
 Gradient too large for Newton-Raphson -- use scaled steepest descent instead.
 Gradient too large for Newton-Raphson -- use scaled steepest descent instead.
     Accept linear search using points  2 and  3.
 Gradient too large for Newton-Raphson -- use scaled steepest descent instead.
     Accept linear search using points  1 and  2.
 Gradient too large for Newton-Raphson -- use scaled steepest descent instead.
 Gradient too large for Newton-Raphson -- use scaled steepest descent instead.
     Accept linear search using points  1 and  2.
 LinEq1:  Iter=  0 NonCon=     1 RMS=2.59D-05 Max=6.79D-04 NDo=     1
 AX will form     1 AO Fock derivatives at one time.
 LinEq1:  Iter=  1 NonCon=     1 RMS=1.68D-05 Max=5.02D-04 NDo=     1
 LinEq1:  Iter=  2 NonCon=     1 RMS=5.30D-06 Max=1.29D-04 NDo=     1
 LinEq1:  Iter=  3 NonCon=     1 RMS=3.46D-06 Max=1.26D-04 NDo=     1
 LinEq1:  Iter=  4 NonCon=     1 RMS=2.35D-06 Max=6.12D-05 NDo=     1
 LinEq1:  Iter=  5 NonCon=     1 RMS=1.45D-06 Max=5.86D-05 NDo=     1
 LinEq1:  Iter=  6 NonCon=     1 RMS=5.75D-07 Max=2.14D-05 NDo=     1
 LinEq1:  Iter=  7 NonCon=     1 RMS=4.34D-07 Max=1.76D-05 NDo=     1
 LinEq1:  Iter=  8 NonCon=     1 RMS=2.03D-07 Max=5.09D-06 NDo=     1
 LinEq1:  Iter=  9 NonCon=     1 RMS=1.33D-07 Max=3.55D-06 NDo=     1
 LinEq1:  Iter= 10 NonCon=     1 RMS=6.37D-08 Max=1.33D-06 NDo=     1
 LinEq1:  Iter= 11 NonCon=     1 RMS=4.09D-08 Max=8.48D-07 NDo=     1
 LinEq1:  Iter= 12 NonCon=     1 RMS=1.73D-08 Max=4.13D-07 NDo=     1
 LinEq1:  Iter= 13 NonCon=     1 RMS=8.19D-09 Max=1.46D-07 NDo=     1
 LinEq1:  Iter= 14 NonCon=     0 RMS=3.84D-09 Max=5.92D-08 NDo=     1
 Linear equations converged to 1.042D-08 1.042D-07 after    14 iterations.
     Minimum is close to point  2 DX=  1.02D-04 DF=  0.00D+00 DXR=  1.02D-04 DFR=  0.00D+00 which will be used.
 SCF Done:  E(RB3LYP) =  -2917.87512157     a.u. after    7 cycles
            Convg  =    0.6203D-06                    32 Fock formations.
              S**2 =  0.0000                  -V/T =  2.0065

 **********************************************************************

            Population analysis using the SCF density.

 **********************************************************************

 Orbital symmetries:
       Occupied  (A) (A) (A) (A) (A) (A) (A) (A) (A) (A) (A) (A)
                 (A) (A) (A) (A) (A) (A) (A) (A) (A) (A) (A) (A)
                 (A) (A) (A) (A) (A) (A) (A) (A) (A) (A) (A) (A)
                 (A) (A) (A) (A) (A) (A) (A) (A) (A) (A)
       Virtual   (A) (A) (A) (A) (A) (A) (A) (A) (A) (A) (A) (A)
                 (A) (A) (A) (A) (A) (A) (A) (A) (A) (A) (A) (A)
                 (A) (A) (A) (A) (A) (A) (A) (A) (A) (A) (A) (A)
                 (A) (A) (A) (A) (A) (A) (A) (A) (A) (A) (A) (A)
                 (A) (A) (A) (A) (A) (A) (A) (A) (A) (A) (A) (A)
                 (A) (A) (A) (A) (A) (A) (A) (A) (A) (A) (A) (A)
                 (A) (A) (A) (A) (A) (A) (A) (A) (A) (A) (A) (A)
                 (A) (A) (A) (A) (A) (A) (A) (A) (A) (A) (A) (A)
                 (A) (A) (A) (A) (A) (A) (A) (A) (A) (A) (A) (A)
                 (A) (A) (A) (A) (A) (A) (A) (A) (A) (A)
 The electronic state is 1-A.
 Alpha  occ. eigenvalues -- -482.90533 -61.86714 -56.38848 -56.38438 -56.38426
 Alpha  occ. eigenvalues --  -19.18532 -10.25560 -10.24650 -10.23788 -10.20459
 Alpha  occ. eigenvalues --  -10.20271 -10.19983 -10.19503  -8.57873  -6.53265
 Alpha  occ. eigenvalues --   -6.51993  -6.51977  -2.64842  -2.64473  -2.64462
 Alpha  occ. eigenvalues --   -2.63446  -2.63446  -1.07010  -0.86996  -0.80010
 Alpha  occ. eigenvalues --   -0.75985  -0.73742  -0.68928  -0.62241  -0.59054
 Alpha  occ. eigenvalues --   -0.54023  -0.49243  -0.47681  -0.47024  -0.45476
 Alpha  occ. eigenvalues --   -0.43432  -0.42141  -0.39173  -0.37469  -0.36468
 Alpha  occ. eigenvalues --   -0.34532  -0.33685  -0.28834  -0.28174  -0.26045
 Alpha  occ. eigenvalues --   -0.21837
 Alpha virt. eigenvalues --   -0.01219   0.00281   0.01792   0.09501   0.10267
 Alpha virt. eigenvalues --    0.13802   0.14334   0.14831   0.15377   0.16406
 Alpha virt. eigenvalues --    0.16933   0.19511   0.22475   0.26759   0.28057
 Alpha virt. eigenvalues --    0.29423   0.32783   0.35067   0.42738   0.44574
 Alpha virt. eigenvalues --    0.45809   0.46905   0.47119   0.49282   0.49329
 Alpha virt. eigenvalues --    0.51398   0.52661   0.53464   0.54383   0.55216
 Alpha virt. eigenvalues --    0.55905   0.58424   0.59605   0.59954   0.60839
 Alpha virt. eigenvalues --    0.64212   0.65111   0.66741   0.71348   0.72998
 Alpha virt. eigenvalues --    0.74798   0.79230   0.79416   0.82181   0.83099
 Alpha virt. eigenvalues --    0.84995   0.85603   0.87205   0.88249   0.90107
 Alpha virt. eigenvalues --    0.92856   0.94262   0.95361   1.00392   1.01592
 Alpha virt. eigenvalues --    1.04303   1.05995   1.11986   1.16928   1.20414
 Alpha virt. eigenvalues --    1.21666   1.23844   1.29906   1.35165   1.36330
 Alpha virt. eigenvalues --    1.40530   1.43568   1.44061   1.46285   1.49645
 Alpha virt. eigenvalues --    1.51582   1.55861   1.57407   1.67193   1.76698
 Alpha virt. eigenvalues --    1.80397   1.82658   1.85929   1.88012   1.95002
 Alpha virt. eigenvalues --    1.96223   1.97362   2.00722   2.06516   2.07487
 Alpha virt. eigenvalues --    2.09436   2.13048   2.13899   2.14409   2.22090
 Alpha virt. eigenvalues --    2.23800   2.25861   2.29396   2.34745   2.35571
 Alpha virt. eigenvalues --    2.49054   2.52939   2.58253   2.61583   2.65694
 Alpha virt. eigenvalues --    2.65799   2.74520   2.76614   2.76795   2.87815
 Alpha virt. eigenvalues --    2.97670   3.16096   3.39282   4.04358   4.06952
 Alpha virt. eigenvalues --    4.10319   4.18944   4.29094   4.33379   4.42918
 Alpha virt. eigenvalues --    4.73276   8.61092  72.80730
          Condensed to atoms (all electrons):
               1          2          3          4          5          6
     1  C    5.113853   0.465381  -0.065017  -0.041490  -0.026063   0.473264
     2  C    0.465381   4.504937   0.539498  -0.015532  -0.035248  -0.000921
     3  C   -0.065017   0.539498   4.992610   0.506407  -0.027102  -0.039179
     4  C   -0.041490  -0.015532   0.506407   4.949829   0.522264  -0.037200
     5  C   -0.026063  -0.035248  -0.027102   0.522264   4.767039   0.534018
     6  C    0.473264  -0.000921  -0.039179  -0.037200   0.534018   4.958800
     7  H   -0.037994   0.003147   0.000403   0.005370  -0.040408   0.357863
     8  Br   0.005862   0.000305   0.005552  -0.061404   0.255514  -0.060940
     9  O   -0.061864   0.282650  -0.055265   0.003153   0.000173   0.003618
    10  C   -0.006275  -0.043226   0.004327  -0.000135   0.000001   0.000299
    11  H    0.354753  -0.044840   0.004354   0.000630   0.003933  -0.037558
    12  H    0.007199  -0.034941   0.346800  -0.040270   0.004472   0.000143
    13  H    0.000146   0.004197  -0.039145   0.359830  -0.043142   0.005608
    14  H    0.000158   0.003231  -0.000112   0.000003   0.000000   0.000001
    15  H    0.004587  -0.004510   0.000034   0.000002  -0.000004  -0.000120
    16  H    0.005368  -0.005387   0.000084   0.000001  -0.000007  -0.000142
               7          8          9         10         11         12
     1  C   -0.037994   0.005862  -0.061864  -0.006275   0.354753   0.007199
     2  C    0.003147   0.000305   0.282650  -0.043226  -0.044840  -0.034941
     3  C    0.000403   0.005552  -0.055265   0.004327   0.004354   0.346800
     4  C    0.005370  -0.061404   0.003153  -0.000135   0.000630  -0.040270
     5  C   -0.040408   0.255514   0.000173   0.000001   0.003933   0.004472
     6  C    0.357863  -0.060940   0.003618   0.000299  -0.037558   0.000143
     7  H    0.567186  -0.002427  -0.000042  -0.000007  -0.005827   0.000013
     8  Br  -0.002427  35.002173   0.000001  -0.000000  -0.000152  -0.000136
     9  O   -0.000042   0.000001   8.195633   0.247396  -0.007148  -0.000206
    10  C   -0.000007  -0.000000   0.247396   4.898138   0.005874  -0.000178
    11  H   -0.005827  -0.000152  -0.007148   0.005874   0.582143  -0.000164
    12  H    0.000013  -0.000136  -0.000206  -0.000178  -0.000164   0.575927
    13  H   -0.000163  -0.002724  -0.000055   0.000003   0.000014  -0.006354
    14  H   -0.000000  -0.000000  -0.030892   0.384348  -0.000126  -0.000028
    15  H    0.000001   0.000000  -0.036333   0.365734   0.001667   0.000027
    16  H    0.000003   0.000000  -0.035224   0.363391   0.001888   0.000030
              13         14         15         16
     1  C    0.000146   0.000158   0.004587   0.005368
     2  C    0.004197   0.003231  -0.004510  -0.005387
     3  C   -0.039145  -0.000112   0.000034   0.000084
     4  C    0.359830   0.000003   0.000002   0.000001
     5  C   -0.043142   0.000000  -0.000004  -0.000007
     6  C    0.005608   0.000001  -0.000120  -0.000142
     7  H   -0.000163  -0.000000   0.000001   0.000003
     8  Br  -0.002724  -0.000000   0.000000   0.000000
     9  O   -0.000055  -0.030892  -0.036333  -0.035224
    10  C    0.000003   0.384348   0.365734   0.363391
    11  H    0.000014  -0.000126   0.001667   0.001888
    12  H   -0.006354  -0.000028   0.000027   0.000030
    13  H    0.568328  -0.000000  -0.000000  -0.000000
    14  H   -0.000000   0.538715  -0.033877  -0.033072
    15  H   -0.000000  -0.033877   0.593654  -0.045994
    16  H   -0.000000  -0.033072  -0.045994   0.594189
 Mulliken charges:
               1
     1  C   -0.191867
     2  C    0.381257
     3  C   -0.174250
     4  C   -0.151459
     5  C    0.084561
     6  C   -0.157554
     7  H    0.152883
     8  Br  -0.141623
     9  O   -0.505596
    10  C   -0.219689
    11  H    0.140558
    12  H    0.147666
    13  H    0.153456
    14  H    0.171652
    15  H    0.155131
    16  H    0.154873
 Sum of Mulliken charges =   0.00000
 Mulliken charges with hydrogens summed into heavy atoms:
               1
     1  C   -0.051309
     2  C    0.381257
     3  C   -0.026584
     4  C    0.001997
     5  C    0.084561
     6  C   -0.004670
     8  Br  -0.141623
     9  O   -0.505596
    10  C    0.261967
 Electronic spatial extent (au):  <R**2>=           2371.3067
 Charge=              0.0000 electrons
 Dipole moment (field-independent basis, Debye):
    X=             -2.5281    Y=             -1.0491    Z=             -0.0143  Tot=              2.7371
 Quadrupole moment (field-independent basis, Debye-Ang):
   XX=            -58.0692   YY=            -59.4947   ZZ=            -67.2314
   XY=              5.3702   XZ=              0.0834   YZ=             -0.0036
 Traceless Quadrupole moment (field-independent basis, Debye-Ang):
   XX=              3.5293   YY=              2.1037   ZZ=             -5.6330
   XY=              5.3702   XZ=              0.0834   YZ=             -0.0036
 Octapole moment (field-independent basis, Debye-Ang**2):
  XXX=             23.5118  YYY=              0.5147  ZZZ=             -0.1963  XYY=             19.9381
  XXY=            -21.2713  XXZ=             -0.6184  XZZ=             22.4807  YZZ=             -1.5835
  YYZ=             -0.0445  XYZ=             -0.0166
 Hexadecapole moment (field-independent basis, Debye-Ang**3):
 XXXX=          -1987.8107 YYYY=           -327.3643 ZZZZ=            -76.3423 XXXY=             61.4936
 XXXZ=              2.4621 YYYX=            -13.6697 YYYZ=             -0.0229 ZZZX=             -0.4731
 ZZZY=              0.0054 XXYY=           -434.6939 XXZZ=           -397.2366 YYZZ=            -77.1353
 XXYZ=             -0.0089 YYXZ=             -0.0526 ZZXY=             -2.1092
 N-N= 6.166168574822D+02 E-N=-8.171318783518D+03  KE= 2.898924458703D+03
 Calling FoFJK, ICntrl=      2127 FMM=F ISym2X=0 I1Cent= 0 IOpClX= 0 NMat=1 NMatS=1 NMatT=0.
 ***** Axes restored to original set *****
 -------------------------------------------------------------------
 Center     Atomic                   Forces (Hartrees/Bohr)
 Number     Number              X              Y              Z
 -------------------------------------------------------------------
      1        6          -0.005979530    0.001171899    0.000020045
      2        6           0.007302824   -0.000029680   -0.000144188
      3        6           0.000926999   -0.011084063    0.000044944
      4        6           0.007064329    0.005990348   -0.000112229
      5        6          -0.001780013    0.007978567    0.000063369
      6        6           0.001825197    0.000186148   -0.000025559
      7        1           0.001771393   -0.000711533    0.000041238
      8       35          -0.003980441   -0.008157848    0.000095633
      9        8          -0.004895418    0.003778870   -0.000579526
     10        6           0.004401849    0.003289876   -0.000018719
     11        1           0.001704997    0.000322807   -0.000012595
     12        1          -0.001827988    0.001903666   -0.000036220
     13        1          -0.001882704    0.000521192    0.000019562
     14        1           0.002754764   -0.003968339    0.000332154
     15        1          -0.003998890   -0.000347138   -0.000345313
     16        1          -0.003407368   -0.000844771    0.000657405
 -------------------------------------------------------------------
 Cartesian Forces:  Max     0.011084063 RMS     0.003509677

 GradGradGradGradGradGradGradGradGradGradGradGradGradGradGradGradGradGrad
 Berny optimization.
 FormGI is forming the generalized inverse of G from B-inverse, IUseBI=4.
 Internal  Forces:  Max     0.009077270 RMS     0.002199848
 Search for a local minimum.
 Step number   1 out of a maximum of   80
 All quantities printed in internal units (Hartrees-Bohrs-Radians)
 Mixed Optimization -- RFO/linear search
 Second derivative matrix not updated -- first step.
 ITU=  0
     Eigenvalues ---    0.01404   0.02113   0.02119   0.02121   0.02126
     Eigenvalues ---    0.02127   0.02131   0.02139   0.02164   0.02173
     Eigenvalues ---    0.02186   0.09989   0.10544   0.16000   0.16000
     Eigenvalues ---    0.16000   0.16000   0.16000   0.16000   0.16000
     Eigenvalues ---    0.18760   0.22000   0.22981   0.24000   0.25000
     Eigenvalues ---    0.25000   0.25000   0.34232   0.34252   0.34313
     Eigenvalues ---    0.35084   0.35158   0.35191   0.35373   0.41777
     Eigenvalues ---    0.42195   0.42491   0.45877   0.46077   0.46449
     Eigenvalues ---    0.46800   0.51522
 RFO step:  Lambda=-1.58491307D-03 EMin= 1.40382531D-02
 Linear search not attempted -- first point.
 Iteration  1 RMS(Cart)=  0.01906942 RMS(Int)=  0.00033946
 Iteration  2 RMS(Cart)=  0.00037569 RMS(Int)=  0.00002841
 Iteration  3 RMS(Cart)=  0.00000015 RMS(Int)=  0.00002841
 Variable       Old X    -DE/DX   Delta X   Delta X   Delta X     New X
                                 (Linear)    (Quad)   (Total)
    R1        2.63844   0.00228   0.00000   0.00515   0.00515   2.64359
    R2        2.64448  -0.00130   0.00000  -0.00280  -0.00280   2.64168
    R3        2.05073  -0.00075   0.00000  -0.00211  -0.00211   2.04862
    R4        2.64270   0.00343   0.00000   0.00766   0.00766   2.65036
    R5        2.58360  -0.00107   0.00000  -0.00206  -0.00206   2.58154
    R6        2.63954  -0.00525   0.00000  -0.01135  -0.01135   2.62819
    R7        2.05539  -0.00168   0.00000  -0.00478  -0.00478   2.05061
    R8        2.62994   0.00407   0.00000   0.00840   0.00840   2.63833
    R9        2.05366  -0.00151   0.00000  -0.00426  -0.00426   2.04940
   R10        2.63372  -0.00189   0.00000  -0.00426  -0.00426   2.62947
   R11        3.57114   0.00908   0.00000   0.04798   0.04798   3.61912
   R12        2.05419  -0.00172   0.00000  -0.00487  -0.00487   2.04932
   R13        2.68675  -0.00147   0.00000  -0.00347  -0.00347   2.68328
   R14        2.06805  -0.00123   0.00000  -0.00356  -0.00356   2.06448
   R15        2.06907   0.00174   0.00000   0.00506   0.00506   2.07414
   R16        2.06940   0.00147   0.00000   0.00427   0.00427   2.07368
    A1        2.09714  -0.00113   0.00000  -0.00447  -0.00447   2.09267
    A2        2.12655  -0.00104   0.00000  -0.00769  -0.00770   2.11886
    A3        2.05949   0.00217   0.00000   0.01217   0.01217   2.07166
    A4        2.08229   0.00051   0.00000   0.00290   0.00289   2.08518
    A5        2.20001  -0.00532   0.00000  -0.02159  -0.02160   2.17841
    A6        2.00088   0.00482   0.00000   0.01871   0.01870   2.01958
    A7        2.10712  -0.00083   0.00000  -0.00330  -0.00331   2.10381
    A8        2.08756  -0.00167   0.00000  -0.01127  -0.01127   2.07629
    A9        2.08850   0.00250   0.00000   0.01458   0.01458   2.10308
   A10        2.08571   0.00072   0.00000   0.00270   0.00270   2.08841
   A11        2.08679   0.00092   0.00000   0.00656   0.00656   2.09335
   A12        2.11069  -0.00164   0.00000  -0.00926  -0.00926   2.10143
   A13        2.10048  -0.00011   0.00000  -0.00126  -0.00126   2.09922
   A14        2.09152   0.00012   0.00000   0.00087   0.00087   2.09239
   A15        2.09119  -0.00000   0.00000   0.00039   0.00039   2.09158
   A16        2.09361   0.00085   0.00000   0.00346   0.00346   2.09708
   A17        2.08538   0.00043   0.00000   0.00353   0.00353   2.08891
   A18        2.10419  -0.00127   0.00000  -0.00699  -0.00699   2.09720
   A19        2.04142   0.00378   0.00000   0.01501   0.01501   2.05642
   A20        1.88128  -0.00634   0.00000  -0.03670  -0.03662   1.84466
   A21        1.93598   0.00214   0.00000   0.01204   0.01210   1.94808
   A22        1.94341   0.00092   0.00000   0.00427   0.00431   1.94772
   A23        1.88172   0.00311   0.00000   0.02200   0.02210   1.90382
   A24        1.87754   0.00354   0.00000   0.02424   0.02428   1.90183
   A25        1.94085  -0.00336   0.00000  -0.02525  -0.02521   1.91563
    D1       -0.00630   0.00007   0.00000   0.00320   0.00320  -0.00310
    D2        3.13231   0.00025   0.00000   0.01069   0.01061  -3.14026
    D3        3.13688  -0.00005   0.00000  -0.00218  -0.00213   3.13474
    D4       -0.00770   0.00013   0.00000   0.00531   0.00528  -0.00242
    D5        0.00252  -0.00004   0.00000  -0.00167  -0.00168   0.00084
    D6       -3.13767  -0.00010   0.00000  -0.00449  -0.00449   3.14102
    D7       -3.14059   0.00008   0.00000   0.00348   0.00349  -3.13711
    D8        0.00240   0.00001   0.00000   0.00067   0.00068   0.00308
    D9        0.00503  -0.00004   0.00000  -0.00179  -0.00178   0.00325
   D10       -3.13857  -0.00000   0.00000  -0.00016  -0.00015  -3.13872
   D11       -3.13391  -0.00018   0.00000  -0.00839  -0.00847   3.14081
   D12        0.00567  -0.00015   0.00000  -0.00676  -0.00683  -0.00116
   D13       -0.00854  -0.00025   0.00000  -0.01081  -0.01080  -0.01934
   D14        3.13019  -0.00008   0.00000  -0.00365  -0.00366   3.12653
   D15        0.00007  -0.00003   0.00000  -0.00115  -0.00117  -0.00111
   D16        3.13957   0.00004   0.00000   0.00168   0.00169   3.14126
   D17       -3.13952  -0.00006   0.00000  -0.00276  -0.00280   3.14087
   D18       -0.00001   0.00000   0.00000   0.00008   0.00007   0.00005
   D19       -0.00392   0.00006   0.00000   0.00273   0.00273  -0.00120
   D20        3.13661   0.00011   0.00000   0.00476   0.00477   3.14138
   D21        3.13979  -0.00000   0.00000  -0.00017  -0.00017   3.13962
   D22       -0.00287   0.00004   0.00000   0.00186   0.00187  -0.00100
   D23        0.00265  -0.00003   0.00000  -0.00134  -0.00132   0.00133
   D24       -3.14036   0.00003   0.00000   0.00151   0.00152  -3.13885
   D25       -3.13789  -0.00008   0.00000  -0.00337  -0.00335  -3.14124
   D26        0.00229  -0.00001   0.00000  -0.00052  -0.00052   0.00177
   D27       -3.09348  -0.00027   0.00000  -0.02122  -0.02127  -3.11475
   D28        1.13341  -0.00143   0.00000  -0.03257  -0.03251   1.10090
   D29       -1.03803   0.00068   0.00000  -0.01175  -0.01176  -1.04979
         Item               Value     Threshold  Converged?
 Maximum Force            0.009077     0.000450     NO 
 RMS     Force            0.002200     0.000300     NO 
 Maximum Displacement     0.091953     0.001800     NO 
 RMS     Displacement     0.019145     0.001200     NO 
 Predicted change in Energy=-8.002321D-04
 GradGradGradGradGradGradGradGradGradGradGradGradGradGradGradGradGradGrad

                          Input orientation:                          
 ---------------------------------------------------------------------
 Center     Atomic      Atomic             Coordinates (Angstroms)
 Number     Number       Type             X           Y           Z
 ---------------------------------------------------------------------
      1          6           0       -0.809931    1.162030   -0.008486
      2          6           0        0.585057    1.264499   -0.031035
      3          6           0        1.362660    0.097317   -0.038213
      4          6           0        0.757727   -1.154958   -0.027009
      5          6           0       -0.635094   -1.249178   -0.007127
      6          6           0       -1.416059   -0.097595    0.002904
      7          1           0       -2.497739   -0.172960    0.020920
      8         35           0       -1.474975   -2.970277    0.008030
      9          8           0        1.280637    2.440187   -0.042263
     10          6           0        0.537318    3.649953   -0.054524
     11          1           0       -1.440914    2.043476    0.003967
     12          1           0        2.444030    0.186428   -0.053004
     13          1           0        1.368416   -2.051149   -0.033008
     14          1           0        1.278477    4.451771   -0.090286
     15          1           0       -0.068460    3.761546    0.853924
     16          1           0       -0.106400    3.719510   -0.940498
 ---------------------------------------------------------------------
                    Distance matrix (angstroms):
                    1          2          3          4          5
     1  C    0.000000
     2  C    1.398928   0.000000
     3  C    2.419639   1.402510   0.000000
     4  C    2.797558   2.425614   1.390778   0.000000
     5  C    2.417539   2.794264   2.409365   1.396146   0.000000
     6  C    1.397919   2.420933   2.785850   2.417489   1.391455
     7  H    2.152153   3.401855   3.870301   3.400688   2.151390
     8  Br   4.185514   4.709415   4.179049   2.877772   1.915154
     9  O    2.450572   1.366090   2.344310   3.633007   4.157244
    10  C    2.829657   2.386047   3.647284   4.810042   5.037685
    11  H    1.084085   2.170849   3.413113   3.881360   3.389843
    12  H    3.397358   2.149070   1.085136   2.154904   3.397657
    13  H    3.882051   3.406931   2.148480   1.084498   2.158213
    14  H    3.897504   3.262368   4.355580   5.631216   6.014107
    15  H    2.837431   2.728641   4.033682   5.062671   5.115646
    16  H    2.811459   2.707825   4.011551   5.034046   5.083164
                    6          7          8          9         10
     6  C    0.000000
     7  H    1.084453   0.000000
     8  Br   2.873290   2.978455   0.000000
     9  O    3.703316   4.594416   6.071990   0.000000
    10  C    4.226475   4.881795   6.919587   1.419932   0.000000
    11  H    2.141216   2.455556   5.013870   2.750701   2.549037
    12  H    3.870927   4.955372   5.032605   2.536341   3.953676
    13  H    3.401612   4.298565   2.988537   4.492204   5.761402
    14  H    5.288284   5.971626   7.916942   2.012158   1.092478
    15  H    4.175312   4.698471   6.929016   2.090264   1.097587
    16  H    4.144334   4.668421   6.893907   2.089824   1.097342
                   11         12         13         14         15
    11  H    0.000000
    12  H    4.306351   0.000000
    13  H    4.965849   2.482760   0.000000
    14  H    3.633711   4.421883   6.503794   0.000000
    15  H    2.357504   4.462800   6.052990   1.783867   0.000000
    16  H    2.341374   4.446910   6.024876   1.782400   1.795315
                   16
    16  H    0.000000
 Stoichiometry    C7H7BrO
 Framework group  C1[X(C7H7BrO)]
 Deg. of freedom    42
 Full point group                 C1      NOp   1
 Largest Abelian subgroup         C1      NOp   1
 Largest concise Abelian subgroup C1      NOp   1
                         Standard orientation:                         
 ---------------------------------------------------------------------
 Center     Atomic      Atomic             Coordinates (Angstroms)
 Number     Number       Type             X           Y           Z
 ---------------------------------------------------------------------
      1          6           0       -1.452445   -0.986432    0.007060
      2          6           0       -2.051575    0.277699    0.003398
      3          6           0       -1.243735    1.424183    0.001798
      4          6           0        0.142503    1.311919   -0.000073
      5          6           0        0.733136    0.046860    0.000985
      6          6           0       -0.058919   -1.097158    0.005331
      7          1           0        0.401840   -2.078854    0.008719
      8         35           0        2.641407   -0.115331   -0.001939
      9          8           0       -3.399100    0.502136    0.006135
     10          6           0       -4.259190   -0.627534   -0.011075
     11          1           0       -2.046674   -1.893115    0.014722
     12          1           0       -1.717175    2.400592    0.001686
     13          1           0        0.757861    2.204930   -0.001609
     14          1           0       -5.274706   -0.225388   -0.033778
     15          1           0       -4.136901   -1.242609    0.889717
     16          1           0       -4.099350   -1.243279   -0.905205
 ---------------------------------------------------------------------
 Rotational constants (GHZ):           4.8076315           0.4521126           0.4143538
 Standard basis: 6-31G(d) (6D, 7F)
 There are   164 symmetry adapted cartesian basis functions of A   symmetry.
 There are   164 symmetry adapted basis functions of A   symmetry.
   164 basis functions,   335 primitive gaussians,   164 cartesian basis functions
    46 alpha electrons       46 beta electrons
       nuclear repulsion energy       614.5529432873 Hartrees.
 NAtoms=   16 NActive=   16 NUniq=   16 SFac= 1.00D+00 NAtFMM=   60 NAOKFM=F Big=F
 Integral buffers will be    131072 words long.
 Raffenetti 2 integral format.
 Two-electron integral symmetry is turned on.
 One-electron integrals computed using PRISM.
 NBasis=   164 RedAO= T EigKep=  4.50D-04  NBF=   164
 NBsUse=   164 1.00D-06 EigRej= -1.00D+00 NBFU=   164
 Initial guess from the checkpoint file:  "science_arx_51.chk"
 B after Tr=    -0.000000   -0.000000   -0.000000
         Rot=    1.000000   -0.000614   -0.000055   -0.000015 Ang=  -0.07 deg.
 ExpMin= 1.43D-01 ExpMax= 5.74D+05 ExpMxC= 5.74D+03 IAcc=2 IRadAn=         4 AccDes= 0.00D+00
 Harris functional with IExCor=  402 and IRadAn=       4 diagonalized for initial guess.
 HarFok:  IExCor=  402 AccDes= 0.00D+00 IRadAn=         4 IDoV= 1 UseB2=F ITyADJ=14
 ICtDFT=  3500011 ScaDFX=  1.000000  1.000000  1.000000  1.000000
 FoFCou: FMM=F IPFlag=           0 FMFlag=      100000 FMFlg1=           0
         NFxFlg=           0 DoJE=T BraDBF=F KetDBF=T FulRan=T
         wScrn=  0.000000 ICntrl=       500 IOpCl=  0 I1Cent=   200000004 NGrid=           0
         NMat0=    1 NMatS0=      1 NMatT0=    0 NMatD0=    1 NMtDS0=    0 NMtDT0=    0
 Petite list used in FoFCou.
 Keep R1 ints in memory in canonical form, NReq=94514300.
 Gradient too large for Newton-Raphson -- use scaled steepest descent instead.
     Minimum is close to point  4 DX=  1.15D-01 DF= -3.48D-06 DXR=  8.73D-02 DFR=  7.68D-03 which will be used.
 Gradient too large for Newton-Raphson -- use scaled steepest descent instead.
 Gradient too large for Newton-Raphson -- use scaled steepest descent instead.
 Gradient too large for Newton-Raphson -- use scaled steepest descent instead.
     Accept linear search using points  1 and  2.
 Gradient too large for Newton-Raphson -- use scaled steepest descent instead.
     Accept linear search using points  4 and  5.
 Gradient too large for Newton-Raphson -- use scaled steepest descent instead.
 LinEq1:  Iter=  0 NonCon=     1 RMS=1.13D-04 Max=2.20D-03 NDo=     1
 AX will form     1 AO Fock derivatives at one time.
 LinEq1:  Iter=  1 NonCon=     1 RMS=2.97D-05 Max=8.47D-04 NDo=     1
 LinEq1:  Iter=  2 NonCon=     1 RMS=1.73D-05 Max=6.13D-04 NDo=     1
 LinEq1:  Iter=  3 NonCon=     1 RMS=1.29D-05 Max=4.80D-04 NDo=     1
 LinEq1:  Iter=  4 NonCon=     1 RMS=7.26D-06 Max=2.14D-04 NDo=     1
 LinEq1:  Iter=  5 NonCon=     1 RMS=3.89D-06 Max=1.79D-04 NDo=     1
 LinEq1:  Iter=  6 NonCon=     1 RMS=2.62D-06 Max=9.72D-05 NDo=     1
 LinEq1:  Iter=  7 NonCon=     1 RMS=1.41D-06 Max=3.15D-05 NDo=     1
 LinEq1:  Iter=  8 NonCon=     1 RMS=8.41D-07 Max=1.84D-05 NDo=     1
 LinEq1:  Iter=  9 NonCon=     1 RMS=2.48D-07 Max=4.41D-06 NDo=     1
 LinEq1:  Iter= 10 NonCon=     1 RMS=1.52D-07 Max=2.23D-06 NDo=     1
 LinEq1:  Iter= 11 NonCon=     1 RMS=7.87D-08 Max=2.39D-06 NDo=     1
 LinEq1:  Iter= 12 NonCon=     1 RMS=3.40D-08 Max=4.54D-07 NDo=     1
 LinEq1:  Iter= 13 NonCon=     1 RMS=2.05D-08 Max=4.66D-07 NDo=     1
 LinEq1:  Iter= 14 NonCon=     0 RMS=5.73D-09 Max=6.96D-08 NDo=     1
 Linear equations converged to 1.042D-08 1.042D-07 after    14 iterations.
     Minimum is close to point  2 DX=  1.75D-04 DF= -2.73D-12 DXR=  1.75D-04 DFR=  3.11D-08 which will be used.
 LinEq1:  Iter=  0 NonCon=     1 RMS=1.75D-07 Max=6.58D-06 NDo=     1
 LinEq1:  Iter=  1 NonCon=     1 RMS=1.61D-07 Max=6.85D-06 NDo=     1
 LinEq1:  Iter=  2 NonCon=     1 RMS=9.08D-08 Max=2.61D-06 NDo=     1
 LinEq1:  Iter=  3 NonCon=     1 RMS=4.83D-08 Max=9.83D-07 NDo=     1
 LinEq1:  Iter=  4 NonCon=     1 RMS=2.17D-08 Max=5.65D-07 NDo=     1
 LinEq1:  Iter=  5 NonCon=     1 RMS=1.20D-08 Max=2.42D-07 NDo=     1
 LinEq1:  Iter=  6 NonCon=     1 RMS=5.85D-09 Max=1.16D-07 NDo=     1
 LinEq1:  Iter=  7 NonCon=     1 RMS=3.57D-09 Max=1.06D-07 NDo=     1
 LinEq1:  Iter=  8 NonCon=     1 RMS=1.67D-09 Max=4.42D-08 NDo=     1
 LinEq1:  Iter=  9 NonCon=     1 RMS=1.16D-09 Max=3.82D-08 NDo=     1
 LinEq1:  Iter= 10 NonCon=     1 RMS=5.25D-10 Max=9.83D-09 NDo=     1
 LinEq1:  Iter= 11 NonCon=     1 RMS=2.33D-10 Max=4.23D-09 NDo=     1
 LinEq1:  Iter= 12 NonCon=     1 RMS=1.10D-10 Max=2.06D-09 NDo=     1
 LinEq1:  Iter= 13 NonCon=     0 RMS=3.48D-11 Max=3.87D-10 NDo=     1
 Linear equations converged to 1.154D-10 1.154D-09 after    13 iterations.
 SCF Done:  E(RB3LYP) =  -2917.87595137     a.u. after    9 cycles
            Convg  =    0.7909D-10                    51 Fock formations.
              S**2 =  0.0000                  -V/T =  2.0065
 Calling FoFJK, ICntrl=      2127 FMM=F ISym2X=0 I1Cent= 0 IOpClX= 0 NMat=1 NMatS=1 NMatT=0.
 ***** Axes restored to original set *****
 -------------------------------------------------------------------
 Center     Atomic                   Forces (Hartrees/Bohr)
 Number     Number              X              Y              Z
 -------------------------------------------------------------------
      1        6          -0.000992874   -0.000157857    0.000065218
      2        6           0.001793459    0.000805733    0.000432471
      3        6          -0.000317294   -0.001713849   -0.000116159
      4        6           0.000910789    0.000380527    0.000035886
      5        6          -0.000396961    0.002150562    0.000002467
      6        6          -0.000195131   -0.001355096    0.000025290
      7        1          -0.000236174   -0.000229141   -0.000022900
      8       35           0.000440257    0.000609547   -0.000004942
      9        8          -0.002210407   -0.001314539   -0.000268883
     10        6           0.002845439    0.001388023   -0.000119457
     11        1           0.000442105    0.000039335   -0.000132304
     12        1           0.000087473    0.000634676   -0.000037820
     13        1          -0.000291702   -0.000384854   -0.000022119
     14        1          -0.000421652   -0.000300447    0.000214719
     15        1          -0.000707536   -0.000282643   -0.000267436
     16        1          -0.000749792   -0.000269978    0.000215968
 -------------------------------------------------------------------
 Cartesian Forces:  Max     0.002845439 RMS     0.000861903

 GradGradGradGradGradGradGradGradGradGradGradGradGradGradGradGradGradGrad
 Berny optimization.
 Using GEDIIS/GDIIS optimizer.
 FormGI is forming the generalized inverse of G from B-inverse, IUseBI=4.
 Internal  Forces:  Max     0.001848967 RMS     0.000517760
 Search for a local minimum.
 Step number   2 out of a maximum of   80
 All quantities printed in internal units (Hartrees-Bohrs-Radians)
 Mixed Optimization -- En-DIIS/RFO-DIIS
 Update second derivatives using D2CorX and points    1    2
 DE= -8.30D-04 DEPred=-8.00D-04 R= 1.04D+00
 TightC=F SS=  1.41D+00  RLast= 9.98D-02 DXNew= 5.0454D-01 2.9948D-01
 Trust test= 1.04D+00 RLast= 9.98D-02 DXMaxT set to 3.00D-01
 ITU=  1  0
 Use linear search instead of GDIIS.
     Eigenvalues ---    0.01391   0.02114   0.02117   0.02121   0.02126
     Eigenvalues ---    0.02127   0.02134   0.02141   0.02164   0.02173
     Eigenvalues ---    0.02186   0.09446   0.10671   0.14973   0.16000
     Eigenvalues ---    0.16000   0.16000   0.16000   0.16000   0.16385
     Eigenvalues ---    0.19499   0.22019   0.23140   0.23659   0.24562
     Eigenvalues ---    0.25000   0.26583   0.34136   0.34244   0.34308
     Eigenvalues ---    0.35101   0.35178   0.35336   0.35387   0.41793
     Eigenvalues ---    0.42048   0.42316   0.45480   0.46046   0.46437
     Eigenvalues ---    0.46718   0.51583
 RFO step:  Lambda=-9.16106736D-05 EMin= 1.39101976D-02
 Quartic linear search produced a step of  0.05528.
 Iteration  1 RMS(Cart)=  0.00558829 RMS(Int)=  0.00003267
 Iteration  2 RMS(Cart)=  0.00004175 RMS(Int)=  0.00000387
 Iteration  3 RMS(Cart)=  0.00000000 RMS(Int)=  0.00000387
 Variable       Old X    -DE/DX   Delta X   Delta X   Delta X     New X
                                 (Linear)    (Quad)   (Total)
    R1        2.64359   0.00079   0.00028   0.00192   0.00221   2.64580
    R2        2.64168  -0.00006  -0.00015  -0.00010  -0.00026   2.64142
    R3        2.04862  -0.00023  -0.00012  -0.00068  -0.00080   2.04783
    R4        2.65036   0.00022   0.00042   0.00058   0.00100   2.65136
    R5        2.58154  -0.00130  -0.00011  -0.00267  -0.00278   2.57875
    R6        2.62819  -0.00109  -0.00063  -0.00257  -0.00319   2.62499
    R7        2.05061   0.00014  -0.00026   0.00041   0.00015   2.05076
    R8        2.63833   0.00008   0.00046   0.00007   0.00054   2.63887
    R9        2.04940   0.00015  -0.00024   0.00045   0.00022   2.04962
   R10        2.62947  -0.00136  -0.00024  -0.00316  -0.00339   2.62608
   R11        3.61912  -0.00074   0.00265  -0.00406  -0.00141   3.61771
   R12        2.04932   0.00025  -0.00027   0.00074   0.00047   2.04979
   R13        2.68328  -0.00005  -0.00019  -0.00014  -0.00033   2.68296
   R14        2.06448  -0.00051  -0.00020  -0.00159  -0.00178   2.06270
   R15        2.07414   0.00014   0.00028   0.00044   0.00072   2.07486
   R16        2.07368   0.00025   0.00024   0.00077   0.00101   2.07469
    A1        2.09267  -0.00019  -0.00025  -0.00040  -0.00065   2.09202
    A2        2.11886  -0.00030  -0.00043  -0.00241  -0.00284   2.11602
    A3        2.07166   0.00049   0.00067   0.00282   0.00349   2.07515
    A4        2.08518   0.00033   0.00016   0.00193   0.00208   2.08727
    A5        2.17841  -0.00011  -0.00119  -0.00076  -0.00196   2.17646
    A6        2.01958  -0.00022   0.00103  -0.00115  -0.00012   2.01946
    A7        2.10381  -0.00033  -0.00018  -0.00135  -0.00153   2.10228
    A8        2.07629  -0.00048  -0.00062  -0.00358  -0.00420   2.07209
    A9        2.10308   0.00080   0.00081   0.00493   0.00573   2.10881
   A10        2.08841  -0.00044   0.00015  -0.00228  -0.00213   2.08628
   A11        2.09335   0.00069   0.00036   0.00425   0.00461   2.09796
   A12        2.10143  -0.00025  -0.00051  -0.00197  -0.00248   2.09894
   A13        2.09922   0.00147  -0.00007   0.00601   0.00594   2.10516
   A14        2.09239  -0.00097   0.00005  -0.00398  -0.00393   2.08846
   A15        2.09158  -0.00050   0.00002  -0.00203  -0.00201   2.08957
   A16        2.09708  -0.00084   0.00019  -0.00390  -0.00371   2.09336
   A17        2.08891   0.00064   0.00020   0.00340   0.00359   2.09250
   A18        2.09720   0.00020  -0.00039   0.00051   0.00012   2.09732
   A19        2.05642   0.00185   0.00083   0.00783   0.00866   2.06509
   A20        1.84466   0.00054  -0.00202   0.00512   0.00310   1.84775
   A21        1.94808  -0.00018   0.00067  -0.00216  -0.00150   1.94658
   A22        1.94772  -0.00011   0.00024  -0.00148  -0.00125   1.94647
   A23        1.90382   0.00022   0.00122   0.00284   0.00406   1.90788
   A24        1.90183   0.00042   0.00134   0.00478   0.00612   1.90795
   A25        1.91563  -0.00081  -0.00139  -0.00823  -0.00965   1.90599
    D1       -0.00310   0.00005   0.00018   0.00251   0.00268  -0.00042
    D2       -3.14026  -0.00004   0.00059  -0.00182  -0.00123  -3.14150
    D3        3.13474   0.00011  -0.00012   0.00517   0.00505   3.13979
    D4       -0.00242   0.00002   0.00029   0.00085   0.00113  -0.00129
    D5        0.00084  -0.00001  -0.00009  -0.00048  -0.00058   0.00026
    D6        3.14102   0.00002  -0.00025   0.00076   0.00052   3.14154
    D7       -3.13711  -0.00006   0.00019  -0.00307  -0.00288  -3.13998
    D8        0.00308  -0.00004   0.00004  -0.00182  -0.00178   0.00129
    D9        0.00325  -0.00006  -0.00010  -0.00299  -0.00309   0.00016
   D10       -3.13872  -0.00006  -0.00001  -0.00287  -0.00288   3.14159
   D11        3.14081   0.00002  -0.00047   0.00095   0.00048   3.14129
   D12       -0.00116   0.00002  -0.00038   0.00107   0.00069  -0.00047
   D13       -0.01934   0.00006  -0.00060   0.00274   0.00214  -0.01721
   D14        3.12653  -0.00003  -0.00020  -0.00145  -0.00165   3.12488
   D15       -0.00111   0.00003  -0.00006   0.00142   0.00136   0.00025
   D16        3.14126   0.00000   0.00009   0.00014   0.00023   3.14150
   D17        3.14087   0.00003  -0.00015   0.00130   0.00114  -3.14118
   D18        0.00005   0.00000   0.00000   0.00002   0.00002   0.00007
   D19       -0.00120   0.00001   0.00015   0.00063   0.00079  -0.00041
   D20        3.14138  -0.00002   0.00026  -0.00077  -0.00051   3.14087
   D21        3.13962   0.00004  -0.00001   0.00192   0.00191   3.14153
   D22       -0.00100   0.00001   0.00010   0.00052   0.00062  -0.00038
   D23        0.00133  -0.00002  -0.00007  -0.00110  -0.00118   0.00015
   D24       -3.13885  -0.00005   0.00008  -0.00236  -0.00227  -3.14112
   D25       -3.14124   0.00001  -0.00019   0.00030   0.00012  -3.14112
   D26        0.00177  -0.00002  -0.00003  -0.00095  -0.00098   0.00078
   D27       -3.11475  -0.00023  -0.00118  -0.01111  -0.01229  -3.12704
   D28        1.10090  -0.00072  -0.00180  -0.01646  -0.01824   1.08266
   D29       -1.04979   0.00054  -0.00065  -0.00307  -0.00373  -1.05353
         Item               Value     Threshold  Converged?
 Maximum Force            0.001849     0.000450     NO 
 RMS     Force            0.000518     0.000300     NO 
 Maximum Displacement     0.019275     0.001800     NO 
 RMS     Displacement     0.005591     0.001200     NO 
 Predicted change in Energy=-4.792033D-05
 GradGradGradGradGradGradGradGradGradGradGradGradGradGradGradGradGradGrad

                          Input orientation:                          
 ---------------------------------------------------------------------
 Center     Atomic      Atomic             Coordinates (Angstroms)
 Number     Number       Type             X           Y           Z
 ---------------------------------------------------------------------
      1          6           0       -0.812968    1.160414   -0.007340
      2          6           0        0.583226    1.262390   -0.029946
      3          6           0        1.363034    0.096058   -0.039598
      4          6           0        0.759027   -1.154775   -0.027079
      5          6           0       -0.634231   -1.246238   -0.005045
      6          6           0       -1.418725   -0.099230    0.004916
      7          1           0       -2.500367   -0.178751    0.022481
      8         35           0       -1.470427   -2.968293    0.011060
      9          8           0        1.276208    2.437880   -0.043327
     10          6           0        0.541573    3.652739   -0.055378
     11          1           0       -1.440883    2.043566    0.002235
     12          1           0        2.443898    0.191516   -0.057140
     13          1           0        1.365743   -2.053787   -0.034697
     14          1           0        1.285481    4.451137   -0.080086
     15          1           0       -0.075714    3.759331    0.846360
     16          1           0       -0.100124    3.726642   -0.943126
 ---------------------------------------------------------------------
                    Distance matrix (angstroms):
                    1          2          3          4          5
     1  C    0.000000
     2  C    1.400096   0.000000
     3  C    2.422577   1.403041   0.000000
     4  C    2.798511   2.423552   1.389087   0.000000
     5  C    2.413281   2.788554   2.406661   1.396431   0.000000
     6  C    1.397782   2.421370   2.788961   2.420290   1.389661
     7  H    2.154430   3.404142   3.873660   3.402754   2.150058
     8  Br   4.180767   4.702962   4.173885   2.874155   1.914408
     9  O    2.449055   1.364617   2.343434   3.629725   4.150176
    10  C    2.837036   2.390847   3.650346   4.812512   5.038355
    11  H    1.083663   2.169859   3.414160   3.881990   3.387262
    12  H    3.398297   2.147001   1.085213   2.156894   3.397754
    13  H    3.883120   3.407255   2.149852   1.084613   2.157061
    14  H    3.903541   3.265544   4.355957   5.630827   6.012570
    15  H    2.833146   2.727054   4.034165   5.060447   5.108087
    16  H    2.823007   2.715401   4.017255   5.040388   5.088693
                    6          7          8          9         10
     6  C    0.000000
     7  H    1.084704   0.000000
     8  Br   2.869536   2.973626   0.000000
     9  O    3.701610   4.594954   6.064129   0.000000
    10  C    4.233636   4.892829   6.920305   1.419759   0.000000
    11  H    2.142911   2.462033   5.011953   2.745932   2.553995
    12  H    3.874047   4.958750   5.031003   2.531767   3.949545
    13  H    3.402224   4.297190   2.980315   4.492568   5.765771
    14  H    5.293939   5.981557   7.915256   2.013614   1.091535
    15  H    4.171354   4.697469   6.921262   2.089370   1.097969
    16  H    4.156295   4.684619   6.900025   2.089218   1.097876
                   11         12         13         14         15
    11  H    0.000000
    12  H    4.304084   0.000000
    13  H    4.966570   2.490845   0.000000
    14  H    3.638164   4.414388   6.505577   0.000000
    15  H    2.349487   4.460275   6.053627   1.785987   0.000000
    16  H    2.350338   4.444562   6.032194   1.785954   1.789951
                   16
    16  H    0.000000
 Stoichiometry    C7H7BrO
 Framework group  C1[X(C7H7BrO)]
 Deg. of freedom    42
 Full point group                 C1      NOp   1
 Largest Abelian subgroup         C1      NOp   1
 Largest concise Abelian subgroup C1      NOp   1
                         Standard orientation:                         
 ---------------------------------------------------------------------
 Center     Atomic      Atomic             Coordinates (Angstroms)
 Number     Number       Type             X           Y           Z
 ---------------------------------------------------------------------
      1          6           0       -1.449569   -0.988711    0.006864
      2          6           0       -2.047801    0.277141    0.004683
      3          6           0       -1.240778    1.424845    0.001199
      4          6           0        0.143714    1.311954   -0.000287
      5          6           0        0.731077    0.045060    0.001408
      6          6           0       -0.056230   -1.100057    0.005051
      7          1           0        0.407711   -2.080536    0.006790
      8         35           0        2.638806   -0.114679   -0.001835
      9          8           0       -3.394066    0.500180    0.006258
     10          6           0       -4.262827   -0.622615   -0.011104
     11          1           0       -2.047143   -1.892708    0.011231
     12          1           0       -1.719305    2.398856   -0.000460
     13          1           0        0.763738    2.201868   -0.003071
     14          1           0       -5.275775   -0.216079   -0.021741
     15          1           0       -4.131664   -1.247453    0.882154
     16          1           0       -4.108757   -1.237311   -0.907622
 ---------------------------------------------------------------------
 Rotational constants (GHZ):           4.8076328           0.4527607           0.4148915
 Standard basis: 6-31G(d) (6D, 7F)
 There are   164 symmetry adapted cartesian basis functions of A   symmetry.
 There are   164 symmetry adapted basis functions of A   symmetry.
   164 basis functions,   335 primitive gaussians,   164 cartesian basis functions
    46 alpha electrons       46 beta electrons
       nuclear repulsion energy       614.8499415679 Hartrees.
 NAtoms=   16 NActive=   16 NUniq=   16 SFac= 1.00D+00 NAtFMM=   60 NAOKFM=F Big=F
 Integral buffers will be    131072 words long.
 Raffenetti 2 integral format.
 Two-electron integral symmetry is turned on.
 One-electron integrals computed using PRISM.
 NBasis=   164 RedAO= T EigKep=  4.50D-04  NBF=   164
 NBsUse=   164 1.00D-06 EigRej= -1.00D+00 NBFU=   164
 Initial guess from the checkpoint file:  "science_arx_51.chk"
 B after Tr=     0.000000    0.000000    0.000000
         Rot=    1.000000   -0.000166   -0.000025    0.000083 Ang=  -0.02 deg.
 Keep R1 ints in memory in canonical form, NReq=94514300.
 Gradient too large for Newton-Raphson -- use scaled steepest descent instead.
 Gradient too large for Newton-Raphson -- use scaled steepest descent instead.
 LinEq1:  Iter=  0 NonCon=     1 RMS=4.55D-05 Max=8.27D-04 NDo=     1
 AX will form     1 AO Fock derivatives at one time.
 LinEq1:  Iter=  1 NonCon=     1 RMS=1.33D-05 Max=3.12D-04 NDo=     1
 LinEq1:  Iter=  2 NonCon=     1 RMS=7.62D-06 Max=1.99D-04 NDo=     1
 LinEq1:  Iter=  3 NonCon=     1 RMS=4.64D-06 Max=1.35D-04 NDo=     1
 LinEq1:  Iter=  4 NonCon=     1 RMS=2.89D-06 Max=7.00D-05 NDo=     1
 LinEq1:  Iter=  5 NonCon=     1 RMS=2.16D-06 Max=6.43D-05 NDo=     1
 LinEq1:  Iter=  6 NonCon=     1 RMS=9.29D-07 Max=3.95D-05 NDo=     1
 LinEq1:  Iter=  7 NonCon=     1 RMS=7.39D-07 Max=2.85D-05 NDo=     1
 LinEq1:  Iter=  8 NonCon=     1 RMS=3.51D-07 Max=8.99D-06 NDo=     1
 LinEq1:  Iter=  9 NonCon=     1 RMS=1.88D-07 Max=4.08D-06 NDo=     1
 LinEq1:  Iter= 10 NonCon=     1 RMS=8.16D-08 Max=2.06D-06 NDo=     1
 LinEq1:  Iter= 11 NonCon=     1 RMS=2.73D-08 Max=4.53D-07 NDo=     1
 LinEq1:  Iter= 12 NonCon=     1 RMS=1.43D-08 Max=2.97D-07 NDo=     1
 LinEq1:  Iter= 13 NonCon=     1 RMS=7.14D-09 Max=1.20D-07 NDo=     1
 LinEq1:  Iter= 14 NonCon=     0 RMS=2.32D-09 Max=2.78D-08 NDo=     1
 Linear equations converged to 1.042D-08 1.042D-07 after    14 iterations.
     Accept linear search using points  1 and  2.
     Minimum is close to point  2 DX= -2.26D-05 DF=  0.00D+00 DXR=  2.26D-05 DFR=  0.00D+00 which will be used.
 LinEq1:  Iter=  0 NonCon=     1 RMS=2.35D-08 Max=9.29D-07 NDo=     1
 LinEq1:  Iter=  1 NonCon=     1 RMS=2.10D-08 Max=4.57D-07 NDo=     1
 LinEq1:  Iter=  2 NonCon=     1 RMS=8.19D-09 Max=2.03D-07 NDo=     1
 LinEq1:  Iter=  3 NonCon=     1 RMS=5.60D-09 Max=1.35D-07 NDo=     1
 LinEq1:  Iter=  4 NonCon=     1 RMS=2.16D-09 Max=4.09D-08 NDo=     1
 LinEq1:  Iter=  5 NonCon=     1 RMS=1.13D-09 Max=2.46D-08 NDo=     1
 LinEq1:  Iter=  6 NonCon=     1 RMS=4.88D-10 Max=1.57D-08 NDo=     1
 LinEq1:  Iter=  7 NonCon=     1 RMS=3.48D-10 Max=1.29D-08 NDo=     1
 LinEq1:  Iter=  8 NonCon=     1 RMS=1.69D-10 Max=5.38D-09 NDo=     1
 LinEq1:  Iter=  9 NonCon=     1 RMS=1.04D-10 Max=3.57D-09 NDo=     1
 LinEq1:  Iter= 10 NonCon=     1 RMS=4.55D-11 Max=1.10D-09 NDo=     1
 LinEq1:  Iter= 11 NonCon=     1 RMS=2.15D-11 Max=4.34D-10 NDo=     1
 LinEq1:  Iter= 12 NonCon=     1 RMS=1.04D-11 Max=1.97D-10 NDo=     1
 LinEq1:  Iter= 13 NonCon=     0 RMS=4.10D-12 Max=5.69D-11 NDo=     1
 Linear equations converged to 1.668D-11 1.668D-10 after    13 iterations.
 SCF Done:  E(RB3LYP) =  -2917.87600189     a.u. after    5 cycles
            Convg  =    0.1137D-09                    38 Fock formations.
              S**2 =  0.0000                  -V/T =  2.0065
 Calling FoFJK, ICntrl=      2127 FMM=F ISym2X=0 I1Cent= 0 IOpClX= 0 NMat=1 NMatS=1 NMatT=0.
 ***** Axes restored to original set *****
 -------------------------------------------------------------------
 Center     Atomic                   Forces (Hartrees/Bohr)
 Number     Number              X              Y              Z
 -------------------------------------------------------------------
      1        6           0.000327982    0.000066347    0.000020184
      2        6          -0.000121595    0.000845999    0.000023059
      3        6           0.000048670    0.000006399    0.000043229
      4        6           0.000113106   -0.000251298    0.000010735
      5        6          -0.000029155    0.000187213   -0.000021189
      6        6          -0.000250066   -0.000270225    0.000017916
      7        1          -0.000013626   -0.000030563   -0.000001364
      8       35           0.000087721   -0.000011440    0.000009124
      9        8          -0.000208705   -0.000386669   -0.000172601
     10        6           0.000172653   -0.000466580    0.000112616
     11        1           0.000070784    0.000183176   -0.000044780
     12        1           0.000088073    0.000182384   -0.000004770
     13        1          -0.000126220   -0.000111323   -0.000004427
     14        1          -0.000117527   -0.000085371    0.000051446
     15        1          -0.000024170    0.000081603    0.000032581
     16        1          -0.000017924    0.000060349   -0.000071761
 -------------------------------------------------------------------
 Cartesian Forces:  Max     0.000845999 RMS     0.000190349

 GradGradGradGradGradGradGradGradGradGradGradGradGradGradGradGradGradGrad
 Berny optimization.
 Using GEDIIS/GDIIS optimizer.
 FormGI is forming the generalized inverse of G from B-inverse, IUseBI=4.
 Internal  Forces:  Max     0.000784681 RMS     0.000150915
 Search for a local minimum.
 Step number   3 out of a maximum of   80
 All quantities printed in internal units (Hartrees-Bohrs-Radians)
 Mixed Optimization -- En-DIIS/RFO-DIIS
 Swapping is turned off.
 Update second derivatives using D2CorX and points    1    2    3
 DE= -5.05D-05 DEPred=-4.79D-05 R= 1.05D+00
 TightC=F SS=  1.41D+00  RLast= 3.26D-02 DXNew= 5.0454D-01 9.7702D-02
 Trust test= 1.05D+00 RLast= 3.26D-02 DXMaxT set to 3.00D-01
 ITU=  1  1  0
     Eigenvalues ---    0.01339   0.02097   0.02115   0.02121   0.02126
     Eigenvalues ---    0.02131   0.02134   0.02152   0.02165   0.02175
     Eigenvalues ---    0.02186   0.09579   0.10633   0.13726   0.16000
     Eigenvalues ---    0.16000   0.16000   0.16000   0.16019   0.16395
     Eigenvalues ---    0.19533   0.22014   0.23167   0.23396   0.24903
     Eigenvalues ---    0.25754   0.26880   0.33992   0.34243   0.34294
     Eigenvalues ---    0.35110   0.35178   0.35327   0.35439   0.41634
     Eigenvalues ---    0.41841   0.43024   0.45720   0.46290   0.46653
     Eigenvalues ---    0.46999   0.51277
 En-DIIS/RFO-DIIS/Sim-DIIS IScMMF=       -3 using points:     3    2
 RFO step:  Lambda=-6.92973406D-06.
 DidBck=F Rises=F RFO-DIIS coefs:    1.19607   -0.19607
 Iteration  1 RMS(Cart)=  0.00290210 RMS(Int)=  0.00000386
 Iteration  2 RMS(Cart)=  0.00000616 RMS(Int)=  0.00000087
 Iteration  3 RMS(Cart)=  0.00000000 RMS(Int)=  0.00000087
 Variable       Old X    -DE/DX   Delta X   Delta X   Delta X     New X
                                 (Linear)    (Quad)   (Total)
    R1        2.64580  -0.00023   0.00043  -0.00080  -0.00037   2.64543
    R2        2.64142   0.00031  -0.00005   0.00073   0.00068   2.64211
    R3        2.04783   0.00011  -0.00016   0.00041   0.00025   2.04808
    R4        2.65136   0.00007   0.00020   0.00007   0.00026   2.65163
    R5        2.57875  -0.00078  -0.00055  -0.00125  -0.00180   2.57695
    R6        2.62499   0.00022  -0.00063   0.00084   0.00022   2.62521
    R7        2.05076   0.00010   0.00003   0.00026   0.00029   2.05104
    R8        2.63887   0.00003   0.00011   0.00008   0.00018   2.63906
    R9        2.04962   0.00002   0.00004   0.00001   0.00005   2.04967
   R10        2.62608   0.00003  -0.00066   0.00050  -0.00017   2.62591
   R11        3.61771  -0.00003  -0.00028   0.00036   0.00009   3.61779
   R12        2.04979   0.00002   0.00009  -0.00005   0.00004   2.04984
   R13        2.68296  -0.00036  -0.00006  -0.00088  -0.00094   2.68201
   R14        2.06270  -0.00014  -0.00035  -0.00023  -0.00058   2.06212
   R15        2.07486   0.00005   0.00014   0.00009   0.00023   2.07509
   R16        2.07469   0.00007   0.00020   0.00012   0.00032   2.07500
    A1        2.09202   0.00001  -0.00013   0.00008  -0.00004   2.09198
    A2        2.11602  -0.00017  -0.00056  -0.00081  -0.00136   2.11466
    A3        2.07515   0.00016   0.00068   0.00072   0.00141   2.07655
    A4        2.08727   0.00012   0.00041   0.00020   0.00061   2.08788
    A5        2.17646   0.00003  -0.00038   0.00025  -0.00013   2.17632
    A6        2.01946  -0.00015  -0.00002  -0.00045  -0.00048   2.01898
    A7        2.10228  -0.00003  -0.00030   0.00003  -0.00027   2.10201
    A8        2.07209  -0.00016  -0.00082  -0.00062  -0.00145   2.07064
    A9        2.10881   0.00019   0.00112   0.00060   0.00172   2.11054
   A10        2.08628  -0.00012  -0.00042  -0.00018  -0.00060   2.08568
   A11        2.09796   0.00023   0.00090   0.00081   0.00171   2.09967
   A12        2.09894  -0.00011  -0.00049  -0.00063  -0.00111   2.09783
   A13        2.10516   0.00016   0.00116  -0.00004   0.00113   2.10629
   A14        2.08846  -0.00023  -0.00077  -0.00049  -0.00126   2.08720
   A15        2.08957   0.00007  -0.00039   0.00053   0.00013   2.08970
   A16        2.09336  -0.00014  -0.00073  -0.00009  -0.00082   2.09254
   A17        2.09250   0.00010   0.00070   0.00005   0.00076   2.09325
   A18        2.09732   0.00004   0.00002   0.00004   0.00006   2.09739
   A19        2.06509  -0.00043   0.00170  -0.00285  -0.00115   2.06393
   A20        1.84775  -0.00001   0.00061  -0.00082  -0.00021   1.84754
   A21        1.94658   0.00009  -0.00029   0.00094   0.00064   1.94723
   A22        1.94647   0.00005  -0.00025   0.00061   0.00036   1.94683
   A23        1.90788  -0.00009   0.00080  -0.00111  -0.00031   1.90757
   A24        1.90795  -0.00004   0.00120  -0.00094   0.00025   1.90820
   A25        1.90599  -0.00002  -0.00189   0.00117  -0.00073   1.90526
    D1       -0.00042  -0.00000   0.00053  -0.00037   0.00016  -0.00026
    D2       -3.14150   0.00002  -0.00024   0.00131   0.00107  -3.14043
    D3        3.13979   0.00001   0.00099   0.00001   0.00100   3.14080
    D4       -0.00129   0.00004   0.00022   0.00169   0.00191   0.00063
    D5        0.00026  -0.00000  -0.00011   0.00006  -0.00005   0.00021
    D6        3.14154   0.00000   0.00010   0.00002   0.00012  -3.14152
    D7       -3.13998  -0.00001  -0.00056  -0.00031  -0.00088  -3.14086
    D8        0.00129  -0.00001  -0.00035  -0.00035  -0.00070   0.00059
    D9        0.00016   0.00000  -0.00061   0.00046  -0.00014   0.00002
   D10        3.14159   0.00000  -0.00056   0.00057   0.00001  -3.14159
   D11        3.14129  -0.00002   0.00009  -0.00107  -0.00097   3.14031
   D12       -0.00047  -0.00002   0.00014  -0.00096  -0.00082  -0.00129
   D13       -0.01721   0.00009   0.00042   0.00387   0.00429  -0.01292
   D14        3.12488   0.00011  -0.00032   0.00549   0.00517   3.13005
   D15        0.00025  -0.00000   0.00027  -0.00024   0.00002   0.00027
   D16        3.14150  -0.00000   0.00005  -0.00006  -0.00001   3.14149
   D17       -3.14118  -0.00000   0.00022  -0.00036  -0.00013  -3.14131
   D18        0.00007  -0.00000   0.00000  -0.00017  -0.00017  -0.00009
   D19       -0.00041   0.00000   0.00015  -0.00007   0.00009  -0.00032
   D20        3.14087   0.00001  -0.00010   0.00049   0.00039   3.14126
   D21        3.14153  -0.00000   0.00037  -0.00025   0.00012  -3.14154
   D22       -0.00038   0.00001   0.00012   0.00030   0.00042   0.00004
   D23        0.00015   0.00000  -0.00023   0.00016  -0.00007   0.00008
   D24       -3.14112  -0.00000  -0.00045   0.00020  -0.00025  -3.14137
   D25       -3.14112  -0.00001   0.00002  -0.00039  -0.00037  -3.14150
   D26        0.00078  -0.00001  -0.00019  -0.00036  -0.00055   0.00024
   D27       -3.12704  -0.00005  -0.00241  -0.00178  -0.00419  -3.13123
   D28        1.08266   0.00001  -0.00358  -0.00046  -0.00404   1.07862
   D29       -1.05353  -0.00008  -0.00073  -0.00309  -0.00382  -1.05734
         Item               Value     Threshold  Converged?
 Maximum Force            0.000785     0.000450     NO 
 RMS     Force            0.000151     0.000300     YES
 Maximum Displacement     0.009627     0.001800     NO 
 RMS     Displacement     0.002904     0.001200     NO 
 Predicted change in Energy=-3.465197D-06
 GradGradGradGradGradGradGradGradGradGradGradGradGradGradGradGradGradGrad

                          Input orientation:                          
 ---------------------------------------------------------------------
 Center     Atomic      Atomic             Coordinates (Angstroms)
 Number     Number       Type             X           Y           Z
 ---------------------------------------------------------------------
      1          6           0       -0.812541    1.161334   -0.009922
      2          6           0        0.583505    1.262597   -0.032799
      3          6           0        1.363543    0.096239   -0.040911
      4          6           0        0.759310   -1.154592   -0.026421
      5          6           0       -0.634108   -1.244997   -0.003979
      6          6           0       -1.418998   -0.098353    0.004345
      7          1           0       -2.500638   -0.178201    0.022010
      8         35           0       -1.469416   -2.967500    0.015466
      9          8           0        1.276424    2.437010   -0.046854
     10          6           0        0.541098    3.650907   -0.053997
     11          1           0       -1.438921    2.045760   -0.002471
     12          1           0        2.444405    0.193393   -0.058691
     13          1           0        1.364370   -2.054760   -0.032831
     14          1           0        1.284335    4.449593   -0.075820
     15          1           0       -0.076202    3.754236    0.848260
     16          1           0       -0.101418    3.727936   -0.941094
 ---------------------------------------------------------------------
                    Distance matrix (angstroms):
                    1          2          3          4          5
     1  C    0.000000
     2  C    1.399900   0.000000
     3  C    2.422958   1.403180   0.000000
     4  C    2.799018   2.423582   1.389203   0.000000
     5  C    2.412945   2.787730   2.406426   1.396528   0.000000
     6  C    1.398144   2.421483   2.789703   2.421077   1.389573
     7  H    2.155237   3.404532   3.874425   3.403373   2.150038
     8  Br   4.180837   4.702184   4.173167   2.873257   1.914454
     9  O    2.447956   1.363665   2.342400   3.628696   4.148391
    10  C    2.834123   2.388780   3.648596   4.810530   5.035224
    11  H    1.083797   2.168980   3.414076   3.882660   3.387744
    12  H    3.398085   2.146349   1.085365   2.158159   3.398412
    13  H    3.883649   3.408021   2.151014   1.084639   2.156494
    14  H    3.900497   3.263427   4.354215   5.628941   6.009487
    15  H    2.828748   2.723921   4.030439   5.055665   5.101951
    16  H    2.821386   2.715146   4.018167   5.041484   5.088419
                    6          7          8          9         10
     6  C    0.000000
     7  H    1.084727   0.000000
     8  Br   2.869612   2.973828   0.000000
     9  O    3.700809   4.594591   6.062364   0.000000
    10  C    4.231114   4.890808   6.917391   1.419260   0.000000
    11  H    2.144216   2.464517   5.013385   2.743747   2.549437
    12  H    3.874915   4.959641   5.031375   2.529454   3.946771
    13  H    3.402359   4.296833   2.977544   4.492653   5.764795
    14  H    5.291337   5.979303   7.912316   2.012806   1.091227
    15  H    4.166262   4.693042   6.914935   2.089476   1.098091
    16  H    4.155762   4.684200   6.900383   2.089164   1.098045
[...]
          Condensed to atoms (all electrons):
               1          2          3          4          5          6
     1  C    5.246907   0.444915  -0.100555  -0.021745  -0.019501   0.380797
     2  C    0.444915   4.590348   0.500795  -0.009579  -0.032516  -0.002530
     3  C   -0.100555   0.500795   5.159360   0.401553  -0.023280  -0.015776
     4  C   -0.021745  -0.009579   0.401553   5.122036   0.486459  -0.071711
     5  C   -0.019501  -0.032516  -0.023280   0.486459   4.842055   0.481008
     6  C    0.380797  -0.002530  -0.015776  -0.071711   0.481008   5.140655
     7  H   -0.036022   0.003487   0.000497   0.005269  -0.043294   0.358885
     8  Br   0.004803   0.000282   0.004556  -0.054220   0.261652  -0.053482
     9  O   -0.054266   0.263081  -0.046964   0.002930   0.000124   0.003598
    10  C   -0.006926  -0.042247   0.004547  -0.000132  -0.000002   0.000240
    11  H    0.353314  -0.045753   0.004376   0.000647   0.004212  -0.036291
    12  H    0.007226  -0.038058   0.349314  -0.040863   0.004941   0.000151
    13  H    0.000234   0.004569  -0.037746   0.361748  -0.046316   0.005597
    14  H    0.000307   0.003032  -0.000115   0.000004   0.000000   0.000001
    15  H    0.004089  -0.003432  -0.000202   0.000010   0.000003  -0.000193
    16  H    0.004105  -0.003433  -0.000202   0.000010   0.000003  -0.000194
               7          8          9         10         11         12
     1  C   -0.036022   0.004803  -0.054266  -0.006926   0.353314   0.007226
     2  C    0.003487   0.000282   0.263081  -0.042247  -0.045753  -0.038058
     3  C    0.000497   0.004556  -0.046964   0.004547   0.004376   0.349314
     4  C    0.005269  -0.054220   0.002930  -0.000132   0.000647  -0.040863
     5  C   -0.043294   0.261652   0.000124  -0.000002   0.004212   0.004941
     6  C    0.358885  -0.053482   0.003598   0.000240  -0.036291   0.000151
     7  H    0.583746  -0.003369  -0.000046  -0.000007  -0.006361   0.000013
     8  Br  -0.003369  34.887927   0.000001  -0.000000  -0.000145  -0.000131
     9  O   -0.000046   0.000001   8.154368   0.232393  -0.007645  -0.001223
    10  C   -0.000007  -0.000000   0.232393   4.921797   0.006172  -0.000180
    11  H   -0.006361  -0.000145  -0.007645   0.006172   0.599959  -0.000187
    12  H    0.000013  -0.000131  -0.001223  -0.000180  -0.000187   0.595695
    13  H   -0.000182  -0.003573  -0.000055   0.000003   0.000014  -0.006965
    14  H   -0.000000  -0.000000  -0.032866   0.384532  -0.000023  -0.000026
    15  H    0.000002  -0.000000  -0.031008   0.363490   0.001345   0.000024
    16  H    0.000002  -0.000000  -0.031004   0.363465   0.001342   0.000024
              13         14         15         16
     1  C    0.000234   0.000307   0.004089   0.004105
     2  C    0.004569   0.003032  -0.003432  -0.003433
     3  C   -0.037746  -0.000115  -0.000202  -0.000202
     4  C    0.361748   0.000004   0.000010   0.000010
     5  C   -0.046316   0.000000   0.000003   0.000003
     6  C    0.005597   0.000001  -0.000193  -0.000194
     7  H   -0.000182  -0.000000   0.000002   0.000002
     8  Br  -0.003573  -0.000000  -0.000000  -0.000000
     9  O   -0.000055  -0.032866  -0.031008  -0.031004
    10  C    0.000003   0.384532   0.363490   0.363465
    11  H    0.000014  -0.000023   0.001345   0.001342
    12  H   -0.006965  -0.000026   0.000024   0.000024
    13  H    0.585515  -0.000000  -0.000000  -0.000000
    14  H   -0.000000   0.527883  -0.030786  -0.030767
    15  H   -0.000000  -0.030786   0.568181  -0.043393
    16  H   -0.000000  -0.030767  -0.043393   0.568165
 Mulliken charges:
               1
     1  C   -0.207680
     2  C    0.367039
     3  C   -0.200157
     4  C   -0.182417
     5  C    0.084453
     6  C   -0.190756
     7  H    0.137379
     8  Br  -0.044301
     9  O   -0.451418
    10  C   -0.227144
    11  H    0.125026
    12  H    0.130245
    13  H    0.137158
    14  H    0.178825
    15  H    0.171871
    16  H    0.171877
 Sum of Mulliken charges =  -0.00000
 Mulliken charges with hydrogens summed into heavy atoms:
               1
     1  C   -0.082654
     2  C    0.367039
     3  C   -0.069912
     4  C   -0.045259
     5  C    0.084453
     6  C   -0.053377
     8  Br  -0.044301
     9  O   -0.451418
    10  C    0.295430
 Electronic spatial extent (au):  <R**2>=           2379.2658
 Charge=             -0.0000 electrons
 Dipole moment (field-independent basis, Debye):
    X=             -2.2446    Y=             -1.3512    Z=             -0.0010  Tot=              2.6200
 Quadrupole moment (field-independent basis, Debye-Ang):
   XX=            -50.2614   YY=            -62.0166   ZZ=            -67.2768
   XY=              5.4078   XZ=              0.0039   YZ=             -0.0007
 Traceless Quadrupole moment (field-independent basis, Debye-Ang):
   XX=              9.5902   YY=             -2.1650   ZZ=             -7.4252
   XY=              5.4078   XZ=              0.0039   YZ=             -0.0007
 Octapole moment (field-independent basis, Debye-Ang**2):
  XXX=             13.6133  YYY=             -1.9414  ZZZ=             -0.0022  XYY=             20.3896
  XXY=            -22.5535  XXZ=             -0.0178  XZZ=             23.8161  YZZ=             -2.1222
  YYZ=             -0.0005  XYZ=              0.0012
 Hexadecapole moment (field-independent basis, Debye-Ang**3):
 XXXX=          -1881.7314 YYYY=           -341.7665 ZZZZ=            -76.1808 XXXY=             63.1263
 XXXZ=              0.0668 YYYX=            -10.3904 YYYZ=             -0.0040 ZZZX=             -0.0057
 ZZZY=              0.0034 XXYY=           -432.4790 XXZZ=           -391.9427 YYZZ=            -79.4892
 XXYZ=             -0.0056 YYXZ=             -0.0038 ZZXY=             -1.6294
 N-N= 6.149190261384D+02 E-N=-8.167325753212D+03  KE= 2.899040847502D+03
 Evaluate density.
 Using the total density.
 Monte-Carlo method of calculating molar volume:
 based on  0.001 e/bohr**3 density envelope.
 Number of points per bohr**3 =   20 CutOff= 1.00D-04
 Using the CI density.
 There are       447 points.  Will hold       447 in memory.
 LenV=   805204212 MDV=   805306368.
 Box volume =11193.116 fraction occupied=0.123
 Integrated density= 4.6194985113734170D+01 error=-4.5805014886265830D+01
 Molar volume = 1377.229 bohr**3/mol (122.902 cm**3/mol)
 Recommended a0 for SCRF calculation =  4.52 angstrom (  8.54 bohr)
 ******************************Gaussian NBO Version 3.1******************************
             N A T U R A L   A T O M I C   O R B I T A L   A N D
          N A T U R A L   B O N D   O R B I T A L   A N A L Y S I S
 ******************************Gaussian NBO Version 3.1******************************
       /RESON  / : Allow strongly delocalized NBO set

 Analyzing the CI density

 Job title: Title Card Required                                             

 Storage needed:     81636 in NPA ( 805304928 available)


 NATURAL POPULATIONS:  Natural atomic orbital occupancies 
                                                          
   NAO  Atom  No  lang   Type(AO)    Occupancy
 --------------------------------------------
     1    C    1  S      Cor( 1S)     1.99904
     2    C    1  S      Val( 2S)     0.95475
     3    C    1  S      Ryd( 3S)     0.00060
     4    C    1  S      Ryd( 4S)     0.00004
     5    C    1  px     Val( 2p)     1.10295
     6    C    1  px     Ryd( 3p)     0.00390
     7    C    1  py     Val( 2p)     1.14643
     8    C    1  py     Ryd( 3p)     0.00400
     9    C    1  pz     Val( 2p)     1.13018
    10    C    1  pz     Ryd( 3p)     0.00581
    11    C    1  dxy    Ryd( 3d)     0.00079
    12    C    1  dxz    Ryd( 3d)     0.00060
    13    C    1  dyz    Ryd( 3d)     0.00043
    14    C    1  dx2y2  Ryd( 3d)     0.00054
    15    C    1  dz2    Ryd( 3d)     0.00048
 
    16    C    2  S      Cor( 1S)     1.99879
    17    C    2  S      Val( 2S)     0.84194
    18    C    2  S      Ryd( 3S)     0.00158
    19    C    2  S      Ryd( 4S)     0.00013
    20    C    2  px     Val( 2p)     0.74901
    21    C    2  px     Ryd( 3p)     0.00667
    22    C    2  py     Val( 2p)     1.08694
    23    C    2  py     Ryd( 3p)     0.00638
    24    C    2  pz     Val( 2p)     0.95349
    25    C    2  pz     Ryd( 3p)     0.00152
    26    C    2  dxy    Ryd( 3d)     0.00141
    27    C    2  dxz    Ryd( 3d)     0.00172
    28    C    2  dyz    Ryd( 3d)     0.00146
    29    C    2  dx2y2  Ryd( 3d)     0.00175
    30    C    2  dz2    Ryd( 3d)     0.00050
 
    31    C    3  S      Cor( 1S)     1.99905
    32    C    3  S      Val( 2S)     0.95524
    33    C    3  S      Ryd( 3S)     0.00081
    34    C    3  S      Ryd( 4S)     0.00004
    35    C    3  px     Val( 2p)     1.07588
    36    C    3  px     Ryd( 3p)     0.00545
    37    C    3  py     Val( 2p)     1.15676
    38    C    3  py     Ryd( 3p)     0.00447
    39    C    3  pz     Val( 2p)     1.12343
    40    C    3  pz     Ryd( 3p)     0.00688
    41    C    3  dxy    Ryd( 3d)     0.00081
    42    C    3  dxz    Ryd( 3d)     0.00061
    43    C    3  dyz    Ryd( 3d)     0.00040
    44    C    3  dx2y2  Ryd( 3d)     0.00053
    45    C    3  dz2    Ryd( 3d)     0.00047
 
    46    C    4  S      Cor( 1S)     1.99895
    47    C    4  S      Val( 2S)     0.95070
    48    C    4  S      Ryd( 3S)     0.00088
    49    C    4  S      Ryd( 4S)     0.00005
    50    C    4  px     Val( 2p)     1.10619
    51    C    4  px     Ryd( 3p)     0.00592
    52    C    4  py     Val( 2p)     1.14804
    53    C    4  py     Ryd( 3p)     0.00484
    54    C    4  pz     Val( 2p)     1.08581
    55    C    4  pz     Ryd( 3p)     0.00633
    56    C    4  dxy    Ryd( 3d)     0.00076
    57    C    4  dxz    Ryd( 3d)     0.00067
    58    C    4  dyz    Ryd( 3d)     0.00037
    59    C    4  dx2y2  Ryd( 3d)     0.00060
    60    C    4  dz2    Ryd( 3d)     0.00046
 
    61    C    5  S      Cor( 1S)     1.99857
    62    C    5  S      Val( 2S)     0.95995
    63    C    5  S      Ryd( 3S)     0.00089
    64    C    5  S      Ryd( 4S)     0.00005
    65    C    5  px     Val( 2p)     0.94023
    66    C    5  px     Ryd( 3p)     0.00639
    67    C    5  py     Val( 2p)     1.10526
    68    C    5  py     Ryd( 3p)     0.00770
    69    C    5  pz     Val( 2p)     1.04623
    70    C    5  pz     Ryd( 3p)     0.00132
    71    C    5  dxy    Ryd( 3d)     0.00094
    72    C    5  dxz    Ryd( 3d)     0.00072
    73    C    5  dyz    Ryd( 3d)     0.00139
    74    C    5  dx2y2  Ryd( 3d)     0.00143
    75    C    5  dz2    Ryd( 3d)     0.00057
 
    76    C    6  S      Cor( 1S)     1.99894
    77    C    6  S      Val( 2S)     0.94880
    78    C    6  S      Ryd( 3S)     0.00101
    79    C    6  S      Ryd( 4S)     0.00004
    80    C    6  px     Val( 2p)     1.07708
    81    C    6  px     Ryd( 3p)     0.00609
    82    C    6  py     Val( 2p)     1.17469
    83    C    6  py     Ryd( 3p)     0.00504
    84    C    6  pz     Val( 2p)     1.09060
    85    C    6  pz     Ryd( 3p)     0.00706
    86    C    6  dxy    Ryd( 3d)     0.00078
    87    C    6  dxz    Ryd( 3d)     0.00062
    88    C    6  dyz    Ryd( 3d)     0.00036
    89    C    6  dx2y2  Ryd( 3d)     0.00058
    90    C    6  dz2    Ryd( 3d)     0.00046
 
    91    H    7  S      Val( 1S)     0.75547
    92    H    7  S      Ryd( 2S)     0.00104
 
    93   Br    8  S      Cor( 1S)     2.00000
    94   Br    8  S      Cor( 2S)     1.99997
    95   Br    8  S      Cor( 3S)     1.99979
    96   Br    8  S      Val( 4S)     1.86461
    97   Br    8  S      Ryd( 5S)     0.00376
    98   Br    8  S      Ryd( 6S)     0.00003
    99   Br    8  S      Ryd( 7S)     0.00000
   100   Br    8  S      Ryd( 8S)     0.00000
   101   Br    8  px     Cor( 2p)     1.99997
   102   Br    8  px     Cor( 3p)     1.99984
   103   Br    8  px     Val( 4p)     1.19507
   104   Br    8  px     Ryd( 5p)     0.00357
   105   Br    8  py     Cor( 2p)     1.99999
   106   Br    8  py     Cor( 3p)     1.99998
   107   Br    8  py     Val( 4p)     1.97385
   108   Br    8  py     Ryd( 5p)     0.00104
   109   Br    8  pz     Cor( 2p)     2.00000
   110   Br    8  pz     Cor( 3p)     1.99989
   111   Br    8  pz     Val( 4p)     1.78811
   112   Br    8  pz     Ryd( 5p)     0.00097
   113   Br    8  dxy    Cor( 3d)     1.99995
   114   Br    8  dxy    Ryd( 4d)     0.00104
   115   Br    8  dxz    Cor( 3d)     1.99994
   116   Br    8  dxz    Ryd( 4d)     0.00342
   117   Br    8  dyz    Cor( 3d)     2.00000
   118   Br    8  dyz    Ryd( 4d)     0.00065
   119   Br    8  dx2y2  Cor( 3d)     1.99977
   120   Br    8  dx2y2  Ryd( 4d)     0.00224
   121   Br    8  dz2    Cor( 3d)     1.99992
   122   Br    8  dz2    Ryd( 4d)     0.00071
 
   123    O    9  S      Cor( 1S)     1.99975
   124    O    9  S      Val( 2S)     1.59665
   125    O    9  S      Ryd( 3S)     0.00079
   126    O    9  S      Ryd( 4S)     0.00007
   127    O    9  px     Val( 2p)     1.42910
   128    O    9  px     Ryd( 3p)     0.00107
   129    O    9  py     Val( 2p)     1.67964
   130    O    9  py     Ryd( 3p)     0.00210
   131    O    9  pz     Val( 2p)     1.71766
   132    O    9  pz     Ryd( 3p)     0.00221
   133    O    9  dxy    Ryd( 3d)     0.00135
   134    O    9  dxz    Ryd( 3d)     0.00065
   135    O    9  dyz    Ryd( 3d)     0.00142
   136    O    9  dx2y2  Ryd( 3d)     0.00133
   137    O    9  dz2    Ryd( 3d)     0.00076
 
   138    C   10  S      Cor( 1S)     1.99942
   139    C   10  S      Val( 2S)     1.10446
   140    C   10  S      Ryd( 3S)     0.00147
   141    C   10  S      Ryd( 4S)     0.00003
   142    C   10  px     Val( 2p)     1.03843
   143    C   10  px     Ryd( 3p)     0.00236
   144    C   10  py     Val( 2p)     0.93498
   145    C   10  py     Ryd( 3p)     0.00339
   146    C   10  pz     Val( 2p)     1.23363
   147    C   10  pz     Ryd( 3p)     0.00029
   148    C   10  dxy    Ryd( 3d)     0.00175
   149    C   10  dxz    Ryd( 3d)     0.00056
   150    C   10  dyz    Ryd( 3d)     0.00174
   151    C   10  dx2y2  Ryd( 3d)     0.00132
   152    C   10  dz2    Ryd( 3d)     0.00111
 
   153    H   11  S      Val( 1S)     0.76752
   154    H   11  S      Ryd( 2S)     0.00093
 
   155    H   12  S      Val( 1S)     0.75748
   156    H   12  S      Ryd( 2S)     0.00118
 
   157    H   13  S      Val( 1S)     0.75493
   158    H   13  S      Ryd( 2S)     0.00098
 
   159    H   14  S      Val( 1S)     0.76725
   160    H   14  S      Ryd( 2S)     0.00053
 
   161    H   15  S      Val( 1S)     0.78103
   162    H   15  S      Ryd( 2S)     0.00198
 
   163    H   16  S      Val( 1S)     0.78103
   164    H   16  S      Ryd( 2S)     0.00198

 WARNING:  1 low occupancy (<1.9990e) core orbital  found on  C    2
           1 low occupancy (<1.9990e) core orbital  found on  C    4
           1 low occupancy (<1.9990e) core orbital  found on  C    5
           1 low occupancy (<1.9990e) core orbital  found on  C    6


 Summary of Natural Population Analysis:                  
                                                          
                                       Natural Population 
                Natural  -----------------------------------------------
    Atom  No    Charge         Core      Valence    Rydberg      Total
 -----------------------------------------------------------------------
      C    1   -0.35055      1.99904     4.33431    0.01720     6.35055
      C    2    0.34673      1.99879     3.63137    0.02310     5.65327
      C    3   -0.33083      1.99905     4.31130    0.02047     6.33083
      C    4   -0.31059      1.99895     4.29074    0.02090     6.31059
      C    5   -0.07163      1.99857     4.05166    0.02140     6.07163
      C    6   -0.31217      1.99894     4.29118    0.02205     6.31217
      H    7    0.24348      0.00000     0.75547    0.00104     0.75652
     Br    8    0.16189     27.99904     6.82165    0.01743    34.83811
      O    9   -0.43455      1.99975     6.42305    0.01175     8.43455
      C   10   -0.32494      1.99942     4.31150    0.01402     6.32494
      H   11    0.23154      0.00000     0.76752    0.00093     0.76846
      H   12    0.24134      0.00000     0.75748    0.00118     0.75866
      H   13    0.24409      0.00000     0.75493    0.00098     0.75591
      H   14    0.23222      0.00000     0.76725    0.00053     0.76778
      H   15    0.21698      0.00000     0.78103    0.00198     0.78302
      H   16    0.21699      0.00000     0.78103    0.00198     0.78301
 =======================================================================
   * Total *    0.00000     43.99156    47.83150    0.17695    92.00000

                                 Natural Population      
 --------------------------------------------------------
   Core                      43.99156 ( 99.9808% of  44)
   Valence                   47.83150 ( 99.6489% of  48)
   Natural Minimal Basis     91.82305 ( 99.8077% of  92)
   Natural Rydberg Basis      0.17695 (  0.1923% of  92)
 --------------------------------------------------------

    Atom  No          Natural Electron Configuration
 ----------------------------------------------------------------------------
      C    1      [core]2S( 0.95)2p( 3.38)3p( 0.01)
      C    2      [core]2S( 0.84)2p( 2.79)3p( 0.01)3d( 0.01)
      C    3      [core]2S( 0.96)2p( 3.36)3p( 0.02)
      C    4      [core]2S( 0.95)2p( 3.34)3p( 0.02)
      C    5      [core]2S( 0.96)2p( 3.09)3p( 0.02)3d( 0.01)
      C    6      [core]2S( 0.95)2p( 3.34)3p( 0.02)
      H    7            1S( 0.76)
     Br    8      [core]4S( 1.86)4p( 4.96)4d( 0.01)5p( 0.01)
      O    9      [core]2S( 1.60)2p( 4.83)3p( 0.01)3d( 0.01)
      C   10      [core]2S( 1.10)2p( 3.21)3p( 0.01)3d( 0.01)
      H   11            1S( 0.77)
      H   12            1S( 0.76)
      H   13            1S( 0.75)
      H   14            1S( 0.77)
      H   15            1S( 0.78)
      H   16            1S( 0.78)


 NBO analysis skipped by request.
 1\1\GINC-DELLA-R4C3N2\SP\RB3LYP TD-FC\6-31G(d)\C7H7Br1O1\BJS4\27-Aug-2
 018\0\\# TD(NStates=10, Root=1) b3lyp/6-31G* volume pop=NPA density=cu
 rrent Geom=AllCheck Guess=Read\\Title Card Required\\0,1\C,0,-0.813200
 2141,1.1609026711,-0.0141631439\C,0,0.5826272456,1.2627095994,-0.03709
 05498\C,0,1.3630285664,0.0962965625,-0.0423536119\C,0,0.7593345915,-1.
 1546789554,-0.0249893634\C,0,-0.6341832579,-1.2453920103,-0.0021730404
 \C,0,-1.4193778671,-0.0990164146,0.0032823749\H,0,-2.5009756127,-0.178
 9364275,0.0210617496\Br,0,-1.4684995271,-2.9684437253,0.0218312285\O,0
 ,1.2759788609,2.4368921468,-0.0552853626\C,0,0.5417950075,3.6512831622
 ,-0.052061443\H,0,-1.440100451,2.0450032261,-0.0096180771\H,0,2.443853
 3574,0.1940706403,-0.0602373459\H,0,1.3643770296,-2.0548375839,-0.0291
 28226\H,0,1.2852570155,4.4500842565,-0.0694498227\H,0,-0.0733328407,3.
 748572381,0.8523022694\H,0,-0.1018319039,3.7360904711,-0.9376376357\\V
 ersion=ES64L-G16RevA.03\State=1-A\HF=-2917.8760071\RMSD=4.439e-09\Dipo
 le=-0.1780912,1.0152638,-0.0039391\Quadrupole=-3.1783086,8.6975368,-5.
 5192282,-0.0439847,-0.0385029,-0.0909556\PG=C01 [X(C7H7Br1O1)]\\@


 FROM WHENCE IT HAPPENS, THAT THEY WHICH TRUST TO BOOKS, DO AS THEY THAT CAST UP MANY LITTLE SUMMS INTO GREATER,
 WITHOUT CONSIDERING WETHER THOSE LITTLE SUMMES WERE RIGHTLY CAST UP OR NOT...
 AND AT LAST FINDING THE ERROUR VISIBLE, AND NOT MISTRUSTING THEIR FIRST GROUNDS,
 KNOW NOT WHICH WAY TO CLEERE THEMSELVES...
 BUT SPEND TIME IN FLUTTERING OVER THEIR BOOKES....
 AS BIRDS THAT ENTERING BY THE CHIMNEY, AND FINDING THEMSELVES INCLOSED IN A CHAMBER,
 FLUTTER AT THE FALSE LIGHT OF A GLASSE WINDOW,
 FOR WANT OF WIT TO CONSIDER WHICH WAY THEY CAME IN....
           LEVIATHAN
 Job cpu time:       0 days  0 hours 10 minutes 43.3 seconds.
 Elapsed time:       0 days  0 hours  3 minutes 45.7 seconds.
 File lengths (MBytes):  RWF=    244 Int=      0 D2E=      0 Chk=     67 Scr=      1
 Normal termination of Gaussian 16 at Mon Aug 27 09:58:23 2018.
