 Entering Gaussian System, Link 0=g16
 Input=science_arx_8123.com
 Output=science_arx_8123.log
 Initial command:
 /opt/export/g16/l1.exe "/scratch/bjs4/job.44574/Gau-44576.inp" -scrdir="/scratch/bjs4/job.44574/"
 Entering Link 1 = /opt/export/g16/l1.exe PID=     44577.
  
 Copyright (c) 1988,1990,1992,1993,1995,1998,2003,2009,2016,
            Gaussian, Inc.  All Rights Reserved.
  
 This is part of the Gaussian(R) 16 program.  It is based on
 the Gaussian(R) 09 system (copyright 2009, Gaussian, Inc.),
 the Gaussian(R) 03 system (copyright 2003, Gaussian, Inc.),
 the Gaussian(R) 98 system (copyright 1998, Gaussian, Inc.),
 the Gaussian(R) 94 system (copyright 1995, Gaussian, Inc.),
 the Gaussian 92(TM) system (copyright 1992, Gaussian, Inc.),
 the Gaussian 90(TM) system (copyright 1990, Gaussian, Inc.),
 the Gaussian 88(TM) system (copyright 1988, Gaussian, Inc.),
 the Gaussian 86(TM) system (copyright 1986, Carnegie Mellon
 University), and the Gaussian 82(TM) system (copyright 1983,
 Carnegie Mellon University). Gaussian is a federally registered
 trademark of Gaussian, Inc.
  
 This software contains proprietary and confidential information,
 including trade secrets, belonging to Gaussian, Inc.
  
 This software is provided under written license and may be
 used, copied, transmitted, or stored only in accord with that
 written license.
  
 The following legend is applicable only to US Government
 contracts under FAR:
  
                    RESTRICTED RIGHTS LEGEND
  
 Use, reproduction and disclosure by the US Government is
 subject to restrictions as set forth in subparagraphs (a)
 and (c) of the Commercial Computer Software - Restricted
 Rights clause in FAR 52.227-19.
  
 Gaussian, Inc.
 340 Quinnipiac St., Bldg. 40, Wallingford CT 06492
  
  
 ---------------------------------------------------------------
 Warning -- This program may not be used in any manner that
 competes with the business of Gaussian, Inc. or will provide
 assistance to any competitor of Gaussian, Inc.  The licensee
 of this program is prohibited from giving any competitor of
 Gaussian, Inc. access to this program.  By using this program,
 the user acknowledges that Gaussian, Inc. is engaged in the
 business of creating and licensing software in the field of
 computational chemistry and represents and warrants to the
 licensee that it is not a competitor of Gaussian, Inc. and that
 it will not use this program in any manner prohibited above.
 ---------------------------------------------------------------
  

 Cite this work as:
 Gaussian 16, Revision A.03,
 M. J. Frisch, G. W. Trucks, H. B. Schlegel, G. E. Scuseria, 
 M. A. Robb, J. R. Cheeseman, G. Scalmani, V. Barone, 
 G. A. Petersson, H. Nakatsuji, X. Li, M. Caricato, A. V. Marenich, 
 J. Bloino, B. G. Janesko, R. Gomperts, B. Mennucci, H. P. Hratchian, 
 J. V. Ortiz, A. F. Izmaylov, J. L. Sonnenberg, D. Williams-Young, 
 F. Ding, F. Lipparini, F. Egidi, J. Goings, B. Peng, A. Petrone, 
 T. Henderson, D. Ranasinghe, V. G. Zakrzewski, J. Gao, N. Rega, 
 G. Zheng, W. Liang, M. Hada, M. Ehara, K. Toyota, R. Fukuda, 
 J. Hasegawa, M. Ishida, T. Nakajima, Y. Honda, O. Kitao, H. Nakai, 
 T. Vreven, K. Throssell, J. A. Montgomery, Jr., J. E. Peralta, 
 F. Ogliaro, M. J. Bearpark, J. J. Heyd, E. N. Brothers, K. N. Kudin, 
 V. N. Staroverov, T. A. Keith, R. Kobayashi, J. Normand, 
 K. Raghavachari, A. P. Rendell, J. C. Burant, S. S. Iyengar, 
 J. Tomasi, M. Cossi, J. M. Millam, M. Klene, C. Adamo, R. Cammi, 
 J. W. Ochterski, R. L. Martin, K. Morokuma, O. Farkas, 
 J. B. Foresman, and D. J. Fox, Gaussian, Inc., Wallingford CT, 2016.
 
 ******************************************
 Gaussian 16:  ES64L-G16RevA.03 25-Dec-2016
                27-Aug-2018 
 ******************************************
 %nprocshared=3
 Will use up to    3 processors via shared memory.
 %Mem=6GB
 %Chk=science_arx_81.chk
 -------------------------
 # opt b3lyp/6-31G* scf=qc
 -------------------------
 1/18=20,19=15,26=3,38=1/1,3;
 2/9=110,12=2,17=6,18=5,40=1/2;
 3/5=1,6=6,7=1,11=2,25=1,30=1,71=1,74=-5/1,2,3;
 4//1;
 5/5=2,8=3,38=5/8;
 6/7=2,8=2,9=2,10=2,28=1/1;
 7//1,2,3,16;
 1/18=20,19=15,26=3/3(2);
 2/9=110/2;
 99//99;
 2/9=110/2;
 3/5=1,6=6,7=1,11=2,25=1,30=1,71=1,74=-5/1,2,3;
 4/5=5,16=3,69=1/1;
 5/5=2,8=3,38=5/8;
 7//1,2,3,16;
 1/18=20,19=15,26=3/3(-5);
 2/9=110/2;
 6/7=2,8=2,9=2,10=2,19=2,28=1/1;
 99/9=1/99;
 -------------------
 Title Card Required
 -------------------
 Symbolic Z-matrix:
 Charge =  0 Multiplicity = 1
 C3                   -0.80791   1.1198   -0.02332 
 C4                    0.5888    1.23385  -0.07782 
 C                     1.36806   0.06908  -0.04799 
 C                     0.76213  -1.18883   0.00239 
 C1                   -0.62707  -1.28568   0.03111 
 C2                   -1.41556  -0.13753   0.02649 
 H5                   -2.4995   -0.20818   0.05408 
 Br0                  -1.44912  -2.98834   0.06352 
 C                     1.24311   2.58943  -0.17256 
 C                     1.5612    3.18362   1.18986 
 H6                   -1.43194   2.01039  -0.03159 
 H                     2.45372   0.13418  -0.07641 
 H                     1.38063  -2.08199   0.01121 
 H                     0.58939   3.27238  -0.72874 
 H                     2.16424   2.50864  -0.76374 
 H                     0.65331   3.32069   1.7868 
 H                     2.03802   4.16261   1.07018 
 H                     2.24422   2.54173   1.75527 
 

 GradGradGradGradGradGradGradGradGradGradGradGradGradGradGradGradGradGrad
 Berny optimization.
 Initialization pass.
                           ----------------------------
                           !    Initial Parameters    !
                           ! (Angstroms and Degrees)  !
 --------------------------                            --------------------------
 ! Name  Definition              Value          Derivative Info.                !
 --------------------------------------------------------------------------------
 ! R1    R(1,2)                  1.4024         estimate D2E/DX2                !
 ! R2    R(1,6)                  1.3974         estimate D2E/DX2                !
 ! R3    R(1,11)                 1.0875         estimate D2E/DX2                !
 ! R4    R(2,3)                  1.4017         estimate D2E/DX2                !
 ! R5    R(2,9)                  1.5082         estimate D2E/DX2                !
 ! R6    R(3,4)                  1.3971         estimate D2E/DX2                !
 ! R7    R(3,12)                 1.088          estimate D2E/DX2                !
 ! R8    R(4,5)                  1.3929         estimate D2E/DX2                !
 ! R9    R(4,13)                 1.0864         estimate D2E/DX2                !
 ! R10   R(5,6)                  1.3928         estimate D2E/DX2                !
 ! R11   R(5,8)                  1.891          estimate D2E/DX2                !
 ! R12   R(6,7)                  1.0866         estimate D2E/DX2                !
 ! R13   R(9,10)                 1.52           estimate D2E/DX2                !
 ! R14   R(9,14)                 1.0969         estimate D2E/DX2                !
 ! R15   R(9,15)                 1.0975         estimate D2E/DX2                !
 ! R16   R(10,16)                1.0952         estimate D2E/DX2                !
 ! R17   R(10,17)                1.0955         estimate D2E/DX2                !
 ! R18   R(10,18)                1.0946         estimate D2E/DX2                !
 ! A1    A(2,1,6)              120.5073         estimate D2E/DX2                !
 ! A2    A(2,1,11)             120.3045         estimate D2E/DX2                !
 ! A3    A(6,1,11)             119.184          estimate D2E/DX2                !
 ! A4    A(1,2,3)              119.0298         estimate D2E/DX2                !
 ! A5    A(1,2,9)              120.5042         estimate D2E/DX2                !
 ! A6    A(3,2,9)              120.4656         estimate D2E/DX2                !
 ! A7    A(2,3,4)              120.518          estimate D2E/DX2                !
 ! A8    A(2,3,12)             120.296          estimate D2E/DX2                !
 ! A9    A(4,3,12)             119.1816         estimate D2E/DX2                !
 ! A10   A(3,4,5)              119.7288         estimate D2E/DX2                !
 ! A11   A(3,4,13)             119.5751         estimate D2E/DX2                !
 ! A12   A(5,4,13)             120.6945         estimate D2E/DX2                !
 ! A13   A(4,5,6)              120.4794         estimate D2E/DX2                !
 ! A14   A(4,5,8)              119.771          estimate D2E/DX2                !
 ! A15   A(6,5,8)              119.7481         estimate D2E/DX2                !
 ! A16   A(1,6,5)              119.7137         estimate D2E/DX2                !
 ! A17   A(1,6,7)              119.5516         estimate D2E/DX2                !
 ! A18   A(5,6,7)              120.7333         estimate D2E/DX2                !
 ! A19   A(2,9,10)             112.6956         estimate D2E/DX2                !
 ! A20   A(2,9,14)             109.4462         estimate D2E/DX2                !
 ! A21   A(2,9,15)             109.3774         estimate D2E/DX2                !
 ! A22   A(10,9,14)            109.6223         estimate D2E/DX2                !
 ! A23   A(10,9,15)            109.6304         estimate D2E/DX2                !
 ! A24   A(14,9,15)            105.8377         estimate D2E/DX2                !
 ! A25   A(9,10,16)            111.3461         estimate D2E/DX2                !
 ! A26   A(9,10,17)            110.0295         estimate D2E/DX2                !
 ! A27   A(9,10,18)            111.366          estimate D2E/DX2                !
 ! A28   A(16,10,17)           107.9704         estimate D2E/DX2                !
 ! A29   A(16,10,18)           108.0062         estimate D2E/DX2                !
 ! A30   A(17,10,18)           107.9916         estimate D2E/DX2                !
 ! D1    D(6,1,2,3)             -1.5737         estimate D2E/DX2                !
 ! D2    D(6,1,2,9)            178.1906         estimate D2E/DX2                !
 ! D3    D(11,1,2,3)           179.1745         estimate D2E/DX2                !
 ! D4    D(11,1,2,9)            -1.0612         estimate D2E/DX2                !
 ! D5    D(2,1,6,5)              0.4346         estimate D2E/DX2                !
 ! D6    D(2,1,6,7)           -179.1328         estimate D2E/DX2                !
 ! D7    D(11,1,6,5)           179.6946         estimate D2E/DX2                !
 ! D8    D(11,1,6,7)             0.1273         estimate D2E/DX2                !
 ! D9    D(1,2,3,4)              1.5455         estimate D2E/DX2                !
 ! D10   D(1,2,3,12)          -179.2214         estimate D2E/DX2                !
 ! D11   D(9,2,3,4)           -178.2189         estimate D2E/DX2                !
 ! D12   D(9,2,3,12)             1.0142         estimate D2E/DX2                !
 ! D13   D(1,2,9,10)            90.6865         estimate D2E/DX2                !
 ! D14   D(1,2,9,14)           -31.5681         estimate D2E/DX2                !
 ! D15   D(1,2,9,15)          -147.0978         estimate D2E/DX2                !
 ! D16   D(3,2,9,10)           -89.5526         estimate D2E/DX2                !
 ! D17   D(3,2,9,14)           148.1928         estimate D2E/DX2                !
 ! D18   D(3,2,9,15)            32.6631         estimate D2E/DX2                !
 ! D19   D(2,3,4,5)             -0.3784         estimate D2E/DX2                !
 ! D20   D(2,3,4,13)           179.1643         estimate D2E/DX2                !
 ! D21   D(12,3,4,5)          -179.6199         estimate D2E/DX2                !
 ! D22   D(12,3,4,13)           -0.0773         estimate D2E/DX2                !
 ! D23   D(3,4,5,6)             -0.7891         estimate D2E/DX2                !
 ! D24   D(3,4,5,8)            178.7505         estimate D2E/DX2                !
 ! D25   D(13,4,5,6)           179.6735         estimate D2E/DX2                !
 ! D26   D(13,4,5,8)            -0.787          estimate D2E/DX2                !
 ! D27   D(4,5,6,1)              0.7608         estimate D2E/DX2                !
 ! D28   D(4,5,6,7)           -179.677          estimate D2E/DX2                !
 ! D29   D(8,5,6,1)           -178.7788         estimate D2E/DX2                !
 ! D30   D(8,5,6,7)              0.7833         estimate D2E/DX2                !
 ! D31   D(2,9,10,16)          -60.599          estimate D2E/DX2                !
 ! D32   D(2,9,10,17)          179.7283         estimate D2E/DX2                !
 ! D33   D(2,9,10,18)           60.0162         estimate D2E/DX2                !
 ! D34   D(14,9,10,16)          61.5564         estimate D2E/DX2                !
 ! D35   D(14,9,10,17)         -58.1164         estimate D2E/DX2                !
 ! D36   D(14,9,10,18)        -177.8284         estimate D2E/DX2                !
 ! D37   D(15,9,10,16)         177.3279         estimate D2E/DX2                !
 ! D38   D(15,9,10,17)          57.6552         estimate D2E/DX2                !
 ! D39   D(15,9,10,18)         -62.0569         estimate D2E/DX2                !
 --------------------------------------------------------------------------------
 Trust Radius=3.00D-01 FncErr=1.00D-07 GrdErr=1.00D-06 EigMax=2.50D+02 EigMin=1.00D-04
 Number of steps in this run=     97 maximum allowed number of steps=    108.
 GradGradGradGradGradGradGradGradGradGradGradGradGradGradGradGradGradGrad

                          Input orientation:                          
 ---------------------------------------------------------------------
 Center     Atomic      Atomic             Coordinates (Angstroms)
 Number     Number       Type             X           Y           Z
 ---------------------------------------------------------------------
      1          6           0       -0.807910    1.119800   -0.023320
      2          6           0        0.588800    1.233850   -0.077820
      3          6           0        1.368060    0.069080   -0.047990
      4          6           0        0.762130   -1.188830    0.002390
      5          6           0       -0.627070   -1.285680    0.031110
      6          6           0       -1.415560   -0.137530    0.026490
      7          1           0       -2.499500   -0.208180    0.054080
      8         35           0       -1.449120   -2.988340    0.063520
      9          6           0        1.243110    2.589430   -0.172560
     10          6           0        1.561200    3.183620    1.189860
     11          1           0       -1.431940    2.010390   -0.031590
     12          1           0        2.453720    0.134180   -0.076410
     13          1           0        1.380630   -2.081990    0.011210
     14          1           0        0.589390    3.272380   -0.728740
     15          1           0        2.164240    2.508640   -0.763740
     16          1           0        0.653310    3.320690    1.786800
     17          1           0        2.038020    4.162610    1.070180
     18          1           0        2.244220    2.541730    1.755270
 ---------------------------------------------------------------------
                    Distance matrix (angstroms):
                    1          2          3          4          5
     1  C    0.000000
     2  C    1.402418   0.000000
     3  C    2.416499   1.401722   0.000000
     4  C    2.792035   2.430197   1.397150   0.000000
     5  C    2.412882   2.799685   2.412918   1.392868   0.000000
     6  C    1.397354   2.430848   2.792271   2.418294   1.392834
     7  H    2.151975   3.410930   3.878829   3.406256   2.160446
     8  Br   4.158787   4.690414   4.158937   2.851596   1.890996
     9  C    2.527601   1.508209   2.526518   3.812768   4.307613
    10  C    3.368062   2.520749   3.357072   4.600752   5.109390
    11  H    1.087489   2.165304   3.407191   3.879447   3.393497
    12  H    3.407711   2.164995   1.087981   2.148963   3.393940
    13  H    3.878448   3.410237   2.151921   1.086441   2.159946
    14  H    2.661516   2.139930   3.366137   4.524023   4.778395
    15  H    3.363149   2.139530   2.664142   4.027922   4.777035
    16  H    3.202439   2.799262   3.801354   4.850952   5.093178
    17  H    4.307407   3.463492   4.296061   5.604104   6.153555
    18  H    3.807987   2.794850   3.183300   4.380212   5.085873
                    6          7          8          9         10
     6  C    0.000000
     7  H    1.086590   0.000000
     8  Br   2.851248   2.971982   0.000000
     9  C    3.813720   4.678153   6.198012   0.000000
    10  C    4.609183   5.411431   6.958718   1.520010   0.000000
    11  H    2.148768   2.463550   4.999664   2.740630   3.439084
    12  H    3.880173   4.966752   5.000187   2.739174   3.420397
    13  H    3.405853   4.309108   2.971816   4.677055   5.398932
    14  H    4.027118   4.718935   6.631728   1.096862   2.152515
    15  H    4.521244   5.458975   6.630047   1.097498   2.153093
    16  H    4.397522   5.039390   6.869772   2.172947   1.095167
    17  H    5.613173   6.381642   8.019326   2.156659   1.095492
    18  H    4.853978   5.740987   6.861811   2.172792   1.094636
                   11         12         13         14         15
    11  H    0.000000
    12  H    4.315151   0.000000
    13  H    4.965879   2.463861   0.000000
    14  H    2.482823   3.708040   5.462862   0.000000
    15  H    3.703621   2.488831   4.721067   1.750622   0.000000
    16  H    3.061323   4.106930   5.733294   2.516816   3.073693
    17  H    4.229252   4.209005   6.367779   2.475308   2.472814
    18  H    4.121813   3.032365   5.016604   3.072884   2.520497
                   16         17         18
    16  H    0.000000
    17  H    1.771947   0.000000
    18  H    1.771657   1.771756   0.000000
 Stoichiometry    C8H9Br
 Framework group  C1[X(C8H9Br)]
 Deg. of freedom    48
 Full point group                 C1      NOp   1
 Largest Abelian subgroup         C1      NOp   1
 Largest concise Abelian subgroup C1      NOp   1
                         Standard orientation:                         
 ---------------------------------------------------------------------
 Center     Atomic      Atomic             Coordinates (Angstroms)
 Number     Number       Type             X           Y           Z
 ---------------------------------------------------------------------
      1          6           0        1.314999    1.212090   -0.227012
      2          6           0        2.022941    0.004578   -0.313664
      3          6           0        1.318071   -1.204397   -0.233888
      4          6           0       -0.072904   -1.207359   -0.102722
      5          6           0       -0.763617    0.000705   -0.042897
      6          6           0       -0.076238    1.210925   -0.096416
      7          1           0       -0.610458    2.155715   -0.044837
      8         35           0       -2.649284   -0.001874    0.098957
      9          6           0        3.520157    0.006270   -0.495418
     10          6           0        4.271356   -0.010694    0.825886
     11          1           0        1.842498    2.161967   -0.272973
     12          1           0        1.848007   -2.153161   -0.286020
     13          1           0       -0.605090   -2.153376   -0.055968
     14          1           0        3.816493    0.888231   -1.076311
     15          1           0        3.814773   -0.862253   -1.098222
     16          1           0        4.033394    0.870501    1.431078
     17          1           0        5.351533   -0.013707    0.643373
     18          1           0        4.025203   -0.901046    1.413176
 ---------------------------------------------------------------------
 Rotational constants (GHZ):           4.4489433           0.4481950           0.4218592
 Standard basis: 6-31G(d) (6D, 7F)
 There are   168 symmetry adapted cartesian basis functions of A   symmetry.
 There are   168 symmetry adapted basis functions of A   symmetry.
   168 basis functions,   343 primitive gaussians,   168 cartesian basis functions
    46 alpha electrons       46 beta electrons
       nuclear repulsion energy       610.0034872306 Hartrees.
 NAtoms=   18 NActive=   18 NUniq=   18 SFac= 1.00D+00 NAtFMM=   60 NAOKFM=F Big=F
 Integral buffers will be    131072 words long.
 Raffenetti 2 integral format.
 Two-electron integral symmetry is turned on.
 One-electron integrals computed using PRISM.
 NBasis=   168 RedAO= T EigKep=  4.51D-04  NBF=   168
 NBsUse=   168 1.00D-06 EigRej= -1.00D+00 NBFU=   168
 ExpMin= 1.43D-01 ExpMax= 5.74D+05 ExpMxC= 5.74D+03 IAcc=3 IRadAn=         5 AccDes= 0.00D+00
 Harris functional with IExCor=  402 and IRadAn=       5 diagonalized for initial guess.
 HarFok:  IExCor=  402 AccDes= 0.00D+00 IRadAn=         5 IDoV= 1 UseB2=F ITyADJ=14
 ICtDFT=  3500011 ScaDFX=  1.000000  1.000000  1.000000  1.000000
 FoFCou: FMM=F IPFlag=           0 FMFlag=      100000 FMFlg1=           0
         NFxFlg=           0 DoJE=T BraDBF=F KetDBF=T FulRan=T
         wScrn=  0.000000 ICntrl=       500 IOpCl=  0 I1Cent=   200000004 NGrid=           0
         NMat0=    1 NMatS0=      1 NMatT0=    0 NMatD0=    1 NMtDS0=    0 NMtDT0=    0
 Petite list used in FoFCou.
 Keep R1 ints in memory in canonical form, NReq=103760189.
 Gradient too large for Newton-Raphson -- use scaled steepest descent instead.
     Minimum is close to point  3 DX=  4.42D-02 DF= -2.15D-03 DXR=  9.95D-02 DFR=  1.00D-02 which will be used.
 Gradient too large for Newton-Raphson -- use scaled steepest descent instead.
     Minimum is close to point  3 DX=  6.30D-02 DF= -1.14D-04 DXR=  8.26D-02 DFR=  6.89D-03 which will be used.
 Gradient too large for Newton-Raphson -- use scaled steepest descent instead.
     Accept linear search using points  1 and  2.
 Gradient too large for Newton-Raphson -- use scaled steepest descent instead.
     Accept linear search using points  2 and  3.
 Gradient too large for Newton-Raphson -- use scaled steepest descent instead.
     Accept linear search using points  1 and  2.
 Gradient too large for Newton-Raphson -- use scaled steepest descent instead.
     Accept linear search using points  1 and  2.
 LinEq1:  Iter=  0 NonCon=     1 RMS=2.12D-05 Max=8.12D-04 NDo=     1
 AX will form     1 AO Fock derivatives at one time.
 LinEq1:  Iter=  1 NonCon=     1 RMS=1.70D-05 Max=4.01D-04 NDo=     1
 LinEq1:  Iter=  2 NonCon=     1 RMS=4.59D-06 Max=7.87D-05 NDo=     1
 LinEq1:  Iter=  3 NonCon=     1 RMS=1.67D-06 Max=3.65D-05 NDo=     1
 LinEq1:  Iter=  4 NonCon=     1 RMS=8.86D-07 Max=2.16D-05 NDo=     1
 LinEq1:  Iter=  5 NonCon=     1 RMS=4.10D-07 Max=1.14D-05 NDo=     1
 LinEq1:  Iter=  6 NonCon=     1 RMS=1.66D-07 Max=3.89D-06 NDo=     1
 LinEq1:  Iter=  7 NonCon=     1 RMS=8.26D-08 Max=2.96D-06 NDo=     1
 LinEq1:  Iter=  8 NonCon=     1 RMS=4.82D-08 Max=1.05D-06 NDo=     1
 LinEq1:  Iter=  9 NonCon=     1 RMS=2.86D-08 Max=7.75D-07 NDo=     1
 LinEq1:  Iter= 10 NonCon=     1 RMS=1.17D-08 Max=2.21D-07 NDo=     1
 LinEq1:  Iter= 11 NonCon=     0 RMS=3.71D-09 Max=7.38D-08 NDo=     1
 Linear equations converged to 1.059D-08 1.059D-07 after    11 iterations.
     Accept linear search using points  2 and  3.
     Minimum is close to point  2 DX=  1.58D-05 DF=  0.00D+00 DXR=  1.58D-05 DFR=  0.00D+00 which will be used.
 SCF Done:  E(RB3LYP) =  -2881.98451302     a.u. after    8 cycles
            Convg  =    0.2338D-06                    29 Fock formations.
              S**2 =  0.0000                  -V/T =  2.0065

 **********************************************************************

            Population analysis using the SCF density.

 **********************************************************************

 Orbital symmetries:
       Occupied  (A) (A) (A) (A) (A) (A) (A) (A) (A) (A) (A) (A)
                 (A) (A) (A) (A) (A) (A) (A) (A) (A) (A) (A) (A)
                 (A) (A) (A) (A) (A) (A) (A) (A) (A) (A) (A) (A)
                 (A) (A) (A) (A) (A) (A) (A) (A) (A) (A)
       Virtual   (A) (A) (A) (A) (A) (A) (A) (A) (A) (A) (A) (A)
                 (A) (A) (A) (A) (A) (A) (A) (A) (A) (A) (A) (A)
                 (A) (A) (A) (A) (A) (A) (A) (A) (A) (A) (A) (A)
                 (A) (A) (A) (A) (A) (A) (A) (A) (A) (A) (A) (A)
                 (A) (A) (A) (A) (A) (A) (A) (A) (A) (A) (A) (A)
                 (A) (A) (A) (A) (A) (A) (A) (A) (A) (A) (A) (A)
                 (A) (A) (A) (A) (A) (A) (A) (A) (A) (A) (A) (A)
                 (A) (A) (A) (A) (A) (A) (A) (A) (A) (A) (A) (A)
                 (A) (A) (A) (A) (A) (A) (A) (A) (A) (A) (A) (A)
                 (A) (A) (A) (A) (A) (A) (A) (A) (A) (A) (A) (A)
                 (A) (A)
 The electronic state is 1-A.
 Alpha  occ. eigenvalues -- -482.90708 -61.86890 -56.39024 -56.38613 -56.38604
 Alpha  occ. eigenvalues --  -10.24186 -10.20118 -10.20098 -10.20096 -10.19742
 Alpha  occ. eigenvalues --  -10.19738 -10.19177 -10.18083  -8.58051  -6.53442
 Alpha  occ. eigenvalues --   -6.52176  -6.52150  -2.65020  -2.64654  -2.64635
 Alpha  occ. eigenvalues --   -2.63624  -2.63624  -0.87264  -0.81425  -0.76904
 Alpha  occ. eigenvalues --   -0.75428  -0.70864  -0.62912  -0.61809  -0.57898
 Alpha  occ. eigenvalues --   -0.50149  -0.47875  -0.46268  -0.43418  -0.43202
 Alpha  occ. eigenvalues --   -0.42390  -0.39871  -0.37806  -0.36934  -0.36353
 Alpha  occ. eigenvalues --   -0.34071  -0.33566  -0.30340  -0.28307  -0.25866
 Alpha  occ. eigenvalues --   -0.23255
 Alpha virt. eigenvalues --   -0.01033  -0.00882   0.01564   0.09703   0.12224
 Alpha virt. eigenvalues --    0.12325   0.13588   0.15392   0.15951   0.16657
 Alpha virt. eigenvalues --    0.17490   0.18286   0.19648   0.22134   0.24610
 Alpha virt. eigenvalues --    0.26683   0.28122   0.32645   0.32839   0.33058
 Alpha virt. eigenvalues --    0.42397   0.44904   0.46541   0.46769   0.46932
 Alpha virt. eigenvalues --    0.48073   0.49287   0.50872   0.51276   0.52556
 Alpha virt. eigenvalues --    0.53365   0.55788   0.56618   0.58465   0.58647
 Alpha virt. eigenvalues --    0.60402   0.61227   0.61567   0.63391   0.66138
 Alpha virt. eigenvalues --    0.67944   0.71494   0.73680   0.75280   0.76981
 Alpha virt. eigenvalues --    0.79787   0.81116   0.83163   0.83861   0.84379
 Alpha virt. eigenvalues --    0.85935   0.88019   0.88539   0.89349   0.91755
 Alpha virt. eigenvalues --    0.94175   0.96767   0.96861   1.00411   1.01077
 Alpha virt. eigenvalues --    1.05393   1.05952   1.14655   1.17800   1.18225
 Alpha virt. eigenvalues --    1.24752   1.26072   1.35635   1.39649   1.43199
 Alpha virt. eigenvalues --    1.44237   1.46529   1.46641   1.50292   1.55085
 Alpha virt. eigenvalues --    1.56575   1.58243   1.70503   1.73054   1.79778
 Alpha virt. eigenvalues --    1.80489   1.82396   1.87918   1.94165   1.94594
 Alpha virt. eigenvalues --    1.96528   2.01059   2.01156   2.05937   2.08163
 Alpha virt. eigenvalues --    2.13216   2.13622   2.17926   2.19186   2.25044
 Alpha virt. eigenvalues --    2.28054   2.29839   2.32376   2.33098   2.37704
 Alpha virt. eigenvalues --    2.44520   2.56374   2.59678   2.63723   2.64835
 Alpha virt. eigenvalues --    2.67864   2.74566   2.74678   2.78931   2.89090
 Alpha virt. eigenvalues --    3.04691   3.37462   4.06978   4.10549   4.12430
 Alpha virt. eigenvalues --    4.18308   4.32011   4.36891   4.45055   4.69143
 Alpha virt. eigenvalues --    8.60910  72.80361
          Condensed to atoms (all electrons):
               1          2          3          4          5          6
     1  C    4.978518   0.543959  -0.031621  -0.048224  -0.027067   0.488828
     2  C    0.543959   4.637970   0.543643  -0.020800  -0.029936  -0.020867
     3  C   -0.031621   0.543643   4.978677   0.489045  -0.027044  -0.048257
     4  C   -0.048224  -0.020800   0.489045   4.973071   0.529274  -0.034657
     5  C   -0.027067  -0.029936  -0.027044   0.529274   4.754850   0.529260
     6  C    0.488828  -0.020867  -0.048257  -0.034657   0.529260   4.973446
     7  H   -0.038260   0.003707   0.000547   0.005222  -0.042578   0.356410
     8  Br   0.005498   0.000304   0.005497  -0.061372   0.258137  -0.061432
     9  C   -0.057365   0.366265  -0.057798   0.006595   0.000455   0.006618
    10  C   -0.002701  -0.046768  -0.002840  -0.000118   0.000021  -0.000125
    11  H    0.356594  -0.043077   0.005678   0.000433   0.004114  -0.042936
    12  H    0.005663  -0.043268   0.356617  -0.042856   0.004112   0.000433
    13  H    0.000547   0.003709  -0.038279   0.356416  -0.042598   0.005231
    14  H   -0.005580  -0.032702   0.004015  -0.000216   0.000012   0.000163
    15  H    0.003947  -0.032687  -0.005595   0.000159   0.000012  -0.000217
    16  H    0.003357  -0.003676  -0.000108   0.000000  -0.000006  -0.000100
    17  H   -0.000002   0.005016   0.000004   0.000004  -0.000000   0.000004
    18  H   -0.000098  -0.003837   0.003470  -0.000104  -0.000006   0.000001
               7          8          9         10         11         12
     1  C   -0.038260   0.005498  -0.057365  -0.002701   0.356594   0.005663
     2  C    0.003707   0.000304   0.366265  -0.046768  -0.043077  -0.043268
     3  C    0.000547   0.005497  -0.057798  -0.002840   0.005678   0.356617
     4  C    0.005222  -0.061372   0.006595  -0.000118   0.000433  -0.042856
     5  C   -0.042578   0.258137   0.000455   0.000021   0.004114   0.004112
     6  C    0.356410  -0.061432   0.006618  -0.000125  -0.042936   0.000433
     7  H    0.573394  -0.002699  -0.000171   0.000001  -0.005481   0.000017
     8  Br  -0.002699  34.995817   0.000003  -0.000000  -0.000152  -0.000152
     9  C   -0.000171   0.000003   5.101900   0.360304  -0.008990  -0.008940
    10  C    0.000001  -0.000000   0.360304   5.080101   0.000572   0.000594
    11  H   -0.005481  -0.000152  -0.008990   0.000572   0.594142  -0.000173
    12  H    0.000017  -0.000152  -0.008940   0.000594  -0.000173   0.594220
    13  H   -0.000158  -0.002695  -0.000171   0.000001   0.000017  -0.005483
    14  H   -0.000006  -0.000000   0.366853  -0.038306   0.005012   0.000055
    15  H    0.000003  -0.000000   0.366879  -0.038433   0.000054   0.004913
    16  H    0.000002  -0.000000  -0.035762   0.378527   0.000555   0.000026
    17  H   -0.000000   0.000000  -0.028863   0.363653  -0.000057  -0.000060
    18  H    0.000000  -0.000000  -0.035869   0.378658   0.000025   0.000614
              13         14         15         16         17         18
     1  C    0.000547  -0.005580   0.003947   0.003357  -0.000002  -0.000098
     2  C    0.003709  -0.032702  -0.032687  -0.003676   0.005016  -0.003837
     3  C   -0.038279   0.004015  -0.005595  -0.000108   0.000004   0.003470
     4  C    0.356416  -0.000216   0.000159   0.000000   0.000004  -0.000104
     5  C   -0.042598   0.000012   0.000012  -0.000006  -0.000000  -0.000006
     6  C    0.005231   0.000163  -0.000217  -0.000100   0.000004   0.000001
     7  H   -0.000158  -0.000006   0.000003   0.000002  -0.000000   0.000000
     8  Br  -0.002695  -0.000000  -0.000000  -0.000000   0.000000  -0.000000
     9  C   -0.000171   0.366853   0.366879  -0.035762  -0.028863  -0.035869
    10  C    0.000001  -0.038306  -0.038433   0.378527   0.363653   0.378658
    11  H    0.000017   0.005012   0.000054   0.000555  -0.000057   0.000025
    12  H   -0.005483   0.000055   0.004913   0.000026  -0.000060   0.000614
    13  H    0.573440   0.000003  -0.000006   0.000000  -0.000000   0.000003
    14  H    0.000003   0.594009  -0.036728  -0.004505  -0.003155   0.005408
    15  H   -0.000006  -0.036728   0.594212   0.005412  -0.003240  -0.004404
    16  H    0.000000  -0.004505   0.005412   0.566119  -0.029540  -0.030670
    17  H   -0.000000  -0.003155  -0.003240  -0.029540   0.580288  -0.029528
    18  H    0.000003   0.005408  -0.004404  -0.030670  -0.029528   0.565859
 Mulliken charges:
               1
     1  C   -0.175994
     2  C    0.173046
     3  C   -0.175651
     4  C   -0.151873
     5  C    0.088988
     6  C   -0.151803
     7  H    0.150048
     8  Br  -0.136752
     9  C   -0.341944
    10  C   -0.433141
    11  H    0.133669
    12  H    0.133669
    13  H    0.150023
    14  H    0.145669
    15  H    0.145719
    16  H    0.150368
    17  H    0.145478
    18  H    0.150479
 Sum of Mulliken charges =   0.00000
 Mulliken charges with hydrogens summed into heavy atoms:
               1
     1  C   -0.042325
     2  C    0.173046
     3  C   -0.041982
     4  C   -0.001850
     5  C    0.088988
     6  C   -0.001755
     8  Br  -0.136752
     9  C   -0.050556
    10  C    0.013185
 Electronic spatial extent (au):  <R**2>=           2454.5103
 Charge=              0.0000 electrons
 Dipole moment (field-independent basis, Debye):
    X=              2.1522    Y=              0.0023    Z=             -0.1621  Tot=              2.1583
 Quadrupole moment (field-independent basis, Debye-Ang):
   XX=            -63.2849   YY=            -60.7955   ZZ=            -68.7988
   XY=              0.0012   XZ=             -0.8087   YZ=              0.0256
 Traceless Quadrupole moment (field-independent basis, Debye-Ang):
   XX=              1.0082   YY=              3.4976   ZZ=             -4.5058
   XY=              0.0012   XZ=             -0.8087   YZ=              0.0256
 Octapole moment (field-independent basis, Debye-Ang**2):
  XXX=            -71.2808  YYY=             -0.0116  ZZZ=              4.3776  XYY=            -23.7380
  XXY=              0.0036  XXZ=             -1.5286  XZZ=            -28.7343  YZZ=             -0.0355
  YYZ=              0.3856  XYZ=              0.0332
 Hexadecapole moment (field-independent basis, Debye-Ang**3):
 XXXX=          -2367.2142 YYYY=           -310.0143 ZZZZ=           -143.3030 XXXY=              0.3266
 XXXZ=            -26.6264 YYYX=              0.2159 YYYZ=              0.0847 ZZZX=             -8.5144
 ZZZY=              0.0485 XXYY=           -456.5083 XXZZ=           -441.7151 YYZZ=            -83.2477
 XXYZ=              0.1283 YYXZ=             -4.6449 ZZXY=              0.0470
 N-N= 6.100034872306D+02 E-N=-8.071310176491D+03  KE= 2.863255456303D+03
 Calling FoFJK, ICntrl=      2127 FMM=F ISym2X=0 I1Cent= 0 IOpClX= 0 NMat=1 NMatS=1 NMatT=0.
 ***** Axes restored to original set *****
 -------------------------------------------------------------------
 Center     Atomic                   Forces (Hartrees/Bohr)
 Number     Number              X              Y              Z
 -------------------------------------------------------------------
      1        6           0.003452787   -0.007487892   -0.000249060
      2        6           0.000140517    0.001624227   -0.002860842
      3        6          -0.007355853   -0.002244006   -0.000126035
      4        6           0.005605029   -0.000256883    0.000568355
      5        6           0.003598618    0.007552304   -0.000159841
      6        6          -0.003626518    0.004486040    0.000705905
      7        1           0.001081309   -0.001824904   -0.000017232
      8       35          -0.003557973   -0.007431983    0.000452211
      9        6          -0.000593959   -0.001620469   -0.006246568
     10        6           0.002942830    0.006473258    0.005287386
     11        1           0.000763252    0.000149724   -0.000674901
     12        1          -0.000678623    0.000652912   -0.000619881
     13        1          -0.001996138   -0.000344705    0.000005311
     14        1          -0.000640107    0.000446137    0.000333798
     15        1           0.000493084   -0.000148218    0.000531353
     16        1          -0.000190283   -0.000402030    0.000609653
     17        1           0.000494205    0.000945368    0.001702612
     18        1           0.000067823   -0.000568882    0.000757776
 -------------------------------------------------------------------
 Cartesian Forces:  Max     0.007552304 RMS     0.002981345

 GradGradGradGradGradGradGradGradGradGradGradGradGradGradGradGradGradGrad
 Berny optimization.
 FormGI is forming the generalized inverse of G from B-inverse, IUseBI=4.
 Internal  Forces:  Max     0.010705764 RMS     0.001993268
 Search for a local minimum.
 Step number   1 out of a maximum of   97
 All quantities printed in internal units (Hartrees-Bohrs-Radians)
 Mixed Optimization -- RFO/linear search
 Second derivative matrix not updated -- first step.
 ITU=  0
     Eigenvalues ---    0.00501   0.00657   0.01496   0.02071   0.02090
     Eigenvalues ---    0.02098   0.02124   0.02150   0.02156   0.02170
     Eigenvalues ---    0.02183   0.04120   0.05463   0.05553   0.05704
     Eigenvalues ---    0.09446   0.12890   0.15998   0.15999   0.16000
     Eigenvalues ---    0.16000   0.16000   0.16000   0.16000   0.18698
     Eigenvalues ---    0.21911   0.21998   0.22976   0.24000   0.24999
     Eigenvalues ---    0.25000   0.30366   0.31531   0.33960   0.34032
     Eigenvalues ---    0.34186   0.34222   0.34282   0.35047   0.35104
     Eigenvalues ---    0.35210   0.35227   0.41745   0.42063   0.45451
     Eigenvalues ---    0.46079   0.46172   0.46706
 RFO step:  Lambda=-1.79796005D-03 EMin= 5.01249843D-03
 Linear search not attempted -- first point.
 Iteration  1 RMS(Cart)=  0.03496245 RMS(Int)=  0.00041034
 Iteration  2 RMS(Cart)=  0.00066580 RMS(Int)=  0.00009064
 Iteration  3 RMS(Cart)=  0.00000015 RMS(Int)=  0.00009064
 Variable       Old X    -DE/DX   Delta X   Delta X   Delta X     New X
                                 (Linear)    (Quad)   (Total)
    R1        2.65019  -0.00138   0.00000  -0.00335  -0.00334   2.64685
    R2        2.64062  -0.00126   0.00000  -0.00274  -0.00274   2.63787
    R3        2.05506  -0.00031   0.00000  -0.00088  -0.00088   2.05418
    R4        2.64887  -0.00081   0.00000  -0.00207  -0.00205   2.64682
    R5        2.85010   0.00554   0.00000   0.01746   0.01746   2.86756
    R6        2.64023  -0.00113   0.00000  -0.00241  -0.00241   2.63782
    R7        2.05599  -0.00062   0.00000  -0.00177  -0.00177   2.05422
    R8        2.63214   0.00004   0.00000   0.00041   0.00039   2.63253
    R9        2.05308  -0.00085   0.00000  -0.00241  -0.00241   2.05067
   R10        2.63207   0.00009   0.00000   0.00048   0.00047   2.63254
   R11        3.57347   0.00825   0.00000   0.04368   0.04368   3.61715
   R12        2.05336  -0.00096   0.00000  -0.00271  -0.00271   2.05064
   R13        2.87240   0.01071   0.00000   0.03505   0.03505   2.90745
   R14        2.07277   0.00049   0.00000   0.00143   0.00143   2.07420
   R15        2.07397   0.00014   0.00000   0.00041   0.00041   2.07438
   R16        2.06956   0.00044   0.00000   0.00128   0.00128   2.07084
   R17        2.07018   0.00087   0.00000   0.00254   0.00254   2.07272
   R18        2.06856   0.00077   0.00000   0.00223   0.00223   2.07079
    A1        2.10325   0.00372   0.00000   0.01578   0.01573   2.11898
    A2        2.09971  -0.00262   0.00000  -0.01253  -0.01256   2.08715
    A3        2.08015  -0.00109   0.00000  -0.00306  -0.00310   2.07705
    A4        2.07746  -0.00439   0.00000  -0.01881  -0.01896   2.05850
    A5        2.10320   0.00216   0.00000   0.00931   0.00912   2.11231
    A6        2.10252   0.00224   0.00000   0.00962   0.00943   2.11195
    A7        2.10344   0.00367   0.00000   0.01573   0.01568   2.11912
    A8        2.09956  -0.00257   0.00000  -0.01234  -0.01237   2.08719
    A9        2.08011  -0.00109   0.00000  -0.00320  -0.00324   2.07687
   A10        2.08966  -0.00154   0.00000  -0.00653  -0.00657   2.08309
   A11        2.08698   0.00266   0.00000   0.01494   0.01496   2.10194
   A12        2.10652  -0.00112   0.00000  -0.00838  -0.00836   2.09815
   A13        2.10276  -0.00002   0.00000   0.00078   0.00072   2.10348
   A14        2.09040  -0.00003   0.00000  -0.00055  -0.00052   2.08987
   A15        2.09000   0.00005   0.00000  -0.00021  -0.00018   2.08982
   A16        2.08940  -0.00142   0.00000  -0.00616  -0.00620   2.08319
   A17        2.08657   0.00265   0.00000   0.01510   0.01512   2.10169
   A18        2.10719  -0.00123   0.00000  -0.00891  -0.00890   2.09830
   A19        1.96691   0.00259   0.00000   0.01151   0.01152   1.97843
   A20        1.91020  -0.00073   0.00000  -0.00251  -0.00249   1.90770
   A21        1.90900  -0.00063   0.00000  -0.00140  -0.00138   1.90761
   A22        1.91327  -0.00103   0.00000  -0.00611  -0.00611   1.90716
   A23        1.91341  -0.00109   0.00000  -0.00630  -0.00631   1.90710
   A24        1.84722   0.00076   0.00000   0.00434   0.00432   1.85154
   A25        1.94336  -0.00029   0.00000  -0.00355  -0.00360   1.93976
   A26        1.92038   0.00277   0.00000   0.02072   0.02069   1.94106
   A27        1.94370  -0.00029   0.00000  -0.00365  -0.00369   1.94001
   A28        1.88444  -0.00092   0.00000  -0.00219  -0.00222   1.88222
   A29        1.88506  -0.00045   0.00000  -0.00935  -0.00940   1.87567
   A30        1.88481  -0.00093   0.00000  -0.00244  -0.00247   1.88234
    D1       -0.02747   0.00075   0.00000   0.02850   0.02853   0.00106
    D2        3.11001   0.00133   0.00000   0.06368   0.06354  -3.10964
    D3        3.12719   0.00037   0.00000   0.01217   0.01218   3.13936
    D4       -0.01852   0.00095   0.00000   0.04735   0.04718   0.02866
    D5        0.00758  -0.00022   0.00000  -0.00982  -0.01003  -0.00244
    D6       -3.12646  -0.00030   0.00000  -0.01362  -0.01379  -3.14025
    D7        3.13626   0.00014   0.00000   0.00626   0.00616  -3.14076
    D8        0.00222   0.00006   0.00000   0.00246   0.00240   0.00462
    D9        0.02697  -0.00074   0.00000  -0.02791  -0.02793  -0.00096
   D10       -3.12800  -0.00036   0.00000  -0.01160  -0.01160  -3.13961
   D11       -3.11051  -0.00132   0.00000  -0.06307  -0.06293   3.10975
   D12        0.01770  -0.00094   0.00000  -0.04676  -0.04660  -0.02890
   D13        1.58278  -0.00028   0.00000  -0.01836  -0.01856   1.56422
   D14       -0.55097  -0.00021   0.00000  -0.01659  -0.01679  -0.56775
   D15       -2.56734  -0.00037   0.00000  -0.01961  -0.01980  -2.58714
   D16       -1.56299   0.00029   0.00000   0.01726   0.01745  -1.54554
   D17        2.58645   0.00036   0.00000   0.01903   0.01922   2.60568
   D18        0.57008   0.00020   0.00000   0.01601   0.01621   0.58629
   D19       -0.00660   0.00020   0.00000   0.00863   0.00884   0.00223
   D20        3.12701   0.00029   0.00000   0.01308   0.01325   3.14026
   D21       -3.13496  -0.00016   0.00000  -0.00743  -0.00733   3.14090
   D22       -0.00135  -0.00007   0.00000  -0.00297  -0.00291  -0.00426
   D23       -0.01377   0.00024   0.00000   0.01008   0.01016  -0.00361
   D24        3.11978   0.00030   0.00000   0.01265   0.01260   3.13238
   D25        3.13589   0.00013   0.00000   0.00547   0.00565   3.14154
   D26       -0.01374   0.00019   0.00000   0.00804   0.00809  -0.00565
   D27        0.01328  -0.00022   0.00000  -0.00948  -0.00957   0.00371
   D28       -3.13596  -0.00012   0.00000  -0.00552  -0.00570   3.14153
   D29       -3.12028  -0.00029   0.00000  -0.01204  -0.01200  -3.13228
   D30        0.01367  -0.00019   0.00000  -0.00809  -0.00814   0.00554
   D31       -1.05765   0.00053   0.00000   0.01080   0.01080  -1.04686
   D32        3.13685   0.00003   0.00000   0.00220   0.00220   3.13905
   D33        1.04748  -0.00044   0.00000  -0.00605  -0.00604   1.04144
   D34        1.07436   0.00063   0.00000   0.01107   0.01106   1.08542
   D35       -1.01432   0.00013   0.00000   0.00247   0.00246  -1.01186
   D36       -3.10369  -0.00034   0.00000  -0.00577  -0.00578  -3.10947
   D37        3.09496   0.00034   0.00000   0.00925   0.00926   3.10421
   D38        1.00627  -0.00015   0.00000   0.00065   0.00066   1.00694
   D39       -1.08310  -0.00062   0.00000  -0.00760  -0.00758  -1.09067
         Item               Value     Threshold  Converged?
 Maximum Force            0.010706     0.000450     NO 
 RMS     Force            0.001993     0.000300     NO 
 Maximum Displacement     0.173136     0.001800     NO 
 RMS     Displacement     0.035050     0.001200     NO 
 Predicted change in Energy=-9.211859D-04
 GradGradGradGradGradGradGradGradGradGradGradGradGradGradGradGradGradGrad

                          Input orientation:                          
 ---------------------------------------------------------------------
 Center     Atomic      Atomic             Coordinates (Angstroms)
 Number     Number       Type             X           Y           Z
 ---------------------------------------------------------------------
      1          6           0       -0.802898    1.111914   -0.066494
      2          6           0        0.590840    1.238686   -0.123526
      3          6           0        1.358292    0.067470   -0.091037
      4          6           0        0.761445   -1.191329   -0.003457
      5          6           0       -0.627350   -1.286322    0.050211
      6          6           0       -1.416611   -0.138755    0.021406
      7          1           0       -2.498025   -0.218361    0.063414
      8         35           0       -1.458037   -3.007593    0.155140
      9          6           0        1.250456    2.604204   -0.177490
     10          6           0        1.562322    3.186283    1.212143
     11          1           0       -1.424213    2.003618   -0.087777
     12          1           0        2.442475    0.134899   -0.131916
     13          1           0        1.371486   -2.088499    0.019355
     14          1           0        0.600632    3.299712   -0.724085
     15          1           0        2.179387    2.535669   -0.758320
     16          1           0        0.648610    3.303538    1.805653
     17          1           0        2.039755    4.170516    1.132171
     18          1           0        2.237163    2.530200    1.773350
 ---------------------------------------------------------------------
                    Distance matrix (angstroms):
                    1          2          3          4          5
     1  C    0.000000
     2  C    1.400653   0.000000
     3  C    2.400460   1.400638   0.000000
     4  C    2.784972   2.438953   1.395876   0.000000
     5  C    2.407483   2.808885   2.407380   1.393073   0.000000
     6  C    1.395902   2.438894   2.784826   2.419184   1.393080
     7  H    2.158695   3.420383   3.869979   3.402247   2.154099
     8  Br   4.177161   4.722969   4.177119   2.872293   1.914112
     9  C    2.540770   1.517447   2.540496   3.830859   4.325990
    10  C    3.395907   2.553610   3.386282   4.613304   5.113604
    11  H    1.087024   2.155652   3.389840   3.871936   3.387881
    12  H    3.389880   2.155683   1.087047   2.145052   3.387752
    13  H    3.870137   3.420524   2.158834   1.085167   2.154016
    14  H    2.681190   2.146764   3.379673   4.551331   4.810320
    15  H    3.376348   2.146768   2.685418   4.058434   4.810313
    16  H    3.227232   2.826426   3.817488   4.846590   5.077053
    17  H    4.344251   3.503107   4.335391   5.627887   6.169373
    18  H    3.826033   2.824275   3.211447   4.380018   5.073507
                    6          7          8          9         10
     6  C    0.000000
     7  H    1.085154   0.000000
     8  Br   2.872252   2.978222   0.000000
     9  C    3.831009   4.698512   6.240099   0.000000
    10  C    4.620365   5.421955   6.971652   1.538557   0.000000
    11  H    2.145167   2.472473   5.017210   2.742737   3.465238
    12  H    3.871813   4.956964   5.017136   2.742344   3.448494
    13  H    3.402204   4.297962   2.978149   4.698389   5.411330
    14  H    4.055623   4.753805   6.692776   1.097620   2.164878
    15  H    4.548815   5.489819   6.692758   1.097712   2.164901
    16  H    4.392955   5.033933   6.855110   2.187269   1.095843
    17  H    5.634721   6.402806   8.044525   2.188959   1.096837
    18  H    4.852081   5.735893   6.851296   2.187429   1.095814
                   11         12         13         14         15
    11  H    0.000000
    12  H    4.294803   0.000000
    13  H    4.957099   2.472530   0.000000
    14  H    2.486914   3.709325   5.493609   0.000000
    15  H    3.703868   2.495054   4.758195   1.754253   0.000000
    16  H    3.093778   4.124609   5.726035   2.530196   3.083320
    17  H    4.264128   4.248094   6.392200   2.505007   2.503234
    18  H    4.140863   3.067517   5.015802   3.083434   2.532336
                   16         17         18
    16  H    0.000000
    17  H    1.772149   0.000000
    18  H    1.767087   1.772208   0.000000
 Stoichiometry    C8H9Br
 Framework group  C1[X(C8H9Br)]
 Deg. of freedom    48
 Full point group                 C1      NOp   1
 Largest Abelian subgroup         C1      NOp   1
 Largest concise Abelian subgroup C1      NOp   1
                         Standard orientation:                         
 ---------------------------------------------------------------------
 Center     Atomic      Atomic             Coordinates (Angstroms)
 Number     Number       Type             X           Y           Z
 ---------------------------------------------------------------------
      1          6           0        1.318054    1.203770   -0.276305
      2          6           0        2.037390    0.004477   -0.354288
      3          6           0        1.320477   -1.196679   -0.283251
      4          6           0       -0.067785   -1.207955   -0.138090
      5          6           0       -0.756536    0.000724   -0.064808
      6          6           0       -0.070241    1.211218   -0.130959
      7          1           0       -0.611611    2.149925   -0.073451
      8         35           0       -2.661798   -0.001699    0.119037
      9          6           0        3.550349    0.006061   -0.470890
     10          6           0        4.267039   -0.010463    0.890448
     11          1           0        1.847877    2.151603   -0.326516
     12          1           0        1.852154   -2.143180   -0.339171
     13          1           0       -0.607375   -2.148016   -0.086000
     14          1           0        3.869656    0.890108   -1.037699
     15          1           0        3.869787   -0.864014   -1.059023
     16          1           0        3.998559    0.867260    1.489108
     17          1           0        5.356717   -0.011421    0.765341
     18          1           0        3.994685   -0.899719    1.469979
 ---------------------------------------------------------------------
 Rotational constants (GHZ):           4.3583876           0.4437195           0.4191092
 Standard basis: 6-31G(d) (6D, 7F)
 There are   168 symmetry adapted cartesian basis functions of A   symmetry.
 There are   168 symmetry adapted basis functions of A   symmetry.
   168 basis functions,   343 primitive gaussians,   168 cartesian basis functions
    46 alpha electrons       46 beta electrons
       nuclear repulsion energy       607.3802131905 Hartrees.
 NAtoms=   18 NActive=   18 NUniq=   18 SFac= 1.00D+00 NAtFMM=   60 NAOKFM=F Big=F
 Integral buffers will be    131072 words long.
 Raffenetti 2 integral format.
 Two-electron integral symmetry is turned on.
 One-electron integrals computed using PRISM.
 NBasis=   168 RedAO= T EigKep=  4.43D-04  NBF=   168
 NBsUse=   168 1.00D-06 EigRej= -1.00D+00 NBFU=   168
 Initial guess from the checkpoint file:  "science_arx_81.chk"
 B after Tr=    -0.000000    0.000000    0.000000
         Rot=    1.000000    0.000030    0.000698    0.000025 Ang=   0.08 deg.
 ExpMin= 1.43D-01 ExpMax= 5.74D+05 ExpMxC= 5.74D+03 IAcc=2 IRadAn=         4 AccDes= 0.00D+00
 Harris functional with IExCor=  402 and IRadAn=       4 diagonalized for initial guess.
 HarFok:  IExCor=  402 AccDes= 0.00D+00 IRadAn=         4 IDoV= 1 UseB2=F ITyADJ=14
 ICtDFT=  3500011 ScaDFX=  1.000000  1.000000  1.000000  1.000000
 FoFCou: FMM=F IPFlag=           0 FMFlag=      100000 FMFlg1=           0
         NFxFlg=           0 DoJE=T BraDBF=F KetDBF=T FulRan=T
         wScrn=  0.000000 ICntrl=       500 IOpCl=  0 I1Cent=   200000004 NGrid=           0
         NMat0=    1 NMatS0=      1 NMatT0=    0 NMatD0=    1 NMtDS0=    0 NMtDT0=    0
 Petite list used in FoFCou.
 Keep R1 ints in memory in canonical form, NReq=103760189.
 Gradient too large for Newton-Raphson -- use scaled steepest descent instead.
 Gradient too large for Newton-Raphson -- use scaled steepest descent instead.
     Minimum is close to point  4 DX= -4.45D-03 DF= -1.71D-07 DXR=  4.69D-02 DFR=  2.21D-03 which will be used.
 Gradient too large for Newton-Raphson -- use scaled steepest descent instead.
 Gradient too large for Newton-Raphson -- use scaled steepest descent instead.
     Accept linear search using points  1 and  2.
 Gradient too large for Newton-Raphson -- use scaled steepest descent instead.
     Minimum is close to point  2 DX= -1.56D-02 DF= -2.64D-07 DXR=  8.44D-02 DFR=  7.17D-03 which will be used.
 Gradient too large for Newton-Raphson -- use scaled steepest descent instead.
     Minimum is close to point  3 DX= -4.60D-03 DF= -9.26D-08 DXR=  5.24D-02 DFR=  2.76D-03 which will be used.
 Gradient too large for Newton-Raphson -- use scaled steepest descent instead.
 Gradient too large for Newton-Raphson -- use scaled steepest descent instead.
 Gradient too large for Newton-Raphson -- use scaled steepest descent instead.
 Gradient too large for Newton-Raphson -- use scaled steepest descent instead.
 Gradient too large for Newton-Raphson -- use scaled steepest descent instead.
 Gradient too large for Newton-Raphson -- use scaled steepest descent instead.
 Gradient too large for Newton-Raphson -- use scaled steepest descent instead.
 Gradient too large for Newton-Raphson -- use scaled steepest descent instead.
 Gradient too large for Newton-Raphson -- use scaled steepest descent instead.
 Gradient too large for Newton-Raphson -- use scaled steepest descent instead.
 Gradient too large for Newton-Raphson -- use scaled steepest descent instead.
 Gradient too large for Newton-Raphson -- use scaled steepest descent instead.
 Gradient too large for Newton-Raphson -- use scaled steepest descent instead.
 Gradient too large for Newton-Raphson -- use scaled steepest descent instead.
 Gradient too large for Newton-Raphson -- use scaled steepest descent instead.
 Gradient too large for Newton-Raphson -- use scaled steepest descent instead.
 Gradient too large for Newton-Raphson -- use scaled steepest descent instead.
 Gradient too large for Newton-Raphson -- use scaled steepest descent instead.
 Gradient too large for Newton-Raphson -- use scaled steepest descent instead.
 Gradient too large for Newton-Raphson -- use scaled steepest descent instead.
 Gradient too large for Newton-Raphson -- use scaled steepest descent instead.
 Gradient too large for Newton-Raphson -- use scaled steepest descent instead.
 Gradient too large for Newton-Raphson -- use scaled steepest descent instead.
 Gradient too large for Newton-Raphson -- use scaled steepest descent instead.
 Gradient too large for Newton-Raphson -- use scaled steepest descent instead.
 Gradient too large for Newton-Raphson -- use scaled steepest descent instead.
 Gradient too large for Newton-Raphson -- use scaled steepest descent instead.
 Gradient too large for Newton-Raphson -- use scaled steepest descent instead.
 Gradient too large for Newton-Raphson -- use scaled steepest descent instead.
 Gradient too large for Newton-Raphson -- use scaled steepest descent instead.
 Gradient too large for Newton-Raphson -- use scaled steepest descent instead.
 Gradient too large for Newton-Raphson -- use scaled steepest descent instead.
 LinEq1:  Iter=  0 NonCon=     1 RMS=1.41D-04 Max=5.35D-03 NDo=     1
 AX will form     1 AO Fock derivatives at one time.
 LinEq1:  Iter=  1 NonCon=     1 RMS=2.87D-05 Max=6.56D-04 NDo=     1
 LinEq1:  Iter=  2 NonCon=     1 RMS=1.93D-05 Max=6.58D-04 NDo=     1
 LinEq1:  Iter=  3 NonCon=     1 RMS=1.25D-05 Max=5.06D-04 NDo=     1
 LinEq1:  Iter=  4 NonCon=     1 RMS=8.25D-06 Max=1.88D-04 NDo=     1
 LinEq1:  Iter=  5 NonCon=     1 RMS=2.42D-06 Max=4.12D-05 NDo=     1
 LinEq1:  Iter=  6 NonCon=     1 RMS=1.29D-06 Max=2.60D-05 NDo=     1
 LinEq1:  Iter=  7 NonCon=     1 RMS=4.88D-07 Max=7.35D-06 NDo=     1
 LinEq1:  Iter=  8 NonCon=     1 RMS=2.50D-07 Max=7.37D-06 NDo=     1
 LinEq1:  Iter=  9 NonCon=     1 RMS=1.10D-07 Max=1.91D-06 NDo=     1
 LinEq1:  Iter= 10 NonCon=     1 RMS=4.76D-08 Max=1.26D-06 NDo=     1
 LinEq1:  Iter= 11 NonCon=     1 RMS=3.36D-08 Max=1.35D-06 NDo=     1
 LinEq1:  Iter= 12 NonCon=     1 RMS=1.49D-08 Max=3.80D-07 NDo=     1
 LinEq1:  Iter= 13 NonCon=     1 RMS=9.75D-09 Max=1.90D-07 NDo=     1
 LinEq1:  Iter= 14 NonCon=     0 RMS=2.64D-09 Max=5.21D-08 NDo=     1
 Linear equations converged to 1.059D-08 1.059D-07 after    14 iterations.
     Minimum is close to point  2 DX=  6.93D-04 DF= -5.64D-11 DXR=  6.93D-04 DFR=  4.84D-07 which will be used.
 LinEq1:  Iter=  0 NonCon=     1 RMS=4.49D-07 Max=1.13D-05 NDo=     1
 LinEq1:  Iter=  1 NonCon=     1 RMS=3.62D-07 Max=1.15D-05 NDo=     1
 LinEq1:  Iter=  2 NonCon=     1 RMS=2.17D-07 Max=7.69D-06 NDo=     1
 LinEq1:  Iter=  3 NonCon=     1 RMS=1.01D-07 Max=2.06D-06 NDo=     1
 LinEq1:  Iter=  4 NonCon=     1 RMS=3.82D-08 Max=1.06D-06 NDo=     1
 LinEq1:  Iter=  5 NonCon=     1 RMS=2.15D-08 Max=4.81D-07 NDo=     1
 LinEq1:  Iter=  6 NonCon=     1 RMS=8.06D-09 Max=1.44D-07 NDo=     1
 LinEq1:  Iter=  7 NonCon=     1 RMS=3.02D-09 Max=9.82D-08 NDo=     1
 LinEq1:  Iter=  8 NonCon=     1 RMS=1.63D-09 Max=4.13D-08 NDo=     1
 LinEq1:  Iter=  9 NonCon=     1 RMS=6.53D-10 Max=1.41D-08 NDo=     1
 LinEq1:  Iter= 10 NonCon=     1 RMS=4.31D-10 Max=1.54D-08 NDo=     1
 LinEq1:  Iter= 11 NonCon=     1 RMS=2.42D-10 Max=3.65D-09 NDo=     1
 LinEq1:  Iter= 12 NonCon=     0 RMS=6.29D-11 Max=1.28D-09 NDo=     1
 Linear equations converged to 2.888D-10 2.888D-09 after    12 iterations.
 SCF Done:  E(RB3LYP) =  -2881.98536440     a.u. after   41 cycles
            Convg  =    0.2422D-09                   143 Fock formations.
              S**2 =  0.0000                  -V/T =  2.0066
 Calling FoFJK, ICntrl=      2127 FMM=F ISym2X=0 I1Cent= 0 IOpClX= 0 NMat=1 NMatS=1 NMatT=0.
 ***** Axes restored to original set *****
 -------------------------------------------------------------------
 Center     Atomic                   Forces (Hartrees/Bohr)
 Number     Number              X              Y              Z
 -------------------------------------------------------------------
      1        6           0.000274876   -0.001321197    0.000588447
      2        6           0.000788574    0.001765025    0.000725949
      3        6          -0.001121970   -0.000693918    0.000571081
      4        6           0.001313103   -0.001017238   -0.000135502
      5        6           0.000995101    0.002177435   -0.000182642
      6        6          -0.001626001    0.000376300   -0.000125497
      7        1           0.000171631   -0.000210351   -0.000118320
      8       35           0.000147906    0.000295303    0.000140856
      9        6          -0.000323393   -0.000691874   -0.001800333
     10        6           0.000049623    0.000154197    0.001204969
     11        1          -0.000353109    0.000331772   -0.000285746
     12        1           0.000469512   -0.000059137   -0.000289276
     13        1          -0.000259230    0.000026245   -0.000123049
     14        1          -0.000134303    0.000009097    0.000468859
     15        1           0.000096112   -0.000108341    0.000493314
     16        1          -0.000213138   -0.000212565   -0.000177640
     17        1          -0.000269789   -0.000527551   -0.000766281
     18        1          -0.000005503   -0.000293202   -0.000189187
 -------------------------------------------------------------------
 Cartesian Forces:  Max     0.002177435 RMS     0.000716890

 GradGradGradGradGradGradGradGradGradGradGradGradGradGradGradGradGradGrad
 Berny optimization.
 Using GEDIIS/GDIIS optimizer.
 FormGI is forming the generalized inverse of G from B-inverse, IUseBI=4.
 Internal  Forces:  Max     0.001824058 RMS     0.000477900
 Search for a local minimum.
 Step number   2 out of a maximum of   97
 All quantities printed in internal units (Hartrees-Bohrs-Radians)
 Mixed Optimization -- En-DIIS/RFO-DIIS
 Update second derivatives using D2CorX and points    1    2
 DE= -8.51D-04 DEPred=-9.21D-04 R= 9.24D-01
 TightC=F SS=  1.41D+00  RLast= 1.56D-01 DXNew= 5.0454D-01 4.6830D-01
 Trust test= 9.24D-01 RLast= 1.56D-01 DXMaxT set to 4.68D-01
 ITU=  1  0
 Use linear search instead of GDIIS.
     Eigenvalues ---    0.00501   0.00657   0.01508   0.02026   0.02091
     Eigenvalues ---    0.02123   0.02135   0.02154   0.02156   0.02169
     Eigenvalues ---    0.02182   0.04070   0.05449   0.05570   0.05622
     Eigenvalues ---    0.09484   0.12949   0.15582   0.16000   0.16000
     Eigenvalues ---    0.16000   0.16000   0.16000   0.16342   0.18471
     Eigenvalues ---    0.21723   0.22000   0.22292   0.24987   0.25000
     Eigenvalues ---    0.25186   0.30258   0.33269   0.33970   0.34044
     Eigenvalues ---    0.34219   0.34275   0.34421   0.35076   0.35190
     Eigenvalues ---    0.35222   0.35410   0.41702   0.42243   0.45455
     Eigenvalues ---    0.46006   0.46217   0.46708
 RFO step:  Lambda=-8.98814315D-05 EMin= 5.01215429D-03
 Quartic linear search produced a step of -0.04201.
 Iteration  1 RMS(Cart)=  0.00618235 RMS(Int)=  0.00001579
 Iteration  2 RMS(Cart)=  0.00001869 RMS(Int)=  0.00000443
 Iteration  3 RMS(Cart)=  0.00000000 RMS(Int)=  0.00000443
 Variable       Old X    -DE/DX   Delta X   Delta X   Delta X     New X
                                 (Linear)    (Quad)   (Total)
    R1        2.64685   0.00035   0.00014   0.00044   0.00058   2.64743
    R2        2.63787  -0.00090   0.00012  -0.00213  -0.00201   2.63586
    R3        2.05418   0.00048   0.00004   0.00123   0.00126   2.05544
    R4        2.64682   0.00040   0.00009   0.00066   0.00075   2.64757
    R5        2.86756  -0.00182  -0.00073  -0.00394  -0.00468   2.86288
    R6        2.63782  -0.00093   0.00010  -0.00214  -0.00204   2.63578
    R7        2.05422   0.00048   0.00007   0.00114   0.00121   2.05543
    R8        2.63253  -0.00008  -0.00002  -0.00013  -0.00014   2.63239
    R9        2.05067  -0.00017   0.00010  -0.00068  -0.00058   2.05009
   R10        2.63254  -0.00013  -0.00002  -0.00023  -0.00025   2.63229
   R11        3.61715  -0.00032  -0.00184   0.00235   0.00051   3.61766
   R12        2.05064  -0.00016   0.00011  -0.00068  -0.00057   2.05007
   R13        2.90745  -0.00036  -0.00147   0.00209   0.00061   2.90807
   R14        2.07420  -0.00015  -0.00006  -0.00029  -0.00035   2.07385
   R15        2.07438  -0.00017  -0.00002  -0.00045  -0.00047   2.07391
   R16        2.07084   0.00006  -0.00005   0.00028   0.00023   2.07107
   R17        2.07272  -0.00054  -0.00011  -0.00127  -0.00137   2.07135
   R18        2.07079   0.00008  -0.00009   0.00041   0.00032   2.07111
    A1        2.11898   0.00006  -0.00066   0.00185   0.00118   2.12016
    A2        2.08715   0.00006   0.00053  -0.00084  -0.00032   2.08683
    A3        2.07705  -0.00011   0.00013  -0.00099  -0.00087   2.07618
    A4        2.05850   0.00030   0.00080  -0.00042   0.00039   2.05888
    A5        2.11231  -0.00015  -0.00038   0.00022  -0.00016   2.11216
    A6        2.11195  -0.00015  -0.00040   0.00022  -0.00017   2.11178
    A7        2.11912   0.00002  -0.00066   0.00172   0.00105   2.12017
    A8        2.08719   0.00006   0.00052  -0.00081  -0.00030   2.08689
    A9        2.07687  -0.00009   0.00014  -0.00089  -0.00076   2.07611
   A10        2.08309  -0.00105   0.00028  -0.00496  -0.00468   2.07841
   A11        2.10194   0.00072  -0.00063   0.00473   0.00410   2.10604
   A12        2.09815   0.00033   0.00035   0.00023   0.00058   2.09873
   A13        2.10348   0.00173  -0.00003   0.00685   0.00682   2.11031
   A14        2.08987  -0.00087   0.00002  -0.00346  -0.00344   2.08643
   A15        2.08982  -0.00086   0.00001  -0.00339  -0.00338   2.08644
   A16        2.08319  -0.00107   0.00026  -0.00502  -0.00476   2.07843
   A17        2.10169   0.00076  -0.00064   0.00494   0.00430   2.10599
   A18        2.09830   0.00031   0.00037   0.00008   0.00046   2.09875
   A19        1.97843  -0.00136  -0.00048  -0.00624  -0.00674   1.97170
   A20        1.90770   0.00050   0.00010   0.00176   0.00185   1.90956
   A21        1.90761   0.00052   0.00006   0.00209   0.00213   1.90975
   A22        1.90716   0.00017   0.00026  -0.00128  -0.00102   1.90614
   A23        1.90710   0.00016   0.00027  -0.00129  -0.00102   1.90608
   A24        1.85154   0.00011  -0.00018   0.00576   0.00558   1.85711
   A25        1.93976  -0.00020   0.00015  -0.00138  -0.00123   1.93853
   A26        1.94106  -0.00101  -0.00087  -0.00441  -0.00528   1.93579
   A27        1.94001  -0.00022   0.00016  -0.00154  -0.00139   1.93863
   A28        1.88222   0.00063   0.00009   0.00337   0.00346   1.88568
   A29        1.87567   0.00027   0.00039   0.00122   0.00162   1.87729
   A30        1.88234   0.00062   0.00010   0.00318   0.00328   1.88562
    D1        0.00106  -0.00002  -0.00120   0.00209   0.00088   0.00195
    D2       -3.10964  -0.00008  -0.00267   0.00130  -0.00136  -3.11100
    D3        3.13936   0.00017  -0.00051   0.00915   0.00863  -3.13519
    D4        0.02866   0.00011  -0.00198   0.00836   0.00639   0.03505
    D5       -0.00244   0.00007   0.00042   0.00178   0.00220  -0.00025
    D6       -3.14025   0.00008   0.00058   0.00213   0.00271  -3.13754
    D7       -3.14076  -0.00012  -0.00026  -0.00525  -0.00551   3.13692
    D8        0.00462  -0.00011  -0.00010  -0.00489  -0.00499  -0.00037
    D9       -0.00096   0.00002   0.00117  -0.00218  -0.00100  -0.00196
   D10       -3.13961  -0.00016   0.00049  -0.00895  -0.00846   3.13512
   D11        3.10975   0.00008   0.00264  -0.00140   0.00124   3.11099
   D12       -0.02890  -0.00010   0.00196  -0.00816  -0.00621  -0.03511
   D13        1.56422   0.00003   0.00078  -0.00040   0.00038   1.56460
   D14       -0.56775   0.00038   0.00071   0.00423   0.00495  -0.56280
   D15       -2.58714  -0.00032   0.00083  -0.00481  -0.00398  -2.59112
   D16       -1.54554  -0.00004  -0.00073  -0.00120  -0.00194  -1.54748
   D17        2.60568   0.00031  -0.00081   0.00343   0.00263   2.60830
   D18        0.58629  -0.00039  -0.00068  -0.00561  -0.00630   0.57999
   D19        0.00223  -0.00006  -0.00037  -0.00159  -0.00196   0.00027
   D20        3.14026  -0.00008  -0.00056  -0.00219  -0.00274   3.13751
   D21        3.14090   0.00012   0.00031   0.00514   0.00545  -3.13684
   D22       -0.00426   0.00010   0.00012   0.00454   0.00467   0.00040
   D23       -0.00361   0.00010  -0.00043   0.00555   0.00512   0.00151
   D24        3.13238   0.00012  -0.00053   0.00612   0.00560   3.13798
   D25        3.14154   0.00012  -0.00024   0.00613   0.00589  -3.13575
   D26       -0.00565   0.00013  -0.00034   0.00671   0.00637   0.00072
   D27        0.00371  -0.00010   0.00040  -0.00564  -0.00524  -0.00152
   D28        3.14153  -0.00012   0.00024  -0.00598  -0.00574   3.13579
   D29       -3.13228  -0.00012   0.00050  -0.00621  -0.00571  -3.13799
   D30        0.00554  -0.00013   0.00034  -0.00656  -0.00621  -0.00068
   D31       -1.04686  -0.00002  -0.00045   0.00179   0.00134  -1.04552
   D32        3.13905   0.00001  -0.00009   0.00141   0.00132   3.14037
   D33        1.04144   0.00005   0.00025   0.00139   0.00164   1.04308
   D34        1.08542  -0.00018  -0.00046  -0.00115  -0.00161   1.08381
   D35       -1.01186  -0.00016  -0.00010  -0.00153  -0.00163  -1.01349
   D36       -3.10947  -0.00011   0.00024  -0.00155  -0.00130  -3.11078
   D37        3.10421   0.00013  -0.00039   0.00431   0.00392   3.10814
   D38        1.00694   0.00015  -0.00003   0.00394   0.00391   1.01084
   D39       -1.09067   0.00019   0.00032   0.00392   0.00423  -1.08645
         Item               Value     Threshold  Converged?
 Maximum Force            0.001824     0.000450     NO 
 RMS     Force            0.000478     0.000300     NO 
 Maximum Displacement     0.026488     0.001800     NO 
 RMS     Displacement     0.006190     0.001200     NO 
 Predicted change in Energy=-4.672035D-05
 GradGradGradGradGradGradGradGradGradGradGradGradGradGradGradGradGradGrad

                          Input orientation:                          
 ---------------------------------------------------------------------
 Center     Atomic      Atomic             Coordinates (Angstroms)
 Number     Number       Type             X           Y           Z
 ---------------------------------------------------------------------
      1          6           0       -0.802086    1.114201   -0.066364
      2          6           0        0.591992    1.240612   -0.123393
      3          6           0        1.359768    0.069122   -0.091373
      4          6           0        0.764872   -1.189356   -0.003141
      5          6           0       -0.624051   -1.279269    0.053889
      6          6           0       -1.417139   -0.134581    0.022090
      7          1           0       -2.498102   -0.217373    0.061713
      8         35           0       -1.454640   -3.000228    0.169157
      9          6           0        1.250603    2.603772   -0.179690
     10          6           0        1.558795    3.179836    1.213625
     11          1           0       -1.423535    2.006407   -0.095488
     12          1           0        2.444258    0.136608   -0.140294
     13          1           0        1.371987   -2.088204    0.016928
     14          1           0        0.600073    3.300954   -0.722934
     15          1           0        2.181887    2.535552   -0.756306
     16          1           0        0.642800    3.292935    1.804640
     17          1           0        2.034824    4.163933    1.133577
     18          1           0        2.233423    2.520929    1.772105
 ---------------------------------------------------------------------
                    Distance matrix (angstroms):
                    1          2          3          4          5
     1  C    0.000000
     2  C    1.400959   0.000000
     3  C    2.401340   1.401033   0.000000
     4  C    2.786707   2.439077   1.394796   0.000000
     5  C    2.403093   2.803567   2.403081   1.392998   0.000000
     6  C    1.394838   2.439043   2.786680   2.423708   1.392950
     7  H    2.160084   3.421793   3.871521   3.405283   2.154008
     8  Br   4.172508   4.717945   4.172491   2.869699   1.914383
     9  C    2.538739   1.514973   2.538536   3.828175   4.318205
    10  C    3.388064   2.546156   3.379226   4.604419   5.098374
    11  H    1.087693   2.156286   3.391145   3.874345   3.384841
    12  H    3.391151   2.156386   1.087688   2.144139   3.384810
    13  H    3.871555   3.421856   2.160078   1.084859   2.154045
    14  H    2.679370   2.145816   3.379459   4.550621   4.804204
    15  H    3.376441   2.145976   2.683522   4.055876   4.804432
    16  H    3.214846   2.816367   3.808133   4.834657   5.057182
    17  H    4.334603   3.493930   4.327087   5.618061   6.153356
    18  H    3.817482   2.815390   3.201122   4.367420   5.055584
                    6          7          8          9         10
     6  C    0.000000
     7  H    1.084852   0.000000
     8  Br   2.869663   2.973993   0.000000
     9  C    3.828334   4.697864   6.232563   0.000000
    10  C    4.610998   5.415380   6.954487   1.538882   0.000000
    11  H    2.144224   2.474794   5.013720   2.741340   3.461936
    12  H    3.874313   4.959136   5.013672   2.741033   3.446502
    13  H    3.405274   4.298791   2.974018   4.697662   5.405481
    14  H    4.053037   4.753208   6.687493   1.097437   2.164273
    15  H    4.548461   5.490906   6.687725   1.097465   2.164249
    16  H    4.378208   5.022482   6.832127   2.186764   1.095964
    17  H    5.623938   6.394697   8.026933   2.184897   1.096111
    18  H    4.841579   5.728094   6.830404   2.186847   1.095984
                   11         12         13         14         15
    11  H    0.000000
    12  H    4.296275   0.000000
    13  H    4.959175   2.474727   0.000000
    14  H    2.482847   3.708581   5.494204   0.000000
    15  H    3.703477   2.490630   4.757410   1.757580   0.000000
    16  H    3.087941   4.121944   5.717017   2.527948   3.082347
    17  H    4.257436   4.243787   6.385568   2.499976   2.498982
    18  H    4.138354   3.063774   5.006678   3.082449   2.528979
                   16         17         18
    16  H    0.000000
    17  H    1.773892   0.000000
    18  H    1.768370   1.773872   0.000000
 Stoichiometry    C8H9Br
 Framework group  C1[X(C8H9Br)]
 Deg. of freedom    48
 Full point group                 C1      NOp   1
 Largest Abelian subgroup         C1      NOp   1
 Largest concise Abelian subgroup C1      NOp   1
                         Standard orientation:                         
 ---------------------------------------------------------------------
 Center     Atomic      Atomic             Coordinates (Angstroms)
 Number     Number       Type             X           Y           Z
 ---------------------------------------------------------------------
      1          6           0        1.317142    1.203909   -0.278739
      2          6           0        2.036536    0.004153   -0.354528
      3          6           0        1.319377   -1.197420   -0.285265
      4          6           0       -0.068070   -1.210310   -0.142855
      5          6           0       -0.752402    0.000726   -0.068517
      6          6           0       -0.070369    1.213387   -0.136278
      7          1           0       -0.614673    2.150279   -0.082689
      8         35           0       -2.657379   -0.001580    0.121012
      9          6           0        3.547125    0.005613   -0.469681
     10          6           0        4.253636   -0.009683    0.897347
     11          1           0        1.847136    2.152023   -0.335856
     12          1           0        1.851097   -2.144234   -0.347592
     13          1           0       -0.610639   -2.148494   -0.094387
     14          1           0        3.869103    0.890860   -1.032740
     15          1           0        3.869500   -0.866608   -1.052548
     16          1           0        3.978838    0.868467    1.492726
     17          1           0        5.342878   -0.009439    0.774835
     18          1           0        3.977172   -0.899802    1.473919
 ---------------------------------------------------------------------
 Rotational constants (GHZ):           4.3417657           0.4452096           0.4204715
 Standard basis: 6-31G(d) (6D, 7F)
 There are   168 symmetry adapted cartesian basis functions of A   symmetry.
 There are   168 symmetry adapted basis functions of A   symmetry.
   168 basis functions,   343 primitive gaussians,   168 cartesian basis functions
    46 alpha electrons       46 beta electrons
       nuclear repulsion energy       607.8368243790 Hartrees.
 NAtoms=   18 NActive=   18 NUniq=   18 SFac= 1.00D+00 NAtFMM=   60 NAOKFM=F Big=F
 Integral buffers will be    131072 words long.
 Raffenetti 2 integral format.
 Two-electron integral symmetry is turned on.
 One-electron integrals computed using PRISM.
 NBasis=   168 RedAO= T EigKep=  4.43D-04  NBF=   168
 NBsUse=   168 1.00D-06 EigRej= -1.00D+00 NBFU=   168
 Initial guess from the checkpoint file:  "science_arx_81.chk"
 B after Tr=    -0.000000    0.000000   -0.000000
         Rot=    1.000000    0.000184    0.000175    0.000004 Ang=   0.03 deg.
 ExpMin= 1.43D-01 ExpMax= 5.74D+05 ExpMxC= 5.74D+03 IAcc=2 IRadAn=         4 AccDes= 0.00D+00
 Harris functional with IExCor=  402 and IRadAn=       4 diagonalized for initial guess.
 HarFok:  IExCor=  402 AccDes= 0.00D+00 IRadAn=         4 IDoV= 1 UseB2=F ITyADJ=14
 ICtDFT=  3500011 ScaDFX=  1.000000  1.000000  1.000000  1.000000
 FoFCou: FMM=F IPFlag=           0 FMFlag=      100000 FMFlg1=           0
         NFxFlg=           0 DoJE=T BraDBF=F KetDBF=T FulRan=T
         wScrn=  0.000000 ICntrl=       500 IOpCl=  0 I1Cent=   200000004 NGrid=           0
         NMat0=    1 NMatS0=      1 NMatT0=    0 NMatD0=    1 NMtDS0=    0 NMtDT0=    0
 Petite list used in FoFCou.
 Keep R1 ints in memory in canonical form, NReq=103760189.
 Gradient too large for Newton-Raphson -- use scaled steepest descent instead.
     Minimum is close to point  4 DX=  1.06D-01 DF= -1.95D-07 DXR=  8.09D-02 DFR=  6.58D-03 which will be used.
 LinEq1:  Iter=  0 NonCon=     1 RMS=4.68D-05 Max=1.25D-03 NDo=     1
 AX will form     1 AO Fock derivatives at one time.
 LinEq1:  Iter=  1 NonCon=     1 RMS=9.27D-06 Max=1.76D-04 NDo=     1
 LinEq1:  Iter=  2 NonCon=     1 RMS=5.15D-06 Max=1.48D-04 NDo=     1
 LinEq1:  Iter=  3 NonCon=     1 RMS=4.00D-06 Max=1.34D-04 NDo=     1
 LinEq1:  Iter=  4 NonCon=     1 RMS=2.62D-06 Max=5.61D-05 NDo=     1
 LinEq1:  Iter=  5 NonCon=     1 RMS=1.27D-06 Max=2.31D-05 NDo=     1
 LinEq1:  Iter=  6 NonCon=     1 RMS=4.88D-07 Max=9.53D-06 NDo=     1
 LinEq1:  Iter=  7 NonCon=     1 RMS=2.24D-07 Max=7.74D-06 NDo=     1
 LinEq1:  Iter=  8 NonCon=     1 RMS=1.32D-07 Max=5.02D-06 NDo=     1
 LinEq1:  Iter=  9 NonCon=     1 RMS=6.40D-08 Max=1.28D-06 NDo=     1
 LinEq1:  Iter= 10 NonCon=     1 RMS=3.42D-08 Max=7.74D-07 NDo=     1
 LinEq1:  Iter= 11 NonCon=     1 RMS=1.44D-08 Max=2.09D-07 NDo=     1
 LinEq1:  Iter= 12 NonCon=     0 RMS=3.94D-09 Max=7.66D-08 NDo=     1
 Linear equations converged to 1.059D-08 1.059D-07 after    12 iterations.
     Minimum is close to point  2 DX=  4.23D-05 DF= -4.55D-13 DXR=  4.23D-05 DFR=  2.65D-08 which will be used.
 LinEq1:  Iter=  0 NonCon=     1 RMS=2.64D-08 Max=7.11D-07 NDo=     1
 LinEq1:  Iter=  1 NonCon=     1 RMS=2.13D-08 Max=6.39D-07 NDo=     1
 LinEq1:  Iter=  2 NonCon=     1 RMS=1.29D-08 Max=4.09D-07 NDo=     1
 LinEq1:  Iter=  3 NonCon=     1 RMS=4.61D-09 Max=8.75D-08 NDo=     1
 LinEq1:  Iter=  4 NonCon=     1 RMS=2.26D-09 Max=5.17D-08 NDo=     1
 LinEq1:  Iter=  5 NonCon=     1 RMS=1.13D-09 Max=3.07D-08 NDo=     1
 LinEq1:  Iter=  6 NonCon=     1 RMS=4.53D-10 Max=1.07D-08 NDo=     1
 LinEq1:  Iter=  7 NonCon=     1 RMS=1.97D-10 Max=4.89D-09 NDo=     1
 LinEq1:  Iter=  8 NonCon=     1 RMS=1.01D-10 Max=1.73D-09 NDo=     1
 LinEq1:  Iter=  9 NonCon=     1 RMS=4.84D-11 Max=1.57D-09 NDo=     1
 LinEq1:  Iter= 10 NonCon=     1 RMS=3.29D-11 Max=8.58D-10 NDo=     1
 LinEq1:  Iter= 11 NonCon=     1 RMS=1.75D-11 Max=3.21D-10 NDo=     1
 LinEq1:  Iter= 12 NonCon=     0 RMS=7.63D-12 Max=1.45D-10 NDo=     1
 Linear equations converged to 1.683D-11 1.683D-10 after    12 iterations.
 SCF Done:  E(RB3LYP) =  -2881.98541808     a.u. after    4 cycles
            Convg  =    0.7054D-10                    32 Fock formations.
              S**2 =  0.0000                  -V/T =  2.0066
 Calling FoFJK, ICntrl=      2127 FMM=F ISym2X=0 I1Cent= 0 IOpClX= 0 NMat=1 NMatS=1 NMatT=0.
 ***** Axes restored to original set *****
 -------------------------------------------------------------------
 Center     Atomic                   Forces (Hartrees/Bohr)
 Number     Number              X              Y              Z
 -------------------------------------------------------------------
      1        6           0.000045422    0.000095818    0.000016322
      2        6           0.000183663    0.000372622    0.000098218
      3        6           0.000034940    0.000067119    0.000009505
      4        6           0.000030145   -0.000431862    0.000061874
      5        6           0.000228211    0.000498094   -0.000068059
      6        6          -0.000362232   -0.000267444    0.000069139
      7        1           0.000079200   -0.000075381   -0.000019784
      8       35          -0.000041584   -0.000090433    0.000023062
      9        6          -0.000210228   -0.000372251   -0.000558087
     10        6           0.000058455    0.000096405    0.000542263
     11        1          -0.000004092    0.000111600   -0.000016732
[...]
    12  H    0.006115  -0.043578   0.357737  -0.044436   0.004602   0.000489
    13  H    0.000516   0.003807  -0.035425   0.358934  -0.045306   0.005070
    14  H   -0.003886  -0.031039   0.003985  -0.000184   0.000004   0.000008
    15  H    0.003932  -0.031009  -0.003809  -0.000000   0.000004  -0.000183
    16  H    0.004370  -0.003699  -0.000560   0.000026  -0.000003  -0.000172
    17  H   -0.000042   0.004868  -0.000036   0.000003   0.000000   0.000003
    18  H   -0.000538  -0.003806   0.004457  -0.000174  -0.000003   0.000026
               7          8          9         10         11         12
     1  C   -0.035411   0.004702  -0.055615  -0.002665   0.357665   0.006115
     2  C    0.003811   0.000217   0.370977  -0.045328  -0.043455  -0.043578
     3  C    0.000516   0.004704  -0.056287  -0.002584   0.006123   0.357737
     4  C    0.005070  -0.053365   0.006659  -0.000087   0.000488  -0.044436
     5  C   -0.045312   0.259782   0.000375   0.000003   0.004600   0.004602
     6  C    0.358933  -0.053372   0.006660  -0.000086  -0.044469   0.000489
     7  H    0.579725  -0.003412  -0.000157   0.000001  -0.006048   0.000017
     8  Br  -0.003412  34.873703   0.000004   0.000000  -0.000151  -0.000152
     9  C   -0.000157   0.000004   5.119173   0.350012  -0.009767  -0.009720
    10  C    0.000001   0.000000   0.350012   5.095213   0.000414   0.000424
    11  H   -0.006048  -0.000151  -0.009767   0.000414   0.605046  -0.000195
    12  H    0.000017  -0.000152  -0.009720   0.000424  -0.000195   0.605134
    13  H   -0.000169  -0.003409  -0.000157   0.000001   0.000017  -0.006049
    14  H   -0.000005  -0.000000   0.357372  -0.038373   0.005391   0.000071
    15  H    0.000003  -0.000000   0.357086  -0.038547   0.000072   0.005294
    16  H    0.000002  -0.000000  -0.033806   0.377019   0.000544   0.000026
    17  H   -0.000000   0.000000  -0.027017   0.360726  -0.000044  -0.000046
    18  H    0.000000  -0.000000  -0.033874   0.377128   0.000025   0.000584
              13         14         15         16         17         18
     1  C    0.000516  -0.003886   0.003932   0.004370  -0.000042  -0.000538
     2  C    0.003807  -0.031039  -0.031009  -0.003699   0.004868  -0.003806
     3  C   -0.035425   0.003985  -0.003809  -0.000560  -0.000036   0.004457
     4  C    0.358934  -0.000184  -0.000000   0.000026   0.000003  -0.000174
     5  C   -0.045306   0.000004   0.000004  -0.000003   0.000000  -0.000003
     6  C    0.005070   0.000008  -0.000183  -0.000172   0.000003   0.000026
     7  H   -0.000169  -0.000005   0.000003   0.000002  -0.000000   0.000000
     8  Br  -0.003409  -0.000000  -0.000000  -0.000000   0.000000  -0.000000
     9  C   -0.000157   0.357372   0.357086  -0.033806  -0.027017  -0.033874
    10  C    0.000001  -0.038373  -0.038547   0.377019   0.360726   0.377128
    11  H    0.000017   0.005391   0.000072   0.000544  -0.000044   0.000025
    12  H   -0.006049   0.000071   0.005294   0.000026  -0.000046   0.000584
    13  H    0.579711   0.000003  -0.000005   0.000000  -0.000000   0.000002
    14  H    0.000003   0.600389  -0.038301  -0.004735  -0.002482   0.005353
    15  H   -0.000005  -0.038301   0.600778   0.005368  -0.002505  -0.004736
    16  H    0.000000  -0.004735   0.005368   0.563171  -0.029824  -0.031342
    17  H   -0.000000  -0.002482  -0.002505  -0.029824   0.579437  -0.029808
    18  H    0.000002   0.005353  -0.004736  -0.031342  -0.029808   0.563109
 Mulliken charges:
               1
     1  C   -0.205010
     2  C    0.193305
     3  C   -0.204972
     4  C   -0.162480
     5  C    0.066889
     6  C   -0.162579
     7  H    0.142436
     8  Br  -0.029252
     9  C   -0.341918
    10  C   -0.433271
    11  H    0.123744
    12  H    0.123683
    13  H    0.142459
    14  H    0.146429
    15  H    0.146560
    16  H    0.153613
    17  H    0.146766
    18  H    0.153596
 Sum of Mulliken charges =  -0.00000
 Mulliken charges with hydrogens summed into heavy atoms:
               1
     1  C   -0.081267
     2  C    0.193305
     3  C   -0.081289
     4  C   -0.020021
     5  C    0.066889
     6  C   -0.020142
     8  Br  -0.029252
     9  C   -0.048928
    10  C    0.020704
 Electronic spatial extent (au):  <R**2>=           2464.2634
 Charge=             -0.0000 electrons
 Dipole moment (field-independent basis, Debye):
    X=              0.7148    Y=             -0.0002    Z=              0.0471  Tot=              0.7163
 Quadrupole moment (field-independent basis, Debye-Ang):
   XX=            -59.5896   YY=            -62.8749   ZZ=            -68.6983
   XY=              0.0037   XZ=             -0.6453   YZ=              0.0164
 Traceless Quadrupole moment (field-independent basis, Debye-Ang):
   XX=              4.1314   YY=              0.8460   ZZ=             -4.9773
   XY=              0.0037   XZ=             -0.6453   YZ=              0.0164
 Octapole moment (field-independent basis, Debye-Ang**2):
  XXX=            -79.9428  YYY=             -0.0318  ZZZ=              6.3171  XYY=            -26.1707
  XXY=             -0.0154  XXZ=              0.3983  XZZ=            -30.7268  YZZ=             -0.0280
  YYZ=              0.8794  XYZ=              0.0204
 Hexadecapole moment (field-independent basis, Debye-Ang**3):
 XXXX=          -2323.1448 YYYY=           -318.5877 ZZZZ=           -152.6292 XXXY=              0.2256
 XXXZ=            -24.1342 YYYX=              0.1505 YYYZ=              0.0597 ZZZX=             -9.8798
 ZZZY=              0.0304 XXYY=           -459.9030 XXZZ=           -438.6357 YYZZ=            -86.3595
 XXYZ=              0.0651 YYXZ=             -5.1036 ZZXY=              0.0384
 N-N= 6.078972003181D+02 E-N=-8.066426970530D+03  KE= 2.863377164706D+03
 Evaluate density.
 Using the total density.
 Monte-Carlo method of calculating molar volume:
 based on  0.001 e/bohr**3 density envelope.
 Number of points per bohr**3 =   20 CutOff= 1.00D-04
 Using the CI density.
 There are       447 points.  Will hold       447 in memory.
 LenV=   805201092 MDV=   805306368.
 Box volume =11197.173 fraction occupied=0.128
 Integrated density= 6.4609892005796866D+01 error=-2.7390107994203134D+01
 Molar volume = 1427.827 bohr**3/mol (127.418 cm**3/mol)
 Recommended a0 for SCRF calculation =  4.57 angstrom (  8.63 bohr)
 ******************************Gaussian NBO Version 3.1******************************
             N A T U R A L   A T O M I C   O R B I T A L   A N D
          N A T U R A L   B O N D   O R B I T A L   A N A L Y S I S
 ******************************Gaussian NBO Version 3.1******************************
       /RESON  / : Allow strongly delocalized NBO set

 Analyzing the CI density

 Job title: Title Card Required                                             

 Storage needed:     85830 in NPA ( 805304568 available)


 NATURAL POPULATIONS:  Natural atomic orbital occupancies 
                                                          
   NAO  Atom  No  lang   Type(AO)    Occupancy
 --------------------------------------------
     1    C    1  S      Cor( 1S)     1.99905
     2    C    1  S      Val( 2S)     0.95157
     3    C    1  S      Ryd( 3S)     0.00058
     4    C    1  S      Ryd( 4S)     0.00004
     5    C    1  px     Val( 2p)     1.07820
     6    C    1  px     Ryd( 3p)     0.00418
     7    C    1  py     Val( 2p)     1.15652
     8    C    1  py     Ryd( 3p)     0.00478
     9    C    1  pz     Val( 2p)     1.06368
    10    C    1  pz     Ryd( 3p)     0.00539
    11    C    1  dxy    Ryd( 3d)     0.00077
    12    C    1  dxz    Ryd( 3d)     0.00059
    13    C    1  dyz    Ryd( 3d)     0.00040
    14    C    1  dx2y2  Ryd( 3d)     0.00071
    15    C    1  dz2    Ryd( 3d)     0.00045
 
    16    C    2  S      Cor( 1S)     1.99905
    17    C    2  S      Val( 2S)     0.89319
    18    C    2  S      Ryd( 3S)     0.00100
    19    C    2  S      Ryd( 4S)     0.00005
    20    C    2  px     Val( 2p)     1.06001
    21    C    2  px     Ryd( 3p)     0.00495
    22    C    2  py     Val( 2p)     1.08262
    23    C    2  py     Ryd( 3p)     0.00463
    24    C    2  pz     Val( 2p)     0.91993
    25    C    2  pz     Ryd( 3p)     0.00367
    26    C    2  dxy    Ryd( 3d)     0.00089
    27    C    2  dxz    Ryd( 3d)     0.00057
    28    C    2  dyz    Ryd( 3d)     0.00101
    29    C    2  dx2y2  Ryd( 3d)     0.00068
    30    C    2  dz2    Ryd( 3d)     0.00035
 
    31    C    3  S      Cor( 1S)     1.99905
    32    C    3  S      Val( 2S)     0.95150
    33    C    3  S      Ryd( 3S)     0.00058
    34    C    3  S      Ryd( 4S)     0.00004
    35    C    3  px     Val( 2p)     1.07841
    36    C    3  px     Ryd( 3p)     0.00418
    37    C    3  py     Val( 2p)     1.15629
    38    C    3  py     Ryd( 3p)     0.00478
    39    C    3  pz     Val( 2p)     1.06433
    40    C    3  pz     Ryd( 3p)     0.00540
    41    C    3  dxy    Ryd( 3d)     0.00077
    42    C    3  dxz    Ryd( 3d)     0.00059
    43    C    3  dyz    Ryd( 3d)     0.00040
    44    C    3  dx2y2  Ryd( 3d)     0.00071
    45    C    3  dz2    Ryd( 3d)     0.00045
 
    46    C    4  S      Cor( 1S)     1.99895
    47    C    4  S      Val( 2S)     0.95628
    48    C    4  S      Ryd( 3S)     0.00094
    49    C    4  S      Ryd( 4S)     0.00005
    50    C    4  px     Val( 2p)     1.09533
    51    C    4  px     Ryd( 3p)     0.00598
    52    C    4  py     Val( 2p)     1.15987
    53    C    4  py     Ryd( 3p)     0.00483
    54    C    4  pz     Val( 2p)     1.04751
    55    C    4  pz     Ryd( 3p)     0.00641
    56    C    4  dxy    Ryd( 3d)     0.00082
    57    C    4  dxz    Ryd( 3d)     0.00064
    58    C    4  dyz    Ryd( 3d)     0.00038
    59    C    4  dx2y2  Ryd( 3d)     0.00059
    60    C    4  dz2    Ryd( 3d)     0.00046
 
    61    C    5  S      Cor( 1S)     1.99860
    62    C    5  S      Val( 2S)     0.96079
    63    C    5  S      Ryd( 3S)     0.00091
    64    C    5  S      Ryd( 4S)     0.00005
    65    C    5  px     Val( 2p)     0.93632
    66    C    5  px     Ryd( 3p)     0.00627
    67    C    5  py     Val( 2p)     1.10613
    68    C    5  py     Ryd( 3p)     0.00772
    69    C    5  pz     Val( 2p)     1.07431
    70    C    5  pz     Ryd( 3p)     0.00166
    71    C    5  dxy    Ryd( 3d)     0.00092
    72    C    5  dxz    Ryd( 3d)     0.00072
    73    C    5  dyz    Ryd( 3d)     0.00125
    74    C    5  dx2y2  Ryd( 3d)     0.00144
    75    C    5  dz2    Ryd( 3d)     0.00057
 
    76    C    6  S      Cor( 1S)     1.99895
    77    C    6  S      Val( 2S)     0.95626
    78    C    6  S      Ryd( 3S)     0.00094
    79    C    6  S      Ryd( 4S)     0.00005
    80    C    6  px     Val( 2p)     1.09553
    81    C    6  px     Ryd( 3p)     0.00598
    82    C    6  py     Val( 2p)     1.15961
    83    C    6  py     Ryd( 3p)     0.00483
    84    C    6  pz     Val( 2p)     1.04796
    85    C    6  pz     Ryd( 3p)     0.00642
    86    C    6  dxy    Ryd( 3d)     0.00082
    87    C    6  dxz    Ryd( 3d)     0.00064
    88    C    6  dyz    Ryd( 3d)     0.00038
    89    C    6  dx2y2  Ryd( 3d)     0.00059
    90    C    6  dz2    Ryd( 3d)     0.00046
 
    91    H    7  S      Val( 1S)     0.75587
    92    H    7  S      Ryd( 2S)     0.00106
 
    93   Br    8  S      Cor( 1S)     2.00000
    94   Br    8  S      Cor( 2S)     1.99997
    95   Br    8  S      Cor( 3S)     1.99979
    96   Br    8  S      Val( 4S)     1.86522
    97   Br    8  S      Ryd( 5S)     0.00370
    98   Br    8  S      Ryd( 6S)     0.00003
    99   Br    8  S      Ryd( 7S)     0.00000
   100   Br    8  S      Ryd( 8S)     0.00000
   101   Br    8  px     Cor( 2p)     1.99997
   102   Br    8  px     Cor( 3p)     1.99984
   103   Br    8  px     Val( 4p)     1.20116
   104   Br    8  px     Ryd( 5p)     0.00351
   105   Br    8  py     Cor( 2p)     1.99999
   106   Br    8  py     Cor( 3p)     1.99998
   107   Br    8  py     Val( 4p)     1.97931
   108   Br    8  py     Ryd( 5p)     0.00101
   109   Br    8  pz     Cor( 2p)     2.00000
   110   Br    8  pz     Cor( 3p)     1.99988
   111   Br    8  pz     Val( 4p)     1.75977
   112   Br    8  pz     Ryd( 5p)     0.00107
   113   Br    8  dxy    Cor( 3d)     1.99996
   114   Br    8  dxy    Ryd( 4d)     0.00102
   115   Br    8  dxz    Cor( 3d)     1.99994
   116   Br    8  dxz    Ryd( 4d)     0.00373
   117   Br    8  dyz    Cor( 3d)     2.00000
   118   Br    8  dyz    Ryd( 4d)     0.00054
   119   Br    8  dx2y2  Cor( 3d)     1.99977
   120   Br    8  dx2y2  Ryd( 4d)     0.00224
   121   Br    8  dz2    Cor( 3d)     1.99992
   122   Br    8  dz2    Ryd( 4d)     0.00078
 
   123    C    9  S      Cor( 1S)     1.99929
   124    C    9  S      Val( 2S)     1.03486
   125    C    9  S      Ryd( 3S)     0.00063
   126    C    9  S      Ryd( 4S)     0.00002
   127    C    9  px     Val( 2p)     1.05724
   128    C    9  px     Ryd( 3p)     0.00150
   129    C    9  py     Val( 2p)     1.25428
   130    C    9  py     Ryd( 3p)     0.00542
   131    C    9  pz     Val( 2p)     1.11835
   132    C    9  pz     Ryd( 3p)     0.00080
   133    C    9  dxy    Ryd( 3d)     0.00046
   134    C    9  dxz    Ryd( 3d)     0.00066
   135    C    9  dyz    Ryd( 3d)     0.00111
   136    C    9  dx2y2  Ryd( 3d)     0.00091
   137    C    9  dz2    Ryd( 3d)     0.00046
 
   138    C   10  S      Cor( 1S)     1.99944
   139    C   10  S      Val( 2S)     1.10908
   140    C   10  S      Ryd( 3S)     0.00035
   141    C   10  S      Ryd( 4S)     0.00001
   142    C   10  px     Val( 2p)     1.20026
   143    C   10  px     Ryd( 3p)     0.00142
   144    C   10  py     Val( 2p)     1.24562
   145    C   10  py     Ryd( 3p)     0.00111
   146    C   10  pz     Val( 2p)     1.10161
   147    C   10  pz     Ryd( 3p)     0.00087
   148    C   10  dxy    Ryd( 3d)     0.00023
   149    C   10  dxz    Ryd( 3d)     0.00040
   150    C   10  dyz    Ryd( 3d)     0.00112
   151    C   10  dx2y2  Ryd( 3d)     0.00108
   152    C   10  dz2    Ryd( 3d)     0.00051
 
   153    H   11  S      Val( 1S)     0.76905
   154    H   11  S      Ryd( 2S)     0.00104
 
   155    H   12  S      Val( 1S)     0.76907
   156    H   12  S      Ryd( 2S)     0.00104
 
   157    H   13  S      Val( 1S)     0.75588
   158    H   13  S      Ryd( 2S)     0.00106
 
   159    H   14  S      Val( 1S)     0.75644
   160    H   14  S      Ryd( 2S)     0.00206
 
   161    H   15  S      Val( 1S)     0.75626
   162    H   15  S      Ryd( 2S)     0.00209
 
   163    H   16  S      Val( 1S)     0.76726
   164    H   16  S      Ryd( 2S)     0.00125
 
   165    H   17  S      Val( 1S)     0.76654
   166    H   17  S      Ryd( 2S)     0.00117
 
   167    H   18  S      Val( 1S)     0.76731
   168    H   18  S      Ryd( 2S)     0.00125

 WARNING:  1 low occupancy (<1.9990e) core orbital  found on  C    4
           1 low occupancy (<1.9990e) core orbital  found on  C    5
           1 low occupancy (<1.9990e) core orbital  found on  C    6


 Summary of Natural Population Analysis:                  
                                                          
                                       Natural Population 
                Natural  -----------------------------------------------
    Atom  No    Charge         Core      Valence    Rydberg      Total
 -----------------------------------------------------------------------
      C    1   -0.26691      1.99905     4.24997    0.01789     6.26691
      C    2    0.02738      1.99905     3.95575    0.01782     5.97262
      C    3   -0.26747      1.99905     4.25053    0.01790     6.26747
      C    4   -0.27904      1.99895     4.25899    0.02110     6.27904
      C    5   -0.09765      1.99860     4.07754    0.02151     6.09765
      C    6   -0.27941      1.99895     4.25936    0.02111     6.27941
      H    7    0.24308      0.00000     0.75587    0.00106     0.75692
     Br    8    0.17788     27.99903     6.80546    0.01763    34.82212
      C    9   -0.47600      1.99929     4.46472    0.01199     6.47600
      C   10   -0.66311      1.99944     4.65658    0.00710     6.66311
      H   11    0.22991      0.00000     0.76905    0.00104     0.77009
      H   12    0.22989      0.00000     0.76907    0.00104     0.77011
      H   13    0.24307      0.00000     0.75588    0.00106     0.75693
      H   14    0.24150      0.00000     0.75644    0.00206     0.75850
      H   15    0.24165      0.00000     0.75626    0.00209     0.75835
      H   16    0.23149      0.00000     0.76726    0.00125     0.76851
      H   17    0.23229      0.00000     0.76654    0.00117     0.76771
      H   18    0.23145      0.00000     0.76731    0.00125     0.76855
 =======================================================================
   * Total *   -0.00000     43.99139    47.84257    0.16604    92.00000

                                 Natural Population      
 --------------------------------------------------------
   Core                      43.99139 ( 99.9804% of  44)
   Valence                   47.84257 ( 99.6720% of  48)
   Natural Minimal Basis     91.83396 ( 99.8195% of  92)
   Natural Rydberg Basis      0.16604 (  0.1805% of  92)
 --------------------------------------------------------

    Atom  No          Natural Electron Configuration
 ----------------------------------------------------------------------------
      C    1      [core]2S( 0.95)2p( 3.30)3p( 0.01)
      C    2      [core]2S( 0.89)2p( 3.06)3p( 0.01)
      C    3      [core]2S( 0.95)2p( 3.30)3p( 0.01)
      C    4      [core]2S( 0.96)2p( 3.30)3p( 0.02)
      C    5      [core]2S( 0.96)2p( 3.12)3p( 0.02)
      C    6      [core]2S( 0.96)2p( 3.30)3p( 0.02)
      H    7            1S( 0.76)
     Br    8      [core]4S( 1.87)4p( 4.94)4d( 0.01)5p( 0.01)
      C    9      [core]2S( 1.03)2p( 3.43)3p( 0.01)
      C   10      [core]2S( 1.11)2p( 3.55)
      H   11            1S( 0.77)
      H   12            1S( 0.77)
      H   13            1S( 0.76)
      H   14            1S( 0.76)
      H   15            1S( 0.76)
      H   16            1S( 0.77)
      H   17            1S( 0.77)
      H   18            1S( 0.77)


 NBO analysis skipped by request.
 1\1\GINC-DELLA-R4C3N3\SP\RB3LYP TD-FC\6-31G(d)\C8H9Br1\BJS4\27-Aug-201
 8\0\\# TD(NStates=10, Root=1) b3lyp/6-31G* volume pop=NPA density=curr
 ent Geom=AllCheck Guess=Read\\Title Card Required\\0,1\C,0,-0.80166933
 86,1.1153121224,-0.0672560984\C,0,0.5925438338,1.2413175823,-0.1252365
 042\C,0,1.3605112172,0.0697884232,-0.0928552866\C,0,0.7656518507,-1.18
 88241191,-0.0029836866\C,0,-0.6232147739,-1.2774396338,0.0551742405\C,
 0,-1.4170802398,-0.1334370116,0.0228907382\H,0,-2.4977880061,-0.217298
 2715,0.0629728251\Br,0,-1.4540462133,-2.9986861142,0.1739669219\C,0,1.
 2509489067,2.6037201228,-0.1809593763\C,0,1.5571585107,3.1775001524,1.
 2141816063\H,0,-1.4225662281,2.0081009532,-0.0970813049\H,0,2.44510610
 61,0.1378838684,-0.1429627021\H,0,1.3716050537,-2.0882618398,0.0170525
 592\H,0,0.6012661566,3.3021325553,-0.7232083974\H,0,2.1833744175,2.536
 3915452,-0.7554405499\H,0,0.6399880295,3.288483444,1.8034511822\H,0,2.
 0326599568,4.1618286815,1.1356036006\H,0,2.2312807607,2.5173375393,1.7
 714302325\\Version=ES64L-G16RevA.03\State=1-A\HF=-2881.9854208\RMSD=5.
 348e-09\Dipole=0.1225538,0.2520894,0.0291881\Quadrupole=1.0951011,2.63
 15686,-3.7266697,0.9668043,-0.1400234,-0.1783983\PG=C01 [X(C8H9Br1)]\\
 @


 CHARLIE BROWN -- WHICH DO YOU THINK LASTS LONGER IN LIFE, THE GOOD THINGS 
                  OR THE BAD THINGS?
 LINUS --         GOOD THINGS LAST EIGHT SECONDS ..
                  BAD THINGS LAST THREE WEEKS
 CHARLIE BROWN -- WHAT ABOUT IN BETWEEN?
 SNOOPY --        IN BETWEEN YOU SHOULD TAKE A NAP ...
 Job cpu time:       0 days  0 hours 10 minutes 53.4 seconds.
 Elapsed time:       0 days  0 hours  3 minutes 40.3 seconds.
 File lengths (MBytes):  RWF=    250 Int=      0 D2E=      0 Chk=     67 Scr=      1
 Normal termination of Gaussian 16 at Mon Aug 27 09:56:48 2018.
