 Entering Gaussian System, Link 0=g16
 Input=science_arx_7123.com
 Output=science_arx_7123.log
 Initial command:
 /opt/export/g16/l1.exe "/scratch/bjs4/job.115218/Gau-115227.inp" -scrdir="/scratch/bjs4/job.115218/"
 Entering Link 1 = /opt/export/g16/l1.exe PID=    115230.
  
 Copyright (c) 1988,1990,1992,1993,1995,1998,2003,2009,2016,
            Gaussian, Inc.  All Rights Reserved.
  
 This is part of the Gaussian(R) 16 program.  It is based on
 the Gaussian(R) 09 system (copyright 2009, Gaussian, Inc.),
 the Gaussian(R) 03 system (copyright 2003, Gaussian, Inc.),
 the Gaussian(R) 98 system (copyright 1998, Gaussian, Inc.),
 the Gaussian(R) 94 system (copyright 1995, Gaussian, Inc.),
 the Gaussian 92(TM) system (copyright 1992, Gaussian, Inc.),
 the Gaussian 90(TM) system (copyright 1990, Gaussian, Inc.),
 the Gaussian 88(TM) system (copyright 1988, Gaussian, Inc.),
 the Gaussian 86(TM) system (copyright 1986, Carnegie Mellon
 University), and the Gaussian 82(TM) system (copyright 1983,
 Carnegie Mellon University). Gaussian is a federally registered
 trademark of Gaussian, Inc.
  
 This software contains proprietary and confidential information,
 including trade secrets, belonging to Gaussian, Inc.
  
 This software is provided under written license and may be
 used, copied, transmitted, or stored only in accord with that
 written license.
  
 The following legend is applicable only to US Government
 contracts under FAR:
  
                    RESTRICTED RIGHTS LEGEND
  
 Use, reproduction and disclosure by the US Government is
 subject to restrictions as set forth in subparagraphs (a)
 and (c) of the Commercial Computer Software - Restricted
 Rights clause in FAR 52.227-19.
  
 Gaussian, Inc.
 340 Quinnipiac St., Bldg. 40, Wallingford CT 06492
  
  
 ---------------------------------------------------------------
 Warning -- This program may not be used in any manner that
 competes with the business of Gaussian, Inc. or will provide
 assistance to any competitor of Gaussian, Inc.  The licensee
 of this program is prohibited from giving any competitor of
 Gaussian, Inc. access to this program.  By using this program,
 the user acknowledges that Gaussian, Inc. is engaged in the
 business of creating and licensing software in the field of
 computational chemistry and represents and warrants to the
 licensee that it is not a competitor of Gaussian, Inc. and that
 it will not use this program in any manner prohibited above.
 ---------------------------------------------------------------
  

 Cite this work as:
 Gaussian 16, Revision A.03,
 M. J. Frisch, G. W. Trucks, H. B. Schlegel, G. E. Scuseria, 
 M. A. Robb, J. R. Cheeseman, G. Scalmani, V. Barone, 
 G. A. Petersson, H. Nakatsuji, X. Li, M. Caricato, A. V. Marenich, 
 J. Bloino, B. G. Janesko, R. Gomperts, B. Mennucci, H. P. Hratchian, 
 J. V. Ortiz, A. F. Izmaylov, J. L. Sonnenberg, D. Williams-Young, 
 F. Ding, F. Lipparini, F. Egidi, J. Goings, B. Peng, A. Petrone, 
 T. Henderson, D. Ranasinghe, V. G. Zakrzewski, J. Gao, N. Rega, 
 G. Zheng, W. Liang, M. Hada, M. Ehara, K. Toyota, R. Fukuda, 
 J. Hasegawa, M. Ishida, T. Nakajima, Y. Honda, O. Kitao, H. Nakai, 
 T. Vreven, K. Throssell, J. A. Montgomery, Jr., J. E. Peralta, 
 F. Ogliaro, M. J. Bearpark, J. J. Heyd, E. N. Brothers, K. N. Kudin, 
 V. N. Staroverov, T. A. Keith, R. Kobayashi, J. Normand, 
 K. Raghavachari, A. P. Rendell, J. C. Burant, S. S. Iyengar, 
 J. Tomasi, M. Cossi, J. M. Millam, M. Klene, C. Adamo, R. Cammi, 
 J. W. Ochterski, R. L. Martin, K. Morokuma, O. Farkas, 
 J. B. Foresman, and D. J. Fox, Gaussian, Inc., Wallingford CT, 2016.
 
 ******************************************
 Gaussian 16:  ES64L-G16RevA.03 25-Dec-2016
                27-Aug-2018 
 ******************************************
 %nprocshared=3
 Will use up to    3 processors via shared memory.
 %Mem=6GB
 %Chk=science_arx_71.chk
 -------------------------
 # opt b3lyp/6-31G* scf=qc
 -------------------------
 1/18=20,19=15,26=3,38=1/1,3;
 2/9=110,12=2,17=6,18=5,40=1/2;
 3/5=1,6=6,7=1,11=2,25=1,30=1,71=1,74=-5/1,2,3;
 4//1;
 5/5=2,8=3,38=5/8;
 6/7=2,8=2,9=2,10=2,28=1/1;
 7//1,2,3,16;
 1/18=20,19=15,26=3/3(2);
 2/9=110/2;
 99//99;
 2/9=110/2;
 3/5=1,6=6,7=1,11=2,25=1,30=1,71=1,74=-5/1,2,3;
 4/5=5,16=3,69=1/1;
 5/5=2,8=3,38=5/8;
 7//1,2,3,16;
 1/18=20,19=15,26=3/3(-5);
 2/9=110/2;
 6/7=2,8=2,9=2,10=2,19=2,28=1/1;
 99/9=1/99;
 -------------------
 Title Card Required
 -------------------
 Symbolic Z-matrix:
 Charge =  0 Multiplicity = 1
 C3                   -0.79602   1.12173  -0.02486 
 C4                    0.60008   1.23688  -0.08671 
 C                     1.38217   0.07333  -0.05465 
 C                     0.7775   -1.18524   0.00233 
 C1                   -0.61161  -1.28384   0.04139 
 C2                   -1.40085  -0.13617   0.03517 
 H5                   -2.48417  -0.21324   0.06804 
 Cl0                  -1.35711  -2.83481   0.08453 
 C                     1.25283   2.59234  -0.19103 
 C                     1.58125   3.19309   1.16633 
 H6                   -1.42179   2.01172  -0.03463 
 H                     2.46736   0.13952  -0.08688 
 H                     1.39407  -2.0794    0.01476 
 H                     0.59507   3.27322  -0.74517 
 H                     2.16943   2.50943  -0.78773 
 H                     0.67747   3.33605   1.76816 
 H                     2.05976   4.1698    1.03958 
 H                     2.26602   2.55246   1.73177 
 

 GradGradGradGradGradGradGradGradGradGradGradGradGradGradGradGradGradGrad
 Berny optimization.
 Initialization pass.
                           ----------------------------
                           !    Initial Parameters    !
                           ! (Angstroms and Degrees)  !
 --------------------------                            --------------------------
 ! Name  Definition              Value          Derivative Info.                !
 --------------------------------------------------------------------------------
 ! R1    R(1,2)                  1.4022         estimate D2E/DX2                !
 ! R2    R(1,6)                  1.397          estimate D2E/DX2                !
 ! R3    R(1,11)                 1.088          estimate D2E/DX2                !
 ! R4    R(2,3)                  1.4023         estimate D2E/DX2                !
 ! R5    R(2,9)                  1.5081         estimate D2E/DX2                !
 ! R6    R(3,4)                  1.3975         estimate D2E/DX2                !
 ! R7    R(3,12)                 1.0877         estimate D2E/DX2                !
 ! R8    R(4,5)                  1.3932         estimate D2E/DX2                !
 ! R9    R(4,13)                 1.0862         estimate D2E/DX2                !
 ! R10   R(5,6)                  1.3929         estimate D2E/DX2                !
 ! R11   R(5,8)                  1.7214         estimate D2E/DX2                !
 ! R12   R(6,7)                  1.0866         estimate D2E/DX2                !
 ! R13   R(9,10)                 1.5203         estimate D2E/DX2                !
 ! R14   R(9,14)                 1.097          estimate D2E/DX2                !
 ! R15   R(9,15)                 1.0969         estimate D2E/DX2                !
 ! R16   R(10,16)                1.0952         estimate D2E/DX2                !
 ! R17   R(10,17)                1.095          estimate D2E/DX2                !
 ! R18   R(10,18)                1.095          estimate D2E/DX2                !
 ! A1    A(2,1,6)              120.4567         estimate D2E/DX2                !
 ! A2    A(2,1,11)             120.3364         estimate D2E/DX2                !
 ! A3    A(6,1,11)             119.2032         estimate D2E/DX2                !
 ! A4    A(1,2,3)              119.0866         estimate D2E/DX2                !
 ! A5    A(1,2,9)              120.5187         estimate D2E/DX2                !
 ! A6    A(3,2,9)              120.3944         estimate D2E/DX2                !
 ! A7    A(2,3,4)              120.4562         estimate D2E/DX2                !
 ! A8    A(2,3,12)             120.3484         estimate D2E/DX2                !
 ! A9    A(4,3,12)             119.1906         estimate D2E/DX2                !
 ! A10   A(3,4,5)              119.7571         estimate D2E/DX2                !
 ! A11   A(3,4,13)             119.7515         estimate D2E/DX2                !
 ! A12   A(5,4,13)             120.4914         estimate D2E/DX2                !
 ! A13   A(4,5,6)              120.4339         estimate D2E/DX2                !
 ! A14   A(4,5,8)              119.7554         estimate D2E/DX2                !
 ! A15   A(6,5,8)              119.8088         estimate D2E/DX2                !
 ! A16   A(1,6,5)              119.7867         estimate D2E/DX2                !
 ! A17   A(1,6,7)              119.7893         estimate D2E/DX2                !
 ! A18   A(5,6,7)              120.4218         estimate D2E/DX2                !
 ! A19   A(2,9,10)             112.763          estimate D2E/DX2                !
 ! A20   A(2,9,14)             109.4688         estimate D2E/DX2                !
 ! A21   A(2,9,15)             109.3539         estimate D2E/DX2                !
 ! A22   A(10,9,14)            109.5902         estimate D2E/DX2                !
 ! A23   A(10,9,15)            109.5763         estimate D2E/DX2                !
 ! A24   A(14,9,15)            105.854          estimate D2E/DX2                !
 ! A25   A(9,10,16)            111.3427         estimate D2E/DX2                !
 ! A26   A(9,10,17)            110.0922         estimate D2E/DX2                !
 ! A27   A(9,10,18)            111.4049         estimate D2E/DX2                !
 ! A28   A(16,10,17)           107.9265         estimate D2E/DX2                !
 ! A29   A(16,10,18)           107.9789         estimate D2E/DX2                !
 ! A30   A(17,10,18)           107.9594         estimate D2E/DX2                !
 ! D1    D(6,1,2,3)             -1.5375         estimate D2E/DX2                !
 ! D2    D(6,1,2,9)            178.2558         estimate D2E/DX2                !
 ! D3    D(11,1,2,3)           179.1687         estimate D2E/DX2                !
 ! D4    D(11,1,2,9)            -1.038          estimate D2E/DX2                !
 ! D5    D(2,1,6,5)              0.3701         estimate D2E/DX2                !
 ! D6    D(2,1,6,7)           -179.1027         estimate D2E/DX2                !
 ! D7    D(11,1,6,5)           179.6719         estimate D2E/DX2                !
 ! D8    D(11,1,6,7)             0.1991         estimate D2E/DX2                !
 ! D9    D(1,2,3,4)              1.6832         estimate D2E/DX2                !
 ! D10   D(1,2,3,12)          -179.112          estimate D2E/DX2                !
 ! D11   D(9,2,3,4)           -178.1103         estimate D2E/DX2                !
 ! D12   D(9,2,3,12)             1.0944         estimate D2E/DX2                !
 ! D13   D(1,2,9,10)            90.8418         estimate D2E/DX2                !
 ! D14   D(1,2,9,14)           -31.4339         estimate D2E/DX2                !
 ! D15   D(1,2,9,15)          -146.9827         estimate D2E/DX2                !
 ! D16   D(3,2,9,10)           -89.3676         estimate D2E/DX2                !
 ! D17   D(3,2,9,14)           148.3567         estimate D2E/DX2                !
 ! D18   D(3,2,9,15)            32.8078         estimate D2E/DX2                !
 ! D19   D(2,3,4,5)             -0.6612         estimate D2E/DX2                !
 ! D20   D(2,3,4,13)           179.2734         estimate D2E/DX2                !
 ! D21   D(12,3,4,5)          -179.8751         estimate D2E/DX2                !
 ! D22   D(12,3,4,13)            0.0595         estimate D2E/DX2                !
 ! D23   D(3,4,5,6)             -0.5325         estimate D2E/DX2                !
 ! D24   D(3,4,5,8)            178.9623         estimate D2E/DX2                !
 ! D25   D(13,4,5,6)           179.5333         estimate D2E/DX2                !
 ! D26   D(13,4,5,8)            -0.9718         estimate D2E/DX2                !
 ! D27   D(4,5,6,1)              0.6774         estimate D2E/DX2                !
 ! D28   D(4,5,6,7)           -179.8531         estimate D2E/DX2                !
 ! D29   D(8,5,6,1)           -178.8172         estimate D2E/DX2                !
 ! D30   D(8,5,6,7)              0.6523         estimate D2E/DX2                !
 ! D31   D(2,9,10,16)          -60.824          estimate D2E/DX2                !
 ! D32   D(2,9,10,17)          179.519          estimate D2E/DX2                !
 ! D33   D(2,9,10,18)           59.7808         estimate D2E/DX2                !
 ! D34   D(14,9,10,16)          61.3835         estimate D2E/DX2                !
 ! D35   D(14,9,10,17)         -58.2735         estimate D2E/DX2                !
 ! D36   D(14,9,10,18)        -178.0117         estimate D2E/DX2                !
 ! D37   D(15,9,10,16)         177.1258         estimate D2E/DX2                !
 ! D38   D(15,9,10,17)          57.4688         estimate D2E/DX2                !
 ! D39   D(15,9,10,18)         -62.2694         estimate D2E/DX2                !
 --------------------------------------------------------------------------------
 Trust Radius=3.00D-01 FncErr=1.00D-07 GrdErr=1.00D-06 EigMax=2.50D+02 EigMin=1.00D-04
 Number of steps in this run=     97 maximum allowed number of steps=    108.
 GradGradGradGradGradGradGradGradGradGradGradGradGradGradGradGradGradGrad

                          Input orientation:                          
 ---------------------------------------------------------------------
 Center     Atomic      Atomic             Coordinates (Angstroms)
 Number     Number       Type             X           Y           Z
 ---------------------------------------------------------------------
      1          6           0       -0.796020    1.121730   -0.024860
      2          6           0        0.600080    1.236880   -0.086710
      3          6           0        1.382170    0.073330   -0.054650
      4          6           0        0.777500   -1.185240    0.002330
      5          6           0       -0.611610   -1.283840    0.041390
      6          6           0       -1.400850   -0.136170    0.035170
      7          1           0       -2.484170   -0.213240    0.068040
      8         17           0       -1.357110   -2.834810    0.084530
      9          6           0        1.252830    2.592340   -0.191030
     10          6           0        1.581250    3.193090    1.166330
     11          1           0       -1.421790    2.011720   -0.034630
     12          1           0        2.467360    0.139520   -0.086880
     13          1           0        1.394070   -2.079400    0.014760
     14          1           0        0.595070    3.273220   -0.745170
     15          1           0        2.169430    2.509430   -0.787730
     16          1           0        0.677470    3.336050    1.768160
     17          1           0        2.059760    4.169800    1.039580
     18          1           0        2.266020    2.552460    1.731770
 ---------------------------------------------------------------------
                    Distance matrix (angstroms):
                    1          2          3          4          5
     1  C    0.000000
     2  C    1.402205   0.000000
     3  C    2.417549   1.402334   0.000000
     4  C    2.792636   2.430241   1.397452   0.000000
     5  C    2.413537   2.799756   2.413771   1.393153   0.000000
     6  C    1.397045   2.429782   2.792339   2.418023   1.392869
     7  H    2.154211   3.411656   3.878886   3.404055   2.157168
     8  Cl   3.997624   4.520904   3.997537   2.698962   1.721377
     9  C    2.527468   1.508057   2.526013   3.812275   4.307543
    10  C    3.370590   2.521817   3.356088   4.601161   5.110482
    11  H    1.088010   2.165883   3.408805   3.880566   3.394538
    12  H    3.408553   2.165856   1.087684   2.149087   3.394475
    13  H    3.878827   3.411514   2.153882   1.086202   2.157864
    14  H    2.661369   2.140158   3.366844   4.524368   4.779283
    15  H    3.361782   2.138614   2.663037   4.026444   4.776036
    16  H    3.207695   2.802329   3.803233   4.854918   5.097729
    17  H    4.310365   3.464277   4.293895   5.603261   6.154250
    18  H    3.809045   2.795170   3.180970   4.379162   5.084814
                    6          7          8          9         10
     6  C    0.000000
     7  H    1.086555   0.000000
     8  Cl   2.699446   2.853623   0.000000
     9  C    3.812866   4.680125   6.028406   0.000000
    10  C    4.610468   5.416361   6.792631   1.520259   0.000000
    11  H    2.149126   2.467719   4.848426   2.741382   3.443282
    12  H    3.879942   4.966497   4.847947   2.739025   3.417604
    13  H    3.404135   4.304200   2.853858   4.678403   5.400028
    14  H    4.026980   4.722122   6.465867   1.096958   2.152395
    15  H    4.519210   5.459054   6.462060   1.096850   2.152138
    16  H    4.402156   5.048152   6.712201   2.173147   1.095196
    17  H    5.614805   6.387662   7.851859   2.157294   1.094988
    18  H    4.853156   5.742943   6.697996   2.173776   1.095006
                   11         12         13         14         15
    11  H    0.000000
    12  H    4.316636   0.000000
    13  H    4.966767   2.466959   0.000000
    14  H    2.482735   3.709298   5.465019   0.000000
    15  H    3.702936   2.489262   4.722556   1.750370   0.000000
    16  H    3.067702   4.106420   5.737162   2.515465   3.072754
    17  H    4.234670   4.204546   6.367566   2.476793   2.471420
    18  H    4.124623   3.028251   5.016228   3.073565   2.521718
                   16         17         18
    16  H    0.000000
    17  H    1.771071   0.000000
    18  H    1.771674   1.771287   0.000000
 Stoichiometry    C8H9Cl
 Framework group  C1[X(C8H9Cl)]
 Deg. of freedom    48
 Full point group                 C1      NOp   1
 Largest Abelian subgroup         C1      NOp   1
 Largest concise Abelian subgroup C1      NOp   1
                         Standard orientation:                         
 ---------------------------------------------------------------------
 Center     Atomic      Atomic             Coordinates (Angstroms)
 Number     Number       Type             X           Y           Z
 ---------------------------------------------------------------------
      1          6           0        0.627412    1.213330   -0.211481
      2          6           0        1.334155    0.006336   -0.310785
      3          6           0        0.632243   -1.204202   -0.218819
      4          6           0       -0.756814   -1.207732   -0.065919
      5          6           0       -1.447224   -0.000034    0.009407
      6          6           0       -0.760903    1.210265   -0.055579
      7          1           0       -1.299323    2.152055    0.005579
      8         17           0       -3.161011   -0.004326    0.170824
      9          6           0        2.827860    0.008356   -0.518338
     10          6           0        3.603423   -0.012718    0.789042
     11          1           0        1.153320    2.164203   -0.266516
     12          1           0        1.161753   -2.152408   -0.278661
     13          1           0       -1.290286   -2.152115   -0.007758
     14          1           0        3.114695    0.891786   -1.101942
     15          1           0        3.111333   -0.858390   -1.127826
     16          1           0        3.379788    0.868699    1.399409
     17          1           0        4.679751   -0.019089    0.587854
     18          1           0        3.365252   -0.902817    1.380682
 ---------------------------------------------------------------------
 Rotational constants (GHZ):           4.4747445           0.6652688           0.6083576
 Standard basis: 6-31G(d) (6D, 7F)
 There are   157 symmetry adapted cartesian basis functions of A   symmetry.
 There are   157 symmetry adapted basis functions of A   symmetry.
   157 basis functions,   312 primitive gaussians,   157 cartesian basis functions
    37 alpha electrons       37 beta electrons
       nuclear repulsion energy       472.8936824102 Hartrees.
 NAtoms=   18 NActive=   18 NUniq=   18 SFac= 1.00D+00 NAtFMM=   60 NAOKFM=F Big=F
 Integral buffers will be    131072 words long.
 Raffenetti 2 integral format.
 Two-electron integral symmetry is turned on.
 One-electron integrals computed using PRISM.
 NBasis=   157 RedAO= T EigKep=  4.57D-04  NBF=   157
 NBsUse=   157 1.00D-06 EigRej= -1.00D+00 NBFU=   157
 ExpMin= 1.43D-01 ExpMax= 2.52D+04 ExpMxC= 3.78D+03 IAcc=3 IRadAn=         5 AccDes= 0.00D+00
 Harris functional with IExCor=  402 and IRadAn=       5 diagonalized for initial guess.
 HarFok:  IExCor=  402 AccDes= 0.00D+00 IRadAn=         5 IDoV= 1 UseB2=F ITyADJ=14
 ICtDFT=  3500011 ScaDFX=  1.000000  1.000000  1.000000  1.000000
 FoFCou: FMM=F IPFlag=           0 FMFlag=      100000 FMFlg1=           0
         NFxFlg=           0 DoJE=T BraDBF=F KetDBF=T FulRan=T
         wScrn=  0.000000 ICntrl=       500 IOpCl=  0 I1Cent=   200000004 NGrid=           0
         NMat0=    1 NMatS0=      1 NMatT0=    0 NMatD0=    1 NMtDS0=    0 NMtDT0=    0
 Petite list used in FoFCou.
 Keep R1 ints in memory in canonical form, NReq=79875969.
 Gradient too large for Newton-Raphson -- use scaled steepest descent instead.
     Minimum is close to point  3 DX=  3.91D-02 DF= -2.05D-03 DXR=  8.90D-02 DFR=  7.97D-03 which will be used.
 Gradient too large for Newton-Raphson -- use scaled steepest descent instead.
 Gradient too large for Newton-Raphson -- use scaled steepest descent instead.
     Accept linear search using points  1 and  2.
 Gradient too large for Newton-Raphson -- use scaled steepest descent instead.
     Accept linear search using points  2 and  3.
 LinEq1:  Iter=  0 NonCon=     1 RMS=6.08D-05 Max=2.52D-03 NDo=     1
 AX will form     1 AO Fock derivatives at one time.
 LinEq1:  Iter=  1 NonCon=     1 RMS=4.62D-05 Max=1.33D-03 NDo=     1
 LinEq1:  Iter=  2 NonCon=     1 RMS=1.39D-05 Max=1.98D-04 NDo=     1
 LinEq1:  Iter=  3 NonCon=     1 RMS=6.42D-06 Max=1.31D-04 NDo=     1
 LinEq1:  Iter=  4 NonCon=     1 RMS=5.41D-06 Max=2.25D-04 NDo=     1
 LinEq1:  Iter=  5 NonCon=     1 RMS=3.19D-06 Max=6.38D-05 NDo=     1
 LinEq1:  Iter=  6 NonCon=     1 RMS=1.37D-06 Max=2.41D-05 NDo=     1
 LinEq1:  Iter=  7 NonCon=     1 RMS=6.46D-07 Max=1.68D-05 NDo=     1
 LinEq1:  Iter=  8 NonCon=     1 RMS=4.94D-07 Max=1.10D-05 NDo=     1
 LinEq1:  Iter=  9 NonCon=     1 RMS=2.18D-07 Max=3.08D-06 NDo=     1
 LinEq1:  Iter= 10 NonCon=     1 RMS=1.12D-07 Max=2.13D-06 NDo=     1
 LinEq1:  Iter= 11 NonCon=     1 RMS=4.82D-08 Max=8.46D-07 NDo=     1
 LinEq1:  Iter= 12 NonCon=     1 RMS=1.75D-08 Max=2.75D-07 NDo=     1
 LinEq1:  Iter= 13 NonCon=     1 RMS=7.23D-09 Max=1.03D-07 NDo=     1
 LinEq1:  Iter= 14 NonCon=     0 RMS=2.49D-09 Max=2.76D-08 NDo=     1
 Linear equations converged to 9.423D-09 9.423D-08 after    14 iterations.
     Accept linear search using points  1 and  2.
     Minimum is close to point  2 DX= -1.51D-04 DF= -3.41D-13 DXR=  1.51D-04 DFR=  2.28D-08 which will be used.
 LinEq1:  Iter=  0 NonCon=     1 RMS=6.89D-08 Max=2.41D-06 NDo=     1
 LinEq1:  Iter=  1 NonCon=     1 RMS=6.72D-08 Max=2.18D-06 NDo=     1
 LinEq1:  Iter=  2 NonCon=     1 RMS=2.06D-08 Max=2.99D-07 NDo=     1
 LinEq1:  Iter=  3 NonCon=     1 RMS=4.58D-09 Max=6.59D-08 NDo=     1
 LinEq1:  Iter=  4 NonCon=     1 RMS=2.67D-09 Max=4.44D-08 NDo=     1
 LinEq1:  Iter=  5 NonCon=     1 RMS=1.26D-09 Max=2.90D-08 NDo=     1
 LinEq1:  Iter=  6 NonCon=     1 RMS=4.91D-10 Max=1.20D-08 NDo=     1
 LinEq1:  Iter=  7 NonCon=     1 RMS=2.90D-10 Max=9.36D-09 NDo=     1
 LinEq1:  Iter=  8 NonCon=     1 RMS=1.76D-10 Max=4.12D-09 NDo=     1
 LinEq1:  Iter=  9 NonCon=     1 RMS=8.36D-11 Max=1.34D-09 NDo=     1
 LinEq1:  Iter= 10 NonCon=     1 RMS=2.68D-11 Max=7.29D-10 NDo=     1
 LinEq1:  Iter= 11 NonCon=     0 RMS=1.56D-11 Max=2.78D-10 NDo=     1
 Linear equations converged to 3.350D-11 3.350D-10 after    11 iterations.
 SCF Done:  E(RB3LYP) =  -770.475262666     a.u. after    7 cycles
            Convg  =    0.4378D-10                    40 Fock formations.
              S**2 =  0.0000                  -V/T =  2.0058

 **********************************************************************

            Population analysis using the SCF density.

 **********************************************************************

 Orbital symmetries:
       Occupied  (A) (A) (A) (A) (A) (A) (A) (A) (A) (A) (A) (A)
                 (A) (A) (A) (A) (A) (A) (A) (A) (A) (A) (A) (A)
                 (A) (A) (A) (A) (A) (A) (A) (A) (A) (A) (A) (A)
                 (A)
       Virtual   (A) (A) (A) (A) (A) (A) (A) (A) (A) (A) (A) (A)
                 (A) (A) (A) (A) (A) (A) (A) (A) (A) (A) (A) (A)
                 (A) (A) (A) (A) (A) (A) (A) (A) (A) (A) (A) (A)
                 (A) (A) (A) (A) (A) (A) (A) (A) (A) (A) (A) (A)
                 (A) (A) (A) (A) (A) (A) (A) (A) (A) (A) (A) (A)
                 (A) (A) (A) (A) (A) (A) (A) (A) (A) (A) (A) (A)
                 (A) (A) (A) (A) (A) (A) (A) (A) (A) (A) (A) (A)
                 (A) (A) (A) (A) (A) (A) (A) (A) (A) (A) (A) (A)
                 (A) (A) (A) (A) (A) (A) (A) (A) (A) (A) (A) (A)
                 (A) (A) (A) (A) (A) (A) (A) (A) (A) (A) (A) (A)
 The electronic state is 1-A.
 Alpha  occ. eigenvalues -- -101.54553 -10.24604 -10.20029 -10.20005 -10.20001
 Alpha  occ. eigenvalues --  -10.19708 -10.19704 -10.19121 -10.18040  -9.46247
 Alpha  occ. eigenvalues --   -7.22630  -7.21674  -7.21641  -0.89224  -0.84227
 Alpha  occ. eigenvalues --   -0.78131  -0.75409  -0.71410  -0.63003  -0.61930
 Alpha  occ. eigenvalues --   -0.57934  -0.50690  -0.48075  -0.46690  -0.43599
 Alpha  occ. eigenvalues --   -0.43427  -0.42445  -0.40583  -0.39002  -0.37653
 Alpha  occ. eigenvalues --   -0.36541  -0.34057  -0.33851  -0.32258  -0.30917
 Alpha  occ. eigenvalues --   -0.25823  -0.23471
 Alpha virt. eigenvalues --   -0.00986  -0.00726   0.04289   0.09889   0.12326
 Alpha virt. eigenvalues --    0.12568   0.13643   0.15502   0.15941   0.16754
 Alpha virt. eigenvalues --    0.17590   0.18462   0.19749   0.22766   0.25295
 Alpha virt. eigenvalues --    0.28389   0.28536   0.32486   0.33290   0.40368
 Alpha virt. eigenvalues --    0.42279   0.42377   0.44594   0.46639   0.50552
 Alpha virt. eigenvalues --    0.51077   0.52786   0.54722   0.54925   0.56138
 Alpha virt. eigenvalues --    0.58700   0.59409   0.60423   0.60560   0.60911
 Alpha virt. eigenvalues --    0.63192   0.64573   0.66901   0.67083   0.73411
 Alpha virt. eigenvalues --    0.75655   0.76906   0.80744   0.81355   0.81641
 Alpha virt. eigenvalues --    0.83305   0.85375   0.85808   0.87557   0.88236
 Alpha virt. eigenvalues --    0.88445   0.90862   0.92840   0.93553   0.94413
 Alpha virt. eigenvalues --    0.96166   0.97777   0.98338   1.01573   1.05702
 Alpha virt. eigenvalues --    1.07879   1.11624   1.14600   1.17911   1.18475
 Alpha virt. eigenvalues --    1.24701   1.35661   1.35955   1.39719   1.43230
 Alpha virt. eigenvalues --    1.43841   1.46579   1.47091   1.50332   1.55154
 Alpha virt. eigenvalues --    1.56814   1.70433   1.72965   1.79868   1.80023
 Alpha virt. eigenvalues --    1.82525   1.87787   1.94501   1.95596   1.96626
 Alpha virt. eigenvalues --    2.00944   2.01197   2.07162   2.08309   2.13273
 Alpha virt. eigenvalues --    2.13496   2.17982   2.19390   2.24954   2.28217
 Alpha virt. eigenvalues --    2.29869   2.32618   2.33102   2.37674   2.44672
 Alpha virt. eigenvalues --    2.56622   2.58875   2.64038   2.64743   2.70051
 Alpha virt. eigenvalues --    2.74330   2.74387   2.77744   2.89043   3.04540
 Alpha virt. eigenvalues --    3.37538   4.05885   4.10577   4.11995   4.17760
 Alpha virt. eigenvalues --    4.28078   4.32025   4.40190   4.45392   4.69506
          Condensed to atoms (all electrons):
               1          2          3          4          5          6
     1  C    4.959623   0.545959  -0.036032  -0.043877  -0.032126   0.503344
     2  C    0.545959   4.639291   0.545204  -0.019979  -0.031388  -0.020100
     3  C   -0.036032   0.545204   4.960169   0.503711  -0.032098  -0.043909
     4  C   -0.043877  -0.019979   0.503711   4.940859   0.534454  -0.033585
     5  C   -0.032126  -0.031388  -0.032098   0.534454   4.936459   0.534753
     6  C    0.503344  -0.020100  -0.043909  -0.033585   0.534753   4.941063
     7  H   -0.035040   0.003580   0.000770   0.004333  -0.043967   0.357942
     8  Cl   0.004566   0.000646   0.004573  -0.071594   0.233782  -0.071533
     9  C   -0.057519   0.365629  -0.058067   0.006715   0.000460   0.006763
    10  C   -0.002691  -0.046918  -0.002892  -0.000109   0.000019  -0.000120
    11  H    0.358103  -0.043648   0.005666   0.000405   0.004669  -0.045009
    12  H    0.005659  -0.043874   0.358188  -0.044940   0.004672   0.000406
    13  H    0.000769   0.003575  -0.035117   0.358026  -0.043930   0.004331
    14  H   -0.005672  -0.032539   0.004084  -0.000222   0.000011   0.000150
    15  H    0.004008  -0.032542  -0.005711   0.000142   0.000013  -0.000225
    16  H    0.003349  -0.003601  -0.000113  -0.000001  -0.000005  -0.000103
    17  H   -0.000003   0.005012   0.000005   0.000004  -0.000000   0.000004
    18  H   -0.000101  -0.003824   0.003503  -0.000108  -0.000006  -0.000000
               7          8          9         10         11         12
     1  C   -0.035040   0.004566  -0.057519  -0.002691   0.358103   0.005659
     2  C    0.003580   0.000646   0.365629  -0.046918  -0.043648  -0.043874
     3  C    0.000770   0.004573  -0.058067  -0.002892   0.005666   0.358188
     4  C    0.004333  -0.071594   0.006715  -0.000109   0.000405  -0.044940
     5  C   -0.043967   0.233782   0.000460   0.000019   0.004669   0.004672
     6  C    0.357942  -0.071533   0.006763  -0.000120  -0.045009   0.000406
     7  H    0.568971  -0.000453  -0.000174   0.000001  -0.005624   0.000017
     8  Cl  -0.000453  16.919109   0.000007  -0.000000  -0.000176  -0.000176
     9  C   -0.000174   0.000007   5.102550   0.360447  -0.009076  -0.009013
    10  C    0.000001  -0.000000   0.360447   5.080705   0.000553   0.000587
    11  H   -0.005624  -0.000176  -0.009076   0.000553   0.595685  -0.000174
    12  H    0.000017  -0.000176  -0.009013   0.000587  -0.000174   0.595724
    13  H   -0.000176  -0.000462  -0.000174   0.000001   0.000017  -0.005623
    14  H   -0.000006  -0.000000   0.366631  -0.038363   0.005007   0.000060
    15  H    0.000003  -0.000000   0.366746  -0.038621   0.000060   0.004881
    16  H    0.000002  -0.000000  -0.035724   0.378383   0.000553   0.000025
    17  H   -0.000000   0.000000  -0.028765   0.363524  -0.000056  -0.000061
    18  H    0.000000  -0.000000  -0.035855   0.378535   0.000025   0.000631
              13         14         15         16         17         18
     1  C    0.000769  -0.005672   0.004008   0.003349  -0.000003  -0.000101
     2  C    0.003575  -0.032539  -0.032542  -0.003601   0.005012  -0.003824
     3  C   -0.035117   0.004084  -0.005711  -0.000113   0.000005   0.003503
     4  C    0.358026  -0.000222   0.000142  -0.000001   0.000004  -0.000108
     5  C   -0.043930   0.000011   0.000013  -0.000005  -0.000000  -0.000006
     6  C    0.004331   0.000150  -0.000225  -0.000103   0.000004  -0.000000
     7  H   -0.000176  -0.000006   0.000003   0.000002  -0.000000   0.000000
     8  Cl  -0.000462  -0.000000  -0.000000  -0.000000   0.000000  -0.000000
     9  C   -0.000174   0.366631   0.366746  -0.035724  -0.028765  -0.035855
    10  C    0.000001  -0.038363  -0.038621   0.378383   0.363524   0.378535
    11  H    0.000017   0.005007   0.000060   0.000553  -0.000056   0.000025
    12  H   -0.005623   0.000060   0.004881   0.000025  -0.000061   0.000631
    13  H    0.568913   0.000003  -0.000006   0.000000  -0.000000   0.000003
    14  H    0.000003   0.594638  -0.036752  -0.004539  -0.003109   0.005408
    15  H   -0.000006  -0.036752   0.594736   0.005430  -0.003272  -0.004367
    16  H    0.000000  -0.004539   0.005430   0.566624  -0.029639  -0.030685
    17  H   -0.000000  -0.003109  -0.003272  -0.029639   0.580661  -0.029602
    18  H    0.000003   0.005408  -0.004367  -0.030685  -0.029602   0.566351
 Mulliken charges:
               1
     1  C   -0.172319
     2  C    0.169515
     3  C   -0.171934
     4  C   -0.134235
     5  C   -0.065773
     6  C   -0.134170
     7  H    0.149822
     8  Cl  -0.018288
     9  C   -0.341581
    10  C   -0.433042
    11  H    0.133019
    12  H    0.133013
    13  H    0.149850
    14  H    0.145210
    15  H    0.145477
    16  H    0.150045
    17  H    0.145298
    18  H    0.150094
 Sum of Mulliken charges =  -0.00000
 Mulliken charges with hydrogens summed into heavy atoms:
               1
     1  C   -0.039300
     2  C    0.169515
     3  C   -0.038921
     4  C    0.015616
     5  C   -0.065773
     6  C    0.015651
     8  Cl  -0.018288
     9  C   -0.050895
    10  C    0.012396
 Electronic spatial extent (au):  <R**2>=           1816.7249
 Charge=             -0.0000 electrons
 Dipole moment (field-independent basis, Debye):
    X=              2.1544    Y=              0.0027    Z=             -0.2010  Tot=              2.1638
 Quadrupole moment (field-independent basis, Debye-Ang):
   XX=            -61.4982   YY=            -55.0082   ZZ=            -63.0168
   XY=             -0.0059   XZ=             -0.5972   YZ=              0.0230
 Traceless Quadrupole moment (field-independent basis, Debye-Ang):
   XX=             -1.6571   YY=              4.8329   ZZ=             -3.1758
   XY=             -0.0059   XZ=             -0.5972   YZ=              0.0230
 Octapole moment (field-independent basis, Debye-Ang**2):
  XXX=              5.4311  YYY=              0.0205  ZZZ=              1.6567  XYY=             -3.6809
  XXY=              0.0352  XXZ=             -2.1054  XZZ=             -3.0922  YZZ=             -0.0209
  YYZ=             -0.2910  XYZ=              0.0155
 Hexadecapole moment (field-independent basis, Debye-Ang**3):
 XXXX=          -1939.2768 YYYY=           -302.9397 ZZZZ=           -134.7231 XXXY=              0.1236
 XXXZ=            -13.7120 YYYX=              0.1075 YYYZ=              0.0657 ZZZX=             -2.9750
 ZZZY=              0.0467 XXYY=           -372.4468 XXZZ=           -354.4995 YYZZ=            -80.6702
 XXYZ=              0.1108 YYXZ=             -2.4098 ZZXY=              0.0224
 N-N= 4.728936824102D+02 E-N=-2.757054918941D+03  KE= 7.660624018725D+02
 Calling FoFJK, ICntrl=      2127 FMM=F ISym2X=0 I1Cent= 0 IOpClX= 0 NMat=1 NMatS=1 NMatT=0.
 ***** Axes restored to original set *****
 -------------------------------------------------------------------
 Center     Atomic                   Forces (Hartrees/Bohr)
 Number     Number              X              Y              Z
 -------------------------------------------------------------------
      1        6           0.003160290   -0.007491900   -0.000212120
      2        6           0.000695496    0.001591822   -0.002705640
      3        6          -0.008298761   -0.002664664   -0.000260747
      4        6           0.006652502    0.001426751    0.001078118
      5        6           0.006958853    0.013863692   -0.000663217
      6        6          -0.003648527    0.005627120    0.000576990
      7        1           0.000805756   -0.001477761    0.000068354
      8       17          -0.007890911   -0.016304394    0.000778309
      9        6          -0.000775915   -0.001333560   -0.005907446
     10        6           0.002841759    0.006060570    0.005468503
     11        1           0.001072180   -0.000118832   -0.000691284
     12        1          -0.000551572    0.000796176   -0.000710456
     13        1          -0.001622594   -0.000545798   -0.000114345
     14        1          -0.000586611    0.000409025    0.000329437
     15        1           0.000814148   -0.000133533    0.000235997
     16        1          -0.000208746   -0.000453335    0.000618331
     17        1           0.000649265    0.001242684    0.001532064
     18        1          -0.000066613   -0.000494061    0.000579152
 -------------------------------------------------------------------
 Cartesian Forces:  Max     0.016304394 RMS     0.004178455

 GradGradGradGradGradGradGradGradGradGradGradGradGradGradGradGradGradGrad
 Berny optimization.
 FormGI is forming the generalized inverse of G from B-inverse, IUseBI=4.
 Internal  Forces:  Max     0.018127243 RMS     0.002666327
 Search for a local minimum.
 Step number   1 out of a maximum of   97
 All quantities printed in internal units (Hartrees-Bohrs-Radians)
 Mixed Optimization -- RFO/linear search
 Second derivative matrix not updated -- first step.
 ITU=  0
     Eigenvalues ---    0.00498   0.00659   0.01496   0.02069   0.02089
     Eigenvalues ---    0.02096   0.02123   0.02149   0.02156   0.02168
     Eigenvalues ---    0.02181   0.04113   0.05463   0.05547   0.05694
     Eigenvalues ---    0.09454   0.12896   0.15998   0.15999   0.15999
     Eigenvalues ---    0.16000   0.16000   0.16000   0.16000   0.21913
     Eigenvalues ---    0.21998   0.22976   0.23999   0.24999   0.25000
     Eigenvalues ---    0.30342   0.31547   0.33436   0.34021   0.34033
     Eigenvalues ---    0.34219   0.34240   0.34242   0.35044   0.35082
     Eigenvalues ---    0.35214   0.35255   0.41739   0.42036   0.45426
     Eigenvalues ---    0.46080   0.46141   0.46683
 RFO step:  Lambda=-2.43276404D-03 EMin= 4.97964139D-03
 Linear search not attempted -- first point.
 Iteration  1 RMS(Cart)=  0.03358153 RMS(Int)=  0.00037905
 Iteration  2 RMS(Cart)=  0.00060132 RMS(Int)=  0.00008846
 Iteration  3 RMS(Cart)=  0.00000013 RMS(Int)=  0.00008846
 Variable       Old X    -DE/DX   Delta X   Delta X   Delta X     New X
                                 (Linear)    (Quad)   (Total)
    R1        2.64978  -0.00140   0.00000  -0.00353  -0.00352   2.64627
    R2        2.64003  -0.00122   0.00000  -0.00260  -0.00260   2.63744
    R3        2.05604  -0.00071   0.00000  -0.00201  -0.00201   2.05404
    R4        2.65003  -0.00137   0.00000  -0.00350  -0.00349   2.64654
    R5        2.84982   0.00572   0.00000   0.01799   0.01799   2.86780
    R6        2.64080  -0.00158   0.00000  -0.00345  -0.00345   2.63735
    R7        2.05543  -0.00048   0.00000  -0.00136  -0.00136   2.05406
    R8        2.63268   0.00142   0.00000   0.00345   0.00344   2.63612
    R9        2.05262  -0.00047   0.00000  -0.00133  -0.00133   2.05129
   R10        2.63214   0.00156   0.00000   0.00379   0.00378   2.63592
   R11        3.25293   0.01813   0.00000   0.05382   0.05382   3.30676
   R12        2.05329  -0.00070   0.00000  -0.00196  -0.00196   2.05133
   R13        2.87287   0.01053   0.00000   0.03442   0.03442   2.90729
   R14        2.07295   0.00044   0.00000   0.00128   0.00128   2.07423
   R15        2.07275   0.00056   0.00000   0.00164   0.00164   2.07439
   R16        2.06962   0.00045   0.00000   0.00131   0.00131   2.07094
   R17        2.06923   0.00121   0.00000   0.00352   0.00352   2.07275
   R18        2.06926   0.00055   0.00000   0.00159   0.00159   2.07085
    A1        2.10237   0.00409   0.00000   0.01709   0.01705   2.11942
    A2        2.10027  -0.00291   0.00000  -0.01384  -0.01386   2.08640
    A3        2.08049  -0.00117   0.00000  -0.00310  -0.00313   2.07736
    A4        2.07845  -0.00460   0.00000  -0.02032  -0.02046   2.05799
    A5        2.10345   0.00218   0.00000   0.00971   0.00955   2.11299
    A6        2.10128   0.00243   0.00000   0.01071   0.01054   2.11182
    A7        2.10236   0.00414   0.00000   0.01717   0.01711   2.11947
    A8        2.10048  -0.00295   0.00000  -0.01393  -0.01396   2.08652
    A9        2.08027  -0.00119   0.00000  -0.00304  -0.00307   2.07720
   A10        2.09015  -0.00112   0.00000  -0.00459  -0.00464   2.08552
   A11        2.09006   0.00224   0.00000   0.01266   0.01268   2.10274
   A12        2.10297  -0.00112   0.00000  -0.00807  -0.00805   2.09492
   A13        2.10197  -0.00124   0.00000  -0.00358  -0.00364   2.09833
   A14        2.09013   0.00071   0.00000   0.00215   0.00217   2.09230
   A15        2.09106   0.00053   0.00000   0.00146   0.00149   2.09254
   A16        2.09067  -0.00125   0.00000  -0.00500  -0.00504   2.08563
   A17        2.09072   0.00220   0.00000   0.01222   0.01223   2.10295
   A18        2.10176  -0.00095   0.00000  -0.00718  -0.00716   2.09460
   A19        1.96809   0.00242   0.00000   0.01077   0.01078   1.97887
   A20        1.91059  -0.00070   0.00000  -0.00279  -0.00277   1.90782
   A21        1.90859  -0.00055   0.00000  -0.00069  -0.00068   1.90791
   A22        1.91271  -0.00098   0.00000  -0.00608  -0.00608   1.90663
   A23        1.91247  -0.00101   0.00000  -0.00552  -0.00553   1.90694
   A24        1.84750   0.00070   0.00000   0.00386   0.00384   1.85134
   A25        1.94330  -0.00027   0.00000  -0.00336  -0.00340   1.93990
   A26        1.92147   0.00262   0.00000   0.01967   0.01965   1.94112
   A27        1.94438  -0.00040   0.00000  -0.00434  -0.00438   1.94000
   A28        1.88367  -0.00082   0.00000  -0.00146  -0.00150   1.88218
   A29        1.88459  -0.00040   0.00000  -0.00897  -0.00902   1.87556
   A30        1.88425  -0.00082   0.00000  -0.00193  -0.00195   1.88230
    D1       -0.02683   0.00073   0.00000   0.02722   0.02724   0.00040
    D2        3.11115   0.00130   0.00000   0.06029   0.06012  -3.11191
    D3        3.12708   0.00038   0.00000   0.01233   0.01234   3.13942
    D4       -0.01812   0.00094   0.00000   0.04540   0.04523   0.02711
    D5        0.00646  -0.00019   0.00000  -0.00823  -0.00843  -0.00197
    D6       -3.12593  -0.00031   0.00000  -0.01342  -0.01358  -3.13951
    D7        3.13587   0.00015   0.00000   0.00642   0.00631  -3.14101
    D8        0.00347   0.00003   0.00000   0.00123   0.00117   0.00464
    D9        0.02938  -0.00080   0.00000  -0.03023  -0.03027  -0.00090
   D10       -3.12609  -0.00040   0.00000  -0.01353  -0.01355  -3.13964
   D11       -3.10861  -0.00136   0.00000  -0.06326  -0.06314   3.11144
   D12        0.01910  -0.00097   0.00000  -0.04655  -0.04641  -0.02731
   D13        1.58549  -0.00030   0.00000  -0.01782  -0.01803   1.56746
   D14       -0.54863  -0.00020   0.00000  -0.01538  -0.01558  -0.56421
   D15       -2.56533  -0.00035   0.00000  -0.01806  -0.01825  -2.58359
   D16       -1.55976   0.00026   0.00000   0.01562   0.01581  -1.54395
   D17        2.58931   0.00036   0.00000   0.01806   0.01825   2.60757
   D18        0.57260   0.00021   0.00000   0.01538   0.01558   0.58819
   D19       -0.01154   0.00033   0.00000   0.01427   0.01449   0.00295
   D20        3.12891   0.00026   0.00000   0.01138   0.01153   3.14044
   D21       -3.13941  -0.00005   0.00000  -0.00215  -0.00206  -3.14147
   D22        0.00104  -0.00012   0.00000  -0.00504  -0.00502  -0.00398
   D23       -0.00929   0.00011   0.00000   0.00467   0.00478  -0.00451
   D24        3.12348   0.00020   0.00000   0.00845   0.00843   3.13191
   D25        3.13345   0.00018   0.00000   0.00757   0.00772   3.14116
   D26       -0.01696   0.00027   0.00000   0.01134   0.01136  -0.00560
   D27        0.01182  -0.00019   0.00000  -0.00772  -0.00779   0.00403
   D28       -3.13903  -0.00005   0.00000  -0.00239  -0.00257   3.14159
   D29       -3.12095  -0.00028   0.00000  -0.01150  -0.01144  -3.13239
   D30        0.01139  -0.00015   0.00000  -0.00617  -0.00622   0.00517
   D31       -1.06158   0.00057   0.00000   0.01270   0.01269  -1.04889
   D32        3.13320   0.00005   0.00000   0.00374   0.00374   3.13694
   D33        1.04337  -0.00040   0.00000  -0.00402  -0.00401   1.03936
   D34        1.07134   0.00063   0.00000   0.01212   0.01210   1.08344
   D35       -1.01706   0.00011   0.00000   0.00316   0.00315  -1.01391
   D36       -3.10689  -0.00034   0.00000  -0.00460  -0.00460  -3.11149
   D37        3.09143   0.00035   0.00000   0.01019   0.01019   3.10162
   D38        1.00302  -0.00017   0.00000   0.00124   0.00124   1.00426
   D39       -1.08681  -0.00062   0.00000  -0.00653  -0.00651  -1.09332
         Item               Value     Threshold  Converged?
 Maximum Force            0.018127     0.000450     NO 
 RMS     Force            0.002666     0.000300     NO 
 Maximum Displacement     0.157384     0.001800     NO 
 RMS     Displacement     0.033656     0.001200     NO 
 Predicted change in Energy=-1.246528D-03
 GradGradGradGradGradGradGradGradGradGradGradGradGradGradGradGradGradGrad

                          Input orientation:                          
 ---------------------------------------------------------------------
 Center     Atomic      Atomic             Coordinates (Angstroms)
 Number     Number       Type             X           Y           Z
 ---------------------------------------------------------------------
      1          6           0       -0.790404    1.113019   -0.065631
      2          6           0        0.602529    1.241579   -0.130220
      3          6           0        1.371248    0.071430   -0.095791
      4          6           0        0.776676   -1.187503    0.000832
      5          6           0       -0.613386   -1.287665    0.061200
      6          6           0       -1.402240   -0.137695    0.030649
      7          1           0       -2.483627   -0.219678    0.077828
      8         17           0       -1.370157   -2.861812    0.167814
      9          6           0        1.260673    2.607420   -0.196277
     10          6           0        1.583057    3.197353    1.187538
     11          1           0       -1.412478    2.004069   -0.088278
     12          1           0        2.455014    0.140462   -0.142446
     13          1           0        1.387532   -2.084477    0.025241
     14          1           0        0.606017    3.299809   -0.741097
     15          1           0        2.185028    2.537001   -0.784149
     16          1           0        0.673780    3.319153    1.787004
     17          1           0        2.060992    4.180569    1.098374
     18          1           0        2.261208    2.543837    1.747809
 ---------------------------------------------------------------------
                    Distance matrix (angstroms):
                    1          2          3          4          5
     1  C    0.000000
     2  C    1.400344   0.000000
     3  C    2.399700   1.400487   0.000000
     4  C    2.784342   2.438840   1.395623   0.000000
     5  C    2.410541   2.812858   2.410510   1.394973   0.000000
     6  C    1.395672   2.438725   2.784234   2.418814   1.394867
     7  H    2.159552   3.420953   3.869748   3.401792   2.153758
     8  Cl   4.023667   4.562690   4.023518   2.727652   1.749859
     9  C    2.541105   1.517576   2.540388   3.830737   4.330136
    10  C    3.398263   2.554011   3.385733   4.613619   5.119413
    11  H    1.086949   2.154856   3.388846   3.871235   3.390634
    12  H    3.388880   2.155066   1.086964   2.144957   3.390590
    13  H    3.869838   3.420972   2.159363   1.085497   2.154037
    14  H    2.681100   2.146973   3.380004   4.551434   4.814098
    15  H    3.375972   2.147101   2.686096   4.058519   4.813918
    16  H    3.231581   2.827922   3.818257   4.848809   5.085074
    17  H    4.346864   3.503458   4.334374   5.627634   6.174918
    18  H    3.827289   2.823842   3.209935   4.379345   5.078223
                    6          7          8          9         10
     6  C    0.000000
     7  H    1.085516   0.000000
     8  Cl   2.727757   2.868587   0.000000
     9  C    3.831221   4.699723   6.079994   0.000000
    10  C    4.623087   5.426368   6.817242   1.538472   0.000000
    11  H    2.145088   2.473863   4.872799   2.742522   3.467688
    12  H    3.871143   4.956652   4.872561   2.741392   3.445831
    13  H    3.401885   4.297222   2.868697   4.698836   5.411737
    14  H    4.055259   4.754295   6.534291   1.097636   2.164425
    15  H    4.548229   5.489865   6.533969   1.097718   2.164713
    16  H    4.398232   5.041213   6.708486   2.187330   1.095892
    17  H    5.637501   6.407593   7.888844   2.188934   1.096852
    18  H    4.853875   5.739278   6.701063   2.187369   1.095845
                   11         12         13         14         15
    11  H    0.000000
    12  H    4.293420   0.000000
    13  H    4.956728   2.473458   0.000000
    14  H    2.485847   3.709265   5.494413   0.000000
    15  H    3.702742   2.495611   4.759115   1.754139   0.000000
    16  H    3.098161   4.123064   5.728217   2.529084   3.083255
    17  H    4.267351   4.244685   6.391867   2.505264   2.502118
    18  H    4.142286   3.063794   5.015161   3.083149   2.533113
                   16         17         18
    16  H    0.000000
    17  H    1.772175   0.000000
    18  H    1.767083   1.772214   0.000000
 Stoichiometry    C8H9Cl
 Framework group  C1[X(C8H9Cl)]
 Deg. of freedom    48
 Full point group                 C1      NOp   1
 Largest Abelian subgroup         C1      NOp   1
 Largest concise Abelian subgroup C1      NOp   1
                         Standard orientation:                         
 ---------------------------------------------------------------------
 Center     Atomic      Atomic             Coordinates (Angstroms)
 Number     Number       Type             X           Y           Z
 ---------------------------------------------------------------------
      1          6           0        0.627679    1.204173   -0.255046
      2          6           0        1.346259    0.005957   -0.349310
      3          6           0        0.631722   -1.195506   -0.263965
      4          6           0       -0.752883   -1.208122   -0.089392
      5          6           0       -1.444935   -0.000153   -0.000932
      6          6           0       -0.757080    1.210674   -0.080980
      7          1           0       -1.299094    2.148635   -0.011726
      8         17           0       -3.182820   -0.004059    0.203391
      9          6           0        2.856312    0.008219   -0.500213
     10          6           0        3.604246   -0.012469    0.844058
     11          1           0        1.156000    2.152137   -0.315870
     12          1           0        1.163166   -2.141247   -0.332032
     13          1           0       -1.291314   -2.148556   -0.026304
     14          1           0        3.162713    0.894262   -1.071047
     15          1           0        3.162724   -0.859663   -1.098442
     16          1           0        3.351213    0.864336    1.450825
     17          1           0        4.690757   -0.014961    0.693816
     18          1           0        3.343868   -0.902582    1.427821
 ---------------------------------------------------------------------
 Rotational constants (GHZ):           4.4012846           0.6566929           0.6034297
 Standard basis: 6-31G(d) (6D, 7F)
 There are   157 symmetry adapted cartesian basis functions of A   symmetry.
 There are   157 symmetry adapted basis functions of A   symmetry.
   157 basis functions,   312 primitive gaussians,   157 cartesian basis functions
    37 alpha electrons       37 beta electrons
       nuclear repulsion energy       470.7399827513 Hartrees.
 NAtoms=   18 NActive=   18 NUniq=   18 SFac= 1.00D+00 NAtFMM=   60 NAOKFM=F Big=F
 Integral buffers will be    131072 words long.
 Raffenetti 2 integral format.
 Two-electron integral symmetry is turned on.
 One-electron integrals computed using PRISM.
 NBasis=   157 RedAO= T EigKep=  4.50D-04  NBF=   157
 NBsUse=   157 1.00D-06 EigRej= -1.00D+00 NBFU=   157
 Initial guess from the checkpoint file:  "science_arx_71.chk"
 B after Tr=     0.000000   -0.000000    0.000000
         Rot=    1.000000   -0.000014    0.000847    0.000015 Ang=  -0.10 deg.
 ExpMin= 1.43D-01 ExpMax= 2.52D+04 ExpMxC= 3.78D+03 IAcc=2 IRadAn=         4 AccDes= 0.00D+00
 Harris functional with IExCor=  402 and IRadAn=       4 diagonalized for initial guess.
 HarFok:  IExCor=  402 AccDes= 0.00D+00 IRadAn=         4 IDoV= 1 UseB2=F ITyADJ=14
 ICtDFT=  3500011 ScaDFX=  1.000000  1.000000  1.000000  1.000000
 FoFCou: FMM=F IPFlag=           0 FMFlag=      100000 FMFlg1=           0
         NFxFlg=           0 DoJE=T BraDBF=F KetDBF=T FulRan=T
         wScrn=  0.000000 ICntrl=       500 IOpCl=  0 I1Cent=   200000004 NGrid=           0
         NMat0=    1 NMatS0=      1 NMatT0=    0 NMatD0=    1 NMtDS0=    0 NMtDT0=    0
 Petite list used in FoFCou.
 Keep R1 ints in memory in canonical form, NReq=79875969.
 Gradient too large for Newton-Raphson -- use scaled steepest descent instead.
     Minimum is close to point  4 DX=  6.78D-02 DF= -3.37D-06 DXR=  5.35D-02 DFR=  2.87D-03 which will be used.
 Gradient too large for Newton-Raphson -- use scaled steepest descent instead.
 Gradient too large for Newton-Raphson -- use scaled steepest descent instead.
     Accept linear search using points  1 and  2.
 Gradient too large for Newton-Raphson -- use scaled steepest descent instead.
     Accept linear search using points  1 and  2.
 LinEq1:  Iter=  0 NonCon=     1 RMS=1.39D-04 Max=3.83D-03 NDo=     1
 AX will form     1 AO Fock derivatives at one time.
 LinEq1:  Iter=  1 NonCon=     1 RMS=1.82D-05 Max=4.15D-04 NDo=     1
 LinEq1:  Iter=  2 NonCon=     1 RMS=1.43D-05 Max=5.39D-04 NDo=     1
 LinEq1:  Iter=  3 NonCon=     1 RMS=8.75D-06 Max=3.25D-04 NDo=     1
 LinEq1:  Iter=  4 NonCon=     1 RMS=4.79D-06 Max=1.20D-04 NDo=     1
 LinEq1:  Iter=  5 NonCon=     1 RMS=1.51D-06 Max=2.96D-05 NDo=     1
 LinEq1:  Iter=  6 NonCon=     1 RMS=7.25D-07 Max=1.30D-05 NDo=     1
 LinEq1:  Iter=  7 NonCon=     1 RMS=3.07D-07 Max=4.68D-06 NDo=     1
 LinEq1:  Iter=  8 NonCon=     1 RMS=1.72D-07 Max=4.86D-06 NDo=     1
 LinEq1:  Iter=  9 NonCon=     1 RMS=1.13D-07 Max=2.55D-06 NDo=     1
 LinEq1:  Iter= 10 NonCon=     1 RMS=5.33D-08 Max=7.05D-07 NDo=     1
 LinEq1:  Iter= 11 NonCon=     1 RMS=3.02D-08 Max=4.46D-07 NDo=     1
 LinEq1:  Iter= 12 NonCon=     1 RMS=1.19D-08 Max=1.35D-07 NDo=     1
 LinEq1:  Iter= 13 NonCon=     1 RMS=5.19D-09 Max=1.00D-07 NDo=     1
 LinEq1:  Iter= 14 NonCon=     0 RMS=2.34D-09 Max=2.86D-08 NDo=     1
 Linear equations converged to 9.423D-09 9.423D-08 after    14 iterations.
     Minimum is close to point  2 DX=  2.39D-04 DF= -5.57D-12 DXR=  2.39D-04 DFR=  5.79D-08 which will be used.
 LinEq1:  Iter=  0 NonCon=     1 RMS=2.49D-07 Max=5.54D-06 NDo=     1
 LinEq1:  Iter=  1 NonCon=     1 RMS=1.78D-07 Max=7.25D-06 NDo=     1
 LinEq1:  Iter=  2 NonCon=     1 RMS=1.15D-07 Max=2.73D-06 NDo=     1
 LinEq1:  Iter=  3 NonCon=     1 RMS=4.33D-08 Max=5.50D-07 NDo=     1
 LinEq1:  Iter=  4 NonCon=     1 RMS=1.94D-08 Max=3.45D-07 NDo=     1
 LinEq1:  Iter=  5 NonCon=     1 RMS=1.02D-08 Max=2.08D-07 NDo=     1
 LinEq1:  Iter=  6 NonCon=     1 RMS=4.68D-09 Max=1.05D-07 NDo=     1
 LinEq1:  Iter=  7 NonCon=     1 RMS=2.44D-09 Max=7.97D-08 NDo=     1
 LinEq1:  Iter=  8 NonCon=     1 RMS=1.61D-09 Max=3.39D-08 NDo=     1
 LinEq1:  Iter=  9 NonCon=     1 RMS=4.98D-10 Max=8.82D-09 NDo=     1
 LinEq1:  Iter= 10 NonCon=     1 RMS=2.72D-10 Max=8.14D-09 NDo=     1
 LinEq1:  Iter= 11 NonCon=     0 RMS=1.06D-10 Max=1.45D-09 NDo=     1
 Linear equations converged to 1.530D-10 1.530D-09 after    11 iterations.
 SCF Done:  E(RB3LYP) =  -770.476532716     a.u. after    7 cycles
            Convg  =    0.6521D-10                    40 Fock formations.
              S**2 =  0.0000                  -V/T =  2.0059
 Calling FoFJK, ICntrl=      2127 FMM=F ISym2X=0 I1Cent= 0 IOpClX= 0 NMat=1 NMatS=1 NMatT=0.
 ***** Axes restored to original set *****
 -------------------------------------------------------------------
 Center     Atomic                   Forces (Hartrees/Bohr)
 Number     Number              X              Y              Z
 -------------------------------------------------------------------
      1        6           0.000188690   -0.001488909    0.000566720
      2        6           0.000991967    0.001893073    0.000583644
      3        6          -0.001316866   -0.000855565    0.000619984
      4        6           0.000992862   -0.001138079   -0.000129519
      5        6           0.003253264    0.006681758   -0.000493583
      6        6          -0.001574929   -0.000014237   -0.000072328
      7        1           0.000164444   -0.000120317   -0.000114960
      8       17          -0.001692126   -0.003498531    0.000410983
      9        6          -0.000432967   -0.000663017   -0.001719599
     10        6           0.000081960    0.000153025    0.001263990
     11        1          -0.000407955    0.000314545   -0.000283200
     12        1           0.000491420   -0.000105152   -0.000286507
     13        1          -0.000224064    0.000024083   -0.000133195
     14        1          -0.000126976   -0.000010018    0.000434894
     15        1           0.000096668   -0.000140291    0.000488603
     16        1          -0.000198009   -0.000228213   -0.000194059
     17        1          -0.000281858   -0.000525011   -0.000751760
     18        1          -0.000005526   -0.000279145   -0.000190108
 -------------------------------------------------------------------
 Cartesian Forces:  Max     0.006681758 RMS     0.001315949

 GradGradGradGradGradGradGradGradGradGradGradGradGradGradGradGradGradGrad
 Berny optimization.
 Using GEDIIS/GDIIS optimizer.
 FormGI is forming the generalized inverse of G from B-inverse, IUseBI=4.
 Internal  Forces:  Max     0.003904030 RMS     0.000665366
 Search for a local minimum.
 Step number   2 out of a maximum of   97
 All quantities printed in internal units (Hartrees-Bohrs-Radians)
 Mixed Optimization -- En-DIIS/RFO-DIIS
 Update second derivatives using D2CorX and points    1    2
 DE= -1.27D-03 DEPred=-1.25D-03 R= 1.02D+00
 TightC=F SS=  1.41D+00  RLast= 1.57D-01 DXNew= 5.0454D-01 4.7005D-01
 Trust test= 1.02D+00 RLast= 1.57D-01 DXMaxT set to 4.70D-01
 ITU=  1  0
 Use linear search instead of GDIIS.
     Eigenvalues ---    0.00498   0.00659   0.01504   0.02049   0.02090
     Eigenvalues ---    0.02121   0.02134   0.02150   0.02156   0.02170
     Eigenvalues ---    0.02179   0.04066   0.05455   0.05567   0.05621
     Eigenvalues ---    0.09501   0.12951   0.15777   0.16000   0.16000
     Eigenvalues ---    0.16000   0.16000   0.16000   0.16361   0.21157
     Eigenvalues ---    0.22000   0.22221   0.24987   0.24999   0.25168
     Eigenvalues ---    0.28872   0.31048   0.33314   0.34025   0.34057
     Eigenvalues ---    0.34219   0.34240   0.34474   0.35063   0.35212
     Eigenvalues ---    0.35253   0.35388   0.41687   0.42588   0.45431
     Eigenvalues ---    0.46050   0.46208   0.46683
 RFO step:  Lambda=-1.68164147D-04 EMin= 4.97902474D-03
 Quartic linear search produced a step of  0.06241.
 Iteration  1 RMS(Cart)=  0.00794050 RMS(Int)=  0.00002969
 Iteration  2 RMS(Cart)=  0.00003297 RMS(Int)=  0.00000977
 Iteration  3 RMS(Cart)=  0.00000000 RMS(Int)=  0.00000977
 Variable       Old X    -DE/DX   Delta X   Delta X   Delta X     New X
                                 (Linear)    (Quad)   (Total)
    R1        2.64627   0.00045  -0.00022   0.00108   0.00086   2.64713
    R2        2.63744  -0.00106  -0.00016  -0.00247  -0.00263   2.63481
    R3        2.05404   0.00050  -0.00013   0.00149   0.00137   2.05540
    R4        2.64654   0.00045  -0.00022   0.00107   0.00085   2.64739
    R5        2.86780  -0.00187   0.00112  -0.00616  -0.00504   2.86277
    R6        2.63735  -0.00110  -0.00022  -0.00256  -0.00278   2.63457
    R7        2.05406   0.00050  -0.00008   0.00149   0.00140   2.05547
    R8        2.63612  -0.00052   0.00021  -0.00120  -0.00099   2.63513
    R9        2.05129  -0.00015  -0.00008  -0.00046  -0.00054   2.05075
   R10        2.63592  -0.00052   0.00024  -0.00118  -0.00094   2.63497
   R11        3.30676   0.00390   0.00336   0.01281   0.01617   3.32292
   R12        2.05133  -0.00016  -0.00012  -0.00050  -0.00062   2.05071
   R13        2.90729  -0.00031   0.00215  -0.00081   0.00134   2.90863
   R14        2.07423  -0.00015   0.00008  -0.00045  -0.00037   2.07386
   R15        2.07439  -0.00017   0.00010  -0.00052  -0.00042   2.07397
   R16        2.07094   0.00003   0.00008   0.00011   0.00019   2.07113
   R17        2.07275  -0.00053   0.00022  -0.00162  -0.00140   2.07135
   R18        2.07085   0.00007   0.00010   0.00022   0.00032   2.07116
    A1        2.11942   0.00004   0.00106   0.00066   0.00171   2.12113
    A2        2.08640   0.00012  -0.00087   0.00056  -0.00031   2.08609
    A3        2.07736  -0.00016  -0.00020  -0.00121  -0.00141   2.07595
    A4        2.05799   0.00019  -0.00128   0.00100  -0.00028   2.05771
    A5        2.11299  -0.00015   0.00060  -0.00073  -0.00014   2.11285
    A6        2.11182  -0.00004   0.00066  -0.00023   0.00042   2.11224
    A7        2.11947   0.00004   0.00107   0.00063   0.00168   2.12115
    A8        2.08652   0.00010  -0.00087   0.00048  -0.00040   2.08612
    A9        2.07720  -0.00015  -0.00019  -0.00109  -0.00129   2.07591
   A10        2.08552  -0.00114  -0.00029  -0.00539  -0.00568   2.07984
   A11        2.10274   0.00074   0.00079   0.00389   0.00468   2.10742
   A12        2.09492   0.00040  -0.00050   0.00150   0.00100   2.09592
   A13        2.09833   0.00202  -0.00023   0.00859   0.00836   2.10669
   A14        2.09230  -0.00099   0.00014  -0.00421  -0.00408   2.08822
   A15        2.09254  -0.00103   0.00009  -0.00438  -0.00428   2.08826
   A16        2.08563  -0.00116  -0.00031  -0.00547  -0.00579   2.07984
   A17        2.10295   0.00071   0.00076   0.00367   0.00444   2.10739
   A18        2.09460   0.00045  -0.00045   0.00180   0.00135   2.09595
   A19        1.97887  -0.00136   0.00067  -0.00802  -0.00736   1.97151
   A20        1.90782   0.00048  -0.00017   0.00209   0.00190   1.90972
   A21        1.90791   0.00050  -0.00004   0.00210   0.00205   1.90996
   A22        1.90663   0.00020  -0.00038  -0.00039  -0.00077   1.90586
   A23        1.90694   0.00017  -0.00035  -0.00079  -0.00114   1.90580
   A24        1.85134   0.00010   0.00024   0.00594   0.00617   1.85751
   A25        1.93990  -0.00022  -0.00021  -0.00136  -0.00158   1.93832
   A26        1.94112  -0.00100   0.00123  -0.00670  -0.00548   1.93564
   A27        1.94000  -0.00020  -0.00027  -0.00129  -0.00157   1.93843
   A28        1.88218   0.00063  -0.00009   0.00396   0.00386   1.88603
   A29        1.87556   0.00027  -0.00056   0.00222   0.00165   1.87722
   A30        1.88230   0.00061  -0.00012   0.00375   0.00362   1.88592
    D1        0.00040  -0.00000   0.00170   0.00054   0.00224   0.00264
    D2       -3.11191  -0.00004   0.00375  -0.00146   0.00228  -3.10963
    D3        3.13942   0.00016   0.00077   0.00854   0.00931  -3.13446
    D4        0.02711   0.00013   0.00282   0.00654   0.00935   0.03646
    D5       -0.00197   0.00005  -0.00053   0.00208   0.00153  -0.00044
    D6       -3.13951   0.00006  -0.00085   0.00279   0.00192  -3.13759
    D7       -3.14101  -0.00011   0.00039  -0.00588  -0.00550   3.13668
    D8        0.00464  -0.00010   0.00007  -0.00517  -0.00511  -0.00047
    D9       -0.00090   0.00001  -0.00189   0.00008  -0.00180  -0.00270
   D10       -3.13964  -0.00016  -0.00085  -0.00861  -0.00944   3.13410
   D11        3.11144   0.00005  -0.00394   0.00207  -0.00186   3.10958
   D12       -0.02731  -0.00013  -0.00290  -0.00662  -0.00950  -0.03681
   D13        1.56746   0.00002  -0.00113   0.00034  -0.00080   1.56666
   D14       -0.56421   0.00034  -0.00097   0.00481   0.00382  -0.56039
   D15       -2.58359  -0.00033  -0.00114  -0.00464  -0.00580  -2.58939
   D16       -1.54395  -0.00001   0.00099  -0.00174  -0.00074  -1.54469
   D17        2.60757   0.00031   0.00114   0.00273   0.00389   2.61145
   D18        0.58819  -0.00037   0.00097  -0.00672  -0.00574   0.58245
   D19        0.00295  -0.00008   0.00090  -0.00332  -0.00239   0.00056
   D20        3.14044  -0.00009   0.00072  -0.00388  -0.00314   3.13730
   D21       -3.14147   0.00010  -0.00013   0.00532   0.00521  -3.13626
   D22       -0.00398   0.00009  -0.00031   0.00476   0.00445   0.00047
   D23       -0.00451   0.00012   0.00030   0.00594   0.00625   0.00174
   D24        3.13191   0.00013   0.00053   0.00614   0.00666   3.13857
   D25        3.14116   0.00013   0.00048   0.00649   0.00699  -3.13503
   D26       -0.00560   0.00013   0.00071   0.00669   0.00740   0.00181
   D27        0.00403  -0.00010  -0.00049  -0.00533  -0.00583  -0.00180
   D28        3.14159  -0.00012  -0.00016  -0.00603  -0.00621   3.13538
   D29       -3.13239  -0.00011  -0.00071  -0.00553  -0.00624  -3.13863
   D30        0.00517  -0.00013  -0.00039  -0.00623  -0.00662  -0.00146
   D31       -1.04889  -0.00002   0.00079   0.00203   0.00283  -1.04606
   D32        3.13694   0.00001   0.00023   0.00245   0.00268   3.13962
   D33        1.03936   0.00004  -0.00025   0.00308   0.00283   1.04219
   D34        1.08344  -0.00018   0.00076  -0.00105  -0.00029   1.08315
   D35       -1.01391  -0.00015   0.00020  -0.00063  -0.00043  -1.01435
   D36       -3.11149  -0.00012  -0.00029  -0.00001  -0.00029  -3.11179
   D37        3.10162   0.00015   0.00064   0.00540   0.00603   3.10765
   D38        1.00426   0.00017   0.00008   0.00581   0.00589   1.01015
   D39       -1.09332   0.00021  -0.00041   0.00644   0.00603  -1.08729
         Item               Value     Threshold  Converged?
 Maximum Force            0.003904     0.000450     NO 
 RMS     Force            0.000665     0.000300     NO 
 Maximum Displacement     0.036784     0.001800     NO 
 RMS     Displacement     0.007952     0.001200     NO 
 Predicted change in Energy=-8.804262D-05
 GradGradGradGradGradGradGradGradGradGradGradGradGradGradGradGradGradGrad

                          Input orientation:                          
 ---------------------------------------------------------------------
 Center     Atomic      Atomic             Coordinates (Angstroms)
 Number     Number       Type             X           Y           Z
 ---------------------------------------------------------------------
      1          6           0       -0.789008    1.115889   -0.067727
      2          6           0        0.604376    1.244350   -0.132672
      3          6           0        1.372919    0.073554   -0.097988
      4          6           0        0.780745   -1.184682    0.001178
      5          6           0       -0.609012   -1.278430    0.066605
      6          6           0       -1.402357   -0.132287    0.031670
      7          1           0       -2.483250   -0.217195    0.077430
      8         17           0       -1.369416   -2.859330    0.187279
      9          6           0        1.261278    2.607809   -0.199126
     10          6           0        1.578724    3.189655    1.190033
     11          1           0       -1.411508    2.007249   -0.099355
     12          1           0        2.457025    0.142132   -0.153845
     13          1           0        1.388291   -2.083621    0.023031
     14          1           0        0.606231    3.302434   -0.740224
     15          1           0        2.188762    2.538249   -0.781735
     16          1           0        0.666559    3.304650    1.786637
     17          1           0        2.053951    4.173517    1.102677
     18          1           0        2.257148    2.532926    1.746532
 ---------------------------------------------------------------------
                    Distance matrix (angstroms):
                    1          2          3          4          5
     1  C    0.000000
     2  C    1.400800   0.000000
     3  C    2.400273   1.400938   0.000000
     4  C    2.785947   2.439102   1.394153   0.000000
     5  C    2.404830   2.806500   2.404787   1.394451   0.000000
     6  C    1.394281   2.439081   2.785918   2.423716   1.394367
     7  H    2.160703   3.422527   3.871091   3.405218   2.153858
     8  Cl   4.025452   4.564911   4.025368   2.731715   1.758415
     9  C    2.539048   1.514911   2.538728   3.828057   4.321047
    10  C    3.389487   2.546196   3.378083   4.602714   5.100202
    11  H    1.087672   2.155670   3.390017   3.873565   3.386330
    12  H    3.390037   2.155839   1.087708   2.143451   3.386321
    13  H    3.871141   3.422595   2.160621   1.085210   2.153938
    14  H    2.679537   2.145887   3.380228   4.551301   4.807504
    15  H    3.376393   2.146097   2.684741   4.056560   4.807728
    16  H    3.216833   2.816460   3.806670   4.832702   5.058677
    17  H    4.336052   3.493905   4.326095   5.616463   6.155367
    18  H    3.818193   2.814870   3.198848   4.364246   5.056032
                    6          7          8          9         10
     6  C    0.000000
     7  H    1.085188   0.000000
     8  Cl   2.731678   2.869420   0.000000
     9  C    3.828360   4.698789   6.079430   0.000000
    10  C    4.611285   5.417024   6.803474   1.539182   0.000000
    11  H    2.143564   2.475487   4.875194   2.741243   3.464405
    12  H    3.873570   4.958721   4.875119   2.740698   3.444535
    13  H    3.405216   4.298295   2.869434   4.698404   5.404220
    14  H    4.053091   4.754076   6.536878   1.097442   2.164337
    15  H    4.548573   5.491660   6.537084   1.097496   2.164335
    16  H    4.378682   5.024547   6.685640   2.186900   1.095995
    17  H    5.624328   6.396536   7.875171   2.185055   1.096109
    18  H    4.841084   5.728913   6.682788   2.186996   1.096012
                   11         12         13         14         15
    11  H    0.000000
    12  H    4.295018   0.000000
    13  H    4.958737   2.475369   0.000000
    14  H    2.481831   3.709014   5.495795   0.000000
    15  H    3.702641   2.491504   4.759210   1.757869   0.000000
    16  H    3.091696   4.119801   5.715301   2.527582   3.082370
    17  H    4.259930   4.241861   6.384396   2.500193   2.498657
    18  H    4.140372   3.060602   5.003786   3.082471   2.529198
                   16         17         18
    16  H    0.000000
    17  H    1.774144   0.000000
    18  H    1.768372   1.774085   0.000000
 Stoichiometry    C8H9Cl
 Framework group  C1[X(C8H9Cl)]
 Deg. of freedom    48
 Full point group                 C1      NOp   1
 Largest Abelian subgroup         C1      NOp   1
 Largest concise Abelian subgroup C1      NOp   1
                         Standard orientation:                         
 ---------------------------------------------------------------------
 Center     Atomic      Atomic             Coordinates (Angstroms)
 Number     Number       Type             X           Y           Z
 ---------------------------------------------------------------------
      1          6           0        0.629340    1.203991   -0.259967
      2          6           0        1.348365    0.005321   -0.351810
      3          6           0        0.632986   -1.196266   -0.267865
      4          6           0       -0.750350   -1.210712   -0.095137
      5          6           0       -1.436577   -0.000174   -0.004661
      6          6           0       -0.754169    1.212988   -0.087219
      7          1           0       -1.298936    2.149217   -0.021348
      8         17           0       -3.181997   -0.003627    0.208685
      9          6           0        2.856178    0.007675   -0.498259
     10          6           0        3.590783   -0.011399    0.854174
     11          1           0        1.157414    2.152392   -0.328545
     12          1           0        1.163944   -2.142597   -0.343021
     13          1           0       -1.292266   -2.149049   -0.035710
     14          1           0        3.166344    0.894842   -1.064924
     15          1           0        3.166915   -0.862849   -1.089976
     16          1           0        3.328286    0.865270    1.457292
     17          1           0        4.677253   -0.011161    0.709134
     18          1           0        3.325667   -0.902946    1.433916
 ---------------------------------------------------------------------
 Rotational constants (GHZ):           4.3791286           0.6580266           0.6047172
 Standard basis: 6-31G(d) (6D, 7F)
 There are   157 symmetry adapted cartesian basis functions of A   symmetry.
 There are   157 symmetry adapted basis functions of A   symmetry.
   157 basis functions,   312 primitive gaussians,   157 cartesian basis functions
    37 alpha electrons       37 beta electrons
       nuclear repulsion energy       470.7766379571 Hartrees.
 NAtoms=   18 NActive=   18 NUniq=   18 SFac= 1.00D+00 NAtFMM=   60 NAOKFM=F Big=F
 Integral buffers will be    131072 words long.
 Raffenetti 2 integral format.
 Two-electron integral symmetry is turned on.
 One-electron integrals computed using PRISM.
 NBasis=   157 RedAO= T EigKep=  4.50D-04  NBF=   157
 NBsUse=   157 1.00D-06 EigRej= -1.00D+00 NBFU=   157
 Initial guess from the checkpoint file:  "science_arx_71.chk"
 B after Tr=    -0.000000    0.000000   -0.000000
         Rot=    1.000000    0.000257    0.000370    0.000015 Ang=   0.05 deg.
 ExpMin= 1.43D-01 ExpMax= 2.52D+04 ExpMxC= 3.78D+03 IAcc=2 IRadAn=         4 AccDes= 0.00D+00
 Harris functional with IExCor=  402 and IRadAn=       4 diagonalized for initial guess.
 HarFok:  IExCor=  402 AccDes= 0.00D+00 IRadAn=         4 IDoV= 1 UseB2=F ITyADJ=14
 ICtDFT=  3500011 ScaDFX=  1.000000  1.000000  1.000000  1.000000
 FoFCou: FMM=F IPFlag=           0 FMFlag=      100000 FMFlg1=           0
         NFxFlg=           0 DoJE=T BraDBF=F KetDBF=T FulRan=T
         wScrn=  0.000000 ICntrl=       500 IOpCl=  0 I1Cent=   200000004 NGrid=           0
         NMat0=    1 NMatS0=      1 NMatT0=    0 NMatD0=    1 NMtDS0=    0 NMtDT0=    0
 Petite list used in FoFCou.
 Keep R1 ints in memory in canonical form, NReq=79875969.
 LinEq1:  Iter=  0 NonCon=     1 RMS=1.14D-04 Max=1.74D-03 NDo=     1
 AX will form     1 AO Fock derivatives at one time.
 LinEq1:  Iter=  1 NonCon=     1 RMS=4.65D-05 Max=1.47D-03 NDo=     1
 LinEq1:  Iter=  2 NonCon=     1 RMS=2.18D-05 Max=7.60D-04 NDo=     1
 LinEq1:  Iter=  3 NonCon=     1 RMS=1.60D-05 Max=5.41D-04 NDo=     1
 LinEq1:  Iter=  4 NonCon=     1 RMS=7.19D-06 Max=1.28D-04 NDo=     1
 LinEq1:  Iter=  5 NonCon=     1 RMS=2.57D-06 Max=3.35D-05 NDo=     1
 LinEq1:  Iter=  6 NonCon=     1 RMS=1.34D-06 Max=2.33D-05 NDo=     1
 LinEq1:  Iter=  7 NonCon=     1 RMS=4.94D-07 Max=6.38D-06 NDo=     1
 LinEq1:  Iter=  8 NonCon=     1 RMS=2.92D-07 Max=4.91D-06 NDo=     1
 LinEq1:  Iter=  9 NonCon=     1 RMS=1.47D-07 Max=4.45D-06 NDo=     1
 LinEq1:  Iter= 10 NonCon=     1 RMS=1.08D-07 Max=2.45D-06 NDo=     1
 LinEq1:  Iter= 11 NonCon=     1 RMS=3.43D-08 Max=5.75D-07 NDo=     1
 LinEq1:  Iter= 12 NonCon=     1 RMS=1.25D-08 Max=2.03D-07 NDo=     1
 LinEq1:  Iter= 13 NonCon=     0 RMS=4.18D-09 Max=7.57D-08 NDo=     1
 Linear equations converged to 9.423D-09 9.423D-08 after    13 iterations.
     Minimum is close to point  2 DX=  2.64D-04 DF= -6.59D-12 DXR=  2.64D-04 DFR=  6.99D-08 which will be used.
 LinEq1:  Iter=  0 NonCon=     1 RMS=1.60D-07 Max=3.05D-06 NDo=     1
 LinEq1:  Iter=  1 NonCon=     1 RMS=1.29D-07 Max=4.50D-06 NDo=     1
 LinEq1:  Iter=  2 NonCon=     1 RMS=8.73D-08 Max=2.68D-06 NDo=     1
 LinEq1:  Iter=  3 NonCon=     1 RMS=3.21D-08 Max=5.67D-07 NDo=     1
 LinEq1:  Iter=  4 NonCon=     1 RMS=1.59D-08 Max=2.63D-07 NDo=     1
 LinEq1:  Iter=  5 NonCon=     1 RMS=8.68D-09 Max=2.15D-07 NDo=     1
 LinEq1:  Iter=  6 NonCon=     1 RMS=3.05D-09 Max=4.69D-08 NDo=     1
 LinEq1:  Iter=  7 NonCon=     1 RMS=1.26D-09 Max=2.25D-08 NDo=     1
 LinEq1:  Iter=  8 NonCon=     1 RMS=8.32D-10 Max=2.21D-08 NDo=     1
 LinEq1:  Iter=  9 NonCon=     1 RMS=5.02D-10 Max=1.21D-08 NDo=     1
 LinEq1:  Iter= 10 NonCon=     1 RMS=2.73D-10 Max=4.65D-09 NDo=     1
 LinEq1:  Iter= 11 NonCon=     0 RMS=9.00D-11 Max=1.01D-09 NDo=     1
 Linear equations converged to 1.048D-10 1.048D-09 after    11 iterations.
 SCF Done:  E(RB3LYP) =  -770.476637199     a.u. after    3 cycles
            Convg  =    0.6283D-10                    28 Fock formations.
              S**2 =  0.0000                  -V/T =  2.0059
 Calling FoFJK, ICntrl=      2127 FMM=F ISym2X=0 I1Cent= 0 IOpClX= 0 NMat=1 NMatS=1 NMatT=0.
 ***** Axes restored to original set *****
 -------------------------------------------------------------------
 Center     Atomic                   Forces (Hartrees/Bohr)
 Number     Number              X              Y              Z
 -------------------------------------------------------------------
      1        6           0.000077766    0.000379283   -0.000001093
      2        6           0.000146839    0.000243937    0.000109892
      3        6           0.000260957    0.000319360   -0.000030570
      4        6          -0.000508578   -0.001063253    0.000081350
      5        6           0.000988970    0.002082550   -0.000161091
      6        6          -0.000485652   -0.001049909    0.000105625
      7        1           0.000091584   -0.000013851   -0.000021071
      8       17          -0.000367497   -0.000767519    0.000059242
      9        6          -0.000199904   -0.000343959   -0.000410451
     10        6           0.000018257    0.000013299    0.000410634
     11        1          -0.000012620    0.000099342    0.000006606
     12        1           0.000071071    0.000054829    0.000014933
     13        1          -0.000077911    0.000073821   -0.000009282
     14        1           0.000116455   -0.000004468    0.000106044
     15        1          -0.000063455    0.000064228    0.000129423
     16        1           0.000047173   -0.000047060   -0.000146858
     17        1          -0.000040542   -0.000062559   -0.000090662
     18        1          -0.000062913    0.000021927   -0.000152670
 -------------------------------------------------------------------
 Cartesian Forces:  Max     0.002082550 RMS     0.000427741

 GradGradGradGradGradGradGradGradGradGradGradGradGradGradGradGradGradGrad
 Berny optimization.
 Using GEDIIS/GDIIS optimizer.
 FormGI is forming the generalized inverse of G from B-inverse, IUseBI=4.
 Internal  Forces:  Max     0.000852981 RMS     0.000190632
 Search for a local minimum.
 Step number   3 out of a maximum of   97
 All quantities printed in internal units (Hartrees-Bohrs-Radians)
 Mixed Optimization -- En-DIIS/RFO-DIIS
 Swapping is turned off.
 Update second derivatives using D2CorX and points    1    2    3
 DE= -1.04D-04 DEPred=-8.80D-05 R= 1.19D+00
 TightC=F SS=  1.41D+00  RLast= 4.21D-02 DXNew= 7.9052D-01 1.2630D-01
 Trust test= 1.19D+00 RLast= 4.21D-02 DXMaxT set to 4.70D-01
 ITU=  1  1  0
     Eigenvalues ---    0.00497   0.00659   0.01501   0.02070   0.02090
     Eigenvalues ---    0.02121   0.02132   0.02150   0.02156   0.02172
     Eigenvalues ---    0.02186   0.04122   0.05481   0.05606   0.05643
     Eigenvalues ---    0.09274   0.12900   0.15109   0.16000   0.16000
     Eigenvalues ---    0.16000   0.16000   0.16030   0.16413   0.18767
     Eigenvalues ---    0.22000   0.22240   0.24256   0.24988   0.25000
     Eigenvalues ---    0.28529   0.30905   0.33151   0.34025   0.34065
     Eigenvalues ---    0.34227   0.34290   0.34420   0.35063   0.35210
     Eigenvalues ---    0.35255   0.35292   0.41702   0.42360   0.45433
     Eigenvalues ---    0.46095   0.46683   0.47979
 En-DIIS/RFO-DIIS/Sim-DIIS IScMMF=       -3 using points:     3    2
 RFO step:  Lambda=-1.48747284D-05.
 DidBck=F Rises=F RFO-DIIS coefs:    1.17779   -0.17779
 Iteration  1 RMS(Cart)=  0.00212845 RMS(Int)=  0.00000256
 Iteration  2 RMS(Cart)=  0.00000238 RMS(Int)=  0.00000128
 Iteration  3 RMS(Cart)=  0.00000000 RMS(Int)=  0.00000128
 Variable       Old X    -DE/DX   Delta X   Delta X   Delta X     New X
                                 (Linear)    (Quad)   (Total)
    R1        2.64713   0.00015   0.00015   0.00030   0.00046   2.64758
    R2        2.63481   0.00040  -0.00047   0.00136   0.00089   2.63570
[...]
     3  C   -0.060168   0.488230   5.132297   0.411494  -0.032618  -0.025400
     4  C   -0.025391  -0.023677   0.411494   5.102621   0.469804  -0.059723
     5  C   -0.032553  -0.021739  -0.032618   0.469804   5.068182   0.469744
     6  C    0.411386  -0.023836  -0.025400  -0.059723   0.469744   5.103060
     7  H   -0.032880   0.003660   0.000694   0.004211  -0.044678   0.360645
     8  Cl   0.003904   0.000482   0.003907  -0.059703   0.232067  -0.059710
     9  C   -0.055742   0.372245  -0.056487   0.006756   0.000346   0.006758
    10  C   -0.002500  -0.046331  -0.002409  -0.000079  -0.000001  -0.000078
    11  H    0.359350  -0.044024   0.006117   0.000438   0.005108  -0.045990
    12  H    0.006107  -0.044167   0.359436  -0.045955   0.005110   0.000439
    13  H    0.000694   0.003655  -0.032897   0.360651  -0.044672   0.004212
    14  H   -0.003928  -0.031169   0.004056  -0.000188   0.000003   0.000007
    15  H    0.003996  -0.031146  -0.003842  -0.000002   0.000002  -0.000188
    16  H    0.004280  -0.003700  -0.000556   0.000024  -0.000001  -0.000173
    17  H   -0.000050   0.004949  -0.000044   0.000003   0.000000   0.000003
    18  H   -0.000530  -0.003824   0.004377  -0.000176  -0.000001   0.000024
               7          8          9         10         11         12
     1  C   -0.032880   0.003904  -0.055742  -0.002500   0.359350   0.006107
     2  C    0.003660   0.000482   0.372245  -0.046331  -0.044024  -0.044167
     3  C    0.000694   0.003907  -0.056487  -0.002409   0.006117   0.359436
     4  C    0.004211  -0.059703   0.006756  -0.000079   0.000438  -0.045955
     5  C   -0.044678   0.232067   0.000346  -0.000001   0.005108   0.005110
     6  C    0.360645  -0.059710   0.006758  -0.000078  -0.045990   0.000439
     7  H    0.568203  -0.001073  -0.000157   0.000001  -0.006083   0.000016
     8  Cl  -0.001073  16.845013   0.000007   0.000000  -0.000170  -0.000170
     9  C   -0.000157   0.000007   5.118730   0.349420  -0.009748  -0.009692
    10  C    0.000001   0.000000   0.349420   5.097776   0.000397   0.000408
    11  H   -0.006083  -0.000170  -0.009748   0.000397   0.601797  -0.000193
    12  H    0.000016  -0.000170  -0.009692   0.000408  -0.000193   0.601892
    13  H   -0.000180  -0.001070  -0.000157   0.000001   0.000016  -0.006084
    14  H   -0.000005  -0.000000   0.357436  -0.038742   0.005349   0.000078
    15  H    0.000003  -0.000000   0.357111  -0.038943   0.000080   0.005238
    16  H    0.000002  -0.000000  -0.033831   0.377096   0.000543   0.000026
    17  H   -0.000000   0.000000  -0.026825   0.360156  -0.000043  -0.000045
    18  H    0.000000  -0.000000  -0.033902   0.377223   0.000024   0.000588
              13         14         15         16         17         18
     1  C    0.000694  -0.003928   0.003996   0.004280  -0.000050  -0.000530
     2  C    0.003655  -0.031169  -0.031146  -0.003700   0.004949  -0.003824
     3  C   -0.032897   0.004056  -0.003842  -0.000556  -0.000044   0.004377
     4  C    0.360651  -0.000188  -0.000002   0.000024   0.000003  -0.000176
     5  C   -0.044672   0.000003   0.000002  -0.000001   0.000000  -0.000001
     6  C    0.004212   0.000007  -0.000188  -0.000173   0.000003   0.000024
     7  H   -0.000180  -0.000005   0.000003   0.000002  -0.000000   0.000000
     8  Cl  -0.001070  -0.000000  -0.000000  -0.000000   0.000000  -0.000000
     9  C   -0.000157   0.357436   0.357111  -0.033831  -0.026825  -0.033902
    10  C    0.000001  -0.038742  -0.038943   0.377096   0.360156   0.377223
    11  H    0.000016   0.005349   0.000080   0.000543  -0.000043   0.000024
    12  H   -0.006084   0.000078   0.005238   0.000026  -0.000045   0.000588
    13  H    0.568191   0.000003  -0.000005   0.000000  -0.000000   0.000002
    14  H    0.000003   0.599260  -0.037827  -0.004701  -0.002389   0.005330
    15  H   -0.000005  -0.037827   0.599706   0.005347  -0.002407  -0.004707
    16  H    0.000000  -0.004701   0.005347   0.562534  -0.029688  -0.031300
    17  H   -0.000000  -0.002389  -0.002407  -0.029688   0.578068  -0.029672
    18  H    0.000002   0.005330  -0.004707  -0.031300  -0.029672   0.562479
 Mulliken charges:
               1
     1  C   -0.196266
     2  C    0.187564
     3  C   -0.196187
     4  C   -0.141107
     5  C   -0.074101
     6  C   -0.141179
     7  H    0.147621
     8  Cl   0.036516
     9  C   -0.342268
    10  C   -0.433393
    11  H    0.127032
    12  H    0.126969
    13  H    0.147640
    14  H    0.147428
    15  H    0.147585
    16  H    0.154098
    17  H    0.147983
    18  H    0.154065
 Sum of Mulliken charges =  -0.00000
 Mulliken charges with hydrogens summed into heavy atoms:
               1
     1  C   -0.069234
     2  C    0.187564
     3  C   -0.069218
     4  C    0.006534
     5  C   -0.074101
     6  C    0.006441
     8  Cl   0.036516
     9  C   -0.047255
    10  C    0.022753
 Electronic spatial extent (au):  <R**2>=           1829.1661
 Charge=             -0.0000 electrons
 Dipole moment (field-independent basis, Debye):
    X=              1.5077    Y=              0.0012    Z=             -0.0562  Tot=              1.5087
 Quadrupole moment (field-independent basis, Debye-Ang):
   XX=            -58.1231   YY=            -56.6873   ZZ=            -63.0537
   XY=              0.0003   XZ=             -0.5482   YZ=              0.0189
 Traceless Quadrupole moment (field-independent basis, Debye-Ang):
   XX=              1.1649   YY=              2.6008   ZZ=             -3.7657
   XY=              0.0003   XZ=             -0.5482   YZ=              0.0189
 Octapole moment (field-independent basis, Debye-Ang**2):
  XXX=             -1.4669  YYY=              0.0033  ZZZ=              2.7350  XYY=             -4.1950
  XXY=              0.0058  XXZ=             -0.6340  XZZ=             -3.7071  YZZ=             -0.0147
  YYZ=             -0.1300  XYZ=              0.0069
 Hexadecapole moment (field-independent basis, Debye-Ang**3):
 XXXX=          -1897.3441 YYYY=           -309.0875 ZZZZ=           -143.4430 XXXY=              0.1151
 XXXZ=            -12.8653 YYYX=              0.0561 YYYZ=              0.0665 ZZZX=             -3.4206
 ZZZY=              0.0409 XXYY=           -375.2611 XXZZ=           -353.6909 YYZZ=            -83.3624
 XXYZ=              0.0585 YYXZ=             -2.6247 ZZXY=              0.0153
 N-N= 4.707806862894D+02 E-N=-2.752600875154D+03  KE= 7.661621959613D+02
 Evaluate density.
 Using the total density.
 Monte-Carlo method of calculating molar volume:
 based on  0.001 e/bohr**3 density envelope.
 Number of points per bohr**3 =   20 CutOff= 1.00D-04
 Using the CI density.
 There are       397 points.  Will hold       397 in memory.
 LenV=   805217645 MDV=   805306368.
 Box volume = 7868.753 fraction occupied=0.121
 Integrated density= 3.3147150985200462D+01 error=-4.0852849014799538D+01
 Molar volume =  951.386 bohr**3/mol ( 84.901 cm**3/mol)
 Recommended a0 for SCRF calculation =  4.05 angstrom (  7.66 bohr)
 ******************************Gaussian NBO Version 3.1******************************
             N A T U R A L   A T O M I C   O R B I T A L   A N D
          N A T U R A L   B O N D   O R B I T A L   A N A L Y S I S
 ******************************Gaussian NBO Version 3.1******************************
       /RESON  / : Allow strongly delocalized NBO set

 Analyzing the CI density

 Job title: Title Card Required                                             

 Storage needed:     75094 in NPA ( 805304568 available)


 NATURAL POPULATIONS:  Natural atomic orbital occupancies 
                                                          
   NAO  Atom  No  lang   Type(AO)    Occupancy
 --------------------------------------------
     1    C    1  S      Cor( 1S)     1.99905
     2    C    1  S      Val( 2S)     0.95402
     3    C    1  S      Ryd( 3S)     0.00057
     4    C    1  S      Ryd( 4S)     0.00004
     5    C    1  px     Val( 2p)     1.07917
     6    C    1  px     Ryd( 3p)     0.00416
     7    C    1  py     Val( 2p)     1.15674
     8    C    1  py     Ryd( 3p)     0.00477
     9    C    1  pz     Val( 2p)     1.04882
    10    C    1  pz     Ryd( 3p)     0.00522
    11    C    1  dxy    Ryd( 3d)     0.00078
    12    C    1  dxz    Ryd( 3d)     0.00060
    13    C    1  dyz    Ryd( 3d)     0.00041
    14    C    1  dx2y2  Ryd( 3d)     0.00072
    15    C    1  dz2    Ryd( 3d)     0.00045
 
    16    C    2  S      Cor( 1S)     1.99905
    17    C    2  S      Val( 2S)     0.89367
    18    C    2  S      Ryd( 3S)     0.00100
    19    C    2  S      Ryd( 4S)     0.00005
    20    C    2  px     Val( 2p)     1.05956
    21    C    2  px     Ryd( 3p)     0.00492
    22    C    2  py     Val( 2p)     1.08103
    23    C    2  py     Ryd( 3p)     0.00464
    24    C    2  pz     Val( 2p)     0.92686
    25    C    2  pz     Ryd( 3p)     0.00385
    26    C    2  dxy    Ryd( 3d)     0.00090
    27    C    2  dxz    Ryd( 3d)     0.00058
    28    C    2  dyz    Ryd( 3d)     0.00097
    29    C    2  dx2y2  Ryd( 3d)     0.00068
    30    C    2  dz2    Ryd( 3d)     0.00036
 
    31    C    3  S      Cor( 1S)     1.99905
    32    C    3  S      Val( 2S)     0.95394
    33    C    3  S      Ryd( 3S)     0.00057
    34    C    3  S      Ryd( 4S)     0.00004
    35    C    3  px     Val( 2p)     1.07949
    36    C    3  px     Ryd( 3p)     0.00416
    37    C    3  py     Val( 2p)     1.15641
    38    C    3  py     Ryd( 3p)     0.00477
    39    C    3  pz     Val( 2p)     1.04948
    40    C    3  pz     Ryd( 3p)     0.00523
    41    C    3  dxy    Ryd( 3d)     0.00078
    42    C    3  dxz    Ryd( 3d)     0.00060
    43    C    3  dyz    Ryd( 3d)     0.00041
    44    C    3  dx2y2  Ryd( 3d)     0.00072
    45    C    3  dz2    Ryd( 3d)     0.00045
 
    46    C    4  S      Cor( 1S)     1.99897
    47    C    4  S      Val( 2S)     0.96039
    48    C    4  S      Ryd( 3S)     0.00098
    49    C    4  S      Ryd( 4S)     0.00005
    50    C    4  px     Val( 2p)     1.09370
    51    C    4  px     Ryd( 3p)     0.00589
    52    C    4  py     Val( 2p)     1.15782
    53    C    4  py     Ryd( 3p)     0.00465
    54    C    4  pz     Val( 2p)     1.03913
    55    C    4  pz     Ryd( 3p)     0.00620
    56    C    4  dxy    Ryd( 3d)     0.00081
    57    C    4  dxz    Ryd( 3d)     0.00062
    58    C    4  dyz    Ryd( 3d)     0.00042
    59    C    4  dx2y2  Ryd( 3d)     0.00060
    60    C    4  dz2    Ryd( 3d)     0.00046
 
    61    C    5  S      Cor( 1S)     1.99856
    62    C    5  S      Val( 2S)     0.94136
    63    C    5  S      Ryd( 3S)     0.00067
    64    C    5  S      Ryd( 4S)     0.00010
    65    C    5  px     Val( 2p)     0.90091
    66    C    5  px     Ryd( 3p)     0.00667
    67    C    5  py     Val( 2p)     1.10685
    68    C    5  py     Ryd( 3p)     0.00731
    69    C    5  pz     Val( 2p)     1.05565
    70    C    5  pz     Ryd( 3p)     0.00182
    71    C    5  dxy    Ryd( 3d)     0.00100
    72    C    5  dxz    Ryd( 3d)     0.00094
    73    C    5  dyz    Ryd( 3d)     0.00117
    74    C    5  dx2y2  Ryd( 3d)     0.00175
    75    C    5  dz2    Ryd( 3d)     0.00067
 
    76    C    6  S      Cor( 1S)     1.99897
    77    C    6  S      Val( 2S)     0.96038
    78    C    6  S      Ryd( 3S)     0.00098
    79    C    6  S      Ryd( 4S)     0.00005
    80    C    6  px     Val( 2p)     1.09400
    81    C    6  px     Ryd( 3p)     0.00589
    82    C    6  py     Val( 2p)     1.15744
    83    C    6  py     Ryd( 3p)     0.00466
    84    C    6  pz     Val( 2p)     1.03956
    85    C    6  pz     Ryd( 3p)     0.00620
    86    C    6  dxy    Ryd( 3d)     0.00081
    87    C    6  dxz    Ryd( 3d)     0.00062
    88    C    6  dyz    Ryd( 3d)     0.00042
    89    C    6  dx2y2  Ryd( 3d)     0.00060
    90    C    6  dz2    Ryd( 3d)     0.00046
 
    91    H    7  S      Val( 1S)     0.75499
    92    H    7  S      Ryd( 2S)     0.00105
 
    93   Cl    8  S      Cor( 1S)     2.00000
    94   Cl    8  S      Cor( 2S)     1.99979
    95   Cl    8  S      Val( 3S)     1.83789
    96   Cl    8  S      Ryd( 4S)     0.00318
    97   Cl    8  S      Ryd( 5S)     0.00000
    98   Cl    8  px     Cor( 2p)     1.99991
    99   Cl    8  px     Val( 3p)     1.28249
   100   Cl    8  px     Ryd( 4p)     0.00352
   101   Cl    8  py     Cor( 2p)     1.99999
   102   Cl    8  py     Val( 3p)     1.97535
   103   Cl    8  py     Ryd( 4p)     0.00156
   104   Cl    8  pz     Cor( 2p)     1.99995
   105   Cl    8  pz     Val( 3p)     1.81796
   106   Cl    8  pz     Ryd( 4p)     0.00190
   107   Cl    8  dxy    Ryd( 3d)     0.00113
   108   Cl    8  dxz    Ryd( 3d)     0.00304
   109   Cl    8  dyz    Ryd( 3d)     0.00011
   110   Cl    8  dx2y2  Ryd( 3d)     0.00381
   111   Cl    8  dz2    Ryd( 3d)     0.00125
 
   112    C    9  S      Cor( 1S)     1.99929
   113    C    9  S      Val( 2S)     1.03537
   114    C    9  S      Ryd( 3S)     0.00064
   115    C    9  S      Ryd( 4S)     0.00002
   116    C    9  px     Val( 2p)     1.05492
   117    C    9  px     Ryd( 3p)     0.00152
   118    C    9  py     Val( 2p)     1.25497
   119    C    9  py     Ryd( 3p)     0.00542
   120    C    9  pz     Val( 2p)     1.12017
   121    C    9  pz     Ryd( 3p)     0.00081
   122    C    9  dxy    Ryd( 3d)     0.00044
   123    C    9  dxz    Ryd( 3d)     0.00068
   124    C    9  dyz    Ryd( 3d)     0.00113
   125    C    9  dx2y2  Ryd( 3d)     0.00092
   126    C    9  dz2    Ryd( 3d)     0.00045
 
   127    C   10  S      Cor( 1S)     1.99944
   128    C   10  S      Val( 2S)     1.10951
   129    C   10  S      Ryd( 3S)     0.00035
   130    C   10  S      Ryd( 4S)     0.00001
   131    C   10  px     Val( 2p)     1.19701
   132    C   10  px     Ryd( 3p)     0.00142
   133    C   10  py     Val( 2p)     1.24574
   134    C   10  py     Ryd( 3p)     0.00111
   135    C   10  pz     Val( 2p)     1.10433
   136    C   10  pz     Ryd( 3p)     0.00089
   137    C   10  dxy    Ryd( 3d)     0.00021
   138    C   10  dxz    Ryd( 3d)     0.00041
   139    C   10  dyz    Ryd( 3d)     0.00113
   140    C   10  dx2y2  Ryd( 3d)     0.00109
   141    C   10  dz2    Ryd( 3d)     0.00049
 
   142    H   11  S      Val( 1S)     0.76842
   143    H   11  S      Ryd( 2S)     0.00105
 
   144    H   12  S      Val( 1S)     0.76844
   145    H   12  S      Ryd( 2S)     0.00105
 
   146    H   13  S      Val( 1S)     0.75500
   147    H   13  S      Ryd( 2S)     0.00105
 
   148    H   14  S      Val( 1S)     0.75589
   149    H   14  S      Ryd( 2S)     0.00206
 
   150    H   15  S      Val( 1S)     0.75568
   151    H   15  S      Ryd( 2S)     0.00210
 
   152    H   16  S      Val( 1S)     0.76704
   153    H   16  S      Ryd( 2S)     0.00124
 
   154    H   17  S      Val( 1S)     0.76580
   155    H   17  S      Ryd( 2S)     0.00120
 
   156    H   18  S      Val( 1S)     0.76710
   157    H   18  S      Ryd( 2S)     0.00123

 WARNING:  1 low occupancy (<1.9990e) core orbital  found on  C    4
           1 low occupancy (<1.9990e) core orbital  found on  C    5
           1 low occupancy (<1.9990e) core orbital  found on  C    6


 Summary of Natural Population Analysis:                  
                                                          
                                       Natural Population 
                Natural  -----------------------------------------------
    Atom  No    Charge         Core      Valence    Rydberg      Total
 -----------------------------------------------------------------------
      C    1   -0.25552      1.99905     4.23875    0.01771     6.25552
      C    2    0.02188      1.99905     3.96112    0.01795     5.97812
      C    3   -0.25610      1.99905     4.23932    0.01772     6.25610
      C    4   -0.27070      1.99897     4.25105    0.02068     6.27070
      C    5   -0.02542      1.99856     4.00477    0.02209     6.02542
      C    6   -0.27104      1.99897     4.25139    0.02068     6.27104
      H    7    0.24397      0.00000     0.75499    0.00105     0.75603
     Cl    8    0.06718      9.99964     6.91369    0.01949    16.93282
      C    9   -0.47676      1.99929     4.46544    0.01203     6.47676
      C   10   -0.66317      1.99944     4.65660    0.00713     6.66317
      H   11    0.23053      0.00000     0.76842    0.00105     0.76947
      H   12    0.23052      0.00000     0.76844    0.00105     0.76948
      H   13    0.24396      0.00000     0.75500    0.00105     0.75604
      H   14    0.24205      0.00000     0.75589    0.00206     0.75795
      H   15    0.24222      0.00000     0.75568    0.00210     0.75778
      H   16    0.23173      0.00000     0.76704    0.00124     0.76827
      H   17    0.23300      0.00000     0.76580    0.00120     0.76700
      H   18    0.23166      0.00000     0.76710    0.00123     0.76834
 =======================================================================
   * Total *    0.00000     25.99203    47.84048    0.16749    74.00000

                                 Natural Population      
 --------------------------------------------------------
   Core                      25.99203 ( 99.9693% of  26)
   Valence                   47.84048 ( 99.6677% of  48)
   Natural Minimal Basis     73.83251 ( 99.7737% of  74)
   Natural Rydberg Basis      0.16749 (  0.2263% of  74)
 --------------------------------------------------------

    Atom  No          Natural Electron Configuration
 ----------------------------------------------------------------------------
      C    1      [core]2S( 0.95)2p( 3.28)3p( 0.01)
      C    2      [core]2S( 0.89)2p( 3.07)3p( 0.01)
      C    3      [core]2S( 0.95)2p( 3.29)3p( 0.01)
      C    4      [core]2S( 0.96)2p( 3.29)3p( 0.02)
      C    5      [core]2S( 0.94)2p( 3.06)3p( 0.02)3d( 0.01)
      C    6      [core]2S( 0.96)2p( 3.29)3p( 0.02)
      H    7            1S( 0.75)
     Cl    8      [core]3S( 1.84)3p( 5.08)3d( 0.01)4p( 0.01)
      C    9      [core]2S( 1.04)2p( 3.43)3p( 0.01)
      C   10      [core]2S( 1.11)2p( 3.55)
      H   11            1S( 0.77)
      H   12            1S( 0.77)
      H   13            1S( 0.75)
      H   14            1S( 0.76)
      H   15            1S( 0.76)
      H   16            1S( 0.77)
      H   17            1S( 0.77)
      H   18            1S( 0.77)


 NBO analysis skipped by request.
 1\1\GINC-DELLA-R4C3N2\SP\RB3LYP TD-FC\6-31G(d)\C8H9Cl1\BJS4\27-Aug-201
 8\0\\# TD(NStates=10, Root=1) b3lyp/6-31G* volume pop=NPA density=curr
 ent Geom=AllCheck Guess=Read\\Title Card Required\\0,1\C,0,-0.78857870
 01,1.1172065567,-0.0672314435\C,0,0.6050735348,1.2444191594,-0.1335316
 444\C,0,1.3741287577,0.0737324488,-0.0991126648\C,0,0.7814930447,-1.18
 489465,0.00090287\C,0,-0.60760085,-1.275258255,0.0673450657\C,0,-1.402
 5518375,-0.1312290541,0.0331140464\H,0,-2.4831137905,-0.2171181247,0.0
 795085479\Cl,0,-1.3695932489,-2.8585051898,0.1891306702\C,0,1.26185469
 51,2.607057249,-0.2003376805\C,0,1.5767102641,3.1881609295,1.190182640
 4\H,0,-1.4101005751,2.0094066851,-0.0985801427\H,0,2.4582482211,0.1430
 169927,-0.1557085038\H,0,1.3875319642,-2.0845629274,0.0223586484\H,0,0
 .6082693574,3.3024630538,-0.7417560217\H,0,2.1906470726,2.5380355395,-
 0.7804976706\H,0,0.6632549773,3.3009574887,1.7848075739\H,0,2.05060343
 32,4.1726110231,1.1037246601\H,0,2.2551836799,2.5313710748,1.746081048
 9\\Version=ES64L-G16RevA.03\State=1-A\HF=-770.4766456\RMSD=1.114e-09\D
 ipole=0.2583057,0.5343485,0.009042\Quadrupole=1.7350182,1.0964567,-2.8
 314749,-0.4066614,-0.1514983,-0.1635095\PG=C01 [X(C8H9Cl1)]\\@


 HE THAT RISETH LATE MUST TROT ALL DAY.

                  -- BENJAMIN FRANKLIN
 Job cpu time:       0 days  0 hours 13 minutes  1.3 seconds.
 Elapsed time:       0 days  0 hours  4 minutes 22.3 seconds.
 File lengths (MBytes):  RWF=    246 Int=      0 D2E=      0 Chk=     67 Scr=      1
 Normal termination of Gaussian 16 at Mon Aug 27 09:56:33 2018.
