 Entering Gaussian System, Link 0=g16
 Input=science_arx_14123.com
 Output=science_arx_14123.log
 Initial command:
 /opt/export/g16/l1.exe "/scratch/bjs4/job.111268/Gau-111273.inp" -scrdir="/scratch/bjs4/job.111268/"
 Entering Link 1 = /opt/export/g16/l1.exe PID=    111275.
  
 Copyright (c) 1988,1990,1992,1993,1995,1998,2003,2009,2016,
            Gaussian, Inc.  All Rights Reserved.
  
 This is part of the Gaussian(R) 16 program.  It is based on
 the Gaussian(R) 09 system (copyright 2009, Gaussian, Inc.),
 the Gaussian(R) 03 system (copyright 2003, Gaussian, Inc.),
 the Gaussian(R) 98 system (copyright 1998, Gaussian, Inc.),
 the Gaussian(R) 94 system (copyright 1995, Gaussian, Inc.),
 the Gaussian 92(TM) system (copyright 1992, Gaussian, Inc.),
 the Gaussian 90(TM) system (copyright 1990, Gaussian, Inc.),
 the Gaussian 88(TM) system (copyright 1988, Gaussian, Inc.),
 the Gaussian 86(TM) system (copyright 1986, Carnegie Mellon
 University), and the Gaussian 82(TM) system (copyright 1983,
 Carnegie Mellon University). Gaussian is a federally registered
 trademark of Gaussian, Inc.
  
 This software contains proprietary and confidential information,
 including trade secrets, belonging to Gaussian, Inc.
  
 This software is provided under written license and may be
 used, copied, transmitted, or stored only in accord with that
 written license.
  
 The following legend is applicable only to US Government
 contracts under FAR:
  
                    RESTRICTED RIGHTS LEGEND
  
 Use, reproduction and disclosure by the US Government is
 subject to restrictions as set forth in subparagraphs (a)
 and (c) of the Commercial Computer Software - Restricted
 Rights clause in FAR 52.227-19.
  
 Gaussian, Inc.
 340 Quinnipiac St., Bldg. 40, Wallingford CT 06492
  
  
 ---------------------------------------------------------------
 Warning -- This program may not be used in any manner that
 competes with the business of Gaussian, Inc. or will provide
 assistance to any competitor of Gaussian, Inc.  The licensee
 of this program is prohibited from giving any competitor of
 Gaussian, Inc. access to this program.  By using this program,
 the user acknowledges that Gaussian, Inc. is engaged in the
 business of creating and licensing software in the field of
 computational chemistry and represents and warrants to the
 licensee that it is not a competitor of Gaussian, Inc. and that
 it will not use this program in any manner prohibited above.
 ---------------------------------------------------------------
  

 Cite this work as:
 Gaussian 16, Revision A.03,
 M. J. Frisch, G. W. Trucks, H. B. Schlegel, G. E. Scuseria, 
 M. A. Robb, J. R. Cheeseman, G. Scalmani, V. Barone, 
 G. A. Petersson, H. Nakatsuji, X. Li, M. Caricato, A. V. Marenich, 
 J. Bloino, B. G. Janesko, R. Gomperts, B. Mennucci, H. P. Hratchian, 
 J. V. Ortiz, A. F. Izmaylov, J. L. Sonnenberg, D. Williams-Young, 
 F. Ding, F. Lipparini, F. Egidi, J. Goings, B. Peng, A. Petrone, 
 T. Henderson, D. Ranasinghe, V. G. Zakrzewski, J. Gao, N. Rega, 
 G. Zheng, W. Liang, M. Hada, M. Ehara, K. Toyota, R. Fukuda, 
 J. Hasegawa, M. Ishida, T. Nakajima, Y. Honda, O. Kitao, H. Nakai, 
 T. Vreven, K. Throssell, J. A. Montgomery, Jr., J. E. Peralta, 
 F. Ogliaro, M. J. Bearpark, J. J. Heyd, E. N. Brothers, K. N. Kudin, 
 V. N. Staroverov, T. A. Keith, R. Kobayashi, J. Normand, 
 K. Raghavachari, A. P. Rendell, J. C. Burant, S. S. Iyengar, 
 J. Tomasi, M. Cossi, J. M. Millam, M. Klene, C. Adamo, R. Cammi, 
 J. W. Ochterski, R. L. Martin, K. Morokuma, O. Farkas, 
 J. B. Foresman, and D. J. Fox, Gaussian, Inc., Wallingford CT, 2016.
 
 ******************************************
 Gaussian 16:  ES64L-G16RevA.03 25-Dec-2016
                27-Aug-2018 
 ******************************************
 %nprocshared=2
 Will use up to    2 processors via shared memory.
 %Mem=4GB
 %Chk=science_arx_141.chk
 -------------------------
 # opt b3lyp/6-31G* scf=qc
 -------------------------
 1/18=20,19=15,26=3,38=1/1,3;
 2/9=110,12=2,17=6,18=5,40=1/2;
 3/5=1,6=6,7=1,11=2,25=1,30=1,71=1,74=-5/1,2,3;
 4//1;
 5/5=2,8=3,38=5/8;
 6/7=2,8=2,9=2,10=2,28=1/1;
 7//1,2,3,16;
 1/18=20,19=15,26=3/3(2);
 2/9=110/2;
 99//99;
 2/9=110/2;
 3/5=1,6=6,7=1,11=2,25=1,30=1,71=1,74=-5/1,2,3;
 4/5=5,16=3,69=1/1;
 5/5=2,8=3,38=5/8;
 7//1,2,3,16;
 1/18=20,19=15,26=3/3(-5);
 2/9=110/2;
 6/7=2,8=2,9=2,10=2,19=2,28=1/1;
 99/9=1/99;
 -------------------
 Title Card Required
 -------------------
 Symbolic Z-matrix:
 Charge =  0 Multiplicity = 1
 C3                   -0.7629    1.14982   0.01037 
 C4                    0.62272   1.17794   0.06608 
 H                     1.16259   2.12016   0.10472 
 N                     1.39663   0.07011   0.07677 
 C                     0.75152  -1.12053   0.0294 
 C1                   -0.62814  -1.24547  -0.02785 
 C2                   -1.39927  -0.08851  -0.03752 
 H5                   -2.48321  -0.13959  -0.08164 
 Br0                  -1.4435   -2.94365  -0.09129 
 H6                   -1.33366   2.07192   0.0044 
 H                     1.40088  -1.99106   0.03944 
 

 GradGradGradGradGradGradGradGradGradGradGradGradGradGradGradGradGradGrad
 Berny optimization.
 Initialization pass.
                           ----------------------------
                           !    Initial Parameters    !
                           ! (Angstroms and Degrees)  !
 --------------------------                            --------------------------
 ! Name  Definition              Value          Derivative Info.                !
 --------------------------------------------------------------------------------
 ! R1    R(1,2)                  1.387          estimate D2E/DX2                !
 ! R2    R(1,7)                  1.3931         estimate D2E/DX2                !
 ! R3    R(1,10)                 1.0845         estimate D2E/DX2                !
 ! R4    R(2,3)                  1.0866         estimate D2E/DX2                !
 ! R5    R(2,4)                  1.3514         estimate D2E/DX2                !
 ! R6    R(4,5)                  1.355          estimate D2E/DX2                !
 ! R7    R(5,6)                  1.3865         estimate D2E/DX2                !
 ! R8    R(5,11)                 1.0861         estimate D2E/DX2                !
 ! R9    R(6,7)                  1.3904         estimate D2E/DX2                !
 ! R10   R(6,9)                  1.8848         estimate D2E/DX2                !
 ! R11   R(7,8)                  1.086          estimate D2E/DX2                !
 ! A1    A(2,1,7)              118.4076         estimate D2E/DX2                !
 ! A2    A(2,1,10)             120.5809         estimate D2E/DX2                !
 ! A3    A(7,1,10)             121.0115         estimate D2E/DX2                !
 ! A4    A(1,2,3)              121.0203         estimate D2E/DX2                !
 ! A5    A(1,2,4)              123.7646         estimate D2E/DX2                !
 ! A6    A(3,2,4)              115.2151         estimate D2E/DX2                !
 ! A7    A(2,4,5)              116.5768         estimate D2E/DX2                !
 ! A8    A(4,5,6)              123.6677         estimate D2E/DX2                !
 ! A9    A(4,5,11)             114.792          estimate D2E/DX2                !
 ! A10   A(6,5,11)             121.5403         estimate D2E/DX2                !
 ! A11   A(5,6,7)              118.5009         estimate D2E/DX2                !
 ! A12   A(5,6,9)              120.8661         estimate D2E/DX2                !
 ! A13   A(7,6,9)              120.6329         estimate D2E/DX2                !
 ! A14   A(1,7,6)              119.0823         estimate D2E/DX2                !
 ! A15   A(1,7,8)              119.942          estimate D2E/DX2                !
 ! A16   A(6,7,8)              120.9756         estimate D2E/DX2                !
 ! D1    D(7,1,2,3)            179.999          estimate D2E/DX2                !
 ! D2    D(7,1,2,4)             -0.0012         estimate D2E/DX2                !
 ! D3    D(10,1,2,3)             0.0            estimate D2E/DX2                !
 ! D4    D(10,1,2,4)           179.9998         estimate D2E/DX2                !
 ! D5    D(2,1,7,6)              0.0004         estimate D2E/DX2                !
 ! D6    D(2,1,7,8)           -179.9994         estimate D2E/DX2                !
 ! D7    D(10,1,7,6)           179.9994         estimate D2E/DX2                !
 ! D8    D(10,1,7,8)            -0.0004         estimate D2E/DX2                !
 ! D9    D(1,2,4,5)              0.0012         estimate D2E/DX2                !
 ! D10   D(3,2,4,5)           -179.999          estimate D2E/DX2                !
 ! D11   D(2,4,5,6)             -0.0004         estimate D2E/DX2                !
 ! D12   D(2,4,5,11)           179.9998         estimate D2E/DX2                !
 ! D13   D(4,5,6,7)             -0.0003         estimate D2E/DX2                !
 ! D14   D(4,5,6,9)            179.9982         estimate D2E/DX2                !
 ! D15   D(11,5,6,7)           179.9994         estimate D2E/DX2                !
 ! D16   D(11,5,6,9)            -0.002          estimate D2E/DX2                !
 ! D17   D(5,6,7,1)              0.0003         estimate D2E/DX2                !
 ! D18   D(5,6,7,8)           -179.9999         estimate D2E/DX2                !
 ! D19   D(9,6,7,1)           -179.9982         estimate D2E/DX2                !
 ! D20   D(9,6,7,8)              0.0016         estimate D2E/DX2                !
 --------------------------------------------------------------------------------
 Trust Radius=3.00D-01 FncErr=1.00D-07 GrdErr=1.00D-06 EigMax=2.50D+02 EigMin=1.00D-04
 Number of steps in this run=     57 maximum allowed number of steps=    100.
 GradGradGradGradGradGradGradGradGradGradGradGradGradGradGradGradGradGrad

                          Input orientation:                          
 ---------------------------------------------------------------------
 Center     Atomic      Atomic             Coordinates (Angstroms)
 Number     Number       Type             X           Y           Z
 ---------------------------------------------------------------------
      1          6           0       -0.762900    1.149820    0.010370
      2          6           0        0.622720    1.177940    0.066080
      3          1           0        1.162590    2.120160    0.104720
      4          7           0        1.396630    0.070110    0.076770
      5          6           0        0.751520   -1.120530    0.029400
      6          6           0       -0.628140   -1.245470   -0.027850
      7          6           0       -1.399270   -0.088510   -0.037520
      8          1           0       -2.483210   -0.139590   -0.081640
      9         35           0       -1.443500   -2.943650   -0.091290
     10          1           0       -1.333660    2.071920    0.004400
     11          1           0        1.400880   -1.991060    0.039440
 ---------------------------------------------------------------------
                    Distance matrix (angstroms):
                    1          2          3          4          5
     1  C    0.000000
     2  C    1.387025   0.000000
     3  H    2.158234   1.086615   0.000000
     4  N    2.415316   1.351421   2.063555   0.000000
     5  C    2.729161   2.302368   3.267526   1.355003   0.000000
     6  C    2.399382   2.728807   3.814676   2.416897   1.386488
     7  C    1.393098   2.388111   3.385496   2.802727   2.386512
     8  H    2.151862   3.377056   4.293374   3.888731   3.382019
     9  Br   4.150909   4.613191   5.698447   4.144554   2.855949
    10  H    1.084468   2.151843   2.498731   3.386291   3.813179
    11  H    3.814173   3.263250   4.118637   2.061512   1.086090
                    6          7          8          9         10
     6  C    0.000000
     7  C    1.390429   0.000000
     8  H    2.160358   1.086039   0.000000
     9  Br   1.884848   2.855989   2.990626   0.000000
    10  H    3.391736   2.161832   2.493922   5.017685   0.000000
    11  H    2.162719   3.386216   4.304504   3.002502   4.897626
                   11
    11  H    0.000000
 Stoichiometry    C5H4BrN
 Framework group  C1[X(C5H4BrN)]
 Deg. of freedom    27
 Full point group                 C1      NOp   1
 Largest Abelian subgroup         C1      NOp   1
 Largest concise Abelian subgroup C1      NOp   1
                         Standard orientation:                         
 ---------------------------------------------------------------------
 Center     Atomic      Atomic             Coordinates (Angstroms)
 Number     Number       Type             X           Y           Z
 ---------------------------------------------------------------------
      1          6           0        2.195223    1.162796    0.000001
      2          6           0        2.821454   -0.074811   -0.000020
      3          1           0        3.905177   -0.154029   -0.000049
      4          7           0        2.158121   -1.252235   -0.000000
      5          6           0        0.804757   -1.185592    0.000016
      6          6           0        0.093807    0.004743    0.000022
      7          6           0        0.802646    1.200919    0.000017
      8          1           0        0.286535    2.156488    0.000024
      9         35           0       -1.791041    0.005321   -0.000006
     10          1           0        2.779177    2.076616   -0.000013
     11          1           0        0.301389   -2.147991    0.000028
 ---------------------------------------------------------------------
 Rotational constants (GHZ):           5.8737428           0.9961850           0.8517316
 Standard basis: 6-31G(d) (6D, 7F)
 There are   128 symmetry adapted cartesian basis functions of A   symmetry.
 There are   128 symmetry adapted basis functions of A   symmetry.
   128 basis functions,   267 primitive gaussians,   128 cartesian basis functions
    38 alpha electrons       38 beta electrons
       nuclear repulsion energy       434.5897128154 Hartrees.
 NAtoms=   11 NActive=   11 NUniq=   11 SFac= 1.00D+00 NAtFMM=   60 NAOKFM=F Big=F
 Integral buffers will be    131072 words long.
 Raffenetti 2 integral format.
 Two-electron integral symmetry is turned on.
 One-electron integrals computed using PRISM.
 NBasis=   128 RedAO= T EigKep=  7.53D-04  NBF=   128
 NBsUse=   128 1.00D-06 EigRej= -1.00D+00 NBFU=   128
 ExpMin= 1.43D-01 ExpMax= 5.74D+05 ExpMxC= 5.74D+03 IAcc=3 IRadAn=         5 AccDes= 0.00D+00
 Harris functional with IExCor=  402 and IRadAn=       5 diagonalized for initial guess.
 HarFok:  IExCor=  402 AccDes= 0.00D+00 IRadAn=         5 IDoV= 1 UseB2=F ITyADJ=14
 ICtDFT=  3500011 ScaDFX=  1.000000  1.000000  1.000000  1.000000
 FoFCou: FMM=F IPFlag=           0 FMFlag=      100000 FMFlg1=           0
         NFxFlg=           0 DoJE=T BraDBF=F KetDBF=T FulRan=T
         wScrn=  0.000000 ICntrl=       500 IOpCl=  0 I1Cent=   200000004 NGrid=           0
         NMat0=    1 NMatS0=      1 NMatT0=    0 NMatD0=    1 NMtDS0=    0 NMtDT0=    0
 Petite list used in FoFCou.
 Keep R1 ints in memory in canonical form, NReq=35994975.
 Gradient too large for Newton-Raphson -- use scaled steepest descent instead.
     Minimum is close to point  3 DX= -2.56D-02 DF= -2.88D-04 DXR=  5.40D-02 DFR=  2.93D-03 which will be used.
 Gradient too large for Newton-Raphson -- use scaled steepest descent instead.
 Gradient too large for Newton-Raphson -- use scaled steepest descent instead.
     Accept linear search using points  1 and  2.
 Gradient too large for Newton-Raphson -- use scaled steepest descent instead.
     Accept linear search using points  2 and  3.
 Gradient too large for Newton-Raphson -- use scaled steepest descent instead.
     Accept linear search using points  1 and  2.
 Gradient too large for Newton-Raphson -- use scaled steepest descent instead.
     Minimum is close to point  3 DX=  9.58D-02 DF= -1.21D-07 DXR=  9.62D-02 DFR=  9.35D-03 which will be used.
 LinEq1:  Iter=  0 NonCon=     1 RMS=1.06D-05 Max=2.27D-04 NDo=     1
 AX will form     1 AO Fock derivatives at one time.
 LinEq1:  Iter=  1 NonCon=     1 RMS=8.31D-06 Max=2.63D-04 NDo=     1
 LinEq1:  Iter=  2 NonCon=     1 RMS=3.44D-06 Max=1.13D-04 NDo=     1
 LinEq1:  Iter=  3 NonCon=     1 RMS=1.95D-06 Max=5.85D-05 NDo=     1
 LinEq1:  Iter=  4 NonCon=     1 RMS=7.54D-07 Max=1.94D-05 NDo=     1
 LinEq1:  Iter=  5 NonCon=     1 RMS=3.65D-07 Max=7.69D-06 NDo=     1
 LinEq1:  Iter=  6 NonCon=     1 RMS=2.46D-07 Max=8.15D-06 NDo=     1
 LinEq1:  Iter=  7 NonCon=     1 RMS=1.83D-07 Max=3.52D-06 NDo=     1
 LinEq1:  Iter=  8 NonCon=     1 RMS=8.45D-08 Max=2.06D-06 NDo=     1
 LinEq1:  Iter=  9 NonCon=     1 RMS=4.27D-08 Max=8.82D-07 NDo=     1
 LinEq1:  Iter= 10 NonCon=     1 RMS=1.94D-08 Max=2.31D-07 NDo=     1
 LinEq1:  Iter= 11 NonCon=     1 RMS=6.07D-09 Max=1.27D-07 NDo=     1
 LinEq1:  Iter= 12 NonCon=     0 RMS=3.61D-09 Max=6.18D-08 NDo=     1
 Linear equations converged to 8.270D-09 8.270D-08 after    12 iterations.
     Accept linear search using points  1 and  2.
     Minimum is close to point  2 DX= -5.87D-05 DF=  0.00D+00 DXR=  5.87D-05 DFR=  0.00D+00 which will be used.
 SCF Done:  E(RB3LYP) =  -2819.38756027     a.u. after    8 cycles
            Convg  =    0.6883D-07                    30 Fock formations.
              S**2 =  0.0000                  -V/T =  2.0064

 **********************************************************************

            Population analysis using the SCF density.

 **********************************************************************

 Orbital symmetries:
       Occupied  (A) (A) (A) (A) (A) (A) (A) (A) (A) (A) (A) (A)
                 (A) (A) (A) (A) (A) (A) (A) (A) (A) (A) (A) (A)
                 (A) (A) (A) (A) (A) (A) (A) (A) (A) (A) (A) (A)
                 (A) (A)
       Virtual   (A) (A) (A) (A) (A) (A) (A) (A) (A) (A) (A) (A)
                 (A) (A) (A) (A) (A) (A) (A) (A) (A) (A) (A) (A)
                 (A) (A) (A) (A) (A) (A) (A) (A) (A) (A) (A) (A)
                 (A) (A) (A) (A) (A) (A) (A) (A) (A) (A) (A) (A)
                 (A) (A) (A) (A) (A) (A) (A) (A) (A) (A) (A) (A)
                 (A) (A) (A) (A) (A) (A) (A) (A) (A) (A) (A) (A)
                 (A) (A) (A) (A) (A) (A) (A) (A) (A) (A) (A) (A)
                 (A) (A) (A) (A) (A) (A)
 The electronic state is 1-A.
 Alpha  occ. eigenvalues -- -482.92205 -61.88384 -56.40527 -56.40103 -56.40097
 Alpha  occ. eigenvalues --  -14.34640 -10.25762 -10.23822 -10.23396 -10.22534
 Alpha  occ. eigenvalues --  -10.21404  -8.59546  -6.54959  -6.53661  -6.53633
 Alpha  occ. eigenvalues --   -2.66532  -2.66158  -2.66137  -2.65101  -2.65101
 Alpha  occ. eigenvalues --   -0.94995  -0.84502  -0.79815  -0.74395  -0.64778
 Alpha  occ. eigenvalues --   -0.62652  -0.53499  -0.49901  -0.47137  -0.43351
 Alpha  occ. eigenvalues --   -0.41802  -0.41492  -0.37692  -0.33493  -0.30033
 Alpha  occ. eigenvalues --   -0.29239  -0.26844  -0.25644
 Alpha virt. eigenvalues --   -0.03952  -0.02292   0.00362   0.10389   0.12843
 Alpha virt. eigenvalues --    0.14848   0.15028   0.16951   0.21020   0.23855
 Alpha virt. eigenvalues --    0.28961   0.29707   0.31424   0.39971   0.42009
 Alpha virt. eigenvalues --    0.45398   0.45573   0.45805   0.46937   0.47727
 Alpha virt. eigenvalues --    0.47739   0.52701   0.54892   0.56448   0.57186
 Alpha virt. eigenvalues --    0.58341   0.59191   0.61713   0.62110   0.65994
 Alpha virt. eigenvalues --    0.66496   0.73463   0.74757   0.78049   0.80973
 Alpha virt. eigenvalues --    0.81993   0.85500   0.85860   0.87050   0.87342
 Alpha virt. eigenvalues --    0.91183   0.97210   0.99770   1.06245   1.07611
 Alpha virt. eigenvalues --    1.16611   1.19332   1.23145   1.23365   1.35666
 Alpha virt. eigenvalues --    1.38823   1.44438   1.45946   1.48845   1.50354
 Alpha virt. eigenvalues --    1.53836   1.56592   1.68702   1.78266   1.82050
 Alpha virt. eigenvalues --    1.83204   1.87854   1.94187   2.04600   2.11691
 Alpha virt. eigenvalues --    2.11984   2.14643   2.15605   2.18671   2.28272
 Alpha virt. eigenvalues --    2.29578   2.35969   2.49796   2.53558   2.63164
 Alpha virt. eigenvalues --    2.65399   2.66789   2.67428   2.75241   2.77928
 Alpha virt. eigenvalues --    3.02793   3.32417   4.02181   4.07504   4.10186
 Alpha virt. eigenvalues --    4.21201   4.30003   4.56463   8.59412  72.78386
          Condensed to atoms (all electrons):
               1          2          3          4          5          6
     1  C    4.944423   0.500675  -0.062421  -0.024062  -0.041286  -0.019570
     2  C    0.500675   4.791032   0.378127   0.455440  -0.069873  -0.038444
     3  H   -0.062421   0.378127   0.578262  -0.052658   0.005543   0.000543
     4  N   -0.024062   0.455440  -0.052658   6.691854   0.438925  -0.013943
     5  C   -0.041286  -0.069873   0.005543   0.438925   4.899201   0.458129
     6  C   -0.019570  -0.038444   0.000543  -0.013943   0.458129   4.865442
     7  C    0.513675  -0.030872   0.003818  -0.048555  -0.041447   0.517309
     8  H   -0.042666   0.004732  -0.000164  -0.000170   0.005333  -0.044534
     9  Br   0.005872   0.000254   0.000014   0.004113  -0.051199   0.253057
    10  H    0.352302  -0.034968  -0.001959   0.004663   0.000349   0.004994
    11  H    0.000176   0.005378  -0.000173  -0.051522   0.379538  -0.066128
               7          8          9         10         11
     1  C    0.513675  -0.042666   0.005872   0.352302   0.000176
     2  C   -0.030872   0.004732   0.000254  -0.034968   0.005378
     3  H    0.003818  -0.000164   0.000014  -0.001959  -0.000173
     4  N   -0.048555  -0.000170   0.004113   0.004663  -0.051522
     5  C   -0.041447   0.005333  -0.051199   0.000349   0.379538
     6  C    0.517309  -0.044534   0.253057   0.004994  -0.066128
     7  C    4.949567   0.363127  -0.064649  -0.040950   0.004266
     8  H    0.363127   0.558000  -0.002835  -0.005937  -0.000153
     9  Br  -0.064649  -0.002835  34.966489  -0.000098   0.001585
    10  H   -0.040950  -0.005937  -0.000098   0.571899   0.000024
    11  H    0.004266  -0.000153   0.001585   0.000024   0.562377
 Mulliken charges:
               1
     1  C   -0.127119
     2  C    0.038518
     3  H    0.151068
     4  N   -0.404084
     5  C    0.016786
     6  C    0.083145
     7  C   -0.125289
     8  H    0.165268
     9  Br  -0.112603
    10  H    0.149680
    11  H    0.164631
 Sum of Mulliken charges =   0.00000
 Mulliken charges with hydrogens summed into heavy atoms:
               1
     1  C    0.022561
     2  C    0.189586
     4  N   -0.404084
     5  C    0.181416
     6  C    0.083145
     7  C    0.039979
     9  Br  -0.112603
 Electronic spatial extent (au):  <R**2>=           1194.7072
 Charge=              0.0000 electrons
 Dipole moment (field-independent basis, Debye):
    X=              0.4852    Y=              1.9723    Z=             -0.0000  Tot=              2.0311
 Quadrupole moment (field-independent basis, Debye-Ang):
   XX=            -50.0546   YY=            -50.6274   ZZ=            -54.1518
   XY=              5.7872   XZ=             -0.0001   YZ=             -0.0000
 Traceless Quadrupole moment (field-independent basis, Debye-Ang):
   XX=              1.5567   YY=              0.9839   ZZ=             -2.5405
   XY=              5.7872   XZ=             -0.0001   YZ=             -0.0000
 Octapole moment (field-independent basis, Debye-Ang**2):
  XXX=            -47.5859  YYY=              8.6954  ZZZ=             -0.0003  XYY=            -22.5979
  XXY=             15.1620  XXZ=             -0.0007  XZZ=            -20.8434  YZZ=             -1.0209
  YYZ=              0.0000  XYZ=             -0.0001
 Hexadecapole moment (field-independent basis, Debye-Ang**3):
 XXXX=           -971.5003 YYYY=           -275.0147 ZZZZ=            -56.1920 XXXY=             37.0005
 XXXZ=             -0.0012 YYYX=             25.2639 YYYZ=             -0.0002 ZZZX=              0.0003
 ZZZY=             -0.0000 XXYY=           -242.8003 XXZZ=           -197.8725 YYZZ=            -60.8427
 XXYZ=             -0.0001 YYXZ=              0.0001 ZZXY=             -2.0030
 N-N= 4.345897128154D+02 E-N=-7.576749760776D+03  KE= 2.801320036075D+03
 Calling FoFJK, ICntrl=      2127 FMM=F ISym2X=0 I1Cent= 0 IOpClX= 0 NMat=1 NMatS=1 NMatT=0.
 ***** Axes restored to original set *****
 -------------------------------------------------------------------
 Center     Atomic                   Forces (Hartrees/Bohr)
 Number     Number              X              Y              Z
 -------------------------------------------------------------------
      1        6          -0.002302849   -0.002661479   -0.000141297
      2        6           0.014698698   -0.007847189    0.000444008
      3        1          -0.000056513    0.001250628    0.000020816
      4        7          -0.018296806   -0.003334159   -0.000790709
      5        6           0.020076335    0.010501037    0.000991993
      6        6          -0.000758752    0.009396552    0.000139388
      7        6          -0.008213892    0.003823631   -0.000257232
      8        1           0.000396015   -0.001823117   -0.000017480
      9       35          -0.002628077   -0.007215034   -0.000235353
     10        1          -0.001044311    0.000339693   -0.000035148
     11        1          -0.001869846   -0.002430561   -0.000118986
 -------------------------------------------------------------------
 Cartesian Forces:  Max     0.020076335 RMS     0.006505944

 GradGradGradGradGradGradGradGradGradGradGradGradGradGradGradGradGradGrad
 Berny optimization.
 FormGI is forming the generalized inverse of G from B-inverse, IUseBI=4.
 Internal  Forces:  Max     0.013801940 RMS     0.003517058
 Search for a local minimum.
 Step number   1 out of a maximum of   57
 All quantities printed in internal units (Hartrees-Bohrs-Radians)
 Mixed Optimization -- RFO/linear search
 Second derivative matrix not updated -- first step.
 ITU=  0
     Eigenvalues ---    0.02196   0.02212   0.02222   0.02241   0.02257
     Eigenvalues ---    0.02273   0.02281   0.02300   0.16000   0.16000
     Eigenvalues ---    0.16000   0.16000   0.19012   0.22000   0.23181
     Eigenvalues ---    0.23460   0.25000   0.35207   0.35268   0.35274
     Eigenvalues ---    0.35460   0.43383   0.44607   0.47228   0.47887
     Eigenvalues ---    0.52478   0.53798
 RFO step:  Lambda=-1.62554431D-03 EMin= 2.19638727D-02
 Linear search not attempted -- first point.
 Iteration  1 RMS(Cart)=  0.00913110 RMS(Int)=  0.00006795
 Iteration  2 RMS(Cart)=  0.00009682 RMS(Int)=  0.00000421
 Iteration  3 RMS(Cart)=  0.00000000 RMS(Int)=  0.00000421
 Variable       Old X    -DE/DX   Delta X   Delta X   Delta X     New X
                                 (Linear)    (Quad)   (Total)
    R1        2.62110   0.00707   0.00000   0.01460   0.01460   2.63570
    R2        2.63257  -0.00041   0.00000   0.00034   0.00034   2.63291
    R3        2.04935   0.00084   0.00000   0.00235   0.00235   2.05170
    R4        2.05340   0.00106   0.00000   0.00299   0.00299   2.05639
    R5        2.55382  -0.00970   0.00000  -0.01877  -0.01877   2.53505
    R6        2.56059  -0.01380   0.00000  -0.02654  -0.02653   2.53405
    R7        2.62008   0.00730   0.00000   0.01520   0.01520   2.63528
    R8        2.05241   0.00083   0.00000   0.00234   0.00234   2.05475
    R9        2.62753   0.00196   0.00000   0.00542   0.00541   2.63294
   R10        3.56185   0.00765   0.00000   0.03987   0.03987   3.60172
   R11        2.05232  -0.00031   0.00000  -0.00087  -0.00087   2.05145
    A1        2.06660   0.00034   0.00000   0.00502   0.00503   2.07163
    A2        2.10453   0.00056   0.00000   0.00199   0.00199   2.10653
    A3        2.11205  -0.00090   0.00000  -0.00702  -0.00702   2.10503
    A4        2.11220  -0.00056   0.00000  -0.00274  -0.00275   2.10946
    A5        2.16010  -0.00026   0.00000  -0.00305  -0.00304   2.15706
    A6        2.01088   0.00082   0.00000   0.00579   0.00579   2.01667
    A7        2.03465   0.00522   0.00000   0.01493   0.01494   2.04959
    A8        2.15841  -0.00256   0.00000  -0.01296  -0.01296   2.14545
    A9        2.00350   0.00431   0.00000   0.02523   0.02524   2.02873
   A10        2.12128  -0.00175   0.00000  -0.01228  -0.01228   2.10900
   A11        2.06823   0.00288   0.00000   0.01496   0.01495   2.08318
   A12        2.10951  -0.00278   0.00000  -0.01283  -0.01282   2.09669
   A13        2.10544  -0.00009   0.00000  -0.00214  -0.00213   2.10331
   A14        2.07838  -0.00563   0.00000  -0.01891  -0.01892   2.05946
   A15        2.09338   0.00470   0.00000   0.02114   0.02114   2.11453
   A16        2.11142   0.00092   0.00000  -0.00223  -0.00223   2.10919
    D1        3.14158   0.00000   0.00000   0.00001   0.00001   3.14159
    D2       -0.00002   0.00000   0.00000   0.00002   0.00002  -0.00000
    D3        0.00000  -0.00000   0.00000  -0.00001  -0.00001  -0.00001
    D4        3.14159   0.00000   0.00000  -0.00000  -0.00000   3.14159
    D5        0.00001  -0.00000   0.00000  -0.00001  -0.00001  -0.00000
    D6       -3.14158  -0.00000   0.00000  -0.00001  -0.00001   3.14159
    D7        3.14158   0.00000   0.00000   0.00001   0.00001  -3.14159
    D8       -0.00001   0.00000   0.00000   0.00000   0.00000  -0.00000
    D9        0.00002  -0.00000   0.00000  -0.00002  -0.00002   0.00000
   D10       -3.14158  -0.00000   0.00000  -0.00002  -0.00002  -3.14159
   D11       -0.00001   0.00000   0.00000   0.00001   0.00001   0.00000
   D12        3.14159   0.00000   0.00000   0.00001   0.00001  -3.14159
   D13       -0.00001  -0.00000   0.00000  -0.00000  -0.00000  -0.00001
   D14        3.14156   0.00000   0.00000   0.00003   0.00003   3.14159
   D15        3.14158  -0.00000   0.00000  -0.00000  -0.00000   3.14158
   D16       -0.00004   0.00000   0.00000   0.00003   0.00003  -0.00001
   D17        0.00001  -0.00000   0.00000  -0.00000  -0.00000   0.00000
   D18       -3.14159   0.00000   0.00000   0.00001   0.00001  -3.14158
   D19       -3.14156  -0.00000   0.00000  -0.00003  -0.00003  -3.14159
   D20        0.00003  -0.00000   0.00000  -0.00002  -0.00002   0.00000
         Item               Value     Threshold  Converged?
 Maximum Force            0.013802     0.000450     NO 
 RMS     Force            0.003517     0.000300     NO 
 Maximum Displacement     0.024722     0.001800     NO 
 RMS     Displacement     0.009139     0.001200     NO 
 Predicted change in Energy=-8.174282D-04
 GradGradGradGradGradGradGradGradGradGradGradGradGradGradGradGradGradGrad

                          Input orientation:                          
 ---------------------------------------------------------------------
 Center     Atomic      Atomic             Coordinates (Angstroms)
 Number     Number       Type             X           Y           Z
 ---------------------------------------------------------------------
      1          6           0       -0.763830    1.151358    0.010353
      2          6           0        0.629608    1.174490    0.066297
      3          1           0        1.171152    2.117570    0.105036
      4          7           0        1.390419    0.069655    0.076507
      5          6           0        0.761689   -1.113860    0.029918
      6          6           0       -0.626558   -1.232929   -0.027571
      7          6           0       -1.411049   -0.081525   -0.037874
      8          1           0       -2.493801   -0.146054   -0.082187
      9         35           0       -1.437167   -2.956732   -0.091244
     10          1           0       -1.333680    2.075486    0.004468
     11          1           0        1.396876   -1.996319    0.039176
 ---------------------------------------------------------------------
                    Distance matrix (angstroms):
                    1          2          3          4          5
     1  C    0.000000
     2  C    1.394752   0.000000
     3  H    2.164875   1.088196   0.000000
     4  N    2.411482   1.341491   2.059817   0.000000
     5  C    2.731081   2.292447   3.258135   1.340962   0.000000
     6  C    2.388537   2.717063   3.804628   2.403280   1.394530
     7  C    1.393276   2.398479   3.394731   2.807874   2.406471
     8  H    2.164404   3.394343   4.311720   3.893440   3.398151
     9  Br   4.164146   4.622053   5.708800   4.145166   2.871554
    10  H    1.085714   2.161045   2.507203   3.383675   3.816169
    11  H    3.818030   3.262433   4.120603   2.066322   1.087328
                    6          7          8          9         10
     6  C    0.000000
     7  C    1.393292   0.000000
     8  H    2.161221   1.085578   0.000000
     9  Br   1.905948   2.875821   3.002744   0.000000
    10  H    3.383291   2.158813   2.507714   5.034192   0.000000
    11  H    2.163679   3.399532   4.309940   2.995197   4.902727
                   11
    11  H    0.000000
 Stoichiometry    C5H4BrN
 Framework group  C1[X(C5H4BrN)]
 Deg. of freedom    27
 Full point group                 C1      NOp   1
 Largest Abelian subgroup         C1      NOp   1
 Largest concise Abelian subgroup C1      NOp   1
                         Standard orientation:                         
 ---------------------------------------------------------------------
 Center     Atomic      Atomic             Coordinates (Angstroms)
 Number     Number       Type             X           Y           Z
 ---------------------------------------------------------------------
      1          6           0        2.202673    1.161475    0.000000
      2          6           0        2.823745   -0.087366   -0.000002
      3          1           0        3.908703   -0.171247   -0.000006
      4          7           0        2.153654   -1.249509   -0.000001
      5          6           0        0.814003   -1.190205    0.000003
      6          6           0        0.108525    0.012713   -0.000001
      7          6           0        0.810475    1.216263    0.000001
      8          1           0        0.285835    2.166649    0.000007
      9         35           0       -1.797403    0.004107   -0.000001
     10          1           0        2.791816    2.073443    0.000003
     11          1           0        0.290634   -2.143288    0.000011
 ---------------------------------------------------------------------
 Rotational constants (GHZ):           5.8406829           0.9912623           0.8474378
 Standard basis: 6-31G(d) (6D, 7F)
 There are   128 symmetry adapted cartesian basis functions of A   symmetry.
 There are   128 symmetry adapted basis functions of A   symmetry.
   128 basis functions,   267 primitive gaussians,   128 cartesian basis functions
    38 alpha electrons       38 beta electrons
       nuclear repulsion energy       433.4086940070 Hartrees.
 NAtoms=   11 NActive=   11 NUniq=   11 SFac= 1.00D+00 NAtFMM=   60 NAOKFM=F Big=F
 Integral buffers will be    131072 words long.
 Raffenetti 2 integral format.
 Two-electron integral symmetry is turned on.
 One-electron integrals computed using PRISM.
 NBasis=   128 RedAO= T EigKep=  7.53D-04  NBF=   128
 NBsUse=   128 1.00D-06 EigRej= -1.00D+00 NBFU=   128
 Initial guess from the checkpoint file:  "science_arx_141.chk"
 B after Tr=     0.000000    0.000000   -0.000000
         Rot=    1.000000    0.000000   -0.000000    0.000422 Ang=   0.05 deg.
 ExpMin= 1.43D-01 ExpMax= 5.74D+05 ExpMxC= 5.74D+03 IAcc=2 IRadAn=         4 AccDes= 0.00D+00
 Harris functional with IExCor=  402 and IRadAn=       4 diagonalized for initial guess.
 HarFok:  IExCor=  402 AccDes= 0.00D+00 IRadAn=         4 IDoV= 1 UseB2=F ITyADJ=14
 ICtDFT=  3500011 ScaDFX=  1.000000  1.000000  1.000000  1.000000
 FoFCou: FMM=F IPFlag=           0 FMFlag=      100000 FMFlg1=           0
         NFxFlg=           0 DoJE=T BraDBF=F KetDBF=T FulRan=T
         wScrn=  0.000000 ICntrl=       500 IOpCl=  0 I1Cent=   200000004 NGrid=           0
         NMat0=    1 NMatS0=      1 NMatT0=    0 NMatD0=    1 NMtDS0=    0 NMtDT0=    0
 Petite list used in FoFCou.
 Keep R1 ints in memory in canonical form, NReq=35994975.
 Gradient too large for Newton-Raphson -- use scaled steepest descent instead.
     Accept linear search using points  3 and  4.
 Gradient too large for Newton-Raphson -- use scaled steepest descent instead.
     Minimum is close to point  3 DX= -1.58D-02 DF= -1.46D-07 DXR=  8.58D-02 DFR=  7.42D-03 which will be used.
 Gradient too large for Newton-Raphson -- use scaled steepest descent instead.
 Gradient too large for Newton-Raphson -- use scaled steepest descent instead.
     Minimum is close to point  2 DX=  1.79D-02 DF= -8.23D-08 DXR=  8.22D-02 DFR=  6.80D-03 which will be used.
 Gradient too large for Newton-Raphson -- use scaled steepest descent instead.
     Accept linear search using points  1 and  2.
 Gradient too large for Newton-Raphson -- use scaled steepest descent instead.
     Minimum is close to point  4 DX=  7.47D-02 DF= -1.61D-07 DXR=  7.66D-02 DFR=  5.91D-03 which will be used.
 Gradient too large for Newton-Raphson -- use scaled steepest descent instead.
     Minimum is close to point  3 DX=  6.83D-07 DF= -2.27D-12 DXR=  8.01D-06 DFR=  1.65D-07 which will be used.
 LinEq1:  Iter=  0 NonCon=     1 RMS=1.24D-04 Max=2.41D-03 NDo=     1
 AX will form     1 AO Fock derivatives at one time.
 LinEq1:  Iter=  1 NonCon=     1 RMS=4.09D-05 Max=8.08D-04 NDo=     1
 LinEq1:  Iter=  2 NonCon=     1 RMS=2.66D-05 Max=7.94D-04 NDo=     1
 LinEq1:  Iter=  3 NonCon=     1 RMS=1.55D-05 Max=3.87D-04 NDo=     1
 LinEq1:  Iter=  4 NonCon=     1 RMS=7.89D-06 Max=1.56D-04 NDo=     1
 LinEq1:  Iter=  5 NonCon=     1 RMS=5.84D-06 Max=1.43D-04 NDo=     1
 LinEq1:  Iter=  6 NonCon=     1 RMS=3.49D-06 Max=9.03D-05 NDo=     1
 LinEq1:  Iter=  7 NonCon=     1 RMS=2.06D-06 Max=3.19D-05 NDo=     1
 LinEq1:  Iter=  8 NonCon=     1 RMS=1.05D-06 Max=1.88D-05 NDo=     1
 LinEq1:  Iter=  9 NonCon=     1 RMS=3.38D-07 Max=7.63D-06 NDo=     1
 LinEq1:  Iter= 10 NonCon=     1 RMS=2.06D-07 Max=3.97D-06 NDo=     1
 LinEq1:  Iter= 11 NonCon=     1 RMS=6.42D-08 Max=1.01D-06 NDo=     1
 LinEq1:  Iter= 12 NonCon=     1 RMS=3.23D-08 Max=5.19D-07 NDo=     1
 LinEq1:  Iter= 13 NonCon=     1 RMS=1.46D-08 Max=2.46D-07 NDo=     1
 LinEq1:  Iter= 14 NonCon=     0 RMS=4.80D-09 Max=6.81D-08 NDo=     1
 Linear equations converged to 8.270D-09 8.270D-08 after    14 iterations.
     Accept linear search using points  1 and  2.
     Minimum is close to point  2 DX= -2.72D-04 DF= -4.55D-12 DXR=  2.72D-04 DFR=  7.22D-08 which will be used.
 LinEq1:  Iter=  0 NonCon=     1 RMS=3.36D-07 Max=6.99D-06 NDo=     1
 LinEq1:  Iter=  1 NonCon=     1 RMS=2.93D-07 Max=7.92D-06 NDo=     1
 LinEq1:  Iter=  2 NonCon=     1 RMS=1.63D-07 Max=3.23D-06 NDo=     1
 LinEq1:  Iter=  3 NonCon=     1 RMS=7.74D-08 Max=1.64D-06 NDo=     1
 LinEq1:  Iter=  4 NonCon=     1 RMS=3.35D-08 Max=6.51D-07 NDo=     1
 LinEq1:  Iter=  5 NonCon=     1 RMS=2.17D-08 Max=6.04D-07 NDo=     1
 LinEq1:  Iter=  6 NonCon=     1 RMS=1.30D-08 Max=2.69D-07 NDo=     1
 LinEq1:  Iter=  7 NonCon=     1 RMS=7.84D-09 Max=1.10D-07 NDo=     1
 LinEq1:  Iter=  8 NonCon=     1 RMS=1.99D-09 Max=3.18D-08 NDo=     1
 LinEq1:  Iter=  9 NonCon=     1 RMS=1.44D-09 Max=2.73D-08 NDo=     1
 LinEq1:  Iter= 10 NonCon=     1 RMS=5.07D-10 Max=1.13D-08 NDo=     1
 LinEq1:  Iter= 11 NonCon=     0 RMS=1.15D-10 Max=1.44D-09 NDo=     1
 Linear equations converged to 1.715D-10 1.715D-09 after    11 iterations.
 SCF Done:  E(RB3LYP) =  -2819.38854047     a.u. after   10 cycles
            Convg  =    0.1104D-09                    49 Fock formations.
              S**2 =  0.0000                  -V/T =  2.0065
 Calling FoFJK, ICntrl=      2127 FMM=F ISym2X=0 I1Cent= 0 IOpClX= 0 NMat=1 NMatS=1 NMatT=0.
 ***** Axes restored to original set *****
 -------------------------------------------------------------------
 Center     Atomic                   Forces (Hartrees/Bohr)
 Number     Number              X              Y              Z
 -------------------------------------------------------------------
      1        6           0.000300722   -0.000095287    0.000010346
      2        6           0.003403522   -0.001374310    0.000110312
      3        1          -0.000752103    0.000427819   -0.000022102
      4        7          -0.005569374   -0.001005025   -0.000239970
      5        6           0.005063329    0.001620668    0.000231247
      6        6          -0.000526983    0.002778216    0.000029901
      7        6          -0.001381546   -0.000747622   -0.000068556
      8        1           0.000418343   -0.000511709    0.000007117
      9       35           0.000088443   -0.000475685   -0.000005101
     10        1           0.000054914    0.000183835    0.000005489
     11        1          -0.001099268   -0.000800899   -0.000058683
 -------------------------------------------------------------------
 Cartesian Forces:  Max     0.005569374 RMS     0.001630831

 GradGradGradGradGradGradGradGradGradGradGradGradGradGradGradGradGradGrad
 Berny optimization.
 Using GEDIIS/GDIIS optimizer.
 FormGI is forming the generalized inverse of G from B-inverse, IUseBI=4.
 Internal  Forces:  Max     0.003211388 RMS     0.000836237
 Search for a local minimum.
 Step number   2 out of a maximum of   57
 All quantities printed in internal units (Hartrees-Bohrs-Radians)
 Mixed Optimization -- En-DIIS/RFO-DIIS
 Update second derivatives using D2CorX and points    1    2
 DE= -9.80D-04 DEPred=-8.17D-04 R= 1.20D+00
 TightC=F SS=  1.41D+00  RLast= 7.52D-02 DXNew= 5.0454D-01 2.2550D-01
 Trust test= 1.20D+00 RLast= 7.52D-02 DXMaxT set to 3.00D-01
 ITU=  1  0
 Use linear search instead of GDIIS.
     Eigenvalues ---    0.02196   0.02212   0.02222   0.02241   0.02257
     Eigenvalues ---    0.02273   0.02281   0.02301   0.13992   0.16000
     Eigenvalues ---    0.16000   0.16099   0.19486   0.21415   0.22257
     Eigenvalues ---    0.23427   0.24948   0.35214   0.35251   0.35296
     Eigenvalues ---    0.35459   0.43069   0.44542   0.46959   0.48884
     Eigenvalues ---    0.49530   0.53811
 RFO step:  Lambda=-6.87439661D-05 EMin= 2.19618090D-02
 Quartic linear search produced a step of  0.26160.
 Iteration  1 RMS(Cart)=  0.00433020 RMS(Int)=  0.00002165
 Iteration  2 RMS(Cart)=  0.00002733 RMS(Int)=  0.00000301
 Iteration  3 RMS(Cart)=  0.00000000 RMS(Int)=  0.00000301
 Variable       Old X    -DE/DX   Delta X   Delta X   Delta X     New X
                                 (Linear)    (Quad)   (Total)
    R1        2.63570   0.00041   0.00382  -0.00210   0.00172   2.63742
    R2        2.63291   0.00036   0.00009   0.00120   0.00128   2.63419
    R3        2.05170   0.00013   0.00062  -0.00006   0.00055   2.05225
    R4        2.05639  -0.00000   0.00078  -0.00067   0.00011   2.05650
    R5        2.53505  -0.00198  -0.00491  -0.00066  -0.00556   2.52949
    R6        2.53405  -0.00321  -0.00694  -0.00194  -0.00887   2.52518
    R7        2.63528   0.00055   0.00398  -0.00197   0.00201   2.63729
    R8        2.05475   0.00001   0.00061  -0.00049   0.00012   2.05488
    R9        2.63294  -0.00093   0.00142  -0.00341  -0.00200   2.63094
   R10        3.60172   0.00039   0.01043  -0.00619   0.00424   3.60596
   R11        2.05145  -0.00039  -0.00023  -0.00119  -0.00142   2.05003
    A1        2.07163  -0.00015   0.00131  -0.00076   0.00055   2.07218
    A2        2.10653  -0.00007   0.00052  -0.00177  -0.00124   2.10528
    A3        2.10503   0.00022  -0.00184   0.00253   0.00069   2.10572
    A4        2.10946  -0.00065  -0.00072  -0.00501  -0.00573   2.10372
    A5        2.15706  -0.00048  -0.00080  -0.00213  -0.00292   2.15413
    A6        2.01667   0.00113   0.00151   0.00714   0.00866   2.02533
    A7        2.04959   0.00184   0.00391   0.00487   0.00879   2.05838
    A8        2.14545  -0.00133  -0.00339  -0.00514  -0.00852   2.13692
    A9        2.02873   0.00206   0.00660   0.00944   0.01604   2.04478
   A10        2.10900  -0.00073  -0.00321  -0.00431  -0.00752   2.10148
   A11        2.08318   0.00118   0.00391   0.00343   0.00733   2.09051
   A12        2.09669  -0.00110  -0.00335  -0.00311  -0.00646   2.09023
   A13        2.10331  -0.00008  -0.00056  -0.00031  -0.00087   2.10244
   A14        2.05946  -0.00106  -0.00495  -0.00027  -0.00523   2.05424
   A15        2.11453   0.00108   0.00553   0.00189   0.00743   2.12196
   A16        2.10919  -0.00002  -0.00058  -0.00162  -0.00220   2.10699
    D1        3.14159   0.00000   0.00000  -0.00000   0.00000  -3.14159
    D2       -0.00000   0.00000   0.00000  -0.00000   0.00000  -0.00000
    D3       -0.00001   0.00000  -0.00000   0.00001   0.00000  -0.00000
    D4        3.14159   0.00000  -0.00000   0.00000   0.00000   3.14159
    D5       -0.00000   0.00000  -0.00000   0.00000   0.00000   0.00000
    D6        3.14159   0.00000  -0.00000   0.00001   0.00001  -3.14159
    D7       -3.14159  -0.00000   0.00000  -0.00000  -0.00000  -3.14159
    D8       -0.00000   0.00000   0.00000   0.00000   0.00000   0.00000
    D9        0.00000   0.00000  -0.00001   0.00001   0.00000   0.00000
   D10       -3.14159  -0.00000  -0.00000   0.00000  -0.00000  -3.14159
   D11        0.00000  -0.00000   0.00000  -0.00001  -0.00001  -0.00000
   D12       -3.14159  -0.00000   0.00000  -0.00001  -0.00001   3.14159
   D13       -0.00001   0.00000  -0.00000   0.00001   0.00001   0.00000
   D14        3.14159   0.00000   0.00001  -0.00001   0.00000   3.14159
   D15        3.14158   0.00000  -0.00000   0.00001   0.00001  -3.14159
   D16       -0.00001   0.00000   0.00001  -0.00000   0.00001   0.00000
   D17        0.00000  -0.00000  -0.00000  -0.00000  -0.00001  -0.00000
   D18       -3.14158  -0.00000   0.00000  -0.00001  -0.00001   3.14159
   D19       -3.14159   0.00000  -0.00001   0.00001   0.00000  -3.14159
   D20        0.00000  -0.00000  -0.00001   0.00000  -0.00000   0.00000
         Item               Value     Threshold  Converged?
 Maximum Force            0.003211     0.000450     NO 
 RMS     Force            0.000836     0.000300     NO 
 Maximum Displacement     0.013307     0.001800     NO 
 RMS     Displacement     0.004329     0.001200     NO 
 Predicted change in Energy=-7.810831D-05
 GradGradGradGradGradGradGradGradGradGradGradGradGradGradGradGradGradGrad

                          Input orientation:                          
 ---------------------------------------------------------------------
 Center     Atomic      Atomic             Coordinates (Angstroms)
 Number     Number       Type             X           Y           Z
 ---------------------------------------------------------------------
      1          6           0       -0.763170    1.152371    0.010398
      2          6           0        0.631202    1.174033    0.066353
      3          1           0        1.168365    2.119687    0.104967
      4          7           0        1.385948    0.068605    0.076312
      5          6           0        0.765093   -1.113768    0.030056
      6          6           0       -0.624649   -1.227757   -0.027395
      7          6           0       -1.412692   -0.080066   -0.037911
      8          1           0       -2.494297   -0.150847   -0.082299
      9         35           0       -1.431472   -2.955817   -0.090996
     10          1           0       -1.331043    2.078059    0.004616
     11          1           0        1.390373   -2.003361    0.038780
 ---------------------------------------------------------------------
                    Distance matrix (angstroms):
                    1          2          3          4          5
     1  C    0.000000
     2  C    1.395663   0.000000
     3  H    2.162284   1.088254   0.000000
     4  N    2.407822   1.338549   2.062789   0.000000
     5  C    2.733380   2.292004   3.259367   1.336266   0.000000
     6  C    2.384456   2.711927   3.799711   2.394538   1.395592
     7  C    1.393956   2.400237   3.394287   2.804913   2.411620
     8  H    2.168817   3.397962   4.313408   3.889681   3.400510
     9  Br   4.163426   4.618987   5.705987   4.136783   2.869267
    10  H    1.086006   2.161360   2.501768   3.380101   3.818664
    11  H    3.820628   3.266945   4.129551   2.072311   1.087393
                    6          7          8          9         10
     6  C    0.000000
     7  C    1.392235   0.000000
     8  H    2.158318   1.084827   0.000000
     9  Br   1.908192   2.876302   2.999588   0.000000
    10  H    3.380597   2.160087   2.515697   5.035785   0.000000
    11  H    2.160150   3.400311   4.305476   2.981077   4.905635
                   11
    11  H    0.000000
 Stoichiometry    C5H4BrN
 Framework group  C1[X(C5H4BrN)]
 Deg. of freedom    27
 Full point group                 C1      NOp   1
 Largest Abelian subgroup         C1      NOp   1
 Largest concise Abelian subgroup C1      NOp   1
                         Standard orientation:                         
 ---------------------------------------------------------------------
 Center     Atomic      Atomic             Coordinates (Angstroms)
 Number     Number       Type             X           Y           Z
 ---------------------------------------------------------------------
      1          6           0        2.204164    1.159258   -0.000000
      2          6           0        2.822014   -0.092195   -0.000001
      3          1           0        3.907263   -0.173005   -0.000002
      4          7           0        2.146652   -1.247876    0.000000
      5          6           0        0.811523   -1.192745    0.000001
      6          6           0        0.112206    0.014994    0.000002
      7          6           0        0.811483    1.218875    0.000001
      8          1           0        0.283431    2.166509    0.000000
      9         35           0       -1.795958    0.004641   -0.000000
     10          1           0        2.797239    2.069023   -0.000000
     11          1           0        0.275705   -2.138960   -0.000001
 ---------------------------------------------------------------------
 Rotational constants (GHZ):           5.8404231           0.9929584           0.8486717
 Standard basis: 6-31G(d) (6D, 7F)
 There are   128 symmetry adapted cartesian basis functions of A   symmetry.
 There are   128 symmetry adapted basis functions of A   symmetry.
   128 basis functions,   267 primitive gaussians,   128 cartesian basis functions
    38 alpha electrons       38 beta electrons
       nuclear repulsion energy       433.6138898303 Hartrees.
 NAtoms=   11 NActive=   11 NUniq=   11 SFac= 1.00D+00 NAtFMM=   60 NAOKFM=F Big=F
 Integral buffers will be    131072 words long.
 Raffenetti 2 integral format.
 Two-electron integral symmetry is turned on.
 One-electron integrals computed using PRISM.
 NBasis=   128 RedAO= T EigKep=  7.53D-04  NBF=   128
 NBsUse=   128 1.00D-06 EigRej= -1.00D+00 NBFU=   128
 Initial guess from the checkpoint file:  "science_arx_141.chk"
 B after Tr=    -0.000000   -0.000000    0.000000
         Rot=    1.000000    0.000000    0.000000    0.000449 Ang=   0.05 deg.
 Keep R1 ints in memory in canonical form, NReq=35994975.
 Gradient too large for Newton-Raphson -- use scaled steepest descent instead.
     Accept linear search using points  3 and  4.
 LinEq1:  Iter=  0 NonCon=     1 RMS=6.93D-05 Max=1.32D-03 NDo=     1
 AX will form     1 AO Fock derivatives at one time.
 LinEq1:  Iter=  1 NonCon=     1 RMS=4.83D-05 Max=1.18D-03 NDo=     1
 LinEq1:  Iter=  2 NonCon=     1 RMS=1.74D-05 Max=4.49D-04 NDo=     1
 LinEq1:  Iter=  3 NonCon=     1 RMS=1.35D-05 Max=3.82D-04 NDo=     1
 LinEq1:  Iter=  4 NonCon=     1 RMS=6.85D-06 Max=1.99D-04 NDo=     1
 LinEq1:  Iter=  5 NonCon=     1 RMS=4.98D-06 Max=1.50D-04 NDo=     1
 LinEq1:  Iter=  6 NonCon=     1 RMS=2.79D-06 Max=6.10D-05 NDo=     1
 LinEq1:  Iter=  7 NonCon=     1 RMS=1.54D-06 Max=2.32D-05 NDo=     1
 LinEq1:  Iter=  8 NonCon=     1 RMS=6.51D-07 Max=8.66D-06 NDo=     1
 LinEq1:  Iter=  9 NonCon=     1 RMS=2.45D-07 Max=3.74D-06 NDo=     1
 LinEq1:  Iter= 10 NonCon=     1 RMS=1.48D-07 Max=2.80D-06 NDo=     1
 LinEq1:  Iter= 11 NonCon=     1 RMS=3.65D-08 Max=5.80D-07 NDo=     1
 LinEq1:  Iter= 12 NonCon=     1 RMS=1.47D-08 Max=3.57D-07 NDo=     1
 LinEq1:  Iter= 13 NonCon=     1 RMS=7.72D-09 Max=1.25D-07 NDo=     1
 LinEq1:  Iter= 14 NonCon=     0 RMS=1.92D-09 Max=2.43D-08 NDo=     1
 Linear equations converged to 8.270D-09 8.270D-08 after    14 iterations.
     Accept linear search using points  1 and  2.
     Minimum is close to point  2 DX= -4.97D-04 DF= -5.46D-12 DXR=  4.97D-04 DFR=  2.54D-07 which will be used.
 LinEq1:  Iter=  0 NonCon=     1 RMS=1.19D-07 Max=3.01D-06 NDo=     1
 LinEq1:  Iter=  1 NonCon=     1 RMS=1.13D-07 Max=3.11D-06 NDo=     1
 LinEq1:  Iter=  2 NonCon=     1 RMS=5.27D-08 Max=1.31D-06 NDo=     1
 LinEq1:  Iter=  3 NonCon=     1 RMS=2.23D-08 Max=3.77D-07 NDo=     1
 LinEq1:  Iter=  4 NonCon=     1 RMS=6.84D-09 Max=1.62D-07 NDo=     1
 LinEq1:  Iter=  5 NonCon=     1 RMS=4.65D-09 Max=1.29D-07 NDo=     1
 LinEq1:  Iter=  6 NonCon=     1 RMS=3.13D-09 Max=5.50D-08 NDo=     1
 LinEq1:  Iter=  7 NonCon=     1 RMS=1.56D-09 Max=2.46D-08 NDo=     1
 LinEq1:  Iter=  8 NonCon=     1 RMS=6.09D-10 Max=1.36D-08 NDo=     1
 LinEq1:  Iter=  9 NonCon=     1 RMS=3.09D-10 Max=6.12D-09 NDo=     1
 LinEq1:  Iter= 10 NonCon=     1 RMS=1.76D-10 Max=3.23D-09 NDo=     1
 LinEq1:  Iter= 11 NonCon=     1 RMS=3.89D-11 Max=6.85D-10 NDo=     1
 LinEq1:  Iter= 12 NonCon=     1 RMS=2.79D-11 Max=6.71D-10 NDo=     1
 LinEq1:  Iter= 13 NonCon=     0 RMS=5.89D-12 Max=6.64D-11 NDo=     1
 Linear equations converged to 5.691D-11 5.691D-10 after    13 iterations.
 SCF Done:  E(RB3LYP) =  -2819.38861614     a.u. after    4 cycles
            Convg  =    0.4517D-10                    34 Fock formations.
              S**2 =  0.0000                  -V/T =  2.0065
 Calling FoFJK, ICntrl=      2127 FMM=F ISym2X=0 I1Cent= 0 IOpClX= 0 NMat=1 NMatS=1 NMatT=0.
 ***** Axes restored to original set *****
 -------------------------------------------------------------------
 Center     Atomic                   Forces (Hartrees/Bohr)
 Number     Number              X              Y              Z
 -------------------------------------------------------------------
      1        6          -0.000014117    0.000250136    0.000004028
      2        6          -0.000162284   -0.000113310   -0.000008345
      3        1          -0.000037224   -0.000029104   -0.000002016
      4        7           0.000370652   -0.000056915    0.000013594
      5        6           0.000234697    0.000259085    0.000014001
      6        6          -0.000627506    0.000120134   -0.000023000
      7        6           0.000256789   -0.000400120    0.000002943
      8        1          -0.000031306    0.000020554   -0.000000824
      9       35          -0.000046449   -0.000134356   -0.000004238
     10        1           0.000065933    0.000022440    0.000002981
     11        1          -0.000009184    0.000061456    0.000000876
 -------------------------------------------------------------------
 Cartesian Forces:  Max     0.000627506 RMS     0.000176892

 GradGradGradGradGradGradGradGradGradGradGradGradGradGradGradGradGradGrad
 Berny optimization.
 Using GEDIIS/GDIIS optimizer.
 FormGI is forming the generalized inverse of G from B-inverse, IUseBI=4.
 Internal  Forces:  Max     0.000435363 RMS     0.000107344
 Search for a local minimum.
 Step number   3 out of a maximum of   57
 All quantities printed in internal units (Hartrees-Bohrs-Radians)
 Mixed Optimization -- En-DIIS/RFO-DIIS
 Swapping is turned off.
 Update second derivatives using D2CorX and points    1    2    3
 DE= -7.57D-05 DEPred=-7.81D-05 R= 9.69D-01
 TightC=F SS=  1.41D+00  RLast= 3.01D-02 DXNew= 5.0454D-01 9.0445D-02
 Trust test= 9.69D-01 RLast= 3.01D-02 DXMaxT set to 3.00D-01
 ITU=  1  1  0
     Eigenvalues ---    0.02196   0.02212   0.02222   0.02241   0.02257
     Eigenvalues ---    0.02274   0.02281   0.02301   0.13918   0.16000
     Eigenvalues ---    0.16005   0.16094   0.19414   0.21969   0.22665
     Eigenvalues ---    0.23610   0.24924   0.35221   0.35264   0.35289
     Eigenvalues ---    0.35461   0.43006   0.44300   0.45896   0.49022
     Eigenvalues ---    0.49962   0.53836
 En-DIIS/RFO-DIIS/Sim-DIIS IScMMF=       -3 using points:     3    2
 RFO step:  Lambda=-1.59574554D-06.
 DidBck=F Rises=F RFO-DIIS coefs:    0.97279    0.02721
 Iteration  1 RMS(Cart)=  0.00038531 RMS(Int)=  0.00000010
 Iteration  2 RMS(Cart)=  0.00000011 RMS(Int)=  0.00000006
 Variable       Old X    -DE/DX   Delta X   Delta X   Delta X     New X
                                 (Linear)    (Quad)   (Total)
    R1        2.63742  -0.00002  -0.00005  -0.00003  -0.00007   2.63735
    R2        2.63419   0.00019  -0.00003   0.00042   0.00038   2.63458
    R3        2.05225  -0.00002  -0.00002  -0.00003  -0.00004   2.05221
    R4        2.05650  -0.00004  -0.00000  -0.00012  -0.00012   2.05638
    R5        2.52949   0.00005   0.00015  -0.00007   0.00008   2.52957
    R6        2.52518  -0.00002   0.00024  -0.00027  -0.00002   2.52515
    R7        2.63729   0.00044  -0.00005   0.00093   0.00087   2.63816
    R8        2.05488  -0.00006  -0.00000  -0.00015  -0.00016   2.05472
    R9        2.63094  -0.00030   0.00005  -0.00068  -0.00062   2.63032
   R10        3.60596   0.00014  -0.00012   0.00079   0.00067   3.60664
   R11        2.05003   0.00003   0.00004   0.00004   0.00008   2.05010
    A1        2.07218  -0.00001  -0.00001  -0.00011  -0.00012   2.07205
    A2        2.10528  -0.00006   0.00003  -0.00040  -0.00037   2.10492
    A3        2.10572   0.00007  -0.00002   0.00051   0.00049   2.10622
    A4        2.10372  -0.00010   0.00016  -0.00061  -0.00045   2.10327
    A5        2.15413   0.00015   0.00008   0.00054   0.00062   2.15475
    A6        2.02533  -0.00006  -0.00024   0.00007  -0.00016   2.02517
    A7        2.05838  -0.00025  -0.00024  -0.00075  -0.00099   2.05740
    A8        2.13692   0.00020   0.00023   0.00061   0.00084   2.13777
    A9        2.04478  -0.00013  -0.00044  -0.00014  -0.00058   2.04420
   A10        2.10148  -0.00007   0.00020  -0.00047  -0.00027   2.10121
   A11        2.09051  -0.00013  -0.00020  -0.00031  -0.00051   2.09000
   A12        2.09023   0.00004   0.00018  -0.00004   0.00014   2.09037
   A13        2.10244   0.00009   0.00002   0.00035   0.00037   2.10281
   A14        2.05424   0.00005   0.00014   0.00002   0.00016   2.05440
   A15        2.12196  -0.00004  -0.00020  -0.00001  -0.00021   2.12174
   A16        2.10699  -0.00000   0.00006  -0.00001   0.00005   2.10704
    D1        3.14159  -0.00000  -0.00000  -0.00000  -0.00000   3.14159
    D2       -0.00000   0.00000  -0.00000   0.00000   0.00000   0.00000
    D3       -0.00000  -0.00000  -0.00000   0.00000  -0.00000  -0.00000
    D4        3.14159   0.00000  -0.00000   0.00000   0.00000  -3.14159
    D5        0.00000  -0.00000  -0.00000  -0.00000  -0.00000  -0.00000
    D6       -3.14159  -0.00000  -0.00000  -0.00000  -0.00000   3.14159
    D7       -3.14159  -0.00000   0.00000  -0.00000  -0.00000   3.14159
    D8        0.00000  -0.00000  -0.00000  -0.00000  -0.00000  -0.00000
    D9        0.00000  -0.00000  -0.00000  -0.00000  -0.00000  -0.00000
   D10       -3.14159  -0.00000   0.00000  -0.00000  -0.00000  -3.14159
   D11       -0.00000   0.00000   0.00000   0.00000   0.00000   0.00000
   D12        3.14159   0.00000   0.00000   0.00000   0.00000  -3.14159
   D13        0.00000  -0.00000  -0.00000  -0.00000  -0.00000   0.00000
   D14        3.14159   0.00000  -0.00000   0.00000   0.00000  -3.14159
   D15       -3.14159  -0.00000  -0.00000  -0.00000  -0.00000   3.14159
   D16        0.00000  -0.00000  -0.00000  -0.00000  -0.00000  -0.00000
   D17       -0.00000   0.00000   0.00000   0.00000   0.00000  -0.00000
   D18        3.14159   0.00000   0.00000   0.00000   0.00000  -3.14159
   D19       -3.14159  -0.00000  -0.00000  -0.00000  -0.00000   3.14159
   D20        0.00000  -0.00000   0.00000  -0.00000  -0.00000  -0.00000
         Item               Value     Threshold  Converged?
 Maximum Force            0.000435     0.000450     YES
 RMS     Force            0.000107     0.000300     YES
 Maximum Displacement     0.001090     0.001800     YES
 RMS     Displacement     0.000385     0.001200     YES
 Predicted change in Energy=-7.978763D-07
 Optimization completed.
    -- Stationary point found.
                           ----------------------------
                           !   Optimized Parameters   !
                           ! (Angstroms and Degrees)  !
 --------------------------                            --------------------------
 ! Name  Definition              Value          Derivative Info.                !
 --------------------------------------------------------------------------------
 ! R1    R(1,2)                  1.3957         -DE/DX =    0.0                 !
 ! R2    R(1,7)                  1.394          -DE/DX =    0.0002              !
 ! R3    R(1,10)                 1.086          -DE/DX =    0.0                 !
 ! R4    R(2,3)                  1.0883         -DE/DX =    0.0                 !
 ! R5    R(2,4)                  1.3385         -DE/DX =    0.0                 !
 ! R6    R(4,5)                  1.3363         -DE/DX =    0.0                 !
 ! R7    R(5,6)                  1.3956         -DE/DX =    0.0004              !
 ! R8    R(5,11)                 1.0874         -DE/DX =   -0.0001              !
 ! R9    R(6,7)                  1.3922         -DE/DX =   -0.0003              !
 ! R10   R(6,9)                  1.9082         -DE/DX =    0.0001              !
 ! R11   R(7,8)                  1.0848         -DE/DX =    0.0                 !
 ! A1    A(2,1,7)              118.727          -DE/DX =    0.0                 !
 ! A2    A(2,1,10)             120.6239         -DE/DX =   -0.0001              !
 ! A3    A(7,1,10)             120.6491         -DE/DX =    0.0001              !
 ! A4    A(1,2,3)              120.5343         -DE/DX =   -0.0001              !
 ! A5    A(1,2,4)              123.4228         -DE/DX =    0.0002              !
 ! A6    A(3,2,4)              116.0428         -DE/DX =   -0.0001              !
 ! A7    A(2,4,5)              117.9368         -DE/DX =   -0.0003              !
 ! A8    A(4,5,6)              122.4367         -DE/DX =    0.0002              !
 ! A9    A(4,5,11)             117.1572         -DE/DX =   -0.0001              !
 ! A10   A(6,5,11)             120.4061         -DE/DX =   -0.0001              !
 ! A11   A(5,6,7)              119.7776         -DE/DX =   -0.0001              !
 ! A12   A(5,6,9)              119.7613         -DE/DX =    0.0                 !
 ! A13   A(7,6,9)              120.4611         -DE/DX =    0.0001              !
 ! A14   A(1,7,6)              117.6991         -DE/DX =    0.0                 !
 ! A15   A(1,7,8)              121.5791         -DE/DX =    0.0                 !
 ! A16   A(6,7,8)              120.7218         -DE/DX =    0.0                 !
 ! D1    D(7,1,2,3)            180.0            -DE/DX =    0.0                 !
 ! D2    D(7,1,2,4)              0.0            -DE/DX =    0.0                 !
 ! D3    D(10,1,2,3)             0.0            -DE/DX =    0.0                 !
 ! D4    D(10,1,2,4)          -180.0001         -DE/DX =    0.0                 !
 ! D5    D(2,1,7,6)              0.0            -DE/DX =    0.0                 !
 ! D6    D(2,1,7,8)            180.0001         -DE/DX =    0.0                 !
 ! D7    D(10,1,7,6)           180.0            -DE/DX =    0.0                 !
 ! D8    D(10,1,7,8)             0.0001         -DE/DX =    0.0                 !
 ! D9    D(1,2,4,5)              0.0001         -DE/DX =    0.0                 !
 ! D10   D(3,2,4,5)           -180.0            -DE/DX =    0.0                 !
 ! D11   D(2,4,5,6)             -0.0001         -DE/DX =    0.0                 !
 ! D12   D(2,4,5,11)          -180.0002         -DE/DX =    0.0                 !
 ! D13   D(4,5,6,7)              0.0            -DE/DX =    0.0                 !
 ! D14   D(4,5,6,9)           -180.0001         -DE/DX =    0.0                 !
 ! D15   D(11,5,6,7)           180.0002         -DE/DX =    0.0                 !
 ! D16   D(11,5,6,9)             0.0            -DE/DX =    0.0                 !
 ! D17   D(5,6,7,1)              0.0            -DE/DX =    0.0                 !
 ! D18   D(5,6,7,8)           -180.0001         -DE/DX =    0.0                 !
 ! D19   D(9,6,7,1)            180.0001         -DE/DX =    0.0                 !
 ! D20   D(9,6,7,8)              0.0001         -DE/DX =    0.0                 !
 --------------------------------------------------------------------------------
 GradGradGradGradGradGradGradGradGradGradGradGradGradGradGradGradGradGrad

                          Input orientation:                          
 ---------------------------------------------------------------------
 Center     Atomic      Atomic             Coordinates (Angstroms)
 Number     Number       Type             X           Y           Z
 ---------------------------------------------------------------------
      1          6           0       -0.763170    1.152371    0.010398
      2          6           0        0.631202    1.174033    0.066353
      3          1           0        1.168365    2.119687    0.104967
      4          7           0        1.385948    0.068605    0.076312
      5          6           0        0.765093   -1.113768    0.030056
      6          6           0       -0.624649   -1.227757   -0.027395
      7          6           0       -1.412692   -0.080066   -0.037911
      8          1           0       -2.494297   -0.150847   -0.082299
      9         35           0       -1.431472   -2.955817   -0.090996
     10          1           0       -1.331043    2.078059    0.004616
     11          1           0        1.390373   -2.003361    0.038780
 ---------------------------------------------------------------------
                    Distance matrix (angstroms):
                    1          2          3          4          5
     1  C    0.000000
     2  C    1.395663   0.000000
     3  H    2.162284   1.088254   0.000000
     4  N    2.407822   1.338549   2.062789   0.000000
     5  C    2.733380   2.292004   3.259367   1.336266   0.000000
     6  C    2.384456   2.711927   3.799711   2.394538   1.395592
     7  C    1.393956   2.400237   3.394287   2.804913   2.411620
     8  H    2.168817   3.397962   4.313408   3.889681   3.400510
     9  Br   4.163426   4.618987   5.705987   4.136783   2.869267
    10  H    1.086006   2.161360   2.501768   3.380101   3.818664
    11  H    3.820628   3.266945   4.129551   2.072311   1.087393
                    6          7          8          9         10
     6  C    0.000000
     7  C    1.392235   0.000000
     8  H    2.158318   1.084827   0.000000
     9  Br   1.908192   2.876302   2.999588   0.000000
    10  H    3.380597   2.160087   2.515697   5.035785   0.000000
    11  H    2.160150   3.400311   4.305476   2.981077   4.905635
                   11
    11  H    0.000000
 Stoichiometry    C5H4BrN
 Framework group  C1[X(C5H4BrN)]
 Deg. of freedom    27
 Full point group                 C1      NOp   1
 Largest Abelian subgroup         C1      NOp   1
 Largest concise Abelian subgroup C1      NOp   1
                         Standard orientation:                         
 ---------------------------------------------------------------------
 Center     Atomic      Atomic             Coordinates (Angstroms)
 Number     Number       Type             X           Y           Z
 ---------------------------------------------------------------------
      1          6           0        2.204164    1.159258   -0.000000
      2          6           0        2.822014   -0.092195   -0.000001
      3          1           0        3.907263   -0.173005   -0.000002
      4          7           0        2.146652   -1.247876    0.000000
      5          6           0        0.811523   -1.192745    0.000001
      6          6           0        0.112206    0.014994    0.000002
      7          6           0        0.811483    1.218875    0.000001
      8          1           0        0.283431    2.166509    0.000000
      9         35           0       -1.795958    0.004641   -0.000000
     10          1           0        2.797239    2.069023   -0.000000
     11          1           0        0.275705   -2.138960   -0.000001
 ---------------------------------------------------------------------
 Rotational constants (GHZ):           5.8404231           0.9929584           0.8486717

 **********************************************************************

            Population analysis using the SCF density.

 **********************************************************************

 Orbital symmetries:
       Occupied  (A) (A) (A) (A) (A) (A) (A) (A) (A) (A) (A) (A)
                 (A) (A) (A) (A) (A) (A) (A) (A) (A) (A) (A) (A)
                 (A) (A) (A) (A) (A) (A) (A) (A) (A) (A) (A) (A)
                 (A) (A)
       Virtual   (A) (A) (A) (A) (A) (A) (A) (A) (A) (A) (A) (A)
                 (A) (A) (A) (A) (A) (A) (A) (A) (A) (A) (A) (A)
                 (A) (A) (A) (A) (A) (A) (A) (A) (A) (A) (A) (A)
                 (A) (A) (A) (A) (A) (A) (A) (A) (A) (A) (A) (A)
                 (A) (A) (A) (A) (A) (A) (A) (A) (A) (A) (A) (A)
                 (A) (A) (A) (A) (A) (A) (A) (A) (A) (A) (A) (A)
                 (A) (A) (A) (A) (A) (A) (A) (A) (A) (A) (A) (A)
                 (A) (A) (A) (A) (A) (A)
 The electronic state is 1-A.
 Alpha  occ. eigenvalues -- -482.91996 -61.88178 -56.40313 -56.39897 -56.39890
 Alpha  occ. eigenvalues --  -14.34515 -10.25884 -10.23910 -10.23510 -10.22642
 Alpha  occ. eigenvalues --  -10.21568  -8.59328  -6.54735  -6.53444  -6.53418
 Alpha  occ. eigenvalues --   -2.66305  -2.65936  -2.65917  -2.64886  -2.64886
 Alpha  occ. eigenvalues --   -0.95603  -0.84203  -0.79749  -0.74314  -0.64765
 Alpha  occ. eigenvalues --   -0.62770  -0.53640  -0.50050  -0.47069  -0.43108
 Alpha  occ. eigenvalues --   -0.42231  -0.41641  -0.37789  -0.33355  -0.29857
 Alpha  occ. eigenvalues --   -0.29419  -0.26599  -0.25585
 Alpha virt. eigenvalues --   -0.03787  -0.02507  -0.00076   0.10385   0.12913
 Alpha virt. eigenvalues --    0.14708   0.14935   0.16778   0.21320   0.23954
 Alpha virt. eigenvalues --    0.29088   0.29688   0.31612   0.39595   0.41916
 Alpha virt. eigenvalues --    0.45487   0.45615   0.46467   0.46840   0.47693
 Alpha virt. eigenvalues --    0.47819   0.52637   0.54464   0.56367   0.56762
 Alpha virt. eigenvalues --    0.58240   0.59006   0.61613   0.62435   0.66077
 Alpha virt. eigenvalues --    0.66371   0.73273   0.74648   0.77784   0.80986
 Alpha virt. eigenvalues --    0.81743   0.85729   0.85742   0.86910   0.87251
 Alpha virt. eigenvalues --    0.90652   0.96667   0.99503   1.06340   1.07334
 Alpha virt. eigenvalues --    1.16645   1.19853   1.23104   1.23383   1.35407
 Alpha virt. eigenvalues --    1.38781   1.43940   1.45585   1.48677   1.50237
 Alpha virt. eigenvalues --    1.54138   1.56511   1.69904   1.77675   1.81071
 Alpha virt. eigenvalues --    1.82705   1.88006   1.94180   2.03491   2.11215
 Alpha virt. eigenvalues --    2.11376   2.15928   2.16450   2.19281   2.27351
 Alpha virt. eigenvalues --    2.30005   2.36448   2.49479   2.53267   2.64299
 Alpha virt. eigenvalues --    2.65486   2.67496   2.67950   2.74832   2.77243
 Alpha virt. eigenvalues --    3.03153   3.33637   4.02465   4.07255   4.10832
 Alpha virt. eigenvalues --    4.21115   4.29974   4.56388   8.59654  72.77572
          Condensed to atoms (all electrons):
               1          2          3          4          5          6
     1  C    4.953312   0.502183  -0.062823  -0.025013  -0.039520  -0.019331
     2  C    0.502183   4.779002   0.378683   0.466664  -0.075242  -0.036639
     3  H   -0.062823   0.378683   0.577585  -0.052478   0.005294   0.000489
     4  N   -0.025013   0.466664  -0.052478   6.669564   0.449657  -0.016626
     5  C   -0.039520  -0.075242   0.005294   0.449657   4.874501   0.464654
     6  C   -0.019331  -0.036639   0.000489  -0.016626   0.464654   4.879176
     7  C    0.512999  -0.032961   0.003563  -0.049060  -0.044068   0.520145
     8  H   -0.041888   0.004379  -0.000155  -0.000259   0.005003  -0.043650
     9  Br   0.005698   0.000281   0.000014   0.004311  -0.048632   0.248007
    10  H    0.351046  -0.033899  -0.001652   0.004767   0.000377   0.005055
    11  H    0.000103   0.004946  -0.000147  -0.050189   0.379039  -0.066486
               7          8          9         10         11
     1  C    0.512999  -0.041888   0.005698   0.351046   0.000103
     2  C   -0.032961   0.004379   0.000281  -0.033899   0.004946
     3  H    0.003563  -0.000155   0.000014  -0.001652  -0.000147
     4  N   -0.049060  -0.000259   0.004311   0.004767  -0.050189
     5  C   -0.044068   0.005003  -0.048632   0.000377   0.379039
     6  C    0.520145  -0.043650   0.248007   0.005055  -0.066486
     7  C    4.942000   0.364019  -0.061948  -0.041622   0.004045
     8  H    0.364019   0.552969  -0.002722  -0.005687  -0.000151
     9  Br  -0.061948  -0.002722  34.969485  -0.000097   0.002155
    10  H   -0.041622  -0.005687  -0.000097   0.572299   0.000025
    11  H    0.004045  -0.000151   0.002155   0.000025   0.560796
 Mulliken charges:
               1
     1  C   -0.136767
     2  C    0.042603
     3  H    0.151626
     4  N   -0.401337
     5  C    0.028938
     6  C    0.065206
     7  C   -0.117112
     8  H    0.168142
     9  Br  -0.116551
    10  H    0.149388
    11  H    0.165864
 Sum of Mulliken charges =  -0.00000
 Mulliken charges with hydrogens summed into heavy atoms:
               1
     1  C    0.012621
     2  C    0.194229
     4  N   -0.401337
     5  C    0.194802
     6  C    0.065206
     7  C    0.051031
     9  Br  -0.116551
 Electronic spatial extent (au):  <R**2>=           1198.3373
 Charge=             -0.0000 electrons
 Dipole moment (field-independent basis, Debye):
    X=              0.6101    Y=              1.9380    Z=             -0.0000  Tot=              2.0317
 Quadrupole moment (field-independent basis, Debye-Ang):
   XX=            -50.0385   YY=            -50.5277   ZZ=            -54.1743
   XY=              5.6719   XZ=             -0.0000   YZ=              0.0000
 Traceless Quadrupole moment (field-independent basis, Debye-Ang):
   XX=              1.5417   YY=              1.0525   ZZ=             -2.5941
   XY=              5.6719   XZ=             -0.0000   YZ=              0.0000
 Octapole moment (field-independent basis, Debye-Ang**2):
  XXX=            -46.8584  YYY=              8.6866  ZZZ=             -0.0000  XYY=            -22.5623
  XXY=             14.6222  XXZ=             -0.0000  XZZ=            -20.7742  YZZ=             -1.1024
  YYZ=             -0.0000  XYZ=             -0.0000
 Hexadecapole moment (field-independent basis, Debye-Ang**3):
 XXXX=           -973.5926 YYYY=           -275.8821 ZZZZ=            -56.2591 XXXY=             35.8010
 XXXZ=             -0.0000 YYYX=             24.9006 YYYZ=              0.0000 ZZZX=              0.0000
 ZZZY=              0.0000 XXYY=           -243.1366 XXZZ=           -198.4186 YYZZ=            -60.9942
 XXYZ=              0.0000 YYXZ=              0.0000 ZZXY=             -2.1310
 N-N= 4.336138898303D+02 E-N=-7.574833393435D+03  KE= 2.801310887437D+03
 1\1\GINC-DELLA-R4C3N5\FOpt\RB3LYP\6-31G(d)\C5H4Br1N1\BJS4\27-Aug-2018\
 0\\# opt b3lyp/6-31G* scf=qc\\Title Card Required\\0,1\C,-0.7631704369
 ,1.152371228,0.0103979098\C,0.6312018761,1.1740333064,0.0663534376\H,1
 .1683654917,2.1196868186,0.104966607\N,1.3859483269,0.0686052727,0.076
 3121612\C,0.765093494,-1.1137683297,0.0300557231\C,-0.6246485662,-1.22
 77572121,-0.0273954257\C,-1.4126919071,-0.0800657705,-0.0379112143\H,-
 2.4942966409,-0.1508466893,-0.0822991348\Br,-1.4314716766,-2.955816603
 8,-0.0909959689\H,-1.3310425034,2.0780586338,0.0046159837\H,1.39037254
 24,-2.0033606541,0.0387799212\\Version=ES64L-G16RevA.03\State=1-A\HF=-
 2819.3886161\RMSD=5.461e-13\RMSF=1.769e-04\Dipole=-0.5858594,0.5436427
 ,-0.0134521\Quadrupole=-2.4128422,4.3438597,-1.9310174,-2.5280179,-0.0
 65302,0.0134166\PG=C01 [X(C5H4Br1N1)]\\@


 ALL MY ATTEMPTS TO ADAPT THE THEORETICAL FOUNDATIONS OF PHYSICS
 TO THESE NEW NOTIONS FAILED COMPLETELY. IT WAS AS IF THE GROUND HAD
 BEEN PULLED OUT FROM UNDER ONE WITH NO FIRM FOUNDATION TO BE SEEN ANYWHERE,
 UPON WHICH ONE COULD HAVE BUILT.  -- A.EINSTEIN
 Job cpu time:       0 days  0 hours  4 minutes 37.8 seconds.
 Elapsed time:       0 days  0 hours  2 minutes 21.4 seconds.
 File lengths (MBytes):  RWF=      8 Int=      0 D2E=      0 Chk=      3 Scr=      1
 Normal termination of Gaussian 16 at Mon Aug 27 09:46:58 2018.
 Initial command:
 /opt/export/g16/l1.exe "/scratch/bjs4/job.111268/Gau-111273.inp" -scrdir="/scratch/bjs4/job.111268/"
 Entering Link 1 = /opt/export/g16/l1.exe PID=    111479.
  
 Copyright (c) 1988,1990,1992,1993,1995,1998,2003,2009,2016,
            Gaussian, Inc.  All Rights Reserved.
  
 This is part of the Gaussian(R) 16 program.  It is based on
 the Gaussian(R) 09 system (copyright 2009, Gaussian, Inc.),
 the Gaussian(R) 03 system (copyright 2003, Gaussian, Inc.),
 the Gaussian(R) 98 system (copyright 1998, Gaussian, Inc.),
 the Gaussian(R) 94 system (copyright 1995, Gaussian, Inc.),
 the Gaussian 92(TM) system (copyright 1992, Gaussian, Inc.),
 the Gaussian 90(TM) system (copyright 1990, Gaussian, Inc.),
 the Gaussian 88(TM) system (copyright 1988, Gaussian, Inc.),
 the Gaussian 86(TM) system (copyright 1986, Carnegie Mellon
 University), and the Gaussian 82(TM) system (copyright 1983,
 Carnegie Mellon University). Gaussian is a federally registered
 trademark of Gaussian, Inc.
  
 This software contains proprietary and confidential information,
 including trade secrets, belonging to Gaussian, Inc.
  
 This software is provided under written license and may be
 used, copied, transmitted, or stored only in accord with that
 written license.
  
 The following legend is applicable only to US Government
 contracts under FAR:
  
                    RESTRICTED RIGHTS LEGEND
  
 Use, reproduction and disclosure by the US Government is
 subject to restrictions as set forth in subparagraphs (a)
 and (c) of the Commercial Computer Software - Restricted
 Rights clause in FAR 52.227-19.
  
 Gaussian, Inc.
 340 Quinnipiac St., Bldg. 40, Wallingford CT 06492
  
  
 ---------------------------------------------------------------
 Warning -- This program may not be used in any manner that
 competes with the business of Gaussian, Inc. or will provide
 assistance to any competitor of Gaussian, Inc.  The licensee
 of this program is prohibited from giving any competitor of
 Gaussian, Inc. access to this program.  By using this program,
 the user acknowledges that Gaussian, Inc. is engaged in the
 business of creating and licensing software in the field of
 computational chemistry and represents and warrants to the
 licensee that it is not a competitor of Gaussian, Inc. and that
 it will not use this program in any manner prohibited above.
 ---------------------------------------------------------------
  

 Cite this work as:
 Gaussian 16, Revision A.03,
 M. J. Frisch, G. W. Trucks, H. B. Schlegel, G. E. Scuseria, 
 M. A. Robb, J. R. Cheeseman, G. Scalmani, V. Barone, 
 G. A. Petersson, H. Nakatsuji, X. Li, M. Caricato, A. V. Marenich, 
 J. Bloino, B. G. Janesko, R. Gomperts, B. Mennucci, H. P. Hratchian, 
 J. V. Ortiz, A. F. Izmaylov, J. L. Sonnenberg, D. Williams-Young, 
 F. Ding, F. Lipparini, F. Egidi, J. Goings, B. Peng, A. Petrone, 
 T. Henderson, D. Ranasinghe, V. G. Zakrzewski, J. Gao, N. Rega, 
 G. Zheng, W. Liang, M. Hada, M. Ehara, K. Toyota, R. Fukuda, 
 J. Hasegawa, M. Ishida, T. Nakajima, Y. Honda, O. Kitao, H. Nakai, 
[...]
          There are     1 degrees of freedom in the 1st order CPHF.  IDoFFX=0 NUNeed=     1.
 LinEq1:  Iter=  0 NonCon=     1 RMS=2.53D-02 Max=8.94D-01 NDo=     1
 AX will form     1 AO Fock derivatives at one time.
 LinEq1:  Iter=  1 NonCon=     1 RMS=6.58D-03 Max=1.37D-01 NDo=     1
 LinEq1:  Iter=  2 NonCon=     1 RMS=4.38D-03 Max=9.54D-02 NDo=     1
 LinEq1:  Iter=  3 NonCon=     1 RMS=2.29D-03 Max=4.38D-02 NDo=     1
 LinEq1:  Iter=  4 NonCon=     1 RMS=2.02D-03 Max=4.98D-02 NDo=     1
 LinEq1:  Iter=  5 NonCon=     1 RMS=6.06D-04 Max=1.10D-02 NDo=     1
 LinEq1:  Iter=  6 NonCon=     1 RMS=3.93D-04 Max=6.82D-03 NDo=     1
 LinEq1:  Iter=  7 NonCon=     1 RMS=1.23D-04 Max=2.19D-03 NDo=     1
 LinEq1:  Iter=  8 NonCon=     1 RMS=7.81D-05 Max=2.00D-03 NDo=     1
 LinEq1:  Iter=  9 NonCon=     1 RMS=3.24D-05 Max=4.86D-04 NDo=     1
 LinEq1:  Iter= 10 NonCon=     1 RMS=1.28D-05 Max=2.23D-04 NDo=     1
 LinEq1:  Iter= 11 NonCon=     1 RMS=7.00D-06 Max=1.54D-04 NDo=     1
 LinEq1:  Iter= 12 NonCon=     1 RMS=2.65D-06 Max=3.95D-05 NDo=     1
 LinEq1:  Iter= 13 NonCon=     1 RMS=5.55D-07 Max=1.12D-05 NDo=     1
 LinEq1:  Iter= 14 NonCon=     1 RMS=1.32D-07 Max=1.95D-06 NDo=     1
 LinEq1:  Iter= 15 NonCon=     1 RMS=3.81D-08 Max=4.88D-07 NDo=     1
 LinEq1:  Iter= 16 NonCon=     1 RMS=1.04D-08 Max=1.60D-07 NDo=     1
 LinEq1:  Iter= 17 NonCon=     1 RMS=1.94D-09 Max=2.17D-08 NDo=     1
 LinEq1:  Iter= 18 NonCon=     1 RMS=4.94D-10 Max=7.43D-09 NDo=     1
 LinEq1:  Iter= 19 NonCon=     1 RMS=1.25D-10 Max=1.41D-09 NDo=     1
 LinEq1:  Iter= 20 NonCon=     0 RMS=2.50D-11 Max=3.95D-10 NDo=     1
 Linear equations converged to 1.000D-10 1.000D-09 after    20 iterations.
 End of Minotr F.D. properties file   721 does not exist.
 End of Minotr F.D. properties file   722 does not exist.
 End of Minotr F.D. properties file   788 does not exist.

 **********************************************************************

            Population analysis using the CI density.

 **********************************************************************

 Orbital symmetries:
       Occupied  (A) (A) (A) (A) (A) (A) (A) (A) (A) (A) (A) (A)
                 (A) (A) (A) (A) (A) (A) (A) (A) (A) (A) (A) (A)
                 (A) (A) (A) (A) (A) (A) (A) (A) (A) (A) (A) (A)
                 (A) (A)
       Virtual   (A) (A) (A) (A) (A) (A) (A) (A) (A) (A) (A) (A)
                 (A) (A) (A) (A) (A) (A) (A) (A) (A) (A) (A) (A)
                 (A) (A) (A) (A) (A) (A) (A) (A) (A) (A) (A) (A)
                 (A) (A) (A) (A) (A) (A) (A) (A) (A) (A) (A) (A)
                 (A) (A) (A) (A) (A) (A) (A) (A) (A) (A) (A) (A)
                 (A) (A) (A) (A) (A) (A) (A) (A) (A) (A) (A) (A)
                 (A) (A) (A) (A) (A) (A) (A) (A) (A) (A) (A) (A)
                 (A) (A) (A) (A) (A) (A)
 The electronic state is 1-A.
 Alpha  occ. eigenvalues -- -482.91996 -61.88178 -56.40313 -56.39897 -56.39890
 Alpha  occ. eigenvalues --  -14.34515 -10.25884 -10.23910 -10.23510 -10.22642
 Alpha  occ. eigenvalues --  -10.21568  -8.59328  -6.54735  -6.53444  -6.53418
 Alpha  occ. eigenvalues --   -2.66305  -2.65936  -2.65917  -2.64886  -2.64886
 Alpha  occ. eigenvalues --   -0.95603  -0.84203  -0.79749  -0.74314  -0.64765
 Alpha  occ. eigenvalues --   -0.62770  -0.53640  -0.50050  -0.47069  -0.43108
 Alpha  occ. eigenvalues --   -0.42231  -0.41641  -0.37789  -0.33355  -0.29857
 Alpha  occ. eigenvalues --   -0.29419  -0.26599  -0.25585
 Alpha virt. eigenvalues --   -0.03787  -0.02507  -0.00076   0.10385   0.12913
 Alpha virt. eigenvalues --    0.14708   0.14935   0.16778   0.21320   0.23954
 Alpha virt. eigenvalues --    0.29088   0.29688   0.31612   0.39595   0.41916
 Alpha virt. eigenvalues --    0.45487   0.45615   0.46467   0.46840   0.47693
 Alpha virt. eigenvalues --    0.47819   0.52637   0.54464   0.56367   0.56762
 Alpha virt. eigenvalues --    0.58240   0.59006   0.61613   0.62435   0.66077
 Alpha virt. eigenvalues --    0.66371   0.73273   0.74648   0.77784   0.80986
 Alpha virt. eigenvalues --    0.81743   0.85729   0.85742   0.86910   0.87251
 Alpha virt. eigenvalues --    0.90652   0.96667   0.99503   1.06340   1.07334
 Alpha virt. eigenvalues --    1.16645   1.19853   1.23104   1.23383   1.35407
 Alpha virt. eigenvalues --    1.38781   1.43940   1.45585   1.48677   1.50237
 Alpha virt. eigenvalues --    1.54138   1.56511   1.69904   1.77675   1.81071
 Alpha virt. eigenvalues --    1.82705   1.88006   1.94180   2.03491   2.11215
 Alpha virt. eigenvalues --    2.11376   2.15928   2.16450   2.19281   2.27351
 Alpha virt. eigenvalues --    2.30005   2.36448   2.49479   2.53267   2.64299
 Alpha virt. eigenvalues --    2.65486   2.67496   2.67950   2.74832   2.77243
 Alpha virt. eigenvalues --    3.03153   3.33637   4.02465   4.07255   4.10832
 Alpha virt. eigenvalues --    4.21115   4.29974   4.56388   8.59654  72.77572
          Condensed to atoms (all electrons):
               1          2          3          4          5          6
     1  C    4.862975   0.601596  -0.029884  -0.021263  -0.030002   0.001842
     2  C    0.601596   4.836364   0.359247   0.325026  -0.053998  -0.031308
     3  H   -0.029884   0.359247   0.545328  -0.046817   0.004054   0.000946
     4  N   -0.021263   0.325026  -0.046817   6.891070   0.285714  -0.011839
     5  C   -0.030002  -0.053998   0.004054   0.285714   4.965747   0.569791
     6  C    0.001842  -0.031308   0.000946  -0.011839   0.569791   4.740568
     7  C    0.423169  -0.043655   0.003633  -0.033323  -0.061139   0.452427
     8  H   -0.042062   0.005532  -0.000129   0.000128   0.006194  -0.042378
     9  Br   0.005410   0.000035   0.000003   0.003514  -0.059180   0.272510
    10  H    0.370003  -0.042185  -0.005487   0.003681   0.000074   0.004517
    11  H    0.000652   0.003683  -0.000294  -0.044490   0.357002  -0.030316
               7          8          9         10         11
     1  C    0.423169  -0.042062   0.005410   0.370003   0.000652
     2  C   -0.043655   0.005532   0.000035  -0.042185   0.003683
     3  H    0.003633  -0.000129   0.000003  -0.005487  -0.000294
     4  N   -0.033323   0.000128   0.003514   0.003681  -0.044490
     5  C   -0.061139   0.006194  -0.059180   0.000074   0.357002
     6  C    0.452427  -0.042378   0.272510   0.004517  -0.030316
     7  C    5.176251   0.362493  -0.052625  -0.036306   0.004536
     8  H    0.362493   0.572520  -0.003873  -0.004706  -0.000124
     9  Br  -0.052625  -0.003873  34.932240  -0.000143  -0.003943
    10  H   -0.036306  -0.004706  -0.000143   0.554428   0.000008
    11  H    0.004536  -0.000124  -0.003943   0.000008   0.530606
 Mulliken charges:
               1
     1  C   -0.142434
     2  C    0.039662
     3  H    0.169400
     4  N   -0.351401
     5  C    0.015743
     6  C    0.073239
     7  C   -0.195460
     8  H    0.146405
     9  Br  -0.093949
    10  H    0.156117
    11  H    0.182679
 Sum of Mulliken charges =  -0.00000
 Mulliken charges with hydrogens summed into heavy atoms:
               1
     1  C    0.013682
     2  C    0.209062
     4  N   -0.351401
     5  C    0.198422
     6  C    0.073239
     7  C   -0.049055
     9  Br  -0.093949
 Electronic spatial extent (au):  <R**2>=           1194.4678
 Charge=              0.0000 electrons
 Dipole moment (field-independent basis, Debye):
    X=              1.5238    Y=             -0.1926    Z=             -0.0000  Tot=              1.5359
 Quadrupole moment (field-independent basis, Debye-Ang):
   XX=            -45.6476   YY=            -48.2254   ZZ=            -55.6630
   XY=              1.0903   XZ=             -0.0000   YZ=              0.0000
 Traceless Quadrupole moment (field-independent basis, Debye-Ang):
   XX=              4.1977   YY=              1.6199   ZZ=             -5.8176
   XY=              1.0903   XZ=             -0.0000   YZ=              0.0000
 Octapole moment (field-independent basis, Debye-Ang**2):
  XXX=            -35.1640  YYY=             -0.6407  ZZZ=             -0.0000  XYY=            -14.5531
  XXY=              3.8248  XXZ=             -0.0000  XZZ=            -22.8102  YZZ=             -1.5621
  YYZ=             -0.0000  XYZ=              0.0000
 Hexadecapole moment (field-independent basis, Debye-Ang**3):
 XXXX=           -929.5647 YYYY=           -261.2113 ZZZZ=            -58.6215 XXXY=              4.2284
 XXXZ=             -0.0001 YYYX=              7.3940 YYYZ=              0.0000 ZZZX=              0.0000
 ZZZY=              0.0000 XXYY=           -219.4661 XXZZ=           -202.7798 YYZZ=            -62.9166
 XXYZ=              0.0000 YYXZ=             -0.0000 ZZXY=             -2.9837
 N-N= 4.336138898303D+02 E-N=-7.574683018847D+03  KE= 2.801285227766D+03
 Evaluate density.
 Using the total density.
 Monte-Carlo method of calculating molar volume:
 based on  0.001 e/bohr**3 density envelope.
 Number of points per bohr**3 =   20 CutOff= 1.00D-04
 Using the CI density.
 There are       424 points.  Will hold       424 in memory.
 LenV=   536798432 MDV=   536870912.
 Box volume = 9546.863 fraction occupied=0.092
 Integrated density= 3.0201082443682377D+01 error=-4.5798917556317619D+01
 Molar volume =  878.131 bohr**3/mol ( 78.363 cm**3/mol)
 Recommended a0 for SCRF calculation =  3.96 angstrom (  7.48 bohr)
 ******************************Gaussian NBO Version 3.1******************************
             N A T U R A L   A T O M I C   O R B I T A L   A N D
          N A T U R A L   B O N D   O R B I T A L   A N A L Y S I S
 ******************************Gaussian NBO Version 3.1******************************
       /RESON  / : Allow strongly delocalized NBO set

 Analyzing the CI density

 Job title: Title Card Required                                             

 Storage needed:     49928 in NPA ( 536870219 available)
 GSVD:  LWork=       10560 too small for GESVD, short by         620 words or         620 for optimal perf.


 NATURAL POPULATIONS:  Natural atomic orbital occupancies 
                                                          
   NAO  Atom  No  lang   Type(AO)    Occupancy
 --------------------------------------------
     1    C    1  S      Cor( 1S)     1.99904
     2    C    1  S      Val( 2S)     0.96858
     3    C    1  S      Ryd( 3S)     0.00053
     4    C    1  S      Ryd( 4S)     0.00002
     5    C    1  px     Val( 2p)     1.10395
     6    C    1  px     Ryd( 3p)     0.00426
     7    C    1  py     Val( 2p)     1.12268
     8    C    1  py     Ryd( 3p)     0.00475
     9    C    1  pz     Val( 2p)     1.05984
    10    C    1  pz     Ryd( 3p)     0.00229
    11    C    1  dxy    Ryd( 3d)     0.00074
    12    C    1  dxz    Ryd( 3d)     0.00088
    13    C    1  dyz    Ryd( 3d)     0.00057
    14    C    1  dx2y2  Ryd( 3d)     0.00058
    15    C    1  dz2    Ryd( 3d)     0.00048
 
    16    C    2  S      Cor( 1S)     1.99913
    17    C    2  S      Val( 2S)     0.94090
    18    C    2  S      Ryd( 3S)     0.00143
    19    C    2  S      Ryd( 4S)     0.00008
    20    C    2  px     Val( 2p)     1.15168
    21    C    2  px     Ryd( 3p)     0.00470
    22    C    2  py     Val( 2p)     0.92354
    23    C    2  py     Ryd( 3p)     0.00694
    24    C    2  pz     Val( 2p)     1.03439
    25    C    2  pz     Ryd( 3p)     0.00260
    26    C    2  dxy    Ryd( 3d)     0.00099
    27    C    2  dxz    Ryd( 3d)     0.00055
    28    C    2  dyz    Ryd( 3d)     0.00198
    29    C    2  dx2y2  Ryd( 3d)     0.00123
    30    C    2  dz2    Ryd( 3d)     0.00056
 
    31    H    3  S      Val( 1S)     0.74788
    32    H    3  S      Ryd( 2S)     0.00062
 
    33    N    4  S      Cor( 1S)     1.99897
    34    N    4  S      Val( 2S)     1.26971
    35    N    4  S      Ryd( 3S)     0.00026
    36    N    4  S      Ryd( 4S)     0.00000
    37    N    4  px     Val( 2p)     1.19095
    38    N    4  px     Ryd( 3p)     0.00327
    39    N    4  py     Val( 2p)     1.10822
    40    N    4  py     Ryd( 3p)     0.00396
    41    N    4  pz     Val( 2p)     1.59370
    42    N    4  pz     Ryd( 3p)     0.00419
    43    N    4  dxy    Ryd( 3d)     0.00036
    44    N    4  dxz    Ryd( 3d)     0.00094
    45    N    4  dyz    Ryd( 3d)     0.00155
    46    N    4  dx2y2  Ryd( 3d)     0.00065
    47    N    4  dz2    Ryd( 3d)     0.00009
 
    48    C    5  S      Cor( 1S)     1.99892
    49    C    5  S      Val( 2S)     0.93216
    50    C    5  S      Ryd( 3S)     0.00178
    51    C    5  S      Ryd( 4S)     0.00009
    52    C    5  px     Val( 2p)     0.92541
    53    C    5  px     Ryd( 3p)     0.00692
    54    C    5  py     Val( 2p)     1.16268
    55    C    5  py     Ryd( 3p)     0.00531
    56    C    5  pz     Val( 2p)     1.05760
    57    C    5  pz     Ryd( 3p)     0.00307
    58    C    5  dxy    Ryd( 3d)     0.00091
    59    C    5  dxz    Ryd( 3d)     0.00195
    60    C    5  dyz    Ryd( 3d)     0.00051
    61    C    5  dx2y2  Ryd( 3d)     0.00115
    62    C    5  dz2    Ryd( 3d)     0.00057
 
    63    C    6  S      Cor( 1S)     1.99854
    64    C    6  S      Val( 2S)     0.95788
    65    C    6  S      Ryd( 3S)     0.00088
    66    C    6  S      Ryd( 4S)     0.00003
    67    C    6  px     Val( 2p)     0.97147
    68    C    6  px     Ryd( 3p)     0.00649
    69    C    6  py     Val( 2p)     1.08122
    70    C    6  py     Ryd( 3p)     0.00764
    71    C    6  pz     Val( 2p)     1.11458
    72    C    6  pz     Ryd( 3p)     0.00143
    73    C    6  dxy    Ryd( 3d)     0.00089
    74    C    6  dxz    Ryd( 3d)     0.00089
    75    C    6  dyz    Ryd( 3d)     0.00139
    76    C    6  dx2y2  Ryd( 3d)     0.00122
    77    C    6  dz2    Ryd( 3d)     0.00060
 
    78    C    7  S      Cor( 1S)     1.99892
    79    C    7  S      Val( 2S)     0.94306
    80    C    7  S      Ryd( 3S)     0.00091
    81    C    7  S      Ryd( 4S)     0.00004
    82    C    7  px     Val( 2p)     1.08310
    83    C    7  px     Ryd( 3p)     0.00578
    84    C    7  py     Val( 2p)     1.16114
    85    C    7  py     Ryd( 3p)     0.00450
    86    C    7  pz     Val( 2p)     1.16079
    87    C    7  pz     Ryd( 3p)     0.00829
    88    C    7  dxy    Ryd( 3d)     0.00069
    89    C    7  dxz    Ryd( 3d)     0.00037
    90    C    7  dyz    Ryd( 3d)     0.00038
    91    C    7  dx2y2  Ryd( 3d)     0.00056
    92    C    7  dz2    Ryd( 3d)     0.00046
 
    93    H    8  S      Val( 1S)     0.74520
    94    H    8  S      Ryd( 2S)     0.00076
 
    95   Br    9  S      Cor( 1S)     2.00000
    96   Br    9  S      Cor( 2S)     1.99997
    97   Br    9  S      Cor( 3S)     1.99977
    98   Br    9  S      Val( 4S)     1.86255
    99   Br    9  S      Ryd( 5S)     0.00399
   100   Br    9  S      Ryd( 6S)     0.00003
   101   Br    9  S      Ryd( 7S)     0.00000
   102   Br    9  S      Ryd( 8S)     0.00000
   103   Br    9  px     Cor( 2p)     1.99997
   104   Br    9  px     Cor( 3p)     1.99983
   105   Br    9  px     Val( 4p)     1.12903
   106   Br    9  px     Ryd( 5p)     0.00408
   107   Br    9  py     Cor( 2p)     1.99999
   108   Br    9  py     Cor( 3p)     1.99997
   109   Br    9  py     Val( 4p)     1.94636
   110   Br    9  py     Ryd( 5p)     0.00091
   111   Br    9  pz     Cor( 2p)     2.00000
   112   Br    9  pz     Cor( 3p)     1.99999
   113   Br    9  pz     Val( 4p)     1.94360
   114   Br    9  pz     Ryd( 5p)     0.00125
   115   Br    9  dxy    Cor( 3d)     1.99995
   116   Br    9  dxy    Ryd( 4d)     0.00108
   117   Br    9  dxz    Cor( 3d)     1.99994
   118   Br    9  dxz    Ryd( 4d)     0.00299
   119   Br    9  dyz    Cor( 3d)     2.00000
   120   Br    9  dyz    Ryd( 4d)     0.00039
   121   Br    9  dx2y2  Cor( 3d)     1.99977
   122   Br    9  dx2y2  Ryd( 4d)     0.00230
   123   Br    9  dz2    Cor( 3d)     1.99992
   124   Br    9  dz2    Ryd( 4d)     0.00078
 
   125    H   10  S      Val( 1S)     0.73892
   126    H   10  S      Ryd( 2S)     0.00050
 
   127    H   11  S      Val( 1S)     0.73690
   128    H   11  S      Ryd( 2S)     0.00088

 WARNING:  1 low occupancy (<1.9990e) core orbital  found on  N    4
           1 low occupancy (<1.9990e) core orbital  found on  C    5
           1 low occupancy (<1.9990e) core orbital  found on  C    6
           1 low occupancy (<1.9990e) core orbital  found on  C    7


 Summary of Natural Population Analysis:                  
                                                          
                                       Natural Population 
                Natural  -----------------------------------------------
    Atom  No    Charge         Core      Valence    Rydberg      Total
 -----------------------------------------------------------------------
      C    1   -0.26919      1.99904     4.25504    0.01510     6.26919
      C    2   -0.07070      1.99913     4.05051    0.02106     6.07070
      H    3    0.25150      0.00000     0.74788    0.00062     0.74850
      N    4   -0.17684      1.99897     5.16259    0.01527     7.17684
      C    5   -0.09902      1.99892     4.07785    0.02225     6.09902
      C    6   -0.14516      1.99854     4.12515    0.02147     6.14516
      C    7   -0.36900      1.99892     4.34810    0.02199     6.36900
      H    8    0.25403      0.00000     0.74520    0.00076     0.74597
     Br    9    0.10157     27.99909     6.88154    0.01780    34.89843
      H   10    0.26058      0.00000     0.73892    0.00050     0.73942
      H   11    0.26222      0.00000     0.73690    0.00088     0.73778
 =======================================================================
   * Total *    0.00000     39.99262    35.86968    0.13769    76.00000

                                 Natural Population      
 --------------------------------------------------------
   Core                      39.99262 ( 99.9816% of  40)
   Valence                   35.86968 ( 99.6380% of  36)
   Natural Minimal Basis     75.86231 ( 99.8188% of  76)
   Natural Rydberg Basis      0.13769 (  0.1812% of  76)
 --------------------------------------------------------

    Atom  No          Natural Electron Configuration
 ----------------------------------------------------------------------------
      C    1      [core]2S( 0.97)2p( 3.29)3p( 0.01)
      C    2      [core]2S( 0.94)2p( 3.11)3p( 0.01)3d( 0.01)
      H    3            1S( 0.75)
      N    4      [core]2S( 1.27)2p( 3.89)3p( 0.01)
      C    5      [core]2S( 0.93)2p( 3.15)3p( 0.02)3d( 0.01)
      C    6      [core]2S( 0.96)2p( 3.17)3p( 0.02)
      C    7      [core]2S( 0.94)2p( 3.41)3p( 0.02)
      H    8            1S( 0.75)
     Br    9      [core]4S( 1.86)4p( 5.02)4d( 0.01)5p( 0.01)
      H   10            1S( 0.74)
      H   11            1S( 0.74)


 NBO analysis skipped by request.
 1\1\GINC-DELLA-R4C3N5\SP\RB3LYP TD-FC\6-31G(d)\C5H4Br1N1\BJS4\27-Aug-2
 018\0\\# TD(NStates=10, Root=1) b3lyp/6-31G* volume pop=NPA density=cu
 rrent Geom=AllCheck Guess=Read\\Title Card Required\\0,1\C,0,-0.763170
 4369,1.152371228,0.0103979098\C,0,0.6312018761,1.1740333064,0.06635343
 76\H,0,1.1683654917,2.1196868186,0.104966607\N,0,1.3859483269,0.068605
 2727,0.0763121612\C,0,0.765093494,-1.1137683297,0.0300557231\C,0,-0.62
 46485662,-1.2277572121,-0.0273954257\C,0,-1.4126919071,-0.0800657705,-
 0.0379112143\H,0,-2.4942966409,-0.1508466893,-0.0822991348\Br,0,-1.431
 4716766,-2.9558166038,-0.0909959689\H,0,-1.3310425034,2.0780586338,0.0
 046159837\H,0,1.3903725424,-2.0033606541,0.0387799212\\Version=ES64L-G
 16RevA.03\State=1-A\HF=-2819.3886161\RMSD=0.000e+00\Dipole=0.3248644,0
 .5090313,0.0222071\Quadrupole=0.9200263,3.394041,-4.3140674,0.2238772,
 0.2130812,0.1493989\PG=C01 [X(C5H4Br1N1)]\\@


 KNOWLEDGE IS EXPERIMENT'S DAUGHTER.
 -- LEONARDO DA VINCI, IN "PENSIERI" CA. 1492
 Job cpu time:       0 days  0 hours  5 minutes 10.2 seconds.
 Elapsed time:       0 days  0 hours  2 minutes 35.7 seconds.
 File lengths (MBytes):  RWF=    167 Int=      0 D2E=      0 Chk=     67 Scr=      1
 Normal termination of Gaussian 16 at Mon Aug 27 09:51:13 2018.
