 Entering Gaussian System, Link 0=g16
 Input=science_arx_15123.com
 Output=science_arx_15123.log
 Initial command:
 /opt/export/g16/l1.exe "/scratch/bjs4/job.111270/Gau-111274.inp" -scrdir="/scratch/bjs4/job.111270/"
 Entering Link 1 = /opt/export/g16/l1.exe PID=    111276.
  
 Copyright (c) 1988,1990,1992,1993,1995,1998,2003,2009,2016,
            Gaussian, Inc.  All Rights Reserved.
  
 This is part of the Gaussian(R) 16 program.  It is based on
 the Gaussian(R) 09 system (copyright 2009, Gaussian, Inc.),
 the Gaussian(R) 03 system (copyright 2003, Gaussian, Inc.),
 the Gaussian(R) 98 system (copyright 1998, Gaussian, Inc.),
 the Gaussian(R) 94 system (copyright 1995, Gaussian, Inc.),
 the Gaussian 92(TM) system (copyright 1992, Gaussian, Inc.),
 the Gaussian 90(TM) system (copyright 1990, Gaussian, Inc.),
 the Gaussian 88(TM) system (copyright 1988, Gaussian, Inc.),
 the Gaussian 86(TM) system (copyright 1986, Carnegie Mellon
 University), and the Gaussian 82(TM) system (copyright 1983,
 Carnegie Mellon University). Gaussian is a federally registered
 trademark of Gaussian, Inc.
  
 This software contains proprietary and confidential information,
 including trade secrets, belonging to Gaussian, Inc.
  
 This software is provided under written license and may be
 used, copied, transmitted, or stored only in accord with that
 written license.
  
 The following legend is applicable only to US Government
 contracts under FAR:
  
                    RESTRICTED RIGHTS LEGEND
  
 Use, reproduction and disclosure by the US Government is
 subject to restrictions as set forth in subparagraphs (a)
 and (c) of the Commercial Computer Software - Restricted
 Rights clause in FAR 52.227-19.
  
 Gaussian, Inc.
 340 Quinnipiac St., Bldg. 40, Wallingford CT 06492
  
  
 ---------------------------------------------------------------
 Warning -- This program may not be used in any manner that
 competes with the business of Gaussian, Inc. or will provide
 assistance to any competitor of Gaussian, Inc.  The licensee
 of this program is prohibited from giving any competitor of
 Gaussian, Inc. access to this program.  By using this program,
 the user acknowledges that Gaussian, Inc. is engaged in the
 business of creating and licensing software in the field of
 computational chemistry and represents and warrants to the
 licensee that it is not a competitor of Gaussian, Inc. and that
 it will not use this program in any manner prohibited above.
 ---------------------------------------------------------------
  

 Cite this work as:
 Gaussian 16, Revision A.03,
 M. J. Frisch, G. W. Trucks, H. B. Schlegel, G. E. Scuseria, 
 M. A. Robb, J. R. Cheeseman, G. Scalmani, V. Barone, 
 G. A. Petersson, H. Nakatsuji, X. Li, M. Caricato, A. V. Marenich, 
 J. Bloino, B. G. Janesko, R. Gomperts, B. Mennucci, H. P. Hratchian, 
 J. V. Ortiz, A. F. Izmaylov, J. L. Sonnenberg, D. Williams-Young, 
 F. Ding, F. Lipparini, F. Egidi, J. Goings, B. Peng, A. Petrone, 
 T. Henderson, D. Ranasinghe, V. G. Zakrzewski, J. Gao, N. Rega, 
 G. Zheng, W. Liang, M. Hada, M. Ehara, K. Toyota, R. Fukuda, 
 J. Hasegawa, M. Ishida, T. Nakajima, Y. Honda, O. Kitao, H. Nakai, 
 T. Vreven, K. Throssell, J. A. Montgomery, Jr., J. E. Peralta, 
 F. Ogliaro, M. J. Bearpark, J. J. Heyd, E. N. Brothers, K. N. Kudin, 
 V. N. Staroverov, T. A. Keith, R. Kobayashi, J. Normand, 
 K. Raghavachari, A. P. Rendell, J. C. Burant, S. S. Iyengar, 
 J. Tomasi, M. Cossi, J. M. Millam, M. Klene, C. Adamo, R. Cammi, 
 J. W. Ochterski, R. L. Martin, K. Morokuma, O. Farkas, 
 J. B. Foresman, and D. J. Fox, Gaussian, Inc., Wallingford CT, 2016.
 
 ******************************************
 Gaussian 16:  ES64L-G16RevA.03 25-Dec-2016
                27-Aug-2018 
 ******************************************
 %nprocshared=2
 Will use up to    2 processors via shared memory.
 %Mem=4GB
 %Chk=science_arx_151.chk
 -------------------------
 # opt b3lyp/genecp scf=qc
 -------------------------
 1/18=20,19=15,26=3,38=1/1,3;
 2/9=110,12=2,17=6,18=5,40=1/2;
 3/5=7,11=2,16=1,17=8,25=1,30=1,71=1,74=-5/1,2,3;
 4//1;
 5/5=2,8=3,38=5/8;
 6/7=2,8=2,9=2,10=2,28=1/1;
 7//1,2,3,16;
 1/18=20,19=15,26=3/3(2);
 2/9=110/2;
 99//99;
 2/9=110/2;
 3/5=7,6=1,11=2,16=1,17=8,25=1,30=1,71=1,74=-5,82=7/1,2,3;
 4/5=5,16=3,69=1/1;
 5/5=2,8=3,38=5/8;
 7//1,2,3,16;
 1/18=20,19=15,26=3/3(-5);
 2/9=110/2;
 6/7=2,8=2,9=2,10=2,19=2,28=1/1;
 99/9=1/99;
 -------------------
 Title Card Required
 -------------------
 Symbolic Z-matrix:
 Charge =  0 Multiplicity = 1
 C3                   -0.76822   1.14742   0.00756 
 C4                    0.6169    1.16985   0.06501 
 H                     1.1607    2.1096    0.10616 
 N                     1.38549   0.0589    0.07442 
 C                     0.73591  -1.12931   0.02388 
 C1                   -0.64475  -1.25015  -0.03541 
 C2                   -1.40999  -0.08824  -0.0436 
 H5                   -2.4946   -0.12807  -0.08904 
 I0                   -1.54611  -3.11012  -0.10995 
 H6                   -1.33515   2.07186   0.00274 
 H                     1.38676  -1.99902   0.03327 
 

 GradGradGradGradGradGradGradGradGradGradGradGradGradGradGradGradGradGrad
 Berny optimization.
 Initialization pass.
                           ----------------------------
                           !    Initial Parameters    !
                           ! (Angstroms and Degrees)  !
 --------------------------                            --------------------------
 ! Name  Definition              Value          Derivative Info.                !
 --------------------------------------------------------------------------------
 ! R1    R(1,2)                  1.3865         estimate D2E/DX2                !
 ! R2    R(1,7)                  1.3933         estimate D2E/DX2                !
 ! R3    R(1,10)                 1.0844         estimate D2E/DX2                !
 ! R4    R(2,3)                  1.0865         estimate D2E/DX2                !
 ! R5    R(2,4)                  1.3509         estimate D2E/DX2                !
 ! R6    R(4,5)                  1.3551         estimate D2E/DX2                !
 ! R7    R(5,6)                  1.3872         estimate D2E/DX2                !
 ! R8    R(5,11)                 1.0863         estimate D2E/DX2                !
 ! R9    R(6,7)                  1.3913         estimate D2E/DX2                !
 ! R10   R(6,9)                  2.0682         estimate D2E/DX2                !
 ! R11   R(7,8)                  1.0863         estimate D2E/DX2                !
 ! A1    A(2,1,7)              118.4256         estimate D2E/DX2                !
 ! A2    A(2,1,10)             120.5746         estimate D2E/DX2                !
 ! A3    A(7,1,10)             120.9998         estimate D2E/DX2                !
 ! A4    A(1,2,3)              121.0349         estimate D2E/DX2                !
 ! A5    A(1,2,4)              123.735          estimate D2E/DX2                !
 ! A6    A(3,2,4)              115.2301         estimate D2E/DX2                !
 ! A7    A(2,4,5)              116.6211         estimate D2E/DX2                !
 ! A8    A(4,5,6)              123.7152         estimate D2E/DX2                !
 ! A9    A(4,5,11)             114.4862         estimate D2E/DX2                !
 ! A10   A(6,5,11)             121.7986         estimate D2E/DX2                !
 ! A11   A(5,6,7)              118.3547         estimate D2E/DX2                !
 ! A12   A(5,6,9)              120.9066         estimate D2E/DX2                !
 ! A13   A(7,6,9)              120.7387         estimate D2E/DX2                !
 ! A14   A(1,7,6)              119.1484         estimate D2E/DX2                !
 ! A15   A(1,7,8)              119.6002         estimate D2E/DX2                !
 ! A16   A(6,7,8)              121.2514         estimate D2E/DX2                !
 ! D1    D(7,1,2,3)            179.9968         estimate D2E/DX2                !
 ! D2    D(7,1,2,4)             -0.0017         estimate D2E/DX2                !
 ! D3    D(10,1,2,3)            -0.0028         estimate D2E/DX2                !
 ! D4    D(10,1,2,4)           179.9987         estimate D2E/DX2                !
 ! D5    D(2,1,7,6)             -0.0014         estimate D2E/DX2                !
 ! D6    D(2,1,7,8)           -179.9995         estimate D2E/DX2                !
 ! D7    D(10,1,7,6)           179.9983         estimate D2E/DX2                !
 ! D8    D(10,1,7,8)             0.0001         estimate D2E/DX2                !
 ! D9    D(1,2,4,5)              0.002          estimate D2E/DX2                !
 ! D10   D(3,2,4,5)           -179.9965         estimate D2E/DX2                !
 ! D11   D(2,4,5,6)              0.0006         estimate D2E/DX2                !
 ! D12   D(2,4,5,11)           179.9999         estimate D2E/DX2                !
 ! D13   D(4,5,6,7)             -0.0035         estimate D2E/DX2                !
 ! D14   D(4,5,6,9)            179.9941         estimate D2E/DX2                !
 ! D15   D(11,5,6,7)           179.9972         estimate D2E/DX2                !
 ! D16   D(11,5,6,9)            -0.0052         estimate D2E/DX2                !
 ! D17   D(5,6,7,1)              0.0038         estimate D2E/DX2                !
 ! D18   D(5,6,7,8)           -179.9981         estimate D2E/DX2                !
 ! D19   D(9,6,7,1)           -179.9938         estimate D2E/DX2                !
 ! D20   D(9,6,7,8)              0.0043         estimate D2E/DX2                !
 --------------------------------------------------------------------------------
 Trust Radius=3.00D-01 FncErr=1.00D-07 GrdErr=1.00D-06 EigMax=2.50D+02 EigMin=1.00D-04
 Number of steps in this run=     57 maximum allowed number of steps=    100.
 GradGradGradGradGradGradGradGradGradGradGradGradGradGradGradGradGradGrad

                          Input orientation:                          
 ---------------------------------------------------------------------
 Center     Atomic      Atomic             Coordinates (Angstroms)
 Number     Number       Type             X           Y           Z
 ---------------------------------------------------------------------
      1          6           0       -0.768220    1.147420    0.007560
      2          6           0        0.616900    1.169850    0.065010
      3          1           0        1.160700    2.109600    0.106160
      4          7           0        1.385490    0.058900    0.074420
      5          6           0        0.735910   -1.129310    0.023880
      6          6           0       -0.644750   -1.250150   -0.035410
      7          6           0       -1.409990   -0.088240   -0.043600
      8          1           0       -2.494600   -0.128070   -0.089040
      9         53           0       -1.546110   -3.110120   -0.109950
     10          1           0       -1.335150    2.071860    0.002740
     11          1           0        1.386760   -1.999020    0.033270
 ---------------------------------------------------------------------
                    Distance matrix (angstroms):
                    1          2          3          4          5
     1  C    0.000000
     2  C    1.386492   0.000000
     3  H    2.157833   1.086527   0.000000
     4  N    2.414086   1.350936   2.063228   0.000000
     5  C    2.728768   2.302605   3.267683   1.355120   0.000000
     6  C    2.401132   2.730979   3.816754   2.418171   1.387206
     7  C    1.393320   2.388068   3.385465   2.801836   2.386057
     8  H    2.148626   3.374872   4.290278   3.888030   3.383996
     9  I    4.329615   4.798684   5.883791   4.320990   3.024754
    10  H    1.084446   2.151278   2.498277   3.385119   3.812771
    11  H    3.813749   3.261201   4.115480   2.058332   1.086319
                    6          7          8          9         10
     6  C    0.000000
     7  C    1.391292   0.000000
     8  H    2.164228   1.086292   0.000000
     9  I    2.068210   3.025672   3.129328   0.000000
    10  H    3.393208   2.161893   2.488461   5.187496   0.000000
    11  H    2.166231   3.388038   4.310495   3.139551   4.897121
                   11
    11  H    0.000000
 Stoichiometry    C5H4IN
 Framework group  C1[X(C5H4IN)]
 Deg. of freedom    27
 Full point group                 C1      NOp   1
 Largest Abelian subgroup         C1      NOp   1
 Largest concise Abelian subgroup C1      NOp   1
                         Standard orientation:                         
 ---------------------------------------------------------------------
 Center     Atomic      Atomic             Coordinates (Angstroms)
 Number     Number       Type             X           Y           Z
 ---------------------------------------------------------------------
      1          6           0        2.642582    1.162669   -0.000011
      2          6           0        3.269123   -0.074186   -0.000061
      3          1           0        4.352774   -0.153192   -0.000174
      4          7           0        2.605942   -1.251140   -0.000006
      5          6           0        1.252416   -1.185439    0.000061
      6          6           0        0.539276    0.004423    0.000064
      7          6           0        1.249779    1.200616    0.000068
      8          1           0        0.739134    2.159403    0.000100
      9         53           0       -1.528935    0.003352   -0.000013
     10          1           0        3.226220    2.076665   -0.000038
     11          1           0        0.754763   -2.151064    0.000103
 ---------------------------------------------------------------------
 Rotational constants (GHZ):           5.8755093           0.7571892           0.6707484
 General basis read from cards:  (5D, 7F)
 ======================================================================================================
                                       Pseudopotential Parameters
 ======================================================================================================
  Center     Atomic      Valence      Angular      Power
  Number     Number     Electrons     Momentum     of R      Exponent        Coefficient   SO-Coeffient
 ======================================================================================================
    1          6
                                   No pseudopotential on this center.
    2          6
                                   No pseudopotential on this center.
    3          1
                                   No pseudopotential on this center.
    4          7
                                   No pseudopotential on this center.
    5          6
                                   No pseudopotential on this center.
    6          6
                                   No pseudopotential on this center.
    7          6
                                   No pseudopotential on this center.
    8          1
                                   No pseudopotential on this center.
    9         53            7
                                      F and up 
                                                     0        1.0715702       -0.07476210    0.00000000
                                                     1       44.1936028      -30.08112240    0.00000000
                                                     2       12.9367609      -75.37227210    0.00000000
                                                     2        3.1956412      -22.05637580    0.00000000
                                                     2        0.8589806       -1.69795850    0.00000000
                                      S - F
                                                     0      127.9202670        2.93800360    0.00000000
                                                     1       78.6211465       41.24712670    0.00000000
                                                     2       36.5146237      287.86800950    0.00000000
                                                     2        9.9065681      114.37585060    0.00000000
                                                     2        1.9420086       37.65477140    0.00000000
                                      P - F
                                                     0       13.0035304        2.22226300    0.00000000
                                                     1       76.0331404       39.40908310    0.00000000
                                                     2       24.1961684      177.40750020    0.00000000
                                                     2        6.4053433       77.98894620    0.00000000
                                                     2        1.5851786       25.75476410    0.00000000
                                      D - F
                                                     0       40.4278108        7.05243600    0.00000000
                                                     1       28.9084375       33.30416350    0.00000000
                                                     2       15.6268936      186.94538750    0.00000000
                                                     2        4.1442856       71.96883610    0.00000000
                                                     2        0.9377235        9.36306570    0.00000000
   10          1
                                   No pseudopotential on this center.
   11          1
                                   No pseudopotential on this center.
 ======================================================================================================
 There are   106 symmetry adapted cartesian basis functions of A   symmetry.
 There are   100 symmetry adapted basis functions of A   symmetry.
   100 basis functions,   196 primitive gaussians,   106 cartesian basis functions
    24 alpha electrons       24 beta electrons
       nuclear repulsion energy       241.2629421556 Hartrees.
 NAtoms=   11 NActive=   11 NUniq=   11 SFac= 1.00D+00 NAtFMM=   60 NAOKFM=F Big=F
 Integral buffers will be    131072 words long.
 Raffenetti 2 integral format.
 Two-electron integral symmetry is turned on.
 One-electron integrals computed using PRISM.
   1 Symmetry operations used in ECPInt.
 ECPInt:  NShTT=     666 NPrTT=    4038 LenC2=     667 LenP2D=    3151.
 LDataN:  DoStor=T MaxTD1= 5 Len=  102
 NBasis=   100 RedAO= T EigKep=  1.00D-03  NBF=   100
 NBsUse=   100 1.00D-06 EigRej= -1.00D+00 NBFU=   100
 Defaulting to unpruned grid for atomic number  53.
 ExpMin= 1.05D-01 ExpMax= 4.17D+03 ExpMxC= 6.27D+02 IAcc=3 IRadAn=         5 AccDes= 0.00D+00
 Harris functional with IExCor=  402 and IRadAn=       5 diagonalized for initial guess.
 HarFok:  IExCor=  402 AccDes= 0.00D+00 IRadAn=         5 IDoV= 1 UseB2=F ITyADJ=14
 ICtDFT=  3500011 ScaDFX=  1.000000  1.000000  1.000000  1.000000
 Defaulting to unpruned grid for atomic number  53.
 FoFCou: FMM=F IPFlag=           0 FMFlag=      100000 FMFlg1=           0
         NFxFlg=           0 DoJE=T BraDBF=F KetDBF=T FulRan=T
         wScrn=  0.000000 ICntrl=       500 IOpCl=  0 I1Cent=   200000004 NGrid=           0
         NMat0=    1 NMatS0=      1 NMatT0=    0 NMatD0=    1 NMtDS0=    0 NMtDT0=    0
 Petite list used in FoFCou.
 Keep R1 ints in memory in canonical form, NReq=14614214.
 Defaulting to unpruned grid for atomic number  53.
 Defaulting to unpruned grid for atomic number  53.
 Gradient too large for Newton-Raphson -- use scaled steepest descent instead.
     Minimum is close to point  3 DX=  4.16D-02 DF= -8.99D-04 DXR=  9.42D-02 DFR=  8.96D-03 which will be used.
 Gradient too large for Newton-Raphson -- use scaled steepest descent instead.
     Accept linear search using points  2 and  3.
 Gradient too large for Newton-Raphson -- use scaled steepest descent instead.
     Minimum is close to point  2 DX=  2.26D-02 DF= -1.69D-06 DXR=  4.32D-02 DFR=  1.87D-03 which will be used.
 Gradient too large for Newton-Raphson -- use scaled steepest descent instead.
     Accept linear search using points  1 and  2.
 Gradient too large for Newton-Raphson -- use scaled steepest descent instead.
 LinEq1:  Iter=  0 NonCon=     1 RMS=9.07D-05 Max=2.26D-03 NDo=     1
 AX will form     1 AO Fock derivatives at one time.
 LinEq1:  Iter=  1 NonCon=     1 RMS=7.35D-05 Max=2.01D-03 NDo=     1
 LinEq1:  Iter=  2 NonCon=     1 RMS=2.14D-05 Max=4.76D-04 NDo=     1
 LinEq1:  Iter=  3 NonCon=     1 RMS=1.34D-05 Max=2.43D-04 NDo=     1
 LinEq1:  Iter=  4 NonCon=     1 RMS=6.69D-06 Max=1.06D-04 NDo=     1
 LinEq1:  Iter=  5 NonCon=     1 RMS=5.12D-06 Max=9.13D-05 NDo=     1
 LinEq1:  Iter=  6 NonCon=     1 RMS=2.78D-06 Max=4.53D-05 NDo=     1
 LinEq1:  Iter=  7 NonCon=     1 RMS=1.05D-06 Max=1.39D-05 NDo=     1
 LinEq1:  Iter=  8 NonCon=     1 RMS=4.26D-07 Max=6.40D-06 NDo=     1
 LinEq1:  Iter=  9 NonCon=     1 RMS=2.56D-07 Max=3.06D-06 NDo=     1
 LinEq1:  Iter= 10 NonCon=     1 RMS=5.46D-08 Max=5.85D-07 NDo=     1
 LinEq1:  Iter= 11 NonCon=     1 RMS=2.84D-08 Max=5.13D-07 NDo=     1
 LinEq1:  Iter= 12 NonCon=     1 RMS=1.11D-08 Max=1.07D-07 NDo=     1
 LinEq1:  Iter= 13 NonCon=     0 RMS=2.24D-09 Max=2.72D-08 NDo=     1
 Linear equations converged to 6.040D-09 6.040D-08 after    13 iterations.
     Accept linear search using points  1 and  2.
     Minimum is close to point  2 DX= -3.94D-04 DF= -7.96D-13 DXR=  3.95D-04 DFR=  1.52D-07 which will be used.
 LinEq1:  Iter=  0 NonCon=     1 RMS=1.06D-07 Max=3.08D-06 NDo=     1
 LinEq1:  Iter=  1 NonCon=     1 RMS=5.57D-08 Max=8.86D-07 NDo=     1
 LinEq1:  Iter=  2 NonCon=     1 RMS=2.00D-08 Max=3.01D-07 NDo=     1
 LinEq1:  Iter=  3 NonCon=     1 RMS=1.33D-08 Max=2.31D-07 NDo=     1
 LinEq1:  Iter=  4 NonCon=     1 RMS=7.51D-09 Max=1.76D-07 NDo=     1
 LinEq1:  Iter=  5 NonCon=     1 RMS=6.47D-09 Max=1.45D-07 NDo=     1
 LinEq1:  Iter=  6 NonCon=     1 RMS=2.29D-09 Max=3.94D-08 NDo=     1
 LinEq1:  Iter=  7 NonCon=     1 RMS=1.81D-09 Max=2.51D-08 NDo=     1
 LinEq1:  Iter=  8 NonCon=     1 RMS=5.36D-10 Max=6.08D-09 NDo=     1
 LinEq1:  Iter=  9 NonCon=     1 RMS=1.22D-10 Max=1.96D-09 NDo=     1
 LinEq1:  Iter= 10 NonCon=     1 RMS=8.16D-11 Max=1.10D-09 NDo=     1
 LinEq1:  Iter= 11 NonCon=     1 RMS=2.29D-11 Max=1.96D-10 NDo=     1
 LinEq1:  Iter= 12 NonCon=     0 RMS=4.08D-12 Max=3.41D-11 NDo=     1
 Linear equations converged to 2.146D-11 2.146D-10 after    12 iterations.
 SCF Done:  E(RB3LYP) =  -259.054497794     a.u. after    8 cycles
            Convg  =    0.3347D-10                    42 Fock formations.
              S**2 =  0.0000                  -V/T =  2.0395

 **********************************************************************

            Population analysis using the SCF density.

 **********************************************************************

 Orbital symmetries:
       Occupied  (A) (A) (A) (A) (A) (A) (A) (A) (A) (A) (A) (A)
                 (A) (A) (A) (A) (A) (A) (A) (A) (A) (A) (A) (A)
       Virtual   (A) (A) (A) (A) (A) (A) (A) (A) (A) (A) (A) (A)
                 (A) (A) (A) (A) (A) (A) (A) (A) (A) (A) (A) (A)
                 (A) (A) (A) (A) (A) (A) (A) (A) (A) (A) (A) (A)
                 (A) (A) (A) (A) (A) (A) (A) (A) (A) (A) (A) (A)
                 (A) (A) (A) (A) (A) (A) (A) (A) (A) (A) (A) (A)
                 (A) (A) (A) (A) (A) (A) (A) (A) (A) (A) (A) (A)
                 (A) (A) (A) (A)
 The electronic state is 1-A.
 Alpha  occ. eigenvalues --  -14.34287 -10.24399 -10.23304 -10.22812 -10.21982
 Alpha  occ. eigenvalues --  -10.20710  -0.94827  -0.82588  -0.78462  -0.69755
 Alpha  occ. eigenvalues --   -0.64638  -0.61885  -0.53312  -0.49689  -0.46728
 Alpha  occ. eigenvalues --   -0.42241  -0.41636  -0.41188  -0.36502  -0.31998
 Alpha  occ. eigenvalues --   -0.28987  -0.28024  -0.26605  -0.24979
 Alpha virt. eigenvalues --   -0.03894  -0.02834  -0.02267   0.10188   0.12971
 Alpha virt. eigenvalues --    0.14905   0.15070   0.17148   0.22360   0.27900
 Alpha virt. eigenvalues --    0.28848   0.29776   0.36295   0.38085   0.38356
 Alpha virt. eigenvalues --    0.45632   0.48152   0.51061   0.53512   0.57915
 Alpha virt. eigenvalues --    0.58170   0.58591   0.59085   0.59148   0.61758
 Alpha virt. eigenvalues --    0.64832   0.65636   0.68159   0.68515   0.81895
 Alpha virt. eigenvalues --    0.82840   0.84421   0.85054   0.86913   0.91013
 Alpha virt. eigenvalues --    0.91832   0.97270   1.03693   1.06008   1.08810
 Alpha virt. eigenvalues --    1.13147   1.17698   1.23148   1.33858   1.36431
 Alpha virt. eigenvalues --    1.41627   1.45703   1.46114   1.49939   1.50537
 Alpha virt. eigenvalues --    1.63651   1.76230   1.79680   1.81101   1.82151
 Alpha virt. eigenvalues --    1.93413   2.04603   2.11515   2.11625   2.14477
 Alpha virt. eigenvalues --    2.15501   2.17447   2.28227   2.29642   2.35929
 Alpha virt. eigenvalues --    2.48653   2.52054   2.62415   2.64266   2.66771
 Alpha virt. eigenvalues --    2.66894   2.74296   2.76657   3.02850   3.32623
 Alpha virt. eigenvalues --    9.96131
          Condensed to atoms (all electrons):
               1          2          3          4          5          6
     1  C    4.897750   0.507955  -0.061474  -0.034876  -0.034438  -0.021494
     2  C    0.507955   4.784490   0.375649   0.488503  -0.069780  -0.045738
     3  H   -0.061474   0.375649   0.576978  -0.047763   0.005125   0.000560
     4  N   -0.034876   0.488503  -0.047763   6.543640   0.502393  -0.030312
     5  C   -0.034438  -0.069780   0.005125   0.502393   4.799689   0.448516
     6  C   -0.021494  -0.045738   0.000560  -0.030312   0.448516   5.365100
     7  C    0.544730  -0.020410   0.003785  -0.043211  -0.033432   0.496626
     8  H   -0.037289   0.004772  -0.000166  -0.000022   0.004094  -0.045853
     9  I    0.002819   0.000813   0.000042   0.003142  -0.063801   0.253044
    10  H    0.353526  -0.036275  -0.002120   0.004769   0.000260   0.006796
    11  H    0.000668   0.004688  -0.000191  -0.044231   0.382486  -0.065995
               7          8          9         10         11
     1  C    0.544730  -0.037289   0.002819   0.353526   0.000668
     2  C   -0.020410   0.004772   0.000813  -0.036275   0.004688
     3  H    0.003785  -0.000166   0.000042  -0.002120  -0.000191
     4  N   -0.043211  -0.000022   0.003142   0.004769  -0.044231
     5  C   -0.033432   0.004094  -0.063801   0.000260   0.382486
     6  C    0.496626  -0.045853   0.253044   0.006796  -0.065995
     7  C    4.857306   0.368084  -0.075702  -0.045059   0.002647
     8  H    0.368084   0.554660  -0.002256  -0.006188  -0.000152
     9  I   -0.075702  -0.002256   6.682605  -0.000168   0.002591
    10  H   -0.045059  -0.006188  -0.000168   0.577048   0.000024
    11  H    0.002647  -0.000152   0.002591   0.000024   0.559314
 Mulliken charges:
               1
     1  C   -0.117877
     2  C    0.005335
     3  H    0.149574
     4  N   -0.342033
     5  C    0.058888
     6  C   -0.361251
     7  C   -0.055365
     8  H    0.160318
     9  I    0.196873
    10  H    0.147386
    11  H    0.158153
 Sum of Mulliken charges =   0.00000
 Mulliken charges with hydrogens summed into heavy atoms:
               1
     1  C    0.029509
     2  C    0.154909
     4  N   -0.342033
     5  C    0.217040
     6  C   -0.361251
     7  C    0.104953
     9  I    0.196873
 Electronic spatial extent (au):  <R**2>=           1086.0878
 Charge=              0.0000 electrons
 Dipole moment (field-independent basis, Debye):
    X=              0.3844    Y=              1.9671    Z=             -0.0000  Tot=              2.0043
 Quadrupole moment (field-independent basis, Debye-Ang):
   XX=            -50.9507   YY=            -52.8664   ZZ=            -56.6392
   XY=              6.5822   XZ=             -0.0002   YZ=             -0.0001
 Traceless Quadrupole moment (field-independent basis, Debye-Ang):
   XX=              2.5348   YY=              0.6190   ZZ=             -3.1538
   XY=              6.5822   XZ=             -0.0002   YZ=             -0.0001
 Octapole moment (field-independent basis, Debye-Ang**2):
  XXX=            -99.0146  YYY=              8.6587  ZZZ=             -0.0011  XYY=            -38.0179
  XXY=             20.5770  XXZ=             -0.0029  XZZ=            -37.8487  YZZ=             -1.0212
  YYZ=              0.0002  XYZ=             -0.0002
 Hexadecapole moment (field-independent basis, Debye-Ang**3):
 XXXX=          -1195.8302 YYYY=           -290.8601 ZZZZ=            -73.0812 XXXY=             59.9871
 XXXZ=             -0.0064 YYYX=             28.5483 YYYZ=             -0.0004 ZZZX=              0.0013
 ZZZY=             -0.0000 XXYY=           -292.9599 XXZZ=           -247.3947 YYZZ=            -66.1968
 XXYZ=             -0.0005 YYXZ=              0.0007 ZZXY=             -2.5958
 N-N= 2.412629421556D+02 E-N=-1.078840899881D+03  KE= 2.492081851681D+02
   1 Symmetry operations used in ECPInt.
 ECPInt:  NShTT=     666 NPrTT=    4038 LenC2=     667 LenP2D=    3151.
 LDataN:  DoStor=T MaxTD1= 6 Len=  172
 Calling FoFJK, ICntrl=      2127 FMM=F ISym2X=0 I1Cent= 0 IOpClX= 0 NMat=1 NMatS=1 NMatT=0.
 Defaulting to unpruned grid for atomic number  53.
 Defaulting to unpruned grid for atomic number  53.
 ***** Axes restored to original set *****
 -------------------------------------------------------------------
 Center     Atomic                   Forces (Hartrees/Bohr)
 Number     Number              X              Y              Z
 -------------------------------------------------------------------
      1        6          -0.002742536   -0.001941506   -0.000150261
      2        6           0.014999004   -0.007925460    0.000457161
      3        1           0.000043679    0.001401113    0.000031638
      4        7          -0.018086675   -0.003095526   -0.000806525
      5        6           0.020699317    0.011840245    0.001088640
      6        6           0.003205206    0.016894693    0.000472346
      7        6          -0.007497682    0.004855805   -0.000213745
      8        1           0.000534885   -0.001376746   -0.000005940
      9       53          -0.008467613   -0.019069884   -0.000730476
     10        1          -0.001005615    0.000515374   -0.000030925
     11        1          -0.001681968   -0.002098108   -0.000111913
 -------------------------------------------------------------------
 Cartesian Forces:  Max     0.020699317 RMS     0.007844772

 GradGradGradGradGradGradGradGradGradGradGradGradGradGradGradGradGradGrad
 Berny optimization.
 FormGI is forming the generalized inverse of G from B-inverse, IUseBI=4.
 Internal  Forces:  Max     0.020866404 RMS     0.004503805
 Search for a local minimum.
 Step number   1 out of a maximum of   57
 All quantities printed in internal units (Hartrees-Bohrs-Radians)
 Mixed Optimization -- RFO/linear search
 Second derivative matrix not updated -- first step.
 ITU=  0
     Eigenvalues ---    0.02190   0.02206   0.02222   0.02232   0.02253
     Eigenvalues ---    0.02266   0.02287   0.02304   0.15153   0.16000
     Eigenvalues ---    0.16000   0.16000   0.16000   0.22000   0.23181
     Eigenvalues ---    0.23458   0.25000   0.35217   0.35241   0.35245
     Eigenvalues ---    0.35462   0.43362   0.44530   0.47148   0.47872
     Eigenvalues ---    0.52471   0.53866
 RFO step:  Lambda=-4.00142936D-03 EMin= 2.18998416D-02
 Linear search not attempted -- first point.
 Iteration  1 RMS(Cart)=  0.01924717 RMS(Int)=  0.00007074
 Iteration  2 RMS(Cart)=  0.00014938 RMS(Int)=  0.00000639
 Iteration  3 RMS(Cart)=  0.00000002 RMS(Int)=  0.00000639
 Variable       Old X    -DE/DX   Delta X   Delta X   Delta X     New X
                                 (Linear)    (Quad)   (Total)
    R1        2.62009   0.00707   0.00000   0.01438   0.01439   2.63448
    R2        2.63299   0.00036   0.00000   0.00199   0.00199   2.63498
    R3        2.04931   0.00097   0.00000   0.00269   0.00269   2.05200
    R4        2.05324   0.00123   0.00000   0.00347   0.00347   2.05671
    R5        2.55290  -0.01000   0.00000  -0.01930  -0.01929   2.53361
    R6        2.56081  -0.01340   0.00000  -0.02570  -0.02569   2.53511
    R7        2.62144   0.00889   0.00000   0.01857   0.01856   2.64000
    R8        2.05285   0.00067   0.00000   0.00188   0.00188   2.05473
    R9        2.62916   0.00382   0.00000   0.00944   0.00943   2.63859
   R10        3.90835   0.02087   0.00000   0.13416   0.13416   4.04251
   R11        2.05279  -0.00048   0.00000  -0.00136  -0.00136   2.05144
    A1        2.06692   0.00035   0.00000   0.00463   0.00464   2.07155
    A2        2.10442   0.00043   0.00000   0.00136   0.00136   2.10579
    A3        2.11185  -0.00078   0.00000  -0.00600  -0.00600   2.10585
    A4        2.11246  -0.00043   0.00000  -0.00178  -0.00179   2.11067
    A5        2.15958  -0.00051   0.00000  -0.00476  -0.00475   2.15484
    A6        2.01114   0.00094   0.00000   0.00655   0.00654   2.01768
    A7        2.03542   0.00567   0.00000   0.01603   0.01605   2.05147
    A8        2.15924  -0.00160   0.00000  -0.00848  -0.00848   2.15076
    A9        1.99816   0.00348   0.00000   0.02055   0.02055   2.01871
   A10        2.12579  -0.00187   0.00000  -0.01207  -0.01207   2.11372
   A11        2.06568   0.00061   0.00000   0.00620   0.00618   2.07186
   A12        2.11022  -0.00167   0.00000  -0.00847  -0.00846   2.10176
   A13        2.10729   0.00106   0.00000   0.00227   0.00228   2.10957
   A14        2.07953  -0.00452   0.00000  -0.01362  -0.01363   2.06590
   A15        2.08742   0.00369   0.00000   0.01555   0.01556   2.10297
   A16        2.11624   0.00082   0.00000  -0.00193  -0.00192   2.11431
    D1        3.14154   0.00000   0.00000   0.00004   0.00004   3.14158
    D2       -0.00003   0.00000   0.00000   0.00001   0.00001  -0.00002
    D3       -0.00005   0.00000   0.00000   0.00003   0.00003  -0.00002
    D4        3.14157  -0.00000   0.00000  -0.00000  -0.00000   3.14157
    D5       -0.00002   0.00000   0.00000   0.00003   0.00003   0.00001
    D6       -3.14158  -0.00000   0.00000  -0.00002  -0.00002   3.14159
    D7        3.14156   0.00000   0.00000   0.00004   0.00004  -3.14158
    D8        0.00000  -0.00000   0.00000  -0.00000  -0.00000  -0.00000
    D9        0.00004  -0.00000   0.00000  -0.00002  -0.00002   0.00002
   D10       -3.14153  -0.00000   0.00000  -0.00005  -0.00005  -3.14158
   D11        0.00001  -0.00000   0.00000  -0.00001  -0.00001   0.00000
   D12        3.14159   0.00000   0.00000   0.00002   0.00002  -3.14157
   D13       -0.00006   0.00000   0.00000   0.00004   0.00004  -0.00002
   D14        3.14149   0.00000   0.00000   0.00007   0.00007   3.14156
   D15        3.14154   0.00000   0.00000   0.00001   0.00001   3.14156
   D16       -0.00009   0.00000   0.00000   0.00005   0.00005  -0.00005
   D17        0.00007  -0.00000   0.00000  -0.00005  -0.00005   0.00001
   D18       -3.14156  -0.00000   0.00000  -0.00001  -0.00001  -3.14157
   D19       -3.14149  -0.00000   0.00000  -0.00008  -0.00008  -3.14157
   D20        0.00007  -0.00000   0.00000  -0.00004  -0.00004   0.00004
         Item               Value     Threshold  Converged?
 Maximum Force            0.020866     0.000450     NO 
 RMS     Force            0.004504     0.000300     NO 
 Maximum Displacement     0.114595     0.001800     NO 
 RMS     Displacement     0.019265     0.001200     NO 
 Predicted change in Energy=-2.043389D-03
 GradGradGradGradGradGradGradGradGradGradGradGradGradGradGradGradGradGrad

                          Input orientation:                          
 ---------------------------------------------------------------------
 Center     Atomic      Atomic             Coordinates (Angstroms)
 Number     Number       Type             X           Y           Z
 ---------------------------------------------------------------------
      1          6           0       -0.766801    1.153698    0.007736
      2          6           0        0.625994    1.171860    0.065430
      3          1           0        1.171991    2.112451    0.106749
      4          7           0        1.380055    0.063318    0.074268
      5          6           0        0.746595   -1.118182    0.024512
      6          6           0       -0.643883   -1.239413   -0.035176
      7          6           0       -1.418662   -0.077844   -0.043787
      8          1           0       -2.502207   -0.126073   -0.089349
      9         53           0       -1.560529   -3.170761   -0.111670
     10          1           0       -1.332823    2.080364    0.003020
     11          1           0        1.387211   -1.996697    0.033307
 ---------------------------------------------------------------------
                    Distance matrix (angstroms):
                    1          2          3          4          5
     1  C    0.000000
     2  C    1.394107   0.000000
     3  H    2.165161   1.088362   0.000000
     4  N    2.408806   1.340728   2.059926   0.000000
     5  C    2.729851   2.293580   3.259558   1.341525   0.000000
     6  C    2.396650   2.727076   3.814778   2.409441   1.397028
     7  C    1.394372   2.398814   3.395812   2.804760   2.403187
     8  H    2.158443   3.390314   4.306876   3.890321   3.398818
     9  I    4.398319   4.865244   5.952034   4.375028   3.091027
    10  H    1.085870   2.160148   2.507166   3.381310   3.815120
    11  H    3.816466   3.258870   4.115436   2.060434   1.087315
                    6          7          8          9         10
     6  C    0.000000
     7  C    1.396281   0.000000
     8  H    2.166987   1.085574   0.000000
     9  I    2.139205   3.096913   3.187065   0.000000
    10  H    3.390725   2.160422   2.498872   5.257311   0.000000
    11  H    2.168758   3.400128   4.317621   3.176258   4.901217
                   11
    11  H    0.000000
 Stoichiometry    C5H4IN
 Framework group  C1[X(C5H4IN)]
 Deg. of freedom    27
 Full point group                 C1      NOp   1
 Largest Abelian subgroup         C1      NOp   1
 Largest concise Abelian subgroup C1      NOp   1
                         Standard orientation:                         
 ---------------------------------------------------------------------
 Center     Atomic      Atomic             Coordinates (Angstroms)
 Number     Number       Type             X           Y           Z
 ---------------------------------------------------------------------
      1          6           0        2.684708    1.160436   -0.000001
      2          6           0        3.305917   -0.087616   -0.000021
      3          1           0        4.390968   -0.172455   -0.000047
      4          7           0        2.634025   -1.247836   -0.000003
      5          6           0        1.293813   -1.188500    0.000018
      6          6           0        0.580691    0.012810    0.000016
      7          6           0        1.291391    1.214686    0.000014
      8          1           0        0.777371    2.170853    0.000037
      9         53           0       -1.558490    0.002642   -0.000004
     10          1           0        3.274298    2.072300    0.000008
     11          1           0        0.780026   -2.146768    0.000051
 ---------------------------------------------------------------------
 Rotational constants (GHZ):           5.8506218           0.7322155           0.6507704
 Basis read from rwf:  (5D, 7F)
 Pseudo-potential data read from rwf file.
 There are   106 symmetry adapted cartesian basis functions of A   symmetry.
 There are   100 symmetry adapted basis functions of A   symmetry.
   100 basis functions,   196 primitive gaussians,   106 cartesian basis functions
    24 alpha electrons       24 beta electrons
       nuclear repulsion energy       240.3361698204 Hartrees.
 NAtoms=   11 NActive=   11 NUniq=   11 SFac= 1.00D+00 NAtFMM=   60 NAOKFM=F Big=F
 Integral buffers will be    131072 words long.
 Raffenetti 2 integral format.
 Two-electron integral symmetry is turned on.
 One-electron integrals computed using PRISM.
   1 Symmetry operations used in ECPInt.
 ECPInt:  NShTT=     666 NPrTT=    4038 LenC2=     667 LenP2D=    3153.
 LDataN:  DoStor=T MaxTD1= 5 Len=  102
 NBasis=   100 RedAO= T EigKep=  1.03D-03  NBF=   100
 NBsUse=   100 1.00D-06 EigRej= -1.00D+00 NBFU=   100
 Defaulting to unpruned grid for atomic number  53.
 Initial guess from the checkpoint file:  "science_arx_151.chk"
 B after Tr=    -0.000000    0.000000    0.000000
         Rot=    1.000000    0.000000   -0.000000    0.000407 Ang=   0.05 deg.
 ExpMin= 1.05D-01 ExpMax= 4.17D+03 ExpMxC= 6.27D+02 IAcc=2 IRadAn=         4 AccDes= 0.00D+00
 Harris functional with IExCor=  402 and IRadAn=       4 diagonalized for initial guess.
 HarFok:  IExCor=  402 AccDes= 0.00D+00 IRadAn=         4 IDoV= 1 UseB2=F ITyADJ=14
 ICtDFT=  3500011 ScaDFX=  1.000000  1.000000  1.000000  1.000000
 Defaulting to unpruned grid for atomic number  53.
 FoFCou: FMM=F IPFlag=           0 FMFlag=      100000 FMFlg1=           0
         NFxFlg=           0 DoJE=T BraDBF=F KetDBF=T FulRan=T
         wScrn=  0.000000 ICntrl=       500 IOpCl=  0 I1Cent=   200000004 NGrid=           0
         NMat0=    1 NMatS0=      1 NMatT0=    0 NMatD0=    1 NMtDS0=    0 NMtDT0=    0
 Petite list used in FoFCou.
 Keep R1 ints in memory in canonical form, NReq=14614214.
 Defaulting to unpruned grid for atomic number  53.
 Defaulting to unpruned grid for atomic number  53.
 Gradient too large for Newton-Raphson -- use scaled steepest descent instead.
 Gradient too large for Newton-Raphson -- use scaled steepest descent instead.
     Accept linear search using points  2 and  3.
 Gradient too large for Newton-Raphson -- use scaled steepest descent instead.
 Gradient too large for Newton-Raphson -- use scaled steepest descent instead.
     Accept linear search using points  1 and  2.
 Gradient too large for Newton-Raphson -- use scaled steepest descent instead.
 Gradient too large for Newton-Raphson -- use scaled steepest descent instead.
     Accept linear search using points  1 and  2.
 LinEq1:  Iter=  0 NonCon=     1 RMS=2.67D-04 Max=6.20D-03 NDo=     1
 AX will form     1 AO Fock derivatives at one time.
 LinEq1:  Iter=  1 NonCon=     1 RMS=1.27D-04 Max=1.93D-03 NDo=     1
 LinEq1:  Iter=  2 NonCon=     1 RMS=9.18D-05 Max=1.73D-03 NDo=     1
 LinEq1:  Iter=  3 NonCon=     1 RMS=4.33D-05 Max=6.65D-04 NDo=     1
 LinEq1:  Iter=  4 NonCon=     1 RMS=2.43D-05 Max=3.82D-04 NDo=     1
 LinEq1:  Iter=  5 NonCon=     1 RMS=1.90D-05 Max=2.79D-04 NDo=     1
 LinEq1:  Iter=  6 NonCon=     1 RMS=9.63D-06 Max=2.01D-04 NDo=     1
 LinEq1:  Iter=  7 NonCon=     1 RMS=5.51D-06 Max=7.65D-05 NDo=     1
 LinEq1:  Iter=  8 NonCon=     1 RMS=1.31D-06 Max=1.87D-05 NDo=     1
 LinEq1:  Iter=  9 NonCon=     1 RMS=9.87D-07 Max=1.72D-05 NDo=     1
 LinEq1:  Iter= 10 NonCon=     1 RMS=2.80D-07 Max=4.46D-06 NDo=     1
 LinEq1:  Iter= 11 NonCon=     1 RMS=7.50D-08 Max=1.07D-06 NDo=     1
 LinEq1:  Iter= 12 NonCon=     1 RMS=4.93D-08 Max=8.02D-07 NDo=     1
 LinEq1:  Iter= 13 NonCon=     1 RMS=1.41D-08 Max=1.21D-07 NDo=     1
 LinEq1:  Iter= 14 NonCon=     0 RMS=2.29D-09 Max=2.20D-08 NDo=     1
 Linear equations converged to 6.040D-09 6.040D-08 after    14 iterations.
     Minimum is close to point  2 DX=  5.79D-04 DF= -2.96D-11 DXR=  5.79D-04 DFR=  3.35D-07 which will be used.
 LinEq1:  Iter=  0 NonCon=     1 RMS=1.58D-06 Max=3.04D-05 NDo=     1
 LinEq1:  Iter=  1 NonCon=     1 RMS=1.83D-06 Max=4.66D-05 NDo=     1
 LinEq1:  Iter=  2 NonCon=     1 RMS=4.59D-07 Max=7.10D-06 NDo=     1
 LinEq1:  Iter=  3 NonCon=     1 RMS=2.17D-07 Max=2.99D-06 NDo=     1
 LinEq1:  Iter=  4 NonCon=     1 RMS=7.99D-08 Max=9.97D-07 NDo=     1
 LinEq1:  Iter=  5 NonCon=     1 RMS=4.14D-08 Max=5.04D-07 NDo=     1
 LinEq1:  Iter=  6 NonCon=     1 RMS=1.49D-08 Max=1.80D-07 NDo=     1
 LinEq1:  Iter=  7 NonCon=     1 RMS=1.22D-08 Max=1.75D-07 NDo=     1
 LinEq1:  Iter=  8 NonCon=     1 RMS=5.63D-09 Max=1.23D-07 NDo=     1
 LinEq1:  Iter=  9 NonCon=     1 RMS=4.36D-09 Max=8.05D-08 NDo=     1
 LinEq1:  Iter= 10 NonCon=     1 RMS=1.27D-09 Max=2.50D-08 NDo=     1
 LinEq1:  Iter= 11 NonCon=     1 RMS=6.37D-10 Max=7.72D-09 NDo=     1
 LinEq1:  Iter= 12 NonCon=     0 RMS=2.64D-10 Max=2.71D-09 NDo=     1
 Linear equations converged to 4.075D-10 4.075D-09 after    12 iterations.
 SCF Done:  E(RB3LYP) =  -259.056523702     a.u. after    9 cycles
            Convg  =    0.1696D-08                    47 Fock formations.
              S**2 =  0.0000                  -V/T =  2.0398
   1 Symmetry operations used in ECPInt.
 ECPInt:  NShTT=     666 NPrTT=    4038 LenC2=     667 LenP2D=    3153.
 LDataN:  DoStor=T MaxTD1= 6 Len=  172
 Calling FoFJK, ICntrl=      2127 FMM=F ISym2X=0 I1Cent= 0 IOpClX= 0 NMat=1 NMatS=1 NMatT=0.
 Defaulting to unpruned grid for atomic number  53.
 Defaulting to unpruned grid for atomic number  53.
 ***** Axes restored to original set *****
 -------------------------------------------------------------------
 Center     Atomic                   Forces (Hartrees/Bohr)
 Number     Number              X              Y              Z
 -------------------------------------------------------------------
      1        6           0.000533921   -0.000034348    0.000021282
      2        6           0.003347214   -0.001438478    0.000109551
      3        1          -0.000719242    0.000405787   -0.000021305
      4        7          -0.006208388   -0.000888801   -0.000273802
      5        6           0.004680791   -0.000592291    0.000181721
      6        6           0.000673196    0.005886818    0.000145238
      7        6          -0.001980064   -0.002765293   -0.000136096
      8        1           0.000331277   -0.000359788    0.000005732
      9       53           0.000497324    0.000531418    0.000031666
     10        1          -0.000105776    0.000054594   -0.000003729
     11        1          -0.001050253   -0.000799618   -0.000060259
 -------------------------------------------------------------------
 Cartesian Forces:  Max     0.006208388 RMS     0.001947819

 GradGradGradGradGradGradGradGradGradGradGradGradGradGradGradGradGradGrad
 Berny optimization.
 Using GEDIIS/GDIIS optimizer.
 FormGI is forming the generalized inverse of G from B-inverse, IUseBI=4.
 Internal  Forces:  Max     0.003335921 RMS     0.001148126
 Search for a local minimum.
 Step number   2 out of a maximum of   57
 All quantities printed in internal units (Hartrees-Bohrs-Radians)
 Mixed Optimization -- RFO/linear search
 Update second derivatives using D2CorX and points    1    2
 DE= -2.03D-03 DEPred=-2.04D-03 R= 9.91D-01
 TightC=F SS=  1.41D+00  RLast= 1.46D-01 DXNew= 5.0454D-01 4.3755D-01
 Trust test= 9.91D-01 RLast= 1.46D-01 DXMaxT set to 4.38D-01
 ITU=  1  0
 Use linear search instead of GDIIS.
     Eigenvalues ---    0.02190   0.02207   0.02222   0.02232   0.02253
     Eigenvalues ---    0.02266   0.02287   0.02304   0.14213   0.15993
     Eigenvalues ---    0.16000   0.16000   0.16779   0.21909   0.23146
     Eigenvalues ---    0.23816   0.24985   0.35217   0.35237   0.35248
     Eigenvalues ---    0.35460   0.43265   0.45068   0.47105   0.48438
     Eigenvalues ---    0.50418   0.53867
 RFO step:  Lambda=-2.39038655D-04 EMin= 2.18985648D-02
 Quartic linear search produced a step of  0.05737.
 Iteration  1 RMS(Cart)=  0.00518832 RMS(Int)=  0.00002491
 Iteration  2 RMS(Cart)=  0.00003547 RMS(Int)=  0.00000424
 Iteration  3 RMS(Cart)=  0.00000000 RMS(Int)=  0.00000424
 Variable       Old X    -DE/DX   Delta X   Delta X   Delta X     New X
                                 (Linear)    (Quad)   (Total)
    R1        2.63448   0.00050   0.00083   0.00130   0.00212   2.63660
    R2        2.63498   0.00016   0.00011   0.00063   0.00074   2.63572
    R3        2.05200   0.00010   0.00015   0.00032   0.00047   2.05247
    R4        2.05671  -0.00001   0.00020  -0.00001   0.00019   2.05689
    R5        2.53361  -0.00177  -0.00111  -0.00359  -0.00470   2.52891
    R6        2.53511  -0.00334  -0.00147  -0.00687  -0.00834   2.52677
    R7        2.64000  -0.00071   0.00106  -0.00164  -0.00057   2.63943
    R8        2.05473   0.00003   0.00011   0.00009   0.00020   2.05493
    R9        2.63859  -0.00246   0.00054  -0.00537  -0.00483   2.63376
   R10        4.04251  -0.00069   0.00770  -0.00362   0.00408   4.04659
   R11        2.05144  -0.00031  -0.00008  -0.00095  -0.00103   2.05041
    A1        2.07155  -0.00039   0.00027  -0.00046  -0.00020   2.07135
    A2        2.10579   0.00026   0.00008   0.00068   0.00077   2.10656
    A3        2.10585   0.00013  -0.00034  -0.00023  -0.00057   2.10528
    A4        2.11067  -0.00065  -0.00010  -0.00495  -0.00505   2.10562
    A5        2.15484  -0.00041  -0.00027  -0.00140  -0.00168   2.15315
    A6        2.01768   0.00105   0.00038   0.00635   0.00673   2.02441
    A7        2.05147   0.00199   0.00092   0.00818   0.00911   2.06058
    A8        2.15076  -0.00258  -0.00049  -0.01279  -0.01326   2.13750
    A9        2.01871   0.00265   0.00118   0.01549   0.01666   2.03537
   A10        2.11372  -0.00006  -0.00069  -0.00270  -0.00340   2.11032
   A11        2.07186   0.00318   0.00035   0.01385   0.01421   2.08607
   A12        2.10176  -0.00204  -0.00049  -0.00886  -0.00935   2.09241
   A13        2.10957  -0.00114   0.00013  -0.00499  -0.00486   2.10471
   A14        2.06590  -0.00179  -0.00078  -0.00739  -0.00818   2.05772
   A15        2.10297   0.00128   0.00089   0.00631   0.00720   2.11018
   A16        2.11431   0.00051  -0.00011   0.00108   0.00097   2.11529
    D1        3.14158   0.00000   0.00000   0.00001   0.00001   3.14159
    D2       -0.00002   0.00000   0.00000   0.00002   0.00002  -0.00000
    D3       -0.00002   0.00000   0.00000   0.00001   0.00001  -0.00001
    D4        3.14157   0.00000  -0.00000   0.00002   0.00002   3.14159
    D5        0.00001  -0.00000   0.00000  -0.00001  -0.00000   0.00000
    D6        3.14159   0.00000  -0.00000   0.00001   0.00001   3.14159
    D7       -3.14158  -0.00000   0.00000  -0.00001  -0.00001  -3.14159
    D8       -0.00000   0.00000  -0.00000   0.00000   0.00000   0.00000
    D9        0.00002  -0.00000  -0.00000  -0.00002  -0.00002  -0.00000
   D10       -3.14158  -0.00000  -0.00000  -0.00000  -0.00001  -3.14159
   D11        0.00000  -0.00000  -0.00000  -0.00000  -0.00000   0.00000
   D12       -3.14157  -0.00000   0.00000  -0.00002  -0.00002  -3.14159
   D13       -0.00002   0.00000   0.00000   0.00001   0.00002  -0.00000
   D14        3.14156   0.00000   0.00000   0.00002   0.00002   3.14159
   D15        3.14156   0.00000   0.00000   0.00003   0.00003   3.14159
   D16       -0.00005   0.00000   0.00000   0.00004   0.00004  -0.00001
   D17        0.00001  -0.00000  -0.00000  -0.00001  -0.00001   0.00000
   D18       -3.14157  -0.00000  -0.00000  -0.00002  -0.00002  -3.14159
   D19       -3.14157  -0.00000  -0.00000  -0.00001  -0.00002  -3.14159
   D20        0.00004  -0.00000  -0.00000  -0.00003  -0.00003   0.00001
         Item               Value     Threshold  Converged?
 Maximum Force            0.003336     0.000450     NO 
 RMS     Force            0.001148     0.000300     NO 
 Maximum Displacement     0.016684     0.001800     NO 
 RMS     Displacement     0.005190     0.001200     NO 
 Predicted change in Energy=-1.236336D-04
 GradGradGradGradGradGradGradGradGradGradGradGradGradGradGradGradGradGrad

                          Input orientation:                          
 ---------------------------------------------------------------------
 Center     Atomic      Atomic             Coordinates (Angstroms)
 Number     Number       Type             X           Y           Z
 ---------------------------------------------------------------------
      1          6           0       -0.767160    1.154578    0.007738
      2          6           0        0.626787    1.170376    0.065445
      3          1           0        1.169688    2.112874    0.106686
      4          7           0        1.375703    0.061350    0.074050
      5          6           0        0.751079   -1.119866    0.024657
      6          6           0       -0.639981   -1.230584   -0.034837
      7          6           0       -1.421053   -0.076326   -0.043859
      8          1           0       -2.503757   -0.130709   -0.089524
      9         53           0       -1.554046   -3.165545   -0.111265
     10          1           0       -1.332446    2.081987    0.003057
     11          1           0        1.382126   -2.005414    0.032892
 ---------------------------------------------------------------------
                    Distance matrix (angstroms):
                    1          2          3          4          5
     1  C    0.000000
     2  C    1.395231   0.000000
     3  H    2.163216   1.088460   0.000000
     4  N    2.406535   1.338240   2.062101   0.000000
     5  C    2.734673   2.293975   3.260763   1.337112   0.000000
     6  C    2.388930   2.716499   3.804425   2.396651   1.396727
     7  C    1.394762   2.399971   3.395173   2.802625   2.410774
     8  H    2.162681   3.393692   4.308870   3.887654   3.403737
     9  I    4.392814   4.856694   5.943732   4.362411   3.084944
    10  H    1.086120   2.161833   2.504469   3.379657   3.820131
    11  H    3.821729   3.264543   4.124424   2.067184   1.087420
                    6          7          8          9         10
     6  C    0.000000
     7  C    1.393725   0.000000
     8  H    2.164804   1.085030   0.000000
     9  I    2.141362   3.092816   3.180040   0.000000
    10  H    3.384386   2.160640   2.505307   5.253453   0.000000
    11  H    2.166533   3.403687   4.316201   3.160347   4.906795
                   11
    11  H    0.000000
 Stoichiometry    C5H4IN
 Framework group  C1[X(C5H4IN)]
 Deg. of freedom    27
 Full point group                 C1      NOp   1
 Largest Abelian subgroup         C1      NOp   1
 Largest concise Abelian subgroup C1      NOp   1
                         Standard orientation:                         
 ---------------------------------------------------------------------
 Center     Atomic      Atomic             Coordinates (Angstroms)
 Number     Number       Type             X           Y           Z
 ---------------------------------------------------------------------
      1          6           0        2.682442    1.159455   -0.000000
      2          6           0        3.300345   -0.091491   -0.000003
      3          1           0        4.385660   -0.174169   -0.000009
      4          7           0        2.624231   -1.246376   -0.000001
      5          6           0        1.288182   -1.193091    0.000003
      6          6           0        0.585904    0.014242    0.000003
      7          6           0        1.288896    1.217683    0.000002
      8          1           0        0.770971    2.171121    0.000005
      9         53           0       -1.555429    0.003053   -0.000001
     10          1           0        3.274244    2.070184    0.000003
     11          1           0        0.762620   -2.145072    0.000008
 ---------------------------------------------------------------------
 Rotational constants (GHZ):           5.8415300           0.7351370           0.6529637
 Basis read from rwf:  (5D, 7F)
 Pseudo-potential data read from rwf file.
 There are   106 symmetry adapted cartesian basis functions of A   symmetry.
 There are   100 symmetry adapted basis functions of A   symmetry.
   100 basis functions,   196 primitive gaussians,   106 cartesian basis functions
    24 alpha electrons       24 beta electrons
       nuclear repulsion energy       240.5534192274 Hartrees.
 NAtoms=   11 NActive=   11 NUniq=   11 SFac= 1.00D+00 NAtFMM=   60 NAOKFM=F Big=F
 Integral buffers will be    131072 words long.
 Raffenetti 2 integral format.
 Two-electron integral symmetry is turned on.
 One-electron integrals computed using PRISM.
   1 Symmetry operations used in ECPInt.
 ECPInt:  NShTT=     666 NPrTT=    4038 LenC2=     667 LenP2D=    3154.
 LDataN:  DoStor=T MaxTD1= 5 Len=  102
 NBasis=   100 RedAO= T EigKep=  1.02D-03  NBF=   100
 NBsUse=   100 1.00D-06 EigRej= -1.00D+00 NBFU=   100
 Defaulting to unpruned grid for atomic number  53.
 Initial guess from the checkpoint file:  "science_arx_151.chk"
 B after Tr=     0.000000    0.000000   -0.000000
         Rot=    1.000000    0.000000    0.000000    0.000308 Ang=   0.04 deg.
 Keep R1 ints in memory in canonical form, NReq=14614214.
 Defaulting to unpruned grid for atomic number  53.
 Defaulting to unpruned grid for atomic number  53.
 LinEq1:  Iter=  0 NonCon=     1 RMS=1.54D-04 Max=1.86D-03 NDo=     1
 AX will form     1 AO Fock derivatives at one time.
 LinEq1:  Iter=  1 NonCon=     1 RMS=8.23D-05 Max=1.41D-03 NDo=     1
 LinEq1:  Iter=  2 NonCon=     1 RMS=4.69D-05 Max=1.00D-03 NDo=     1
 LinEq1:  Iter=  3 NonCon=     1 RMS=2.85D-05 Max=6.07D-04 NDo=     1
 LinEq1:  Iter=  4 NonCon=     1 RMS=1.63D-05 Max=2.65D-04 NDo=     1
 LinEq1:  Iter=  5 NonCon=     1 RMS=1.12D-05 Max=2.12D-04 NDo=     1
 LinEq1:  Iter=  6 NonCon=     1 RMS=5.67D-06 Max=8.65D-05 NDo=     1
 LinEq1:  Iter=  7 NonCon=     1 RMS=2.14D-06 Max=4.13D-05 NDo=     1
 LinEq1:  Iter=  8 NonCon=     1 RMS=1.36D-06 Max=2.23D-05 NDo=     1
 LinEq1:  Iter=  9 NonCon=     1 RMS=3.44D-07 Max=4.16D-06 NDo=     1
 LinEq1:  Iter= 10 NonCon=     1 RMS=2.11D-07 Max=3.35D-06 NDo=     1
 LinEq1:  Iter= 11 NonCon=     1 RMS=7.60D-08 Max=8.25D-07 NDo=     1
 LinEq1:  Iter= 12 NonCon=     1 RMS=1.50D-08 Max=1.22D-07 NDo=     1
 LinEq1:  Iter= 13 NonCon=     0 RMS=5.08D-09 Max=5.27D-08 NDo=     1
 Linear equations converged to 6.040D-09 6.040D-08 after    13 iterations.
     Accept linear search using points  1 and  2.
     Minimum is close to point  2 DX= -4.60D-05 DF= -1.71D-13 DXR=  4.60D-05 DFR=  2.46D-09 which will be used.
 LinEq1:  Iter=  0 NonCon=     1 RMS=2.85D-07 Max=5.62D-06 NDo=     1
 LinEq1:  Iter=  1 NonCon=     1 RMS=1.94D-07 Max=2.71D-06 NDo=     1
 LinEq1:  Iter=  2 NonCon=     1 RMS=1.34D-07 Max=1.79D-06 NDo=     1
 LinEq1:  Iter=  3 NonCon=     1 RMS=4.98D-08 Max=6.65D-07 NDo=     1
 LinEq1:  Iter=  4 NonCon=     1 RMS=1.28D-08 Max=1.77D-07 NDo=     1
 LinEq1:  Iter=  5 NonCon=     1 RMS=8.60D-09 Max=1.34D-07 NDo=     1
 LinEq1:  Iter=  6 NonCon=     1 RMS=3.61D-09 Max=4.49D-08 NDo=     1
 LinEq1:  Iter=  7 NonCon=     1 RMS=2.92D-09 Max=5.20D-08 NDo=     1
 LinEq1:  Iter=  8 NonCon=     1 RMS=1.30D-09 Max=2.20D-08 NDo=     1
 LinEq1:  Iter=  9 NonCon=     1 RMS=6.47D-10 Max=6.71D-09 NDo=     1
 LinEq1:  Iter= 10 NonCon=     1 RMS=2.62D-10 Max=2.60D-09 NDo=     1
 LinEq1:  Iter= 11 NonCon=     1 RMS=1.32D-10 Max=1.70D-09 NDo=     1
 LinEq1:  Iter= 12 NonCon=     0 RMS=4.96D-11 Max=6.98D-10 NDo=     1
 Linear equations converged to 1.076D-10 1.076D-09 after    12 iterations.
 SCF Done:  E(RB3LYP) =  -259.056658857     a.u. after    3 cycles
            Convg  =    0.2125D-10                    28 Fock formations.
              S**2 =  0.0000                  -V/T =  2.0398
   1 Symmetry operations used in ECPInt.
 ECPInt:  NShTT=     666 NPrTT=    4038 LenC2=     667 LenP2D=    3154.
 LDataN:  DoStor=T MaxTD1= 6 Len=  172
 Calling FoFJK, ICntrl=      2127 FMM=F ISym2X=0 I1Cent= 0 IOpClX= 0 NMat=1 NMatS=1 NMatT=0.
 Defaulting to unpruned grid for atomic number  53.
 Defaulting to unpruned grid for atomic number  53.
 ***** Axes restored to original set *****
 -------------------------------------------------------------------
 Center     Atomic                   Forces (Hartrees/Bohr)
 Number     Number              X              Y              Z
 -------------------------------------------------------------------
      1        6           0.000338830    0.000466271    0.000023484
      2        6           0.000211042   -0.000197669    0.000004409
      3        1          -0.000162981   -0.000001926   -0.000006591
      4        7          -0.000348782    0.000173626   -0.000010694
      5        6           0.000413147   -0.000364475    0.000009664
      6        6          -0.000488283    0.000822032   -0.000003814
      7        6          -0.000183173   -0.001217380   -0.000031631
      8        1           0.000139019   -0.000037781    0.000004829
      9       53           0.000153968    0.000199391    0.000010440
     10        1           0.000117242    0.000058876    0.000005846
     11        1          -0.000190030    0.000099034   -0.000005941
 -------------------------------------------------------------------
 Cartesian Forces:  Max     0.001217380 RMS     0.000324590

 GradGradGradGradGradGradGradGradGradGradGradGradGradGradGradGradGradGrad
 Berny optimization.
 Using GEDIIS/GDIIS optimizer.
 FormGI is forming the generalized inverse of G from B-inverse, IUseBI=4.
 Internal  Forces:  Max     0.000785422 RMS     0.000178778
 Search for a local minimum.
 Step number   3 out of a maximum of   57
 All quantities printed in internal units (Hartrees-Bohrs-Radians)
 Mixed Optimization -- En-DIIS/RFO-DIIS
 Update second derivatives using D2CorX and points    1    2    3
 DE= -1.35D-04 DEPred=-1.24D-04 R= 1.09D+00
 TightC=F SS=  1.41D+00  RLast= 3.45D-02 DXNew= 7.3586D-01 1.0364D-01
 Trust test= 1.09D+00 RLast= 3.45D-02 DXMaxT set to 4.38D-01
 ITU=  1  1  0
 Use linear search instead of GDIIS.
     Eigenvalues ---    0.02190   0.02207   0.02222   0.02232   0.02253
     Eigenvalues ---    0.02267   0.02287   0.02304   0.13682   0.15995
     Eigenvalues ---    0.16000   0.16058   0.16810   0.21791   0.22909
     Eigenvalues ---    0.23277   0.25015   0.35213   0.35227   0.35275
     Eigenvalues ---    0.35462   0.42730   0.45009   0.46559   0.48575
     Eigenvalues ---    0.50808   0.53922
 RFO step:  Lambda=-2.82789576D-06 EMin= 2.18980941D-02
 Quartic linear search produced a step of  0.09058.
 Iteration  1 RMS(Cart)=  0.00079651 RMS(Int)=  0.00000059
 Iteration  2 RMS(Cart)=  0.00000041 RMS(Int)=  0.00000048
 Variable       Old X    -DE/DX   Delta X   Delta X   Delta X     New X
                                 (Linear)    (Quad)   (Total)
    R1        2.63660  -0.00015   0.00019  -0.00039  -0.00019   2.63641
    R2        2.63572   0.00058   0.00007   0.00131   0.00137   2.63709
    R3        2.05247  -0.00001   0.00004  -0.00005  -0.00001   2.05246
    R4        2.05689  -0.00008   0.00002  -0.00025  -0.00023   2.05666
    R5        2.52891  -0.00024  -0.00043  -0.00021  -0.00064   2.52827
    R6        2.52677  -0.00006  -0.00076   0.00038  -0.00037   2.52640
    R7        2.63943   0.00005  -0.00005   0.00026   0.00021   2.63965
    R8        2.05493  -0.00019   0.00002  -0.00059  -0.00057   2.05435
    R9        2.63376  -0.00079  -0.00044  -0.00132  -0.00176   2.63200
   R10        4.04659  -0.00025   0.00037  -0.00108  -0.00071   4.04588
   R11        2.05041  -0.00014  -0.00009  -0.00034  -0.00044   2.04997
    A1        2.07135  -0.00004  -0.00002  -0.00001  -0.00003   2.07132
    A2        2.10656  -0.00011   0.00007  -0.00092  -0.00085   2.10570
    A3        2.10528   0.00015  -0.00005   0.00094   0.00089   2.10617
    A4        2.10562  -0.00015  -0.00046  -0.00064  -0.00109   2.10453
    A5        2.15315   0.00001  -0.00015   0.00025   0.00010   2.15325
    A6        2.02441   0.00014   0.00061   0.00038   0.00099   2.02540
    A7        2.06058   0.00005   0.00083  -0.00047   0.00036   2.06093
    A8        2.13750  -0.00014  -0.00120   0.00030  -0.00090   2.13659
    A9        2.03537   0.00017   0.00151  -0.00021   0.00130   2.03666
   A10        2.11032  -0.00003  -0.00031  -0.00009  -0.00040   2.10993
   A11        2.08607   0.00030   0.00129   0.00012   0.00141   2.08748
   A12        2.09241  -0.00026  -0.00085  -0.00039  -0.00124   2.09117
   A13        2.10471  -0.00004  -0.00044   0.00027  -0.00017   2.10454
   A14        2.05772  -0.00018  -0.00074  -0.00018  -0.00093   2.05680
   A15        2.11018   0.00014   0.00065   0.00021   0.00086   2.11104
   A16        2.11529   0.00004   0.00009  -0.00002   0.00007   2.11535
    D1        3.14159   0.00000   0.00000   0.00000   0.00001  -3.14159
    D2       -0.00000   0.00000   0.00000  -0.00000   0.00000  -0.00000
    D3       -0.00001   0.00000   0.00000   0.00001   0.00001  -0.00000
    D4        3.14159   0.00000   0.00000   0.00000   0.00000   3.14159
    D5        0.00000  -0.00000  -0.00000  -0.00000  -0.00000   0.00000
    D6        3.14159   0.00000   0.00000   0.00000   0.00000  -3.14159
    D7       -3.14159  -0.00000  -0.00000  -0.00000  -0.00000  -3.14159
    D8        0.00000   0.00000   0.00000  -0.00000   0.00000   0.00000
    D9       -0.00000   0.00000  -0.00000   0.00000   0.00000   0.00000
   D10       -3.14159  -0.00000  -0.00000  -0.00000  -0.00000  -3.14159
   D11        0.00000  -0.00000  -0.00000  -0.00000  -0.00000  -0.00000
   D12       -3.14159  -0.00000  -0.00000  -0.00000  -0.00000  -3.14159
   D13       -0.00000   0.00000   0.00000   0.00000   0.00000  -0.00000
   D14        3.14159   0.00000   0.00000   0.00000   0.00001   3.14159
   D15        3.14159   0.00000   0.00000  -0.00000   0.00000   3.14159
   D16       -0.00001   0.00000   0.00000   0.00000   0.00000  -0.00000
   D17        0.00000   0.00000  -0.00000   0.00000   0.00000   0.00000
   D18       -3.14159  -0.00000  -0.00000  -0.00000  -0.00000  -3.14159
   D19       -3.14159  -0.00000  -0.00000  -0.00000  -0.00000  -3.14159
   D20        0.00001  -0.00000  -0.00000  -0.00000  -0.00001   0.00000
         Item               Value     Threshold  Converged?
 Maximum Force            0.000785     0.000450     NO 
 RMS     Force            0.000179     0.000300     YES
 Maximum Displacement     0.002292     0.001800     NO 
 RMS     Displacement     0.000797     0.001200     YES
 Predicted change in Energy=-2.358412D-06
 GradGradGradGradGradGradGradGradGradGradGradGradGradGradGradGradGradGrad

                          Input orientation:                          
 ---------------------------------------------------------------------
 Center     Atomic      Atomic             Coordinates (Angstroms)
 Number     Number       Type             X           Y           Z
 ---------------------------------------------------------------------
      1          6           0       -0.766967    1.154648    0.007747
      2          6           0        0.626882    1.170107    0.065444
      3          1           0        1.168920    2.112962    0.106661
      4          7           0        1.375450    0.061254    0.074038
      5          6           0        0.751168   -1.119921    0.024658
      6          6           0       -0.640082   -1.229687   -0.034824
      7          6           0       -1.421457   -0.076760   -0.043884
      8          1           0       -2.503894   -0.131838   -0.089554
      9         53           0       -1.552926   -3.164811   -0.111199
     10          1           0       -1.331233    2.082671    0.003118
     11          1           0        1.381080   -2.005906    0.032834
 ---------------------------------------------------------------------
                    Distance matrix (angstroms):
                    1          2          3          4          5
     1  C    0.000000
     2  C    1.395128   0.000000
     3  H    2.162362   1.088339   0.000000
     4  N    2.406211   1.337902   2.062335   0.000000
     5  C    2.734718   2.293760   3.260793   1.336914   0.000000
     6  C    2.388088   2.715559   3.803394   2.395985   1.396840
     7  C    1.395490   2.400484   3.395233   2.802792   2.411055
     8  H    2.163662   3.394237   4.308967   3.887590   3.403643
     9  I    4.391994   4.855335   5.942290   4.360871   3.083648
    10  H    1.086114   2.161220   2.502480   3.378947   3.820138
    11  H    3.821497   3.264496   4.124990   2.067578   1.087118
                    6          7          8          9         10
     6  C    0.000000
     7  C    1.392792   0.000000
     8  H    2.163808   1.084799   0.000000
     9  I    2.140987   3.091581   3.178637   0.000000
    10  H    3.383910   2.161826   2.507544   5.253407   0.000000
    11  H    2.166146   3.403190   4.315105   3.157879   4.906525
                   11
    11  H    0.000000
 Stoichiometry    C5H4IN
 Framework group  C1[X(C5H4IN)]
 Deg. of freedom    27
 Full point group                 C1      NOp   1
 Largest Abelian subgroup         C1      NOp   1
 Largest concise Abelian subgroup C1      NOp   1
                         Standard orientation:                         
 ---------------------------------------------------------------------
 Center     Atomic      Atomic             Coordinates (Angstroms)
 Number     Number       Type             X           Y           Z
 ---------------------------------------------------------------------
      1          6           0        2.682196    1.159127    0.000000
      2          6           0        3.299495   -0.092002   -0.000001
      3          1           0        4.384743   -0.173967   -0.000001
      4          7           0        2.623153   -1.246360    0.000000
      5          6           0        1.287300   -1.193095    0.000000
      6          6           0        0.586044    0.014962    0.000000
      7          6           0        1.287947    1.217959    0.000001
      8          1           0        0.769704    2.170961    0.000001
      9         53           0       -1.554910    0.003035   -0.000000
     10          1           0        3.275177    2.069081    0.000001
     11          1           0        0.760659   -2.144134    0.000002
 ---------------------------------------------------------------------
 Rotational constants (GHZ):           5.8421786           0.7355895           0.6533288
 Basis read from rwf:  (5D, 7F)
 Pseudo-potential data read from rwf file.
 There are   106 symmetry adapted cartesian basis functions of A   symmetry.
 There are   100 symmetry adapted basis functions of A   symmetry.
   100 basis functions,   196 primitive gaussians,   106 cartesian basis functions
    24 alpha electrons       24 beta electrons
       nuclear repulsion energy       240.5846087223 Hartrees.
 NAtoms=   11 NActive=   11 NUniq=   11 SFac= 1.00D+00 NAtFMM=   60 NAOKFM=F Big=F
 Integral buffers will be    131072 words long.
 Raffenetti 2 integral format.
 Two-electron integral symmetry is turned on.
 One-electron integrals computed using PRISM.
   1 Symmetry operations used in ECPInt.
 ECPInt:  NShTT=     666 NPrTT=    4038 LenC2=     667 LenP2D=    3154.
 LDataN:  DoStor=T MaxTD1= 5 Len=  102
 NBasis=   100 RedAO= T EigKep=  1.02D-03  NBF=   100
 NBsUse=   100 1.00D-06 EigRej= -1.00D+00 NBFU=   100
 Defaulting to unpruned grid for atomic number  53.
 Initial guess from the checkpoint file:  "science_arx_151.chk"
 B after Tr=     0.000000   -0.000000   -0.000000
         Rot=    1.000000    0.000000    0.000000    0.000029 Ang=   0.00 deg.
 Keep R1 ints in memory in canonical form, NReq=14614214.
 Defaulting to unpruned grid for atomic number  53.
 Defaulting to unpruned grid for atomic number  53.
 LinEq1:  Iter=  0 NonCon=     1 RMS=2.16D-05 Max=3.65D-04 NDo=     1
 AX will form     1 AO Fock derivatives at one time.
 LinEq1:  Iter=  1 NonCon=     1 RMS=1.47D-05 Max=2.63D-04 NDo=     1
 LinEq1:  Iter=  2 NonCon=     1 RMS=6.04D-06 Max=1.02D-04 NDo=     1
 LinEq1:  Iter=  3 NonCon=     1 RMS=5.14D-06 Max=9.44D-05 NDo=     1
 LinEq1:  Iter=  4 NonCon=     1 RMS=2.60D-06 Max=4.40D-05 NDo=     1
 LinEq1:  Iter=  5 NonCon=     1 RMS=2.03D-06 Max=4.47D-05 NDo=     1
 LinEq1:  Iter=  6 NonCon=     1 RMS=7.82D-07 Max=9.06D-06 NDo=     1
 LinEq1:  Iter=  7 NonCon=     1 RMS=4.43D-07 Max=6.73D-06 NDo=     1
 LinEq1:  Iter=  8 NonCon=     1 RMS=1.91D-07 Max=2.21D-06 NDo=     1
 LinEq1:  Iter=  9 NonCon=     1 RMS=6.82D-08 Max=1.05D-06 NDo=     1
 LinEq1:  Iter= 10 NonCon=     1 RMS=3.63D-08 Max=5.37D-07 NDo=     1
 LinEq1:  Iter= 11 NonCon=     1 RMS=1.44D-08 Max=2.17D-07 NDo=     1
 LinEq1:  Iter= 12 NonCon=     1 RMS=8.44D-09 Max=1.53D-07 NDo=     1
 LinEq1:  Iter= 13 NonCon=     0 RMS=2.19D-09 Max=1.46D-08 NDo=     1
 Linear equations converged to 6.040D-09 6.040D-08 after    13 iterations.
     Accept linear search using points  1 and  2.
     Minimum is close to point  2 DX= -2.74D-05 DF=  0.00D+00 DXR=  2.74D-05 DFR=  0.00D+00 which will be used.
 SCF Done:  E(RB3LYP) =  -259.056661420     a.u. after    2 cycles
            Convg  =    0.1368D-06                    15 Fock formations.
              S**2 =  0.0000                  -V/T =  2.0398
   1 Symmetry operations used in ECPInt.
 ECPInt:  NShTT=     666 NPrTT=    4038 LenC2=     667 LenP2D=    3154.
 LDataN:  DoStor=T MaxTD1= 6 Len=  172
 Calling FoFJK, ICntrl=      2127 FMM=F ISym2X=0 I1Cent= 0 IOpClX= 0 NMat=1 NMatS=1 NMatT=0.
 Defaulting to unpruned grid for atomic number  53.
 Defaulting to unpruned grid for atomic number  53.
 ***** Axes restored to original set *****
 -------------------------------------------------------------------
 Center     Atomic                   Forces (Hartrees/Bohr)
 Number     Number              X              Y              Z
 -------------------------------------------------------------------
      1        6           0.000062503    0.000114456    0.000004857
      2        6          -0.000153463    0.000008716   -0.000005969
      3        1          -0.000012360    0.000019872   -0.000000135
      4        7           0.000098419   -0.000091627    0.000002088
      5        6           0.000074507   -0.000020389    0.000002751
      6        6          -0.000167314    0.000087846   -0.000005126
      7        6           0.000035267   -0.000186990   -0.000002346
      8        1          -0.000007064    0.000035617    0.000000439
      9       53           0.000039897    0.000021582    0.000002083
     10        1           0.000024294    0.000003950    0.000001038
     11        1           0.000005314    0.000006967    0.000000319
 -------------------------------------------------------------------
 Cartesian Forces:  Max     0.000186990 RMS     0.000065440

 GradGradGradGradGradGradGradGradGradGradGradGradGradGradGradGradGradGrad
 Berny optimization.
 Using GEDIIS/GDIIS optimizer.
 FormGI is forming the generalized inverse of G from B-inverse, IUseBI=4.
 Internal  Forces:  Max     0.000105529 RMS     0.000034776
 Search for a local minimum.
 Step number   4 out of a maximum of   57
 All quantities printed in internal units (Hartrees-Bohrs-Radians)
 Mixed Optimization -- En-DIIS/RFO-DIIS
 Swapping is turned off.
 Update second derivatives using D2CorX and points    1    2    3    4
 DE= -2.56D-06 DEPred=-2.36D-06 R= 1.09D+00
 TightC=F SS=  1.41D+00  RLast= 4.28D-03 DXNew= 7.3586D-01 1.2846D-02
 Trust test= 1.09D+00 RLast= 4.28D-03 DXMaxT set to 4.38D-01
 ITU=  1  1  1  0
     Eigenvalues ---    0.02190   0.02207   0.02222   0.02232   0.02253
     Eigenvalues ---    0.02267   0.02287   0.02304   0.13769   0.15507
     Eigenvalues ---    0.16000   0.16156   0.16773   0.21400   0.22063
     Eigenvalues ---    0.23494   0.25291   0.35206   0.35240   0.35401
     Eigenvalues ---    0.35474   0.42576   0.44172   0.45253   0.48209
     Eigenvalues ---    0.50875   0.55652
 En-DIIS/RFO-DIIS/Sim-DIIS IScMMF=       -3 using points:     4    3
 RFO step:  Lambda=-1.94190734D-07.
 DidBck=F Rises=F RFO-DIIS coefs:    1.11305   -0.11305
 Iteration  1 RMS(Cart)=  0.00018245 RMS(Int)=  0.00000002
 Iteration  2 RMS(Cart)=  0.00000002 RMS(Int)=  0.00000001
 Variable       Old X    -DE/DX   Delta X   Delta X   Delta X     New X
                                 (Linear)    (Quad)   (Total)
    R1        2.63641  -0.00008  -0.00002  -0.00016  -0.00018   2.63623
    R2        2.63709   0.00008   0.00016   0.00006   0.00021   2.63731
    R3        2.05246  -0.00001  -0.00000  -0.00003  -0.00003   2.05243
    R4        2.05666   0.00001  -0.00003   0.00005   0.00003   2.05669
    R5        2.52827   0.00011  -0.00007   0.00026   0.00019   2.52845
    R6        2.52640  -0.00002  -0.00004  -0.00001  -0.00005   2.52635
    R7        2.63965   0.00009   0.00002   0.00018   0.00021   2.63985
    R8        2.05435  -0.00000  -0.00006   0.00004  -0.00003   2.05433
    R9        2.63200  -0.00008  -0.00020  -0.00004  -0.00024   2.63176
   R10        4.04588  -0.00004  -0.00008  -0.00015  -0.00023   4.04564
   R11        2.04997   0.00001  -0.00005   0.00005   0.00000   2.04998
    A1        2.07132  -0.00002  -0.00000  -0.00009  -0.00010   2.07122
    A2        2.10570  -0.00001  -0.00010  -0.00003  -0.00013   2.10557
    A3        2.10617   0.00003   0.00010   0.00013   0.00023   2.10639
    A4        2.10453  -0.00005  -0.00012  -0.00017  -0.00030   2.10423
    A5        2.15325   0.00005   0.00001   0.00022   0.00023   2.15348
    A6        2.02540  -0.00000   0.00011  -0.00004   0.00007   2.02547
    A7        2.06093  -0.00005   0.00004  -0.00022  -0.00018   2.06076
    A8        2.13659  -0.00001  -0.00010   0.00005  -0.00005   2.13654
    A9        2.03666  -0.00001   0.00015  -0.00015  -0.00001   2.03666
   A10        2.10993   0.00001  -0.00004   0.00010   0.00006   2.10999
   A11        2.08748   0.00003   0.00016  -0.00000   0.00016   2.08764
   A12        2.09117  -0.00007  -0.00014  -0.00020  -0.00034   2.09083
   A13        2.10454   0.00004  -0.00002   0.00020   0.00018   2.10472
   A14        2.05680  -0.00000  -0.00010   0.00004  -0.00006   2.05673
   A15        2.11104  -0.00003   0.00010  -0.00029  -0.00020   2.11084
   A16        2.11535   0.00004   0.00001   0.00025   0.00026   2.11561
    D1       -3.14159  -0.00000   0.00000  -0.00000  -0.00000   3.14159
    D2       -0.00000   0.00000   0.00000   0.00000   0.00000   0.00000
    D3       -0.00000  -0.00000   0.00000  -0.00000  -0.00000  -0.00000
    D4        3.14159   0.00000   0.00000   0.00000   0.00000  -3.14159
    D5        0.00000  -0.00000  -0.00000   0.00000  -0.00000  -0.00000
    D6       -3.14159  -0.00000   0.00000  -0.00000  -0.00000   3.14159
    D7       -3.14159  -0.00000  -0.00000  -0.00000  -0.00000   3.14159
    D8        0.00000  -0.00000   0.00000  -0.00000  -0.00000  -0.00000
    D9        0.00000  -0.00000   0.00000  -0.00000  -0.00000  -0.00000
   D10       -3.14159   0.00000  -0.00000   0.00000   0.00000  -3.14159
   D11       -0.00000   0.00000  -0.00000   0.00000   0.00000   0.00000
   D12       -3.14159  -0.00000  -0.00000   0.00000  -0.00000  -3.14159
   D13       -0.00000   0.00000   0.00000   0.00000   0.00000  -0.00000
   D14        3.14159  -0.00000   0.00000  -0.00000  -0.00000   3.14159
   D15        3.14159   0.00000   0.00000   0.00000   0.00000  -3.14159
   D16       -0.00000   0.00000   0.00000   0.00000   0.00000  -0.00000
   D17        0.00000  -0.00000   0.00000  -0.00000  -0.00000  -0.00000
   D18       -3.14159  -0.00000  -0.00000  -0.00000  -0.00000   3.14159
   D19       -3.14159  -0.00000  -0.00000  -0.00000  -0.00000  -3.14159
   D20        0.00000   0.00000  -0.00000   0.00000  -0.00000   0.00000
         Item               Value     Threshold  Converged?
 Maximum Force            0.000106     0.000450     YES
 RMS     Force            0.000035     0.000300     YES
 Maximum Displacement     0.000723     0.001800     YES
 RMS     Displacement     0.000182     0.001200     YES
 Predicted change in Energy=-9.709533D-08
 Optimization completed.
    -- Stationary point found.
                           ----------------------------
                           !   Optimized Parameters   !
                           ! (Angstroms and Degrees)  !
 --------------------------                            --------------------------
 ! Name  Definition              Value          Derivative Info.                !
 --------------------------------------------------------------------------------
 ! R1    R(1,2)                  1.3951         -DE/DX =   -0.0001              !
 ! R2    R(1,7)                  1.3955         -DE/DX =    0.0001              !
 ! R3    R(1,10)                 1.0861         -DE/DX =    0.0                 !
 ! R4    R(2,3)                  1.0883         -DE/DX =    0.0                 !
[...]
 
 Excited State   2:      Singlet-A      4.8719 eV  254.49 nm  f=0.0043  <S**2>=0.000
      22 -> 26         0.16889
      23 -> 26         0.68507
 
 Excited State   3:      Singlet-A      5.0860 eV  243.77 nm  f=0.0252  <S**2>=0.000
      21 -> 27        -0.17076
      23 -> 25        -0.18236
      24 -> 26         0.64194
 
 Excited State   4:      Singlet-A      5.1479 eV  240.84 nm  f=0.0000  <S**2>=0.000
      22 -> 27         0.17305
      23 -> 27         0.68473
 
 Excited State   5:      Singlet-A      5.2151 eV  237.74 nm  f=0.0167  <S**2>=0.000
      22 -> 25        -0.33137
      23 -> 25         0.58107
      24 -> 26         0.14131
      24 -> 27         0.16116
 
 Excited State   6:      Singlet-A      5.4333 eV  228.19 nm  f=0.0005  <S**2>=0.000
      22 -> 25         0.57162
      23 -> 25         0.23132
      24 -> 27         0.33049
 
 Excited State   7:      Singlet-A      5.6710 eV  218.63 nm  f=0.0001  <S**2>=0.000
      22 -> 26         0.68422
      23 -> 26        -0.16834
 
 Excited State   8:      Singlet-A      5.7018 eV  217.45 nm  f=0.1676  <S**2>=0.000
      21 -> 26         0.25410
      22 -> 25        -0.23906
      23 -> 25        -0.24017
      24 -> 26        -0.17131
      24 -> 27         0.52459
 
 Excited State   9:      Singlet-A      5.7723 eV  214.79 nm  f=0.0007  <S**2>=0.000
      21 -> 25         0.70604
 
 Excited State  10:      Singlet-A      5.9857 eV  207.13 nm  f=0.0000  <S**2>=0.000
      22 -> 27         0.68295
      23 -> 27        -0.17247
 SavETr:  write IOETrn=   770 NScale= 10 NData=  16 NLR=1 NState=   10 LETran=     190.
          Differentiating once with respect to electric field.
                with respect to dipole field.
          Electric field/nuclear overlap derivatives assumed to be zero.
 Keep R1 ints in memory in canonical form, NReq=14615637.
          There are     1 degrees of freedom in the 1st order CPHF.  IDoFFX=0 NUNeed=     1.
 Defaulting to unpruned grid for atomic number  53.
 Defaulting to unpruned grid for atomic number  53.
 LinEq1:  Iter=  0 NonCon=     1 RMS=1.85D-02 Max=3.73D-01 NDo=     1
 AX will form     1 AO Fock derivatives at one time.
 LinEq1:  Iter=  1 NonCon=     1 RMS=7.92D-03 Max=1.19D-01 NDo=     1
 LinEq1:  Iter=  2 NonCon=     1 RMS=5.51D-03 Max=8.68D-02 NDo=     1
 LinEq1:  Iter=  3 NonCon=     1 RMS=2.67D-03 Max=4.71D-02 NDo=     1
 LinEq1:  Iter=  4 NonCon=     1 RMS=1.71D-03 Max=2.78D-02 NDo=     1
 LinEq1:  Iter=  5 NonCon=     1 RMS=1.04D-03 Max=1.73D-02 NDo=     1
 LinEq1:  Iter=  6 NonCon=     1 RMS=5.15D-04 Max=6.74D-03 NDo=     1
 LinEq1:  Iter=  7 NonCon=     1 RMS=1.53D-04 Max=2.34D-03 NDo=     1
 LinEq1:  Iter=  8 NonCon=     1 RMS=9.79D-05 Max=1.37D-03 NDo=     1
 LinEq1:  Iter=  9 NonCon=     1 RMS=2.79D-05 Max=3.54D-04 NDo=     1
 LinEq1:  Iter= 10 NonCon=     1 RMS=1.04D-05 Max=2.13D-04 NDo=     1
 LinEq1:  Iter= 11 NonCon=     1 RMS=5.87D-06 Max=7.60D-05 NDo=     1
 LinEq1:  Iter= 12 NonCon=     1 RMS=1.89D-06 Max=2.06D-05 NDo=     1
 LinEq1:  Iter= 13 NonCon=     1 RMS=4.02D-07 Max=5.01D-06 NDo=     1
 LinEq1:  Iter= 14 NonCon=     1 RMS=7.94D-08 Max=9.06D-07 NDo=     1
 LinEq1:  Iter= 15 NonCon=     1 RMS=1.20D-08 Max=1.19D-07 NDo=     1
 LinEq1:  Iter= 16 NonCon=     1 RMS=2.29D-09 Max=2.04D-08 NDo=     1
 LinEq1:  Iter= 17 NonCon=     1 RMS=3.53D-10 Max=2.50D-09 NDo=     1
 LinEq1:  Iter= 18 NonCon=     0 RMS=5.61D-11 Max=5.96D-10 NDo=     1
 Linear equations converged to 1.000D-10 1.000D-09 after    18 iterations.
 End of Minotr F.D. properties file   721 does not exist.
 End of Minotr F.D. properties file   722 does not exist.
 End of Minotr F.D. properties file   788 does not exist.

 **********************************************************************

            Population analysis using the CI density.

 **********************************************************************

 Orbital symmetries:
       Occupied  (A) (A) (A) (A) (A) (A) (A) (A) (A) (A) (A) (A)
                 (A) (A) (A) (A) (A) (A) (A) (A) (A) (A) (A) (A)
       Virtual   (A) (A) (A) (A) (A) (A) (A) (A) (A) (A) (A) (A)
                 (A) (A) (A) (A) (A) (A) (A) (A) (A) (A) (A) (A)
                 (A) (A) (A) (A) (A) (A) (A) (A) (A) (A) (A) (A)
                 (A) (A) (A) (A) (A) (A) (A) (A) (A) (A) (A) (A)
                 (A) (A) (A) (A) (A) (A) (A) (A) (A) (A) (A) (A)
                 (A) (A) (A) (A) (A) (A) (A) (A) (A) (A) (A) (A)
                 (A) (A) (A) (A)
 The electronic state is 1-A.
 Alpha  occ. eigenvalues --  -14.34299 -10.24905 -10.23532 -10.23040 -10.22217
 Alpha  occ. eigenvalues --  -10.20997  -0.95545  -0.82451  -0.78216  -0.69273
 Alpha  occ. eigenvalues --   -0.64666  -0.62132  -0.53565  -0.49881  -0.46736
 Alpha  occ. eigenvalues --   -0.42354  -0.41913  -0.41403  -0.36250  -0.31755
 Alpha  occ. eigenvalues --   -0.29113  -0.27786  -0.26489  -0.25117
 Alpha virt. eigenvalues --   -0.04157  -0.03811  -0.02556   0.10119   0.12983
 Alpha virt. eigenvalues --    0.14817   0.14855   0.16884   0.22724   0.27306
 Alpha virt. eigenvalues --    0.29337   0.30321   0.35876   0.37993   0.38345
 Alpha virt. eigenvalues --    0.45145   0.47517   0.50907   0.53752   0.57206
 Alpha virt. eigenvalues --    0.58006   0.58742   0.58868   0.58965   0.61778
 Alpha virt. eigenvalues --    0.64610   0.65647   0.67898   0.68652   0.81703
 Alpha virt. eigenvalues --    0.82657   0.84332   0.84950   0.87131   0.90458
 Alpha virt. eigenvalues --    0.91648   0.96686   1.02877   1.05379   1.08076
 Alpha virt. eigenvalues --    1.12140   1.17623   1.23048   1.33220   1.36388
 Alpha virt. eigenvalues --    1.41273   1.45569   1.46204   1.50129   1.50237
 Alpha virt. eigenvalues --    1.64238   1.75351   1.79658   1.81176   1.81472
 Alpha virt. eigenvalues --    1.93292   2.03480   2.11029   2.11079   2.15344
 Alpha virt. eigenvalues --    2.16255   2.17837   2.27306   2.29985   2.36252
 Alpha virt. eigenvalues --    2.48376   2.51689   2.62624   2.65234   2.67291
 Alpha virt. eigenvalues --    2.67377   2.73921   2.76038   3.03079   3.33917
 Alpha virt. eigenvalues --    9.88841
          Condensed to atoms (all electrons):
               1          2          3          4          5          6
     1  C    4.937585   0.468960  -0.062447  -0.041921  -0.034329  -0.015724
     2  C    0.468960   4.804998   0.376860   0.493143  -0.064166  -0.056236
     3  H   -0.062447   0.376860   0.561069  -0.047181   0.004597   0.000368
     4  N   -0.041921   0.493143  -0.047181   6.538729   0.513122  -0.045131
     5  C   -0.034329  -0.064166   0.004597   0.513122   4.785590   0.455011
     6  C   -0.015724  -0.056236   0.000368  -0.045131   0.455011   6.295822
     7  C    0.563837  -0.015938   0.003208  -0.037367  -0.036369   0.510104
     8  H   -0.045361   0.002984  -0.000154  -0.000259   0.003692  -0.060082
     9  I    0.003590  -0.002449   0.000032   0.000118  -0.062862  -0.753241
    10  H    0.344683  -0.044275  -0.001614   0.004595  -0.000169   0.009884
    11  H    0.000828   0.003665  -0.000153  -0.045540   0.369181  -0.073317
               7          8          9         10         11
     1  C    0.563837  -0.045361   0.003590   0.344683   0.000828
     2  C   -0.015938   0.002984  -0.002449  -0.044275   0.003665
     3  H    0.003208  -0.000154   0.000032  -0.001614  -0.000153
     4  N   -0.037367  -0.000259   0.000118   0.004595  -0.045540
     5  C   -0.036369   0.003692  -0.062862  -0.000169   0.369181
     6  C    0.510104  -0.060082  -0.753241   0.009884  -0.073317
     7  C    4.842058   0.352013  -0.073369  -0.051058   0.002368
     8  H    0.352013   0.568899   0.025540  -0.002166  -0.000076
     9  I   -0.073369   0.025540   7.792193   0.000620   0.022409
    10  H   -0.051058  -0.002166   0.000620   0.591920   0.000038
    11  H    0.002368  -0.000076   0.022409   0.000038   0.556141
 Mulliken charges:
               1
     1  C   -0.119700
     2  C    0.032453
     3  H    0.165413
     4  N   -0.332308
     5  C    0.066702
     6  C   -0.267457
     7  C   -0.059485
     8  H    0.154969
     9  I    0.047418
    10  H    0.147541
    11  H    0.164455
 Sum of Mulliken charges =   0.00000
 Mulliken charges with hydrogens summed into heavy atoms:
               1
     1  C    0.027841
     2  C    0.197867
     4  N   -0.332308
     5  C    0.231157
     6  C   -0.267457
     7  C    0.095484
     9  I    0.047418
 Electronic spatial extent (au):  <R**2>=           1108.3289
 Charge=             -0.0000 electrons
 Dipole moment (field-independent basis, Debye):
    X=              2.8410    Y=              1.7356    Z=              0.0000  Tot=              3.3292
 Quadrupole moment (field-independent basis, Debye-Ang):
   XX=            -53.3998   YY=            -53.7173   ZZ=            -54.5448
   XY=              6.4121   XZ=             -0.0000   YZ=              0.0000
 Traceless Quadrupole moment (field-independent basis, Debye-Ang):
   XX=              0.4875   YY=              0.1700   ZZ=             -0.6575
   XY=              6.4121   XZ=             -0.0000   YZ=              0.0000
 Octapole moment (field-independent basis, Debye-Ang**2):
  XXX=            -65.0603  YYY=              7.6777  ZZZ=             -0.0000  XYY=            -36.9677
  XXY=             20.3568  XXZ=             -0.0000  XZZ=            -39.0141  YZZ=             -1.1991
  YYZ=              0.0000  XYZ=              0.0000
 Hexadecapole moment (field-independent basis, Debye-Ang**3):
 XXXX=          -1269.0835 YYYY=           -297.5877 ZZZZ=            -68.4182 XXXY=             59.6173
 XXXZ=             -0.0001 YYYX=             27.8265 YYYZ=              0.0000 ZZZX=              0.0000
 ZZZY=             -0.0000 XXYY=           -304.8655 XXZZ=           -248.3236 YYZZ=            -65.8913
 XXYZ=              0.0000 YYXZ=              0.0000 ZZXY=             -2.8222
 N-N= 2.405846087223D+02 E-N=-1.077460137022D+03  KE= 2.494907226968D+02
 Evaluate density.
 Using the total density.
 Monte-Carlo method of calculating molar volume:
 based on  0.001 e/bohr**3 density envelope.
 Number of points per bohr**3 =   20 CutOff= 1.00D-04
 Using the CI density.
 There are       482 points.  Will hold       482 in memory.
 LenV=   536807171 MDV=   536870912.
 Box volume =14072.492 fraction occupied=0.054
 Integrated density= 1.4004496094456291D+01 error=-3.3995503905543707D+01
 Molar volume =  759.097 bohr**3/mol ( 67.741 cm**3/mol)
 Recommended a0 for SCRF calculation =  3.80 angstrom (  7.17 bohr)
 ******************************Gaussian NBO Version 3.1******************************
             N A T U R A L   A T O M I C   O R B I T A L   A N D
          N A T U R A L   B O N D   O R B I T A L   A N A L Y S I S
 ******************************Gaussian NBO Version 3.1******************************
       /RESON  / : Allow strongly delocalized NBO set

 Analyzing the CI density

 Job title: Title Card Required                                             

 Storage needed:     30474 in NPA ( 536870219 available)


 NATURAL POPULATIONS:  Natural atomic orbital occupancies 
                                                          
   NAO  Atom  No  lang   Type(AO)    Occupancy
 --------------------------------------------
     1    C    1  S      Cor( 1S)     1.99894
     2    C    1  S      Val( 2S)     0.98077
     3    C    1  S      Ryd( 3S)     0.00080
     4    C    1  px     Val( 2p)     1.11456
     5    C    1  px     Ryd( 3p)     0.00419
     6    C    1  py     Val( 2p)     1.17197
     7    C    1  py     Ryd( 3p)     0.00491
     8    C    1  pz     Val( 2p)     0.97323
     9    C    1  pz     Ryd( 3p)     0.00053
    10    C    1  dxy    Ryd( 3d)     0.00101
    11    C    1  dxz    Ryd( 3d)     0.00042
    12    C    1  dyz    Ryd( 3d)     0.00040
    13    C    1  dx2y2  Ryd( 3d)     0.00067
    14    C    1  dz2    Ryd( 3d)     0.00046
 
    15    C    2  S      Cor( 1S)     1.99906
    16    C    2  S      Val( 2S)     0.93931
    17    C    2  S      Ryd( 3S)     0.00159
    18    C    2  px     Val( 2p)     1.15153
    19    C    2  px     Ryd( 3p)     0.00591
    20    C    2  py     Val( 2p)     0.94510
    21    C    2  py     Ryd( 3p)     0.00999
    22    C    2  pz     Val( 2p)     0.85684
    23    C    2  pz     Ryd( 3p)     0.00090
    24    C    2  dxy    Ryd( 3d)     0.00104
    25    C    2  dxz    Ryd( 3d)     0.00038
    26    C    2  dyz    Ryd( 3d)     0.00089
    27    C    2  dx2y2  Ryd( 3d)     0.00184
    28    C    2  dz2    Ryd( 3d)     0.00041
 
    29    H    3  S      Val( 1S)     0.76852
    30    H    3  S      Ryd( 2S)     0.00135
 
    31    N    4  S      Cor( 1S)     1.99931
    32    N    4  S      Val( 2S)     1.37508
    33    N    4  S      Ryd( 3S)     0.00052
    34    N    4  px     Val( 2p)     1.33490
    35    N    4  px     Ryd( 3p)     0.00441
    36    N    4  py     Val( 2p)     1.58335
    37    N    4  py     Ryd( 3p)     0.00585
    38    N    4  pz     Val( 2p)     1.14529
    39    N    4  pz     Ryd( 3p)     0.00037
    40    N    4  dxy    Ryd( 3d)     0.00278
    41    N    4  dxz    Ryd( 3d)     0.00090
    42    N    4  dyz    Ryd( 3d)     0.00222
    43    N    4  dx2y2  Ryd( 3d)     0.00316
    44    N    4  dz2    Ryd( 3d)     0.00228
 
    45    C    5  S      Cor( 1S)     1.99887
    46    C    5  S      Val( 2S)     0.93873
    47    C    5  S      Ryd( 3S)     0.00176
    48    C    5  px     Val( 2p)     0.94248
    49    C    5  px     Ryd( 3p)     0.00984
    50    C    5  py     Val( 2p)     1.17588
    51    C    5  py     Ryd( 3p)     0.00789
    52    C    5  pz     Val( 2p)     0.84906
    53    C    5  pz     Ryd( 3p)     0.00080
    54    C    5  dxy    Ryd( 3d)     0.00190
    55    C    5  dxz    Ryd( 3d)     0.00078
    56    C    5  dyz    Ryd( 3d)     0.00035
    57    C    5  dx2y2  Ryd( 3d)     0.00132
    58    C    5  dz2    Ryd( 3d)     0.00041
 
    59    C    6  S      Cor( 1S)     1.99872
    60    C    6  S      Val( 2S)     1.09564
    61    C    6  S      Ryd( 3S)     0.00521
    62    C    6  px     Val( 2p)     1.28748
    63    C    6  px     Ryd( 3p)     0.01043
    64    C    6  py     Val( 2p)     1.05724
    65    C    6  py     Ryd( 3p)     0.01053
    66    C    6  pz     Val( 2p)     0.85590
    67    C    6  pz     Ryd( 3p)     0.00048
    68    C    6  dxy    Ryd( 3d)     0.00103
    69    C    6  dxz    Ryd( 3d)     0.00081
    70    C    6  dyz    Ryd( 3d)     0.00043
    71    C    6  dx2y2  Ryd( 3d)     0.00061
    72    C    6  dz2    Ryd( 3d)     0.00035
 
    73    C    7  S      Cor( 1S)     1.99878
    74    C    7  S      Val( 2S)     0.96785
    75    C    7  S      Ryd( 3S)     0.00102
    76    C    7  px     Val( 2p)     1.09898
    77    C    7  px     Ryd( 3p)     0.00592
    78    C    7  py     Val( 2p)     1.19904
    79    C    7  py     Ryd( 3p)     0.00646
    80    C    7  pz     Val( 2p)     0.91622
    81    C    7  pz     Ryd( 3p)     0.00041
    82    C    7  dxy    Ryd( 3d)     0.00103
    83    C    7  dxz    Ryd( 3d)     0.00044
    84    C    7  dyz    Ryd( 3d)     0.00036
    85    C    7  dx2y2  Ryd( 3d)     0.00102
    86    C    7  dz2    Ryd( 3d)     0.00045
 
    87    H    8  S      Val( 1S)     0.75725
    88    H    8  S      Ryd( 2S)     0.00408
 
    89    I    9  S      Val( 5S)     1.95314
    90    I    9  S      Ryd( 6S)     0.00285
    91    I    9  px     Val( 5p)     1.50212
    92    I    9  px     Ryd( 6p)     0.02469
    93    I    9  py     Val( 5p)     1.98097
    94    I    9  py     Ryd( 6p)     0.00041
    95    I    9  pz     Val( 5p)     1.39268
    96    I    9  pz     Ryd( 6p)     0.00048
 
    97    H   10  S      Val( 1S)     0.75549
    98    H   10  S      Ryd( 2S)     0.00210
 
    99    H   11  S      Val( 1S)     0.76949
   100    H   11  S      Ryd( 2S)     0.00342

 [ 46 electrons found in the effective core potential]

 WARNING:  1 low occupancy (<1.9990e) core orbital  found on  C    1
           1 low occupancy (<1.9990e) core orbital  found on  C    5
           1 low occupancy (<1.9990e) core orbital  found on  C    6
           1 low occupancy (<1.9990e) core orbital  found on  C    7


 Summary of Natural Population Analysis:                  
                                                          
                                       Natural Population 
                Natural  -----------------------------------------------
    Atom  No    Charge         Core      Valence    Rydberg      Total
 -----------------------------------------------------------------------
      C    1   -0.25286      1.99894     4.24054    0.01338     6.25286
      C    2    0.08521      1.99906     3.89279    0.02295     5.91479
      H    3    0.23013      0.00000     0.76852    0.00135     0.76987
      N    4   -0.46041      1.99931     5.43862    0.02248     7.46041
      C    5    0.06994      1.99887     3.90615    0.02504     5.93006
      C    6   -0.32487      1.99872     4.29627    0.02988     6.32487
      C    7   -0.19798      1.99878     4.18209    0.01710     6.19798
      H    8    0.23867      0.00000     0.75725    0.00408     0.76133
      I    9    0.14267     46.00000     6.82891    0.02843    52.85733
      H   10    0.24242      0.00000     0.75549    0.00210     0.75758
      H   11    0.22709      0.00000     0.76949    0.00342     0.77291
 =======================================================================
   * Total *    0.00000     57.99368    35.83611    0.17021    94.00000

                                 Natural Population      
 --------------------------------------------------------
   Effective Core            46.00000
   Core                      11.99368 ( 99.9474% of  12)
   Valence                   35.83611 ( 99.5447% of  36)
   Natural Minimal Basis     93.82979 ( 99.8189% of  94)
   Natural Rydberg Basis      0.17021 (  0.1811% of  94)
 --------------------------------------------------------

    Atom  No          Natural Electron Configuration
 ----------------------------------------------------------------------------
      C    1      [core]2S( 0.98)2p( 3.26)3p( 0.01)
      C    2      [core]2S( 0.94)2p( 2.95)3p( 0.02)
      H    3            1S( 0.77)
      N    4      [core]2S( 1.38)2p( 4.06)3p( 0.01)3d( 0.01)
      C    5      [core]2S( 0.94)2p( 2.97)3p( 0.02)
      C    6      [core]2S( 1.10)2p( 3.20)3S( 0.01)3p( 0.02)
      C    7      [core]2S( 0.97)2p( 3.21)3p( 0.01)
      H    8            1S( 0.76)
      I    9      [core]5S( 1.95)5p( 4.88)6p( 0.03)
      H   10            1S( 0.76)
      H   11            1S( 0.77)


 NBO analysis skipped by request.
 1\1\GINC-DELLA-R4C3N5\SP\RB3LYP TD-FC\GenECP\C5H4I1N1\BJS4\27-Aug-2018
 \0\\# TD(NStates=10, Root=1) b3lyp/genecp volume pop=NPA density=curre
 nt Geom=AllCheck Guess=Read\\Title Card Required\\0,1\C,0,-0.766966670
 7,1.1546483948,0.0077468566\C,0,0.6268819134,1.1701067166,0.0654438824
 \H,0,1.1689200743,2.1129624861,0.1066605669\N,0,1.3754496227,0.0612543
 422,0.074038175\C,0,0.7511682765,-1.1199205622,0.024658009\C,0,-0.6400
 815483,-1.2296867286,-0.0348236939\C,0,-1.4214574857,-0.0767603708,-0.
 0438836501\H,0,-2.503894487,-0.1318383237,-0.0895540026\I,0,-1.5529263
 6,-3.1648111514,-0.1111986134\H,0,-1.3312330211,2.0826710654,0.0031179
 958\H,0,1.381079686,-2.0059058683,0.0328344735\\Version=ES64L-G16RevA.
 03\State=1-A\HF=-259.0566614\RMSD=4.067e-09\Dipole=-0.1331947,1.302837
 8,0.0206321\Quadrupole=-3.5375807,4.0345666,-0.4969859,-2.8923985,-0.1
 835047,-0.0284155\PG=C01 [X(C5H4I1N1)]\\@


    THE DOUGHNUT CREED
 AS YOU RAMBLE ON THROUGH LIFE, BROTHER
 WHATEVER BE YOUR GOAL
 KEEP YOUR EYE UPON THE DOUGHNUT
 AND NOT UPON THE HOLE.
 Job cpu time:       0 days  0 hours  3 minutes 53.4 seconds.
 Elapsed time:       0 days  0 hours  1 minutes 57.0 seconds.
 File lengths (MBytes):  RWF=    149 Int=      0 D2E=      0 Chk=     67 Scr=      1
 Normal termination of Gaussian 16 at Mon Aug 27 09:50:26 2018.
