 Entering Gaussian System, Link 0=g16
 Input=solvent_5123.com
 Output=solvent_5123.log
 Initial command:
 /opt/export//g16/l1.exe "/scratch/bjs4/job.24892/Gau-24894.inp" -scrdir="/scratch/bjs4/job.24892/"
 Entering Link 1 = /opt/export//g16/l1.exe PID=     24895.
  
 Copyright (c) 1988,1990,1992,1993,1995,1998,2003,2009,2016,
            Gaussian, Inc.  All Rights Reserved.
  
 This is part of the Gaussian(R) 16 program.  It is based on
 the Gaussian(R) 09 system (copyright 2009, Gaussian, Inc.),
 the Gaussian(R) 03 system (copyright 2003, Gaussian, Inc.),
 the Gaussian(R) 98 system (copyright 1998, Gaussian, Inc.),
 the Gaussian(R) 94 system (copyright 1995, Gaussian, Inc.),
 the Gaussian 92(TM) system (copyright 1992, Gaussian, Inc.),
 the Gaussian 90(TM) system (copyright 1990, Gaussian, Inc.),
 the Gaussian 88(TM) system (copyright 1988, Gaussian, Inc.),
 the Gaussian 86(TM) system (copyright 1986, Carnegie Mellon
 University), and the Gaussian 82(TM) system (copyright 1983,
 Carnegie Mellon University). Gaussian is a federally registered
 trademark of Gaussian, Inc.
  
 This software contains proprietary and confidential information,
 including trade secrets, belonging to Gaussian, Inc.
  
 This software is provided under written license and may be
 used, copied, transmitted, or stored only in accord with that
 written license.
  
 The following legend is applicable only to US Government
 contracts under FAR:
  
                    RESTRICTED RIGHTS LEGEND
  
 Use, reproduction and disclosure by the US Government is
 subject to restrictions as set forth in subparagraphs (a)
 and (c) of the Commercial Computer Software - Restricted
 Rights clause in FAR 52.227-19.
  
 Gaussian, Inc.
 340 Quinnipiac St., Bldg. 40, Wallingford CT 06492
  
  
 ---------------------------------------------------------------
 Warning -- This program may not be used in any manner that
 competes with the business of Gaussian, Inc. or will provide
 assistance to any competitor of Gaussian, Inc.  The licensee
 of this program is prohibited from giving any competitor of
 Gaussian, Inc. access to this program.  By using this program,
 the user acknowledges that Gaussian, Inc. is engaged in the
 business of creating and licensing software in the field of
 computational chemistry and represents and warrants to the
 licensee that it is not a competitor of Gaussian, Inc. and that
 it will not use this program in any manner prohibited above.
 ---------------------------------------------------------------
  

 Cite this work as:
 Gaussian 16, Revision A.03,
 M. J. Frisch, G. W. Trucks, H. B. Schlegel, G. E. Scuseria, 
 M. A. Robb, J. R. Cheeseman, G. Scalmani, V. Barone, 
 G. A. Petersson, H. Nakatsuji, X. Li, M. Caricato, A. V. Marenich, 
 J. Bloino, B. G. Janesko, R. Gomperts, B. Mennucci, H. P. Hratchian, 
 J. V. Ortiz, A. F. Izmaylov, J. L. Sonnenberg, D. Williams-Young, 
 F. Ding, F. Lipparini, F. Egidi, J. Goings, B. Peng, A. Petrone, 
 T. Henderson, D. Ranasinghe, V. G. Zakrzewski, J. Gao, N. Rega, 
 G. Zheng, W. Liang, M. Hada, M. Ehara, K. Toyota, R. Fukuda, 
 J. Hasegawa, M. Ishida, T. Nakajima, Y. Honda, O. Kitao, H. Nakai, 
 T. Vreven, K. Throssell, J. A. Montgomery, Jr., J. E. Peralta, 
 F. Ogliaro, M. J. Bearpark, J. J. Heyd, E. N. Brothers, K. N. Kudin, 
 V. N. Staroverov, T. A. Keith, R. Kobayashi, J. Normand, 
 K. Raghavachari, A. P. Rendell, J. C. Burant, S. S. Iyengar, 
 J. Tomasi, M. Cossi, J. M. Millam, M. Klene, C. Adamo, R. Cammi, 
 J. W. Ochterski, R. L. Martin, K. Morokuma, O. Farkas, 
 J. B. Foresman, and D. J. Fox, Gaussian, Inc., Wallingford CT, 2016.
 
 ******************************************
 Gaussian 16:  ES64L-G16RevA.03 25-Dec-2016
                22-Aug-2020 
 ******************************************
 %nprocshared=2
 Will use up to    2 processors via shared memory.
 %Mem=4GB
 %Chk=solvent_51.chk
 ---------------------------------
 # opt=CalcAll B3LYP/6-31G* scf=qc
 ---------------------------------
 1/10=4,18=20,19=15,26=3,38=1/1,3;
 2/9=110,12=2,17=6,18=5,40=1/2;
 3/5=1,6=6,7=1,11=2,25=1,30=1,71=2,74=-5,140=1/1,2,3;
 4//1;
 5/5=2,8=3,38=5/8;
 8/6=4,10=90,11=11/1;
 11/6=1,8=1,9=11,15=111,16=1/1,2,10;
 10/6=1/2;
 6/7=2,8=2,9=2,10=2,18=1,28=1/1;
 7/10=1,25=1/1,2,3,16;
 1/10=4,18=20,19=15,26=3/3(3);
 2/9=110/2;
 7/8=1,9=1,25=1,44=-1/16;
 99//99;
 2/9=110/2;
 3/5=1,6=6,7=1,11=2,25=1,30=1,71=2,74=-5,140=1/1,2,3;
 4/5=5,16=3,69=1/1;
 5/5=2,8=3,38=5/8;
 8/6=4,10=90,11=11/1;
 11/6=1,8=1,9=11,15=111,16=1/1,2,10;
 10/6=1/2;
 7/10=1,25=1/1,2,3,16;
 1/10=4,18=20,19=15,26=3/3(-8);
 2/9=110/2;
 6/7=2,8=2,9=2,10=2,18=1,19=2,28=1/1;
 7/8=1,9=1,25=1,44=-1/16;
 99//99;
 -------------------
 Title Card Required
 -------------------
 Symbolic Z-matrix:
 Charge =  0 Multiplicity = 1
 C                     1.12486  -0.56349   0.31639 
 C                     2.52763  -0.11126   0.04885 
 O                     3.08451  -0.19358  -1.0337 
 O                     3.09575   0.31683   1.21036 
 C                     4.52232   0.46592   1.17576 
 C                     5.14835  -0.87659   1.50839 
 H                     0.6711   -0.90357  -0.61906 
 H                     0.5297    0.26024   0.71842 
 H                     1.14551  -1.40189   1.01681 
 H                     4.7955    1.20457   1.93616 
 H                     4.87101   0.84697   0.20938 
 H                     4.79822  -1.22727   2.48585 
 H                     6.23899  -0.809     1.52694 
 H                     4.85439  -1.63664   0.77877 
 

 GradGradGradGradGradGradGradGradGradGradGradGradGradGradGradGradGradGrad
 Berny optimization.
 Initialization pass.
                           ----------------------------
                           !    Initial Parameters    !
                           ! (Angstroms and Degrees)  !
 --------------------------                            --------------------------
 ! Name  Definition              Value          Derivative Info.                !
 --------------------------------------------------------------------------------
 ! R1    R(1,2)                  1.4979         calculate D2E/DX2 analytically  !
 ! R2    R(1,7)                  1.0939         calculate D2E/DX2 analytically  !
 ! R3    R(1,8)                  1.0929         calculate D2E/DX2 analytically  !
 ! R4    R(1,9)                  1.0927         calculate D2E/DX2 analytically  !
 ! R5    R(2,3)                  1.2202         calculate D2E/DX2 analytically  !
 ! R6    R(2,4)                  1.362          calculate D2E/DX2 analytically  !
 ! R7    R(4,5)                  1.4348         calculate D2E/DX2 analytically  !
 ! R8    R(5,6)                  1.5182         calculate D2E/DX2 analytically  !
 ! R9    R(5,10)                 1.0947         calculate D2E/DX2 analytically  !
 ! R10   R(5,11)                 1.0958         calculate D2E/DX2 analytically  !
 ! R11   R(6,12)                 1.0959         calculate D2E/DX2 analytically  !
 ! R12   R(6,13)                 1.0929         calculate D2E/DX2 analytically  !
 ! R13   R(6,14)                 1.0938         calculate D2E/DX2 analytically  !
 ! A1    A(2,1,7)              109.243          calculate D2E/DX2 analytically  !
 ! A2    A(2,1,8)              110.3731         calculate D2E/DX2 analytically  !
 ! A3    A(2,1,9)              109.1739         calculate D2E/DX2 analytically  !
 ! A4    A(7,1,8)              108.8449         calculate D2E/DX2 analytically  !
 ! A5    A(7,1,9)              108.5096         calculate D2E/DX2 analytically  !
 ! A6    A(8,1,9)              110.6596         calculate D2E/DX2 analytically  !
 ! A7    A(1,2,3)              124.4363         calculate D2E/DX2 analytically  !
 ! A8    A(1,2,4)              109.4623         calculate D2E/DX2 analytically  !
 ! A9    A(3,2,4)              125.9751         calculate D2E/DX2 analytically  !
 ! A10   A(2,4,5)              115.2664         calculate D2E/DX2 analytically  !
 ! A11   A(4,5,6)              108.2298         calculate D2E/DX2 analytically  !
 ! A12   A(4,5,10)             107.5465         calculate D2E/DX2 analytically  !
 ! A13   A(4,5,11)             111.9507         calculate D2E/DX2 analytically  !
 ! A14   A(6,5,10)             109.9726         calculate D2E/DX2 analytically  !
 ! A15   A(6,5,11)             111.6861         calculate D2E/DX2 analytically  !
 ! A16   A(10,5,11)            107.37           calculate D2E/DX2 analytically  !
 ! A17   A(5,6,12)             110.2819         calculate D2E/DX2 analytically  !
 ! A18   A(5,6,13)             111.1331         calculate D2E/DX2 analytically  !
 ! A19   A(5,6,14)             110.9461         calculate D2E/DX2 analytically  !
 ! A20   A(12,6,13)            108.8738         calculate D2E/DX2 analytically  !
 ! A21   A(12,6,14)            106.6627         calculate D2E/DX2 analytically  !
 ! A22   A(13,6,14)            108.8136         calculate D2E/DX2 analytically  !
 ! D1    D(7,1,2,3)             -4.0506         calculate D2E/DX2 analytically  !
 ! D2    D(7,1,2,4)            179.8288         calculate D2E/DX2 analytically  !
 ! D3    D(8,1,2,3)           -123.693          calculate D2E/DX2 analytically  !
 ! D4    D(8,1,2,4)             60.1865         calculate D2E/DX2 analytically  !
 ! D5    D(9,1,2,3)            114.4639         calculate D2E/DX2 analytically  !
 ! D6    D(9,1,2,4)            -61.6566         calculate D2E/DX2 analytically  !
 ! D7    D(1,2,4,5)            165.2553         calculate D2E/DX2 analytically  !
 ! D8    D(3,2,4,5)            -10.7909         calculate D2E/DX2 analytically  !
 ! D9    D(2,4,5,6)            -86.4879         calculate D2E/DX2 analytically  !
 ! D10   D(2,4,5,10)           154.7411         calculate D2E/DX2 analytically  !
 ! D11   D(2,4,5,11)            37.0299         calculate D2E/DX2 analytically  !
 ! D12   D(4,5,6,12)           -57.3339         calculate D2E/DX2 analytically  !
 ! D13   D(4,5,6,13)          -178.1695         calculate D2E/DX2 analytically  !
 ! D14   D(4,5,6,14)            60.6213         calculate D2E/DX2 analytically  !
 ! D15   D(10,5,6,12)           59.8869         calculate D2E/DX2 analytically  !
 ! D16   D(10,5,6,13)          -60.9486         calculate D2E/DX2 analytically  !
 ! D17   D(10,5,6,14)          177.8421         calculate D2E/DX2 analytically  !
 ! D18   D(11,5,6,12)          178.9889         calculate D2E/DX2 analytically  !
 ! D19   D(11,5,6,13)           58.1533         calculate D2E/DX2 analytically  !
 ! D20   D(11,5,6,14)          -63.0559         calculate D2E/DX2 analytically  !
 --------------------------------------------------------------------------------
 Trust Radius=3.00D-01 FncErr=1.00D-07 GrdErr=1.00D-06 EigMax=2.50D+02 EigMin=1.00D-04
 Number of steps in this run=     65 maximum allowed number of steps=    100.
 GradGradGradGradGradGradGradGradGradGradGradGradGradGradGradGradGradGrad

                          Input orientation:                          
 ---------------------------------------------------------------------
 Center     Atomic      Atomic             Coordinates (Angstroms)
 Number     Number       Type             X           Y           Z
 ---------------------------------------------------------------------
      1          6           0        1.124860   -0.563490    0.316390
      2          6           0        2.527630   -0.111260    0.048850
      3          8           0        3.084510   -0.193580   -1.033700
      4          8           0        3.095750    0.316830    1.210360
      5          6           0        4.522320    0.465920    1.175760
      6          6           0        5.148350   -0.876590    1.508390
      7          1           0        0.671100   -0.903570   -0.619060
      8          1           0        0.529700    0.260240    0.718420
      9          1           0        1.145510   -1.401890    1.016810
     10          1           0        4.795500    1.204570    1.936160
     11          1           0        4.871010    0.846970    0.209380
     12          1           0        4.798220   -1.227270    2.485850
     13          1           0        6.238990   -0.809000    1.526940
     14          1           0        4.854390   -1.636640    0.778770
 ---------------------------------------------------------------------
                    Distance matrix (angstroms):
                    1          2          3          4          5
     1  C    0.000000
     2  C    1.497950   0.000000
     3  O    2.408278   1.220167   0.000000
     4  O    2.336355   1.362030   2.301402   0.000000
     5  C    3.652525   2.362594   2.717343   1.434757   0.000000
     6  C    4.208012   3.095830   3.344871   2.392956   1.518186
     7  H    1.093901   2.126161   2.549620   3.273390   4.464166
     8  H    1.092874   2.139640   3.130963   2.613392   4.023988
     9  H    1.092671   2.124365   3.069906   2.606702   3.862231
    10  H    4.384437   3.230570   3.701672   2.050370   1.094733
    11  H    4.004309   2.536810   2.412379   2.105839   1.095753
    12  H    4.317492   3.512837   4.048771   2.628597   2.158553
    13  H    5.261182   4.055340   4.109302   3.353755   2.166957
    14  H    3.908304   2.876348   2.915466   2.663668   2.165324
                    6          7          8          9         10
     6  C    0.000000
     7  H    4.957070   0.000000
     8  H    4.821656   1.778567   0.000000
     9  H    4.066979   1.774671   1.797480   0.000000
    10  H    2.153768   5.289998   4.535604   4.578347   0.000000
    11  H    2.176006   4.624927   4.410255   4.425908   1.765035
    12  H    1.095899   5.174782   4.853530   3.940921   2.493193
    13  H    1.092890   5.967886   5.864552   5.153182   2.511093
    14  H    1.093816   4.471156   4.722789   3.723917   3.068468
                   11         12         13         14
    11  H    0.000000
    12  H    3.080598   0.000000
    13  H    2.519835   1.780527   0.000000
    14  H    2.548097   1.756377   1.778163   0.000000
 Stoichiometry    C4H8O2
 Framework group  C1[X(C4H8O2)]
 Deg. of freedom    36
 Full point group                 C1      NOp   1
 Largest Abelian subgroup         C1      NOp   1
 Largest concise Abelian subgroup C1      NOp   1
                         Standard orientation:                         
 ---------------------------------------------------------------------
 Center     Atomic      Atomic             Coordinates (Angstroms)
 Number     Number       Type             X           Y           Z
 ---------------------------------------------------------------------
      1          6           0        2.083139   -0.639728    0.298405
      2          6           0        0.896912    0.186697   -0.093692
      3          8           0        0.825359    1.397531    0.038851
      4          8           0       -0.100716   -0.630569   -0.531804
      5          6           0       -1.395525   -0.019816   -0.626550
      6          6           0       -2.071197   -0.126305    0.728816
      7          1           0        2.883027    0.020186    0.646702
      8          1           0        2.446657   -1.213704   -0.557622
      9          1           0        1.801539   -1.305755    1.117575
     10          1           0       -1.968912   -0.576193   -1.374956
     11          1           0       -1.334126    1.019626   -0.967820
     12          1           0       -2.136445   -1.175247    1.039392
     13          1           0       -3.078156    0.297602    0.701495
     14          1           0       -1.490700    0.392708    1.496984
 ---------------------------------------------------------------------
 Rotational constants (GHZ):           6.7762447           2.3748298           2.1353461
 Standard basis: 6-31G(d) (6D, 7F)
 There are   106 symmetry adapted cartesian basis functions of A   symmetry.
 There are   106 symmetry adapted basis functions of A   symmetry.
   106 basis functions,   200 primitive gaussians,   106 cartesian basis functions
    24 alpha electrons       24 beta electrons
       nuclear repulsion energy       247.0553748785 Hartrees.
 NAtoms=   14 NActive=   14 NUniq=   14 SFac= 1.00D+00 NAtFMM=   60 NAOKFM=F Big=F
 Integral buffers will be    131072 words long.
 Raffenetti 2 integral format.
 Two-electron integral symmetry is turned on.
 One-electron integrals computed using PRISM.
 NBasis=   106 RedAO= T EigKep=  4.18D-03  NBF=   106
 NBsUse=   106 1.00D-06 EigRej= -1.00D+00 NBFU=   106
 ExpMin= 1.61D-01 ExpMax= 5.48D+03 ExpMxC= 8.25D+02 IAcc=3 IRadAn=         5 AccDes= 0.00D+00
 Harris functional with IExCor=  402 and IRadAn=       5 diagonalized for initial guess.
 HarFok:  IExCor=  402 AccDes= 0.00D+00 IRadAn=         5 IDoV= 1 UseB2=F ITyADJ=14
 ICtDFT=  3500011 ScaDFX=  1.000000  1.000000  1.000000  1.000000
 FoFCou: FMM=F IPFlag=           0 FMFlag=      100000 FMFlg1=           0
         NFxFlg=           0 DoJE=T BraDBF=F KetDBF=T FulRan=T
         wScrn=  0.000000 ICntrl=       500 IOpCl=  0 I1Cent=   200000004 NGrid=           0
         NMat0=    1 NMatS0=      1 NMatT0=    0 NMatD0=    1 NMtDS0=    0 NMtDT0=    0
 Petite list used in FoFCou.
 Keep R1 ints in memory in canonical form, NReq=17943810.
 Gradient too large for Newton-Raphson -- use scaled steepest descent instead.
     Accept linear search using points  2 and  3.
 Gradient too large for Newton-Raphson -- use scaled steepest descent instead.
     Accept linear search using points  2 and  3.
 Gradient too large for Newton-Raphson -- use scaled steepest descent instead.
 Gradient too large for Newton-Raphson -- use scaled steepest descent instead.
     Accept linear search using points  1 and  2.
 Gradient too large for Newton-Raphson -- use scaled steepest descent instead.
 LinEq1:  Iter=  0 NonCon=     1 RMS=6.95D-05 Max=1.33D-03 NDo=     1
 AX will form     1 AO Fock derivatives at one time.
 LinEq1:  Iter=  1 NonCon=     1 RMS=7.02D-05 Max=1.90D-03 NDo=     1
 LinEq1:  Iter=  2 NonCon=     1 RMS=1.92D-05 Max=2.78D-04 NDo=     1
 LinEq1:  Iter=  3 NonCon=     1 RMS=8.83D-06 Max=1.45D-04 NDo=     1
 LinEq1:  Iter=  4 NonCon=     1 RMS=5.30D-06 Max=1.00D-04 NDo=     1
 LinEq1:  Iter=  5 NonCon=     1 RMS=2.11D-06 Max=3.68D-05 NDo=     1
 LinEq1:  Iter=  6 NonCon=     1 RMS=8.77D-07 Max=1.02D-05 NDo=     1
 LinEq1:  Iter=  7 NonCon=     1 RMS=3.20D-07 Max=4.83D-06 NDo=     1
 LinEq1:  Iter=  8 NonCon=     1 RMS=1.48D-07 Max=1.59D-06 NDo=     1
 LinEq1:  Iter=  9 NonCon=     1 RMS=4.80D-08 Max=5.59D-07 NDo=     1
 LinEq1:  Iter= 10 NonCon=     1 RMS=1.61D-08 Max=1.40D-07 NDo=     1
 LinEq1:  Iter= 11 NonCon=     1 RMS=6.92D-09 Max=6.49D-08 NDo=     1
 LinEq1:  Iter= 12 NonCon=     0 RMS=2.02D-09 Max=1.57D-08 NDo=     1
 Linear equations converged to 6.274D-09 6.274D-08 after    12 iterations.
     Minimum is close to point  2 DX=  3.66D-04 DF= -7.96D-13 DXR=  3.66D-04 DFR=  1.28D-07 which will be used.
 LinEq1:  Iter=  0 NonCon=     1 RMS=4.69D-08 Max=1.14D-06 NDo=     1
 LinEq1:  Iter=  1 NonCon=     1 RMS=4.96D-08 Max=1.29D-06 NDo=     1
 LinEq1:  Iter=  2 NonCon=     1 RMS=1.36D-08 Max=2.24D-07 NDo=     1
 LinEq1:  Iter=  3 NonCon=     1 RMS=9.35D-09 Max=1.67D-07 NDo=     1
 LinEq1:  Iter=  4 NonCon=     1 RMS=5.08D-09 Max=5.89D-08 NDo=     1
 LinEq1:  Iter=  5 NonCon=     1 RMS=2.23D-09 Max=2.48D-08 NDo=     1
 LinEq1:  Iter=  6 NonCon=     1 RMS=8.14D-10 Max=1.05D-08 NDo=     1
 LinEq1:  Iter=  7 NonCon=     1 RMS=3.02D-10 Max=2.67D-09 NDo=     1
 LinEq1:  Iter=  8 NonCon=     1 RMS=1.10D-10 Max=9.52D-10 NDo=     1
 LinEq1:  Iter=  9 NonCon=     1 RMS=4.28D-11 Max=3.37D-10 NDo=     1
 LinEq1:  Iter= 10 NonCon=     0 RMS=1.61D-11 Max=1.25D-10 NDo=     1
 Linear equations converged to 1.643D-11 1.643D-10 after    10 iterations.
 SCF Done:  E(RB3LYP) =  -307.703923517     a.u. after    8 cycles
            Convg  =    0.1692D-10                    41 Fock formations.
              S**2 =  0.0000                  -V/T =  2.0092
 DoSCS=F DFT=T ScalE2(SS,OS)=  1.000000  1.000000
 Range of M.O.s used for correlation:     1   106
 NBasis=   106 NAE=    24 NBE=    24 NFC=     0 NFV=     0
 NROrb=    106 NOA=    24 NOB=    24 NVA=    82 NVB=    82
 Symmetrizing basis deriv contribution to polar:
 IMax=3 JMax=2 DiffMx= 0.00D+00
 G2DrvN: will do    15 centers at a time, making    1 passes.
 Calling FoFCou, ICntrl=  3107 FMM=F I1Cent=   0 AccDes= 0.00D+00.
 End of G2Drv F.D. properties file   721 does not exist.
 End of G2Drv F.D. properties file   722 does not exist.
 End of G2Drv F.D. properties file   788 does not exist.
          IDoAtm=11111111111111
          Differentiating once with respect to electric field.
                with respect to dipole field.
          Differentiating once with respect to nuclear coordinates.
 Keep R1 ints in memory in canonical form, NReq=17950667.
          There are    45 degrees of freedom in the 1st order CPHF.  IDoFFX=6 NUNeed=     3.
     42 vectors produced by pass  0 Test12= 4.37D-15 2.22D-09 XBig12= 3.70D+01 2.91D+00.
 AX will form    42 AO Fock derivatives at one time.
     42 vectors produced by pass  1 Test12= 4.37D-15 2.22D-09 XBig12= 1.44D+01 1.19D+00.
     42 vectors produced by pass  2 Test12= 4.37D-15 2.22D-09 XBig12= 1.03D-01 4.90D-02.
     42 vectors produced by pass  3 Test12= 4.37D-15 2.22D-09 XBig12= 2.26D-04 2.75D-03.
     41 vectors produced by pass  4 Test12= 4.37D-15 2.22D-09 XBig12= 2.69D-07 7.13D-05.
     18 vectors produced by pass  5 Test12= 4.37D-15 2.22D-09 XBig12= 1.49D-10 1.46D-06.
      3 vectors produced by pass  6 Test12= 4.37D-15 2.22D-09 XBig12= 9.36D-14 4.86D-08.
 InvSVY:  IOpt=1 It=  1 EMax= 1.78D-15
 Solved reduced A of dimension   230 with    45 vectors.
 Isotropic polarizability for W=    0.000000       47.63 Bohr**3.
 End of Minotr F.D. properties file   721 does not exist.
 End of Minotr F.D. properties file   722 does not exist.
 End of Minotr F.D. properties file   788 does not exist.

 **********************************************************************

            Population analysis using the SCF density.

 **********************************************************************

 Orbital symmetries:
       Occupied  (A) (A) (A) (A) (A) (A) (A) (A) (A) (A) (A) (A)
                 (A) (A) (A) (A) (A) (A) (A) (A) (A) (A) (A) (A)
       Virtual   (A) (A) (A) (A) (A) (A) (A) (A) (A) (A) (A) (A)
                 (A) (A) (A) (A) (A) (A) (A) (A) (A) (A) (A) (A)
                 (A) (A) (A) (A) (A) (A) (A) (A) (A) (A) (A) (A)
                 (A) (A) (A) (A) (A) (A) (A) (A) (A) (A) (A) (A)
                 (A) (A) (A) (A) (A) (A) (A) (A) (A) (A) (A) (A)
                 (A) (A) (A) (A) (A) (A) (A) (A) (A) (A) (A) (A)
                 (A) (A) (A) (A) (A) (A) (A) (A) (A) (A)
 The electronic state is 1-A.
 Alpha  occ. eigenvalues --  -19.18916 -19.13458 -10.31554 -10.24106 -10.19307
 Alpha  occ. eigenvalues --  -10.18217  -1.09479  -1.01053  -0.78222  -0.73614
 Alpha  occ. eigenvalues --   -0.64524  -0.55736  -0.49763  -0.48472  -0.46611
 Alpha  occ. eigenvalues --   -0.43057  -0.42686  -0.40263  -0.39446  -0.36978
 Alpha  occ. eigenvalues --   -0.36544  -0.33858  -0.29596  -0.26950
 Alpha virt. eigenvalues --    0.01040   0.10118   0.11705   0.13246   0.14699
 Alpha virt. eigenvalues --    0.15139   0.16746   0.17348   0.18318   0.18819
 Alpha virt. eigenvalues --    0.23450   0.23811   0.28999   0.35966   0.49715
 Alpha virt. eigenvalues --    0.51407   0.53435   0.54588   0.55388   0.58190
 Alpha virt. eigenvalues --    0.60465   0.61302   0.65755   0.67446   0.70499
 Alpha virt. eigenvalues --    0.77186   0.80014   0.83828   0.85726   0.86695
 Alpha virt. eigenvalues --    0.88660   0.89216   0.91097   0.92061   0.94367
 Alpha virt. eigenvalues --    0.96302   1.00218   1.02220   1.07021   1.11092
 Alpha virt. eigenvalues --    1.15477   1.18864   1.34935   1.38378   1.43649
 Alpha virt. eigenvalues --    1.46999   1.52916   1.54973   1.65232   1.70034
 Alpha virt. eigenvalues --    1.75510   1.80282   1.80859   1.82130   1.89837
 Alpha virt. eigenvalues --    1.92002   1.93253   1.98564   2.03488   2.06778
 Alpha virt. eigenvalues --    2.12164   2.17382   2.20927   2.22836   2.30922
 Alpha virt. eigenvalues --    2.32863   2.39181   2.41353   2.46861   2.57941
 Alpha virt. eigenvalues --    2.62957   2.72533   2.73477   2.94452   3.00096
 Alpha virt. eigenvalues --    3.10156   3.97387   4.07692   4.15232   4.21171
 Alpha virt. eigenvalues --    4.39550   4.47559
          Condensed to atoms (all electrons):
               1          2          3          4          5          6
     1  C    5.257292   0.364704  -0.075525  -0.105057   0.007948  -0.000772
     2  C    0.364704   4.315478   0.563074   0.236198  -0.012361  -0.005678
     3  O   -0.075525   0.563074   8.030662  -0.071534  -0.002250  -0.002775
     4  O   -0.105057   0.236198  -0.071534   8.283739   0.199791  -0.045436
     5  C    0.007948  -0.012361  -0.002250   0.199791   4.831151   0.375126
     6  C   -0.000772  -0.005678  -0.002775  -0.045436   0.375126   5.111516
     7  H    0.357981  -0.025418   0.003819   0.003789  -0.000244   0.000019
     8  H    0.352197  -0.018346   0.001685   0.002907  -0.000122   0.000004
     9  H    0.359805  -0.022841   0.000807   0.002403  -0.000458   0.000318
    10  H   -0.000259   0.004462   0.000460  -0.033123   0.379755  -0.045083
    11  H    0.000823  -0.006833   0.016664  -0.029731   0.365127  -0.040043
    12  H    0.000029   0.000003   0.000084   0.000971  -0.034061   0.375369
    13  H    0.000004   0.000007  -0.000055   0.003524  -0.025986   0.358562
    14  H   -0.000144   0.005451   0.003451  -0.005009  -0.030978   0.378477
               7          8          9         10         11         12
     1  C    0.357981   0.352197   0.359805  -0.000259   0.000823   0.000029
     2  C   -0.025418  -0.018346  -0.022841   0.004462  -0.006833   0.000003
     3  O    0.003819   0.001685   0.000807   0.000460   0.016664   0.000084
     4  O    0.003789   0.002907   0.002403  -0.033123  -0.029731   0.000971
     5  C   -0.000244  -0.000122  -0.000458   0.379755   0.365127  -0.034061
     6  C    0.000019   0.000004   0.000318  -0.045083  -0.040043   0.375369
     7  H    0.527167  -0.023449  -0.023761   0.000003   0.000014   0.000001
     8  H   -0.023449   0.525542  -0.020973  -0.000001  -0.000039   0.000002
     9  H   -0.023761  -0.020973   0.523246  -0.000012  -0.000013   0.000006
    10  H    0.000003  -0.000001  -0.000012   0.583605  -0.039554  -0.006179
    11  H    0.000014  -0.000039  -0.000013  -0.039554   0.558861   0.004989
    12  H    0.000001   0.000002   0.000006  -0.006179   0.004989   0.563457
    13  H   -0.000000  -0.000000  -0.000002   0.000077   0.000729  -0.026705
    14  H    0.000008   0.000003  -0.000077   0.004853  -0.005115  -0.033586
              13         14
     1  C    0.000004  -0.000144
     2  C    0.000007   0.005451
     3  O   -0.000055   0.003451
     4  O    0.003524  -0.005009
     5  C   -0.025986  -0.030978
     6  C    0.358562   0.378477
     7  H   -0.000000   0.000008
     8  H   -0.000000   0.000003
     9  H   -0.000002  -0.000077
    10  H    0.000077   0.004853
    11  H    0.000729  -0.005115
    12  H   -0.026705  -0.033586
    13  H    0.565654  -0.025844
    14  H   -0.025844   0.540524
 Mulliken charges:
               1
     1  C   -0.519027
     2  C    0.602101
     3  O   -0.468568
     4  O   -0.443432
     5  C   -0.052439
     6  C   -0.459604
     7  H    0.180070
     8  H    0.180590
     9  H    0.181551
    10  H    0.150996
    11  H    0.174122
    12  H    0.155620
    13  H    0.150035
    14  H    0.167985
 Sum of Mulliken charges =   0.00000
 Mulliken charges with hydrogens summed into heavy atoms:
               1
     1  C    0.023184
     2  C    0.602101
     3  O   -0.468568
     4  O   -0.443432
     5  C    0.272679
     6  C    0.014036
 APT charges:
               1
     1  C   -0.066272
     2  C    1.109105
     3  O   -0.676232
     4  O   -0.869156
     5  C    0.515052
     6  C    0.023847
     7  H    0.010079
     8  H    0.024945
     9  H    0.020882
    10  H   -0.047985
    11  H   -0.015311
    12  H   -0.014185
    13  H   -0.012024
    14  H   -0.002747
 Sum of APT charges =   0.00000
 APT charges with hydrogens summed into heavy atoms:
               1
     1  C   -0.010365
     2  C    1.109105
     3  O   -0.676232
     4  O   -0.869156
     5  C    0.451757
     6  C   -0.005109
 Electronic spatial extent (au):  <R**2>=            644.3944
 Charge=              0.0000 electrons
 Dipole moment (field-independent basis, Debye):
    X=             -0.6404    Y=             -1.7341    Z=              0.0626  Tot=              1.8496
 Quadrupole moment (field-independent basis, Debye-Ang):
   XX=            -31.5320   YY=            -40.7324   ZZ=            -35.3441
   XY=             -2.7521   XZ=              0.8301   YZ=             -0.9406
 Traceless Quadrupole moment (field-independent basis, Debye-Ang):
   XX=              4.3375   YY=             -4.8629   ZZ=              0.5254
   XY=             -2.7521   XZ=              0.8301   YZ=             -0.9406
 Octapole moment (field-independent basis, Debye-Ang**2):
  XXX=              3.5041  YYY=             -3.4977  ZZZ=             -2.2104  XYY=             -2.4946
  XXY=             -1.8154  XXZ=             -2.6212  XZZ=              1.1325  YZZ=              0.5520
  YYZ=             -0.4631  XYZ=             -0.0702
 Hexadecapole moment (field-independent basis, Debye-Ang**3):
 XXXX=           -550.8842 YYYY=           -158.4777 ZZZZ=           -110.5479 XXXY=             -0.0951
 XXXZ=              4.5951 YYYX=             -1.4266 YYYZ=             -0.9053 ZZZX=              3.2251
 ZZZY=              1.2790 XXYY=           -121.4968 XXZZ=           -111.3803 YYZZ=            -41.6480
 XXYZ=              2.8759 YYXZ=              0.2133 ZZXY=              0.5392
 N-N= 2.470553748785D+02 E-N=-1.212440156412D+03  KE= 3.049046605597D+02
  Exact polarizability:  56.531   0.101  46.692   2.745   0.437  39.680
 Approx polarizability:  65.657   2.615  75.909   4.175   3.484  53.703
 Calling FoFJK, ICntrl=    100127 FMM=F ISym2X=0 I1Cent= 0 IOpClX= 0 NMat=1 NMatS=1 NMatT=0.
 ***** Axes restored to original set *****
 -------------------------------------------------------------------
 Center     Atomic                   Forces (Hartrees/Bohr)
 Number     Number              X              Y              Z
 -------------------------------------------------------------------
      1        6          -0.007975530   -0.000195828   -0.009331249
      2        6           0.005020503   -0.006740057   -0.009212295
      3        8          -0.001502246    0.004904109    0.016770693
      4        8           0.000218956    0.004041881   -0.010928681
      5        6           0.012548792    0.000926996    0.003114522
      6        6          -0.000279363   -0.004743940    0.001826445
      7        1           0.000897247    0.001121809    0.000846864
      8        1          -0.001174267   -0.001730151    0.004637273
      9        1          -0.002008276    0.001865658    0.003985331
     10        1          -0.005503264    0.000600373    0.000776407
     11        1          -0.005466253   -0.002280005   -0.000592717
     12        1           0.001640600    0.001546533    0.001043258
     13        1           0.001710712   -0.000195616   -0.000000688
     14        1           0.001872389    0.000878237   -0.002935163
 -------------------------------------------------------------------
 Cartesian Forces:  Max     0.016770693 RMS     0.005081048
 FormGI is forming the generalized inverse of G from B-inverse, IUseBI=4.

 GradGradGradGradGradGradGradGradGradGradGradGradGradGradGradGradGradGrad
 Berny optimization.
 Internal  Forces:  Max     0.015895806 RMS     0.004521731
 Search for a local minimum.
 Step number   1 out of a maximum of   65
 All quantities printed in internal units (Hartrees-Bohrs-Radians)
 Mixed Optimization -- RFO/linear search
 Second derivative matrix not updated -- analytic derivatives used.
 ITU=  0
     Eigenvalues ---    0.00010   0.00306   0.00392   0.01857   0.04538
     Eigenvalues ---    0.04777   0.04864   0.04954   0.05682   0.05996
     Eigenvalues ---    0.06249   0.10213   0.12328   0.12835   0.12996
     Eigenvalues ---    0.13676   0.13812   0.14391   0.17045   0.21211
     Eigenvalues ---    0.23465   0.25763   0.26608   0.30563   0.33484
     Eigenvalues ---    0.33647   0.33954   0.34551   0.34690   0.34718
     Eigenvalues ---    0.35075   0.35196   0.36759   0.37052   0.46847
     Eigenvalues ---    0.82923
 RFO step:  Lambda=-5.87200748D-03 EMin= 1.01272352D-04
 Linear search not attempted -- first point.
 Iteration  1 RMS(Cart)=  0.15463846 RMS(Int)=  0.00760717
 Iteration  2 RMS(Cart)=  0.01106489 RMS(Int)=  0.00039421
 Iteration  3 RMS(Cart)=  0.00004050 RMS(Int)=  0.00039328
 Iteration  4 RMS(Cart)=  0.00000001 RMS(Int)=  0.00039328
 Variable       Old X    -DE/DX   Delta X   Delta X   Delta X     New X
                                 (Linear)    (Quad)   (Total)
    R1        2.83071   0.00931   0.00000   0.02384   0.02384   2.85456
    R2        2.06717  -0.00145   0.00000  -0.00633  -0.00633   2.06084
    R3        2.06523   0.00104   0.00000   0.00322   0.00322   2.06845
    R4        2.06485   0.00109   0.00000   0.00444   0.00444   2.06929
    R5        2.30578  -0.01590   0.00000  -0.01643  -0.01643   2.28935
    R6        2.57386  -0.00351   0.00000  -0.01508  -0.01508   2.55878
    R7        2.71130   0.00607   0.00000   0.02028   0.02028   2.73158
    R8        2.86896   0.00425   0.00000   0.00553   0.00553   2.87449
    R9        2.06874  -0.00043   0.00000  -0.00326  -0.00326   2.06548
   R10        2.07067  -0.00201   0.00000  -0.00597  -0.00597   2.06470
   R11        2.07095  -0.00009   0.00000  -0.00152  -0.00152   2.06943
   R12        2.06526   0.00170   0.00000   0.00555   0.00555   2.07081
   R13        2.06701   0.00084   0.00000   0.00011   0.00011   2.06713
    A1        1.90665  -0.00039   0.00000   0.00326   0.00313   1.90978
    A2        1.92637   0.00225   0.00000   0.00058   0.00051   1.92689
    A3        1.90544   0.00156   0.00000   0.01206   0.01193   1.91737
    A4        1.89970   0.00051   0.00000   0.01905   0.01898   1.91868
    A5        1.89385   0.00114   0.00000   0.02048   0.02029   1.91414
    A6        1.93137  -0.00505   0.00000  -0.05454  -0.05461   1.87676
    A7        2.17182   0.00521   0.00000   0.01696   0.01641   2.18823
    A8        1.91048   0.00702   0.00000   0.01865   0.01809   1.92857
    A9        2.19868  -0.01197   0.00000  -0.03178  -0.03234   2.16634
   A10        2.01178   0.00736   0.00000   0.02311   0.02311   2.03489
   A11        1.88897   0.01297   0.00000   0.04971   0.04993   1.93889
   A12        1.87704  -0.00737   0.00000  -0.05341  -0.05416   1.82288
   A13        1.95391  -0.00714   0.00000  -0.04932  -0.04943   1.90448
   A14        1.91938   0.00078   0.00000   0.02552   0.02578   1.94516
   A15        1.94929  -0.00206   0.00000  -0.00745  -0.00709   1.94220
   A16        1.87396   0.00244   0.00000   0.03336   0.03223   1.90619
   A17        1.92478  -0.00004   0.00000   0.01006   0.01000   1.93478
   A18        1.93964   0.00002   0.00000  -0.01882  -0.01898   1.92066
   A19        1.93637  -0.00119   0.00000  -0.00748  -0.00771   1.92867
   A20        1.90021  -0.00056   0.00000  -0.00777  -0.00776   1.89245
   A21        1.86162   0.00237   0.00000   0.03548   0.03535   1.89697
   A22        1.89915  -0.00051   0.00000  -0.00958  -0.00989   1.88926
    D1       -0.07070   0.00135   0.00000   0.02342   0.02362  -0.04707
    D2        3.13861  -0.00198   0.00000  -0.03400  -0.03431   3.10430
    D3       -2.15885  -0.00041   0.00000  -0.00241  -0.00215  -2.16100
    D4        1.05045  -0.00374   0.00000  -0.05983  -0.06009   0.99037
    D5        1.99777   0.00342   0.00000   0.05719   0.05749   2.05526
    D6       -1.07611   0.00009   0.00000  -0.00024  -0.00045  -1.07656
    D7        2.88425   0.00612   0.00000   0.20167   0.20089   3.08514
    D8       -0.18834   0.00188   0.00000   0.14074   0.14152  -0.04682
    D9       -1.50950   0.00046   0.00000   0.02566   0.02543  -1.48407
   D10        2.70074  -0.00344   0.00000  -0.00212  -0.00072   2.70002
   D11        0.64629   0.00223   0.00000   0.01846   0.01728   0.66357
   D12       -1.00066  -0.00093   0.00000  -0.00740  -0.00763  -1.00829
   D13       -3.10964  -0.00021   0.00000   0.00808   0.00798  -3.10166
   D14        1.05804   0.00124   0.00000   0.03820   0.03796   1.09600
   D15        1.04522  -0.00185   0.00000  -0.02860  -0.02850   1.01672
   D16       -1.06375  -0.00113   0.00000  -0.01312  -0.01290  -1.07665
   D17        3.10393   0.00032   0.00000   0.01700   0.01708   3.12101
   D18        3.12395   0.00040   0.00000   0.02514   0.02516  -3.13408
   D19        1.01497   0.00112   0.00000   0.04062   0.04076   1.05573
   D20       -1.10053   0.00257   0.00000   0.07074   0.07074  -1.02979
         Item               Value     Threshold  Converged?
 Maximum Force            0.015896     0.000450     NO 
 RMS     Force            0.004522     0.000300     NO 
 Maximum Displacement     0.465578     0.001800     NO 
 RMS     Displacement     0.155695     0.001200     NO 
 Predicted change in Energy=-3.227849D-03
 GradGradGradGradGradGradGradGradGradGradGradGradGradGradGradGradGradGrad

                          Input orientation:                          
 ---------------------------------------------------------------------
 Center     Atomic      Atomic             Coordinates (Angstroms)
 Number     Number       Type             X           Y           Z
 ---------------------------------------------------------------------
      1          6           0        1.041363   -0.502193    0.277306
      2          6           0        2.516152   -0.240882    0.081019
      3          8           0        3.126921   -0.409139   -0.951607
      4          8           0        3.076613    0.201293    1.231589
      5          6           0        4.504613    0.424586    1.211614
      6          6           0        5.263910   -0.862558    1.495366
      7          1           0        0.600532   -0.820603   -0.667988
      8          1           0        0.538584    0.400636    0.638161
      9          1           0        0.899137   -1.282881    1.031868
     10          1           0        4.674995    1.169686    1.992931
     11          1           0        4.787312    0.846718    0.244328
     12          1           0        4.969829   -1.283530    2.462593
     13          1           0        6.341754   -0.665978    1.516411
     14          1           0        5.066126   -1.603916    0.715728
 ---------------------------------------------------------------------
                    Distance matrix (angstroms):
                    1          2          3          4          5
     1  C    0.000000
     2  C    1.510567   0.000000
     3  O    2.422486   1.211473   0.000000
     4  O    2.355375   1.354049   2.267489   0.000000
     5  C    3.704855   2.382241   2.696786   1.445490   0.000000
     6  C    4.409471   3.152306   3.280242   2.446554   1.521113
     7  H    1.090549   2.136980   2.575341   3.283846   4.508353
     8  H    1.094579   2.152377   3.143659   2.614094   4.007344
     9  H    1.095019   2.145836   3.108154   2.642739   3.993396
    10  H    4.352221   3.210252   3.682326   2.017982   1.093005
    11  H    3.981555   2.523432   2.400903   2.077919   1.092592
    12  H    4.562764   3.574849   3.977139   2.702654   2.167726
    13  H    5.445764   4.108076   4.061062   3.390343   2.158082
    14  H    4.195799   2.960251   2.822767   2.735517   2.162411
                    6          7          8          9         10
     6  C    0.000000
     7  H    5.140910   0.000000
     8  H    4.965800   1.789214   0.000000
     9  H    4.409393   1.786722   1.766135   0.000000
    10  H    2.173570   5.257660   4.420038   4.603894   0.000000
    11  H    2.171144   4.597978   4.290196   4.502590   1.781723
    12  H    1.095093   5.394960   5.079459   4.314802   2.515110
    13  H    1.095826   6.144683   5.965381   5.498857   2.524840
    14  H    1.093877   4.740230   4.952058   4.191278   3.078490
                   11         12         13         14
    11  H    0.000000
    12  H    3.080904   0.000000
    13  H    2.514504   1.777303   0.000000
    14  H    2.511088   1.778611   1.774274   0.000000
 Stoichiometry    C4H8O2
 Framework group  C1[X(C4H8O2)]
 Deg. of freedom    36
 Full point group                 C1      NOp   1
 Largest Abelian subgroup         C1      NOp   1
 Largest concise Abelian subgroup C1      NOp   1
                         Standard orientation:                         
 ---------------------------------------------------------------------
 Center     Atomic      Atomic             Coordinates (Angstroms)
 Number     Number       Type             X           Y           Z
 ---------------------------------------------------------------------
      1          6           0        2.197965   -0.490472    0.326697
      2          6           0        0.901491    0.176884   -0.067772
      3          8           0        0.729065    1.372084   -0.164888
      4          8           0       -0.060357   -0.749855   -0.290146
      5          6           0       -1.379306   -0.250305   -0.606792
      6          6           0       -2.164032    0.063314    0.657974
      7          1           0        2.969142    0.268233    0.464356
      8          1           0        2.509480   -1.203856   -0.442812
      9          1           0        2.060234   -1.049352    1.258228
     10          1           0       -1.846610   -1.056952   -1.177414
     11          1           0       -1.284282    0.632409   -1.243614
     12          1           0       -2.248519   -0.823840    1.294408
     13          1           0       -3.173750    0.401575    0.399358
     14          1           0       -1.672066    0.857420    1.227126
 ---------------------------------------------------------------------
 Rotational constants (GHZ):           7.2399287           2.3072502           2.0478215
 Standard basis: 6-31G(d) (6D, 7F)
 There are   106 symmetry adapted cartesian basis functions of A   symmetry.
 There are   106 symmetry adapted basis functions of A   symmetry.
   106 basis functions,   200 primitive gaussians,   106 cartesian basis functions
    24 alpha electrons       24 beta electrons
       nuclear repulsion energy       246.2669193814 Hartrees.
 NAtoms=   14 NActive=   14 NUniq=   14 SFac= 1.00D+00 NAtFMM=   60 NAOKFM=F Big=F
 Integral buffers will be    131072 words long.
 Raffenetti 2 integral format.
 Two-electron integral symmetry is turned on.
 One-electron integrals computed using PRISM.
 NBasis=   106 RedAO= T EigKep=  4.10D-03  NBF=   106
 NBsUse=   106 1.00D-06 EigRej= -1.00D+00 NBFU=   106
 Initial guess from the checkpoint file:  "solvent_51.chk"
 B after Tr=     0.000000   -0.000000   -0.000000
         Rot=    0.993262    0.114829    0.004824   -0.014873 Ang=  13.31 deg.
 ExpMin= 1.61D-01 ExpMax= 5.48D+03 ExpMxC= 8.25D+02 IAcc=2 IRadAn=         4 AccDes= 0.00D+00
 Harris functional with IExCor=  402 and IRadAn=       4 diagonalized for initial guess.
 HarFok:  IExCor=  402 AccDes= 0.00D+00 IRadAn=         4 IDoV= 1 UseB2=F ITyADJ=14
 ICtDFT=  3500011 ScaDFX=  1.000000  1.000000  1.000000  1.000000
 FoFCou: FMM=F IPFlag=           0 FMFlag=      100000 FMFlg1=           0
         NFxFlg=           0 DoJE=T BraDBF=F KetDBF=T FulRan=T
         wScrn=  0.000000 ICntrl=       500 IOpCl=  0 I1Cent=   200000004 NGrid=           0
         NMat0=    1 NMatS0=      1 NMatT0=    0 NMatD0=    1 NMtDS0=    0 NMtDT0=    0
 Petite list used in FoFCou.
 Keep R1 ints in memory in canonical form, NReq=17943810.
 Gradient too large for Newton-Raphson -- use scaled steepest descent instead.
 Gradient too large for Newton-Raphson -- use scaled steepest descent instead.
 Gradient too large for Newton-Raphson -- use scaled steepest descent instead.
     Accept linear search using points  1 and  2.
 Gradient too large for Newton-Raphson -- use scaled steepest descent instead.
     Accept linear search using points  1 and  2.
 Gradient too large for Newton-Raphson -- use scaled steepest descent instead.
 Gradient too large for Newton-Raphson -- use scaled steepest descent instead.
     Accept linear search using points  1 and  2.
 Gradient too large for Newton-Raphson -- use scaled steepest descent instead.
     Accept linear search using points  2 and  3.
 Gradient too large for Newton-Raphson -- use scaled steepest descent instead.
     Accept linear search using points  1 and  2.
 LinEq1:  Iter=  0 NonCon=     1 RMS=2.59D-04 Max=6.94D-03 NDo=     1
 AX will form     1 AO Fock derivatives at one time.
 LinEq1:  Iter=  1 NonCon=     1 RMS=2.56D-05 Max=4.12D-04 NDo=     1
 LinEq1:  Iter=  2 NonCon=     1 RMS=2.14D-05 Max=5.05D-04 NDo=     1
 LinEq1:  Iter=  3 NonCon=     1 RMS=1.55D-05 Max=2.76D-04 NDo=     1
 LinEq1:  Iter=  4 NonCon=     1 RMS=5.37D-06 Max=8.22D-05 NDo=     1
 LinEq1:  Iter=  5 NonCon=     1 RMS=2.87D-06 Max=4.43D-05 NDo=     1
 LinEq1:  Iter=  6 NonCon=     1 RMS=1.50D-06 Max=1.89D-05 NDo=     1
 LinEq1:  Iter=  7 NonCon=     1 RMS=7.43D-07 Max=7.48D-06 NDo=     1
 LinEq1:  Iter=  8 NonCon=     1 RMS=1.99D-07 Max=2.23D-06 NDo=     1
 LinEq1:  Iter=  9 NonCon=     1 RMS=7.25D-08 Max=6.06D-07 NDo=     1
 LinEq1:  Iter= 10 NonCon=     1 RMS=2.96D-08 Max=1.90D-07 NDo=     1
 LinEq1:  Iter= 11 NonCon=     1 RMS=9.74D-09 Max=1.06D-07 NDo=     1
 LinEq1:  Iter= 12 NonCon=     0 RMS=2.83D-09 Max=1.90D-08 NDo=     1
 Linear equations converged to 6.274D-09 6.274D-08 after    12 iterations.
     Accept linear search using points  1 and  2.
     Minimum is close to point  2 DX= -5.09D-05 DF= -3.41D-13 DXR=  5.09D-05 DFR=  2.58D-09 which will be used.
 LinEq1:  Iter=  0 NonCon=     1 RMS=1.55D-06 Max=3.57D-05 NDo=     1
 LinEq1:  Iter=  1 NonCon=     1 RMS=7.33D-07 Max=9.78D-06 NDo=     1
 LinEq1:  Iter=  2 NonCon=     1 RMS=4.75D-07 Max=6.84D-06 NDo=     1
 LinEq1:  Iter=  3 NonCon=     1 RMS=2.21D-07 Max=2.29D-06 NDo=     1
 LinEq1:  Iter=  4 NonCon=     1 RMS=1.08D-07 Max=1.03D-06 NDo=     1
 LinEq1:  Iter=  5 NonCon=     1 RMS=2.60D-08 Max=2.67D-07 NDo=     1
 LinEq1:  Iter=  6 NonCon=     1 RMS=8.33D-09 Max=5.61D-08 NDo=     1
 LinEq1:  Iter=  7 NonCon=     1 RMS=3.48D-09 Max=3.67D-08 NDo=     1
 LinEq1:  Iter=  8 NonCon=     1 RMS=1.30D-09 Max=1.58D-08 NDo=     1
 LinEq1:  Iter=  9 NonCon=     0 RMS=5.49D-10 Max=6.51D-09 NDo=     1
 Linear equations converged to 6.814D-10 6.814D-09 after     9 iterations.
 SCF Done:  E(RB3LYP) =  -307.707156180     a.u. after   11 cycles
            Convg  =    0.7524D-09                    46 Fock formations.
              S**2 =  0.0000                  -V/T =  2.0092
 DoSCS=F DFT=T ScalE2(SS,OS)=  1.000000  1.000000
 Range of M.O.s used for correlation:     1   106
 NBasis=   106 NAE=    24 NBE=    24 NFC=     0 NFV=     0
 NROrb=    106 NOA=    24 NOB=    24 NVA=    82 NVB=    82
 Symmetrizing basis deriv contribution to polar:
 IMax=3 JMax=2 DiffMx= 0.00D+00
 G2DrvN: will do    15 centers at a time, making    1 passes.
 Calling FoFCou, ICntrl=  3107 FMM=F I1Cent=   0 AccDes= 0.00D+00.
 End of G2Drv F.D. properties file   721 does not exist.
 End of G2Drv F.D. properties file   722 does not exist.
 End of G2Drv F.D. properties file   788 does not exist.
          IDoAtm=11111111111111
          Differentiating once with respect to electric field.
                with respect to dipole field.
          Differentiating once with respect to nuclear coordinates.
 Keep R1 ints in memory in canonical form, NReq=17950667.
          There are    45 degrees of freedom in the 1st order CPHF.  IDoFFX=6 NUNeed=     3.
     42 vectors produced by pass  0 Test12= 4.37D-15 2.22D-09 XBig12= 3.71D+01 3.05D+00.
 AX will form    42 AO Fock derivatives at one time.
     42 vectors produced by pass  1 Test12= 4.37D-15 2.22D-09 XBig12= 1.46D+01 1.30D+00.
     42 vectors produced by pass  2 Test12= 4.37D-15 2.22D-09 XBig12= 9.43D-02 4.92D-02.
     42 vectors produced by pass  3 Test12= 4.37D-15 2.22D-09 XBig12= 1.85D-04 2.81D-03.
     42 vectors produced by pass  4 Test12= 4.37D-15 2.22D-09 XBig12= 2.35D-07 6.75D-05.
     18 vectors produced by pass  5 Test12= 4.37D-15 2.22D-09 XBig12= 1.17D-10 1.24D-06.
      3 vectors produced by pass  6 Test12= 4.37D-15 2.22D-09 XBig12= 6.85D-14 4.48D-08.
 InvSVY:  IOpt=1 It=  1 EMax= 4.44D-15
 Solved reduced A of dimension   231 with    45 vectors.
 Isotropic polarizability for W=    0.000000       47.81 Bohr**3.
 End of Minotr F.D. properties file   721 does not exist.
 End of Minotr F.D. properties file   722 does not exist.
 End of Minotr F.D. properties file   788 does not exist.
 Calling FoFJK, ICntrl=    100127 FMM=F ISym2X=0 I1Cent= 0 IOpClX= 0 NMat=1 NMatS=1 NMatT=0.
 ***** Axes restored to original set *****
 -------------------------------------------------------------------
 Center     Atomic                   Forces (Hartrees/Bohr)
 Number     Number              X              Y              Z
 -------------------------------------------------------------------
      1        6          -0.000663923    0.000279972   -0.000920390
      2        6          -0.000135344   -0.000655345    0.000421409
      3        8           0.000326523   -0.000034782   -0.000443781
      4        8          -0.000434512   -0.000098934    0.000418652
      5        6           0.001021938    0.000745231    0.000241607
      6        6          -0.000217155   -0.000570338    0.000031784
      7        1          -0.000011233    0.000053630   -0.000050244
      8        1          -0.000003563   -0.000052623    0.000345335
      9        1          -0.000090494    0.000172032    0.000259950
     10        1          -0.000045570    0.000013921    0.000065330
     11        1          -0.000366809   -0.000232119   -0.000330971
     12        1           0.000140692    0.000111054    0.000070059
     13        1           0.000122014    0.000061944    0.000169446
     14        1           0.000357435    0.000206356   -0.000278184
 -------------------------------------------------------------------
 Cartesian Forces:  Max     0.001021938 RMS     0.000364218
 FormGI is forming the generalized inverse of G from B-inverse, IUseBI=4.

 GradGradGradGradGradGradGradGradGradGradGradGradGradGradGradGradGradGrad
 Berny optimization.
 Using GEDIIS/GDIIS optimizer.
 Internal  Forces:  Max     0.001148630 RMS     0.000355370
 Search for a local minimum.
 Step number   2 out of a maximum of   65
 All quantities printed in internal units (Hartrees-Bohrs-Radians)
 Mixed Optimization -- En-DIIS/RFO-DIIS
 Second derivative matrix not updated -- analytic derivatives used.
 DE= -3.23D-03 DEPred=-3.23D-03 R= 1.00D+00
 TightC=F SS=  1.41D+00  RLast= 3.15D-01 DXNew= 5.0454D-01 9.4588D-01
 Trust test= 1.00D+00 RLast= 3.15D-01 DXMaxT set to 5.05D-01
 ITU=  1  0
 Use linear search instead of GDIIS.
     Eigenvalues ---    0.00022   0.00281   0.00494   0.02086   0.04617
     Eigenvalues ---    0.04661   0.04738   0.04774   0.05791   0.05832
     Eigenvalues ---    0.06097   0.10053   0.12572   0.12770   0.12852
     Eigenvalues ---    0.13265   0.13559   0.14238   0.17060   0.21086
     Eigenvalues ---    0.23453   0.24636   0.25904   0.30098   0.33448
     Eigenvalues ---    0.34060   0.34123   0.34198   0.34238   0.34744
     Eigenvalues ---    0.34988   0.35316   0.35855   0.36624   0.46827
     Eigenvalues ---    0.88265
 RFO step:  Lambda=-8.17176496D-05 EMin= 2.20340307D-04
 Quintic linear search produced a step of  0.11491.
 Iteration  1 RMS(Cart)=  0.04042947 RMS(Int)=  0.00068320
 Iteration  2 RMS(Cart)=  0.00089594 RMS(Int)=  0.00004841
 Iteration  3 RMS(Cart)=  0.00000033 RMS(Int)=  0.00004841
 Variable       Old X    -DE/DX   Delta X   Delta X   Delta X     New X
                                 (Linear)    (Quad)   (Total)
    R1        2.85456   0.00062   0.00274  -0.00109   0.00165   2.85621
    R2        2.06084   0.00003  -0.00073   0.00052  -0.00021   2.06063
    R3        2.06845   0.00007   0.00037   0.00012   0.00049   2.06894
    R4        2.06929   0.00007   0.00051  -0.00039   0.00012   2.06941
    R5        2.28935   0.00055  -0.00189   0.00264   0.00075   2.29010
    R6        2.55878   0.00065  -0.00173   0.00198   0.00025   2.55903
    R7        2.73158   0.00105   0.00233   0.00158   0.00391   2.73549
    R8        2.87449   0.00036   0.00064  -0.00020   0.00044   2.87493
    R9        2.06548   0.00005  -0.00038   0.00031  -0.00006   2.06542
   R10        2.06470   0.00011  -0.00069   0.00101   0.00032   2.06502
   R11        2.06943  -0.00002  -0.00018   0.00007  -0.00011   2.06932
   R12        2.07081   0.00013   0.00064   0.00003   0.00067   2.07148
   R13        2.06713  -0.00001   0.00001  -0.00053  -0.00051   2.06662
    A1        1.90978   0.00006   0.00036   0.00020   0.00054   1.91032
    A2        1.92689  -0.00003   0.00006  -0.00364  -0.00359   1.92330
    A3        1.91737   0.00006   0.00137   0.00184   0.00319   1.92056
    A4        1.91868   0.00008   0.00218  -0.00125   0.00092   1.91960
    A5        1.91414   0.00010   0.00233   0.00077   0.00307   1.91721
    A6        1.87676  -0.00028  -0.00628   0.00213  -0.00416   1.87260
    A7        2.18823  -0.00013   0.00189  -0.00234  -0.00054   2.18769
    A8        1.92857   0.00042   0.00208  -0.00052   0.00147   1.93004
    A9        2.16634  -0.00029  -0.00372   0.00291  -0.00089   2.16545
   A10        2.03489   0.00024   0.00266  -0.00308  -0.00042   2.03446
   A11        1.93889   0.00100   0.00574  -0.00036   0.00540   1.94429
   A12        1.82288  -0.00038  -0.00622   0.00353  -0.00279   1.82010
   A13        1.90448  -0.00053  -0.00568   0.00057  -0.00512   1.89937
   A14        1.94516  -0.00014   0.00296  -0.00249   0.00050   1.94567
   A15        1.94220  -0.00021  -0.00081  -0.00080  -0.00157   1.94063
   A16        1.90619   0.00023   0.00370  -0.00015   0.00342   1.90961
   A17        1.93478   0.00005   0.00115  -0.00127  -0.00013   1.93465
   A18        1.92066  -0.00009  -0.00218  -0.00076  -0.00296   1.91770
   A19        1.92867  -0.00002  -0.00089   0.00177   0.00085   1.92952
   A20        1.89245  -0.00009  -0.00089  -0.00147  -0.00236   1.89009
   A21        1.89697   0.00021   0.00406   0.00042   0.00447   1.90144
   A22        1.88926  -0.00006  -0.00114   0.00131   0.00014   1.88940
    D1       -0.04707   0.00020   0.00271   0.02791   0.03065  -0.01643
    D2        3.10430  -0.00031  -0.00394   0.02276   0.01878   3.12307
    D3       -2.16100   0.00008  -0.00025   0.03165   0.03143  -2.12957
    D4        0.99037  -0.00044  -0.00690   0.02650   0.01956   1.00993
    D5        2.05526   0.00040   0.00661   0.03013   0.03677   2.09203
    D6       -1.07656  -0.00011  -0.00005   0.02498   0.02490  -1.05165
    D7        3.08514   0.00115   0.02308   0.03059   0.05358   3.13873
    D8       -0.04682   0.00064   0.01626   0.02555   0.04190  -0.00492
    D9       -1.48407   0.00003   0.00292  -0.00498  -0.00208  -1.48615
   D10        2.70002  -0.00010  -0.00008  -0.00393  -0.00384   2.69618
   D11        0.66357   0.00008   0.00199  -0.00584  -0.00400   0.65957
   D12       -1.00829  -0.00010  -0.00088   0.03120   0.03030  -0.97799
   D13       -3.10166   0.00004   0.00092   0.03433   0.03523  -3.06643
   D14        1.09600   0.00019   0.00436   0.03207   0.03640   1.13241
   D15        1.01672  -0.00004  -0.00328   0.03380   0.03054   1.04726
   D16       -1.07665   0.00011  -0.00148   0.03693   0.03547  -1.04118
   D17        3.12101   0.00025   0.00196   0.03467   0.03665  -3.12553
   D18       -3.13408   0.00001   0.00289   0.03128   0.03418  -3.09991
   D19        1.05573   0.00016   0.00468   0.03441   0.03911   1.09484
   D20       -1.02979   0.00030   0.00813   0.03215   0.04028  -0.98951
         Item               Value     Threshold  Converged?
 Maximum Force            0.001149     0.000450     NO 
 RMS     Force            0.000355     0.000300     NO 
 Maximum Displacement     0.119758     0.001800     NO 
 RMS     Displacement     0.040326     0.001200     NO 
 Predicted change in Energy=-7.617159D-05
 GradGradGradGradGradGradGradGradGradGradGradGradGradGradGradGradGradGrad

                          Input orientation:                          
 ---------------------------------------------------------------------
 Center     Atomic      Atomic             Coordinates (Angstroms)
 Number     Number       Type             X           Y           Z
 ---------------------------------------------------------------------
      1          6           0        1.027164   -0.488097    0.272908
      2          6           0        2.512123   -0.271161    0.093205
      3          8           0        3.128703   -0.457533   -0.933306
      4          8           0        3.072018    0.167746    1.245458
      5          6           0        4.498066    0.414980    1.219196
      6          6           0        5.287151   -0.857958    1.486527
      7          1           0        0.592374   -0.822721   -0.669450
      8          1           0        0.546205    0.440085    0.598217
      9          1           0        0.848875   -1.237300    1.051444
     10          1           0        4.657588    1.157271    2.005417
     11          1           0        4.763093    0.848125    0.251582
     12          1           0        4.987030   -1.309997    2.437681
     13          1           0        6.357952   -0.628970    1.537094
     14          1           0        5.129499   -1.583230    0.683346
 ---------------------------------------------------------------------
                    Distance matrix (angstroms):
                    1          2          3          4          5
     1  C    0.000000
     2  C    1.511442   0.000000
     3  O    2.423294   1.211871   0.000000
     4  O    2.357416   1.354182   2.267422   0.000000
     5  C    3.709201   2.383824   2.696238   1.447560   0.000000
     6  C    4.444902   3.160136   3.267237   2.452957   1.521345
     7  H    1.090437   2.138059   2.576033   3.285808   4.511465
     8  H    1.094838   2.150754   3.133780   2.621606   4.000432
     9  H    1.095084   2.148962   3.121680   2.637074   4.009335
    10  H    4.346125   3.209360   3.685265   2.017605   1.092972
    11  H    3.967759   2.518879   2.404150   2.076161   1.092763
    12  H    4.587188   3.563833   3.942541   2.696737   2.167796
    13  H    5.480448   4.123499   4.069438   3.393696   2.156401
    14  H    4.265785   2.986712   2.807837   2.759550   2.163027
                    6          7          8          9         10
     6  C    0.000000
     7  H    5.166276   0.000000
     8  H    4.995056   1.789913   0.000000
     9  H    4.475655   1.788615   1.763702   0.000000
    10  H    2.174107   5.253689   4.404320   4.598948   0.000000
    11  H    2.170356   4.586385   4.250741   4.506649   1.783996
    12  H    1.095037   5.404137   5.115402   4.364775   2.526419
    13  H    1.096178   6.176428   5.983375   5.563798   2.510223
    14  H    1.093606   4.795199   5.010752   4.310325   3.079110
                   11         12         13         14
    11  H    0.000000
    12  H    3.080044   0.000000
    13  H    2.525456   1.776030   0.000000
    14  H    2.496430   1.781191   1.774428   0.000000
 Stoichiometry    C4H8O2
 Framework group  C1[X(C4H8O2)]
 Deg. of freedom    36
 Full point group                 C1      NOp   1
 Largest Abelian subgroup         C1      NOp   1
 Largest concise Abelian subgroup C1      NOp   1
                         Standard orientation:                         
 ---------------------------------------------------------------------
 Center     Atomic      Atomic             Coordinates (Angstroms)
 Number     Number       Type             X           Y           Z
 ---------------------------------------------------------------------
      1          6           0        2.216791   -0.466430    0.317302
      2          6           0        0.901359    0.176068   -0.058585
      3          8           0        0.714404    1.366322   -0.188864
      4          8           0       -0.055089   -0.766013   -0.236071
      5          6           0       -1.373485   -0.289997   -0.597552
      6          6           0       -2.181171    0.095330    0.632756
      7          1           0        2.977100    0.305988    0.437111
      8          1           0        2.524629   -1.177755   -0.455954
      9          1           0        2.106888   -1.027974    1.251003
     10          1           0       -1.827963   -1.131027   -1.127367
     11          1           0       -1.267788    0.555715   -1.281460
     12          1           0       -2.247818   -0.743421    1.333583
     13          1           0       -3.198096    0.378497    0.337315
     14          1           0       -1.722442    0.947676    1.141724
 ---------------------------------------------------------------------
 Rotational constants (GHZ):           7.3377860           2.2992983           2.0307803
 Standard basis: 6-31G(d) (6D, 7F)
 There are   106 symmetry adapted cartesian basis functions of A   symmetry.
 There are   106 symmetry adapted basis functions of A   symmetry.
   106 basis functions,   200 primitive gaussians,   106 cartesian basis functions
    24 alpha electrons       24 beta electrons
       nuclear repulsion energy       246.1020264943 Hartrees.
 NAtoms=   14 NActive=   14 NUniq=   14 SFac= 1.00D+00 NAtFMM=   60 NAOKFM=F Big=F
 Integral buffers will be    131072 words long.
 Raffenetti 2 integral format.
 Two-electron integral symmetry is turned on.
 One-electron integrals computed using PRISM.
 NBasis=   106 RedAO= T EigKep=  4.11D-03  NBF=   106
 NBsUse=   106 1.00D-06 EigRej= -1.00D+00 NBFU=   106
 Initial guess from the checkpoint file:  "solvent_51.chk"
 B after Tr=    -0.000000    0.000000   -0.000000
         Rot=    0.999823    0.018610    0.000712   -0.002668 Ang=   2.16 deg.
 ExpMin= 1.61D-01 ExpMax= 5.48D+03 ExpMxC= 8.25D+02 IAcc=2 IRadAn=         4 AccDes= 0.00D+00
 Harris functional with IExCor=  402 and IRadAn=       4 diagonalized for initial guess.
 HarFok:  IExCor=  402 AccDes= 0.00D+00 IRadAn=         4 IDoV= 1 UseB2=F ITyADJ=14
 ICtDFT=  3500011 ScaDFX=  1.000000  1.000000  1.000000  1.000000
 FoFCou: FMM=F IPFlag=           0 FMFlag=      100000 FMFlg1=           0
         NFxFlg=           0 DoJE=T BraDBF=F KetDBF=T FulRan=T
         wScrn=  0.000000 ICntrl=       500 IOpCl=  0 I1Cent=   200000004 NGrid=           0
         NMat0=    1 NMatS0=      1 NMatT0=    0 NMatD0=    1 NMtDS0=    0 NMtDT0=    0
 Petite list used in FoFCou.
 Keep R1 ints in memory in canonical form, NReq=17943810.
 Gradient too large for Newton-Raphson -- use scaled steepest descent instead.
 Gradient too large for Newton-Raphson -- use scaled steepest descent instead.
 Gradient too large for Newton-Raphson -- use scaled steepest descent instead.
     Accept linear search using points  1 and  2.
 Gradient too large for Newton-Raphson -- use scaled steepest descent instead.
     Accept linear search using points  1 and  2.
 LinEq1:  Iter=  0 NonCon=     1 RMS=1.54D-04 Max=2.69D-03 NDo=     1
 AX will form     1 AO Fock derivatives at one time.
 LinEq1:  Iter=  1 NonCon=     1 RMS=1.54D-05 Max=2.38D-04 NDo=     1
 LinEq1:  Iter=  2 NonCon=     1 RMS=1.46D-05 Max=3.60D-04 NDo=     1
 LinEq1:  Iter=  3 NonCon=     1 RMS=1.03D-05 Max=2.56D-04 NDo=     1
 LinEq1:  Iter=  4 NonCon=     1 RMS=6.04D-06 Max=8.29D-05 NDo=     1
 LinEq1:  Iter=  5 NonCon=     1 RMS=2.33D-06 Max=2.84D-05 NDo=     1
 LinEq1:  Iter=  6 NonCon=     1 RMS=1.13D-06 Max=1.29D-05 NDo=     1
 LinEq1:  Iter=  7 NonCon=     1 RMS=5.54D-07 Max=7.22D-06 NDo=     1
 LinEq1:  Iter=  8 NonCon=     1 RMS=1.13D-07 Max=1.31D-06 NDo=     1
 LinEq1:  Iter=  9 NonCon=     1 RMS=3.30D-08 Max=3.52D-07 NDo=     1
 LinEq1:  Iter= 10 NonCon=     1 RMS=1.54D-08 Max=1.49D-07 NDo=     1
 LinEq1:  Iter= 11 NonCon=     0 RMS=3.52D-09 Max=3.00D-08 NDo=     1
 Linear equations converged to 6.274D-09 6.274D-08 after    11 iterations.
     Accept linear search using points  1 and  2.
     Minimum is close to point  2 DX= -2.78D-05 DF= -5.68D-14 DXR=  2.78D-05 DFR=  1.01D-09 which will be used.
 LinEq1:  Iter=  0 NonCon=     1 RMS=2.49D-07 Max=4.24D-06 NDo=     1
 LinEq1:  Iter=  1 NonCon=     1 RMS=1.55D-07 Max=2.65D-06 NDo=     1
 LinEq1:  Iter=  2 NonCon=     1 RMS=1.13D-07 Max=1.95D-06 NDo=     1
 LinEq1:  Iter=  3 NonCon=     1 RMS=4.60D-08 Max=5.60D-07 NDo=     1
 LinEq1:  Iter=  4 NonCon=     1 RMS=2.67D-08 Max=2.27D-07 NDo=     1
 LinEq1:  Iter=  5 NonCon=     1 RMS=6.23D-09 Max=9.38D-08 NDo=     1
 LinEq1:  Iter=  6 NonCon=     1 RMS=1.93D-09 Max=3.35D-08 NDo=     1
 LinEq1:  Iter=  7 NonCon=     1 RMS=1.00D-09 Max=2.00D-08 NDo=     1
 LinEq1:  Iter=  8 NonCon=     1 RMS=3.09D-10 Max=5.72D-09 NDo=     1
 LinEq1:  Iter=  9 NonCon=     0 RMS=8.24D-11 Max=1.11D-09 NDo=     1
 Linear equations converged to 1.242D-10 1.242D-09 after     9 iterations.
 SCF Done:  E(RB3LYP) =  -307.707232340     a.u. after    7 cycles
            Convg  =    0.9001D-10                    35 Fock formations.
              S**2 =  0.0000                  -V/T =  2.0092
 DoSCS=F DFT=T ScalE2(SS,OS)=  1.000000  1.000000
 Range of M.O.s used for correlation:     1   106
 NBasis=   106 NAE=    24 NBE=    24 NFC=     0 NFV=     0
 NROrb=    106 NOA=    24 NOB=    24 NVA=    82 NVB=    82
 Symmetrizing basis deriv contribution to polar:
 IMax=3 JMax=2 DiffMx= 0.00D+00
 G2DrvN: will do    15 centers at a time, making    1 passes.
 Calling FoFCou, ICntrl=  3107 FMM=F I1Cent=   0 AccDes= 0.00D+00.
 End of G2Drv F.D. properties file   721 does not exist.
 End of G2Drv F.D. properties file   722 does not exist.
 End of G2Drv F.D. properties file   788 does not exist.
          IDoAtm=11111111111111
          Differentiating once with respect to electric field.
                with respect to dipole field.
          Differentiating once with respect to nuclear coordinates.
 Keep R1 ints in memory in canonical form, NReq=17950667.
          There are    45 degrees of freedom in the 1st order CPHF.  IDoFFX=6 NUNeed=     3.
     42 vectors produced by pass  0 Test12= 4.37D-15 2.22D-09 XBig12= 3.71D+01 3.08D+00.
 AX will form    42 AO Fock derivatives at one time.
     42 vectors produced by pass  1 Test12= 4.37D-15 2.22D-09 XBig12= 1.44D+01 1.28D+00.
     42 vectors produced by pass  2 Test12= 4.37D-15 2.22D-09 XBig12= 9.15D-02 4.90D-02.
     42 vectors produced by pass  3 Test12= 4.37D-15 2.22D-09 XBig12= 1.77D-04 2.68D-03.
     42 vectors produced by pass  4 Test12= 4.37D-15 2.22D-09 XBig12= 2.22D-07 6.41D-05.
     18 vectors produced by pass  5 Test12= 4.37D-15 2.22D-09 XBig12= 1.10D-10 1.15D-06.
      3 vectors produced by pass  6 Test12= 4.37D-15 2.22D-09 XBig12= 6.36D-14 4.27D-08.
 InvSVY:  IOpt=1 It=  1 EMax= 1.46D-15
 Solved reduced A of dimension   231 with    45 vectors.
 Isotropic polarizability for W=    0.000000       47.86 Bohr**3.
 End of Minotr F.D. properties file   721 does not exist.
 End of Minotr F.D. properties file   722 does not exist.
 End of Minotr F.D. properties file   788 does not exist.
 Calling FoFJK, ICntrl=    100127 FMM=F ISym2X=0 I1Cent= 0 IOpClX= 0 NMat=1 NMatS=1 NMatT=0.
 ***** Axes restored to original set *****
 -------------------------------------------------------------------
 Center     Atomic                   Forces (Hartrees/Bohr)
 Number     Number              X              Y              Z
 -------------------------------------------------------------------
      1        6          -0.000050815   -0.000012278   -0.000027082
      2        6          -0.000039371   -0.000051435    0.000024117
      3        8           0.000016458    0.000021438   -0.000063586
      4        8          -0.000048609    0.000069549    0.000060767
      5        6           0.000001702   -0.000015827    0.000024433
      6        6           0.000068661   -0.000014681   -0.000001175
      7        1          -0.000018451   -0.000002785   -0.000006607
      8        1           0.000003311    0.000011226   -0.000006625
      9        1           0.000006181   -0.000007801    0.000000605
     10        1           0.000033676    0.000011355   -0.000009571
     11        1           0.000007216    0.000009092   -0.000013616
     12        1           0.000001988   -0.000004383   -0.000006443
     13        1           0.000012977   -0.000004380    0.000017290
     14        1           0.000005077   -0.000009089    0.000007493
 -------------------------------------------------------------------
 Cartesian Forces:  Max     0.000069549 RMS     0.000027926
 FormGI is forming the generalized inverse of G from B-inverse, IUseBI=4.

 GradGradGradGradGradGradGradGradGradGradGradGradGradGradGradGradGradGrad
 Berny optimization.
 Using GEDIIS/GDIIS optimizer.
 Internal  Forces:  Max     0.000124176 RMS     0.000035055
 Search for a local minimum.
 Step number   3 out of a maximum of   65
 All quantities printed in internal units (Hartrees-Bohrs-Radians)
 Mixed Optimization -- En-DIIS/RFO-DIIS
 Swapping is turned off.
 Second derivative matrix not updated -- analytic derivatives used.
 DE= -7.62D-05 DEPred=-7.62D-05 R= 1.00D+00
 TightC=F SS=  1.41D+00  RLast= 1.44D-01 DXNew= 8.4853D-01 4.3290D-01
 Trust test= 1.00D+00 RLast= 1.44D-01 DXMaxT set to 5.05D-01
 ITU=  1  1  0
     Eigenvalues ---    0.00021   0.00279   0.00517   0.02119   0.04603
     Eigenvalues ---    0.04666   0.04727   0.04776   0.05805   0.05815
     Eigenvalues ---    0.06076   0.10030   0.12590   0.12760   0.12834
     Eigenvalues ---    0.13239   0.13559   0.14231   0.17051   0.21055
     Eigenvalues ---    0.23405   0.24483   0.25827   0.30055   0.33345
     Eigenvalues ---    0.34023   0.34106   0.34165   0.34241   0.34712
     Eigenvalues ---    0.35018   0.35275   0.35819   0.36483   0.46678
     Eigenvalues ---    0.88052
 En-DIIS/RFO-DIIS/Sim-DIIS IScMMF=       -3 using points:     3    2
 RFO step:  Lambda=-3.84445194D-07.
 DidBck=F Rises=F RFO-DIIS coefs:    1.04709   -0.04709
 Iteration  1 RMS(Cart)=  0.00141005 RMS(Int)=  0.00000098
 Iteration  2 RMS(Cart)=  0.00000116 RMS(Int)=  0.00000028
 Iteration  3 RMS(Cart)=  0.00000000 RMS(Int)=  0.00000028
 Variable       Old X    -DE/DX   Delta X   Delta X   Delta X     New X
                                 (Linear)    (Quad)   (Total)
    R1        2.85621   0.00006   0.00008   0.00007   0.00015   2.85636
    R2        2.06063   0.00001  -0.00001   0.00004   0.00003   2.06066
    R3        2.06894   0.00001   0.00002   0.00003   0.00005   2.06899
    R4        2.06941   0.00000   0.00001  -0.00003  -0.00002   2.06939
    R5        2.29010   0.00006   0.00004   0.00001   0.00004   2.29015
    R6        2.55903   0.00012   0.00001   0.00026   0.00027   2.55931
    R7        2.73549   0.00012   0.00018   0.00009   0.00027   2.73576
    R8        2.87493   0.00008   0.00002   0.00016   0.00018   2.87511
    R9        2.06542   0.00001  -0.00000   0.00003   0.00002   2.06544
   R10        2.06502   0.00002   0.00002   0.00001   0.00002   2.06505
   R11        2.06932  -0.00000  -0.00001   0.00000  -0.00000   2.06931
   R12        2.07148   0.00001   0.00003  -0.00000   0.00003   2.07150
   R13        2.06662  -0.00000  -0.00002   0.00005   0.00003   2.06665
    A1        1.91032   0.00002   0.00003   0.00004   0.00007   1.91039
    A2        1.92330  -0.00001  -0.00017  -0.00011  -0.00028   1.92301
    A3        1.92056  -0.00001   0.00015  -0.00001   0.00014   1.92070
    A4        1.91960  -0.00001   0.00004  -0.00023  -0.00019   1.91942
    A5        1.91721  -0.00000   0.00014   0.00003   0.00017   1.91738
    A6        1.87260   0.00001  -0.00020   0.00029   0.00010   1.87270
    A7        2.18769  -0.00004  -0.00003  -0.00011  -0.00013   2.18756
    A8        1.93004   0.00006   0.00007   0.00009   0.00016   1.93020
    A9        2.16545  -0.00002  -0.00004   0.00002  -0.00003   2.16543
   A10        2.03446   0.00002  -0.00002  -0.00001  -0.00003   2.03443
   A11        1.94429   0.00010   0.00025   0.00002   0.00028   1.94457
   A12        1.82010  -0.00001  -0.00013   0.00034   0.00020   1.82030
   A13        1.89937  -0.00003  -0.00024   0.00017  -0.00008   1.89929
   A14        1.94567  -0.00004   0.00002  -0.00022  -0.00020   1.94547
   A15        1.94063  -0.00001  -0.00007   0.00002  -0.00006   1.94057
   A16        1.90961   0.00000   0.00016  -0.00030  -0.00014   1.90947
   A17        1.93465  -0.00000  -0.00001  -0.00002  -0.00002   1.93463
   A18        1.91770   0.00001  -0.00014   0.00012  -0.00002   1.91768
   A19        1.92952   0.00002   0.00004   0.00016   0.00020   1.92973
   A20        1.89009  -0.00001  -0.00011   0.00001  -0.00010   1.88999
   A21        1.90144  -0.00001   0.00021  -0.00036  -0.00015   1.90129
   A22        1.88940  -0.00001   0.00001   0.00007   0.00008   1.88948
    D1       -0.01643   0.00001   0.00144   0.00183   0.00327  -0.01316
    D2        3.12307  -0.00001   0.00088   0.00174   0.00262   3.12570
    D3       -2.12957   0.00001   0.00148   0.00216   0.00364  -2.12594
    D4        1.00993  -0.00001   0.00092   0.00207   0.00299   1.01292
    D5        2.09203   0.00001   0.00173   0.00188   0.00361   2.09564
    D6       -1.05165  -0.00001   0.00117   0.00179   0.00296  -1.04869
    D7        3.13873  -0.00001   0.00252  -0.00242   0.00010   3.13883
    D8       -0.00492  -0.00003   0.00197  -0.00250  -0.00053  -0.00546
    D9       -1.48615  -0.00003  -0.00010  -0.00212  -0.00221  -1.48836
   D10        2.69618  -0.00002  -0.00018  -0.00207  -0.00225   2.69393
   D11        0.65957  -0.00000  -0.00019  -0.00197  -0.00216   0.65742
   D12       -0.97799  -0.00000   0.00143  -0.00024   0.00119  -0.97680
   D13       -3.06643   0.00001   0.00166  -0.00032   0.00134  -3.06509
   D14        1.13241  -0.00000   0.00171  -0.00059   0.00113   1.13353
   D15        1.04726   0.00002   0.00144   0.00005   0.00149   1.04875
   D16       -1.04118   0.00003   0.00167  -0.00003   0.00164  -1.03954
   D17       -3.12553   0.00002   0.00173  -0.00030   0.00143  -3.12410
   D18       -3.09991  -0.00001   0.00161  -0.00048   0.00113  -3.09877
   D19        1.09484  -0.00001   0.00184  -0.00056   0.00128   1.09612
   D20       -0.98951  -0.00002   0.00190  -0.00083   0.00107  -0.98844
         Item               Value     Threshold  Converged?
 Maximum Force            0.000124     0.000450     YES
 RMS     Force            0.000035     0.000300     YES
 Maximum Displacement     0.005528     0.001800     NO 
 RMS     Displacement     0.001410     0.001200     NO 
 Predicted change in Energy=-1.921927D-07
 GradGradGradGradGradGradGradGradGradGradGradGradGradGradGradGradGradGrad

                          Input orientation:                          
 ---------------------------------------------------------------------
 Center     Atomic      Atomic             Coordinates (Angstroms)
 Number     Number       Type             X           Y           Z
 ---------------------------------------------------------------------
      1          6           0        1.026598   -0.488100    0.272858
      2          6           0        2.511528   -0.270571    0.092965
      3          8           0        3.127543   -0.454608   -0.934335
      4          8           0        3.071999    0.166638    1.245752
      5          6           0        4.498116    0.414271    1.219076
      6          6           0        5.288008   -0.858170    1.486943
      7          1           0        0.591923   -0.823857   -0.669168
      8          1           0        0.545366    0.440414    0.596906
      9          1           0        0.848520   -1.236370    1.052323
     10          1           0        4.657802    1.157076    2.004796
     11          1           0        4.762754    0.847008    0.251159
     12          1           0        4.987499   -1.310470    2.437847
     13          1           0        6.358595   -0.628330    1.538472
     14          1           0        5.131587   -1.583693    0.683727
 ---------------------------------------------------------------------
                    Distance matrix (angstroms):
                    1          2          3          4          5
     1  C    0.000000
     2  C    1.511522   0.000000
     3  O    2.423304   1.211894   0.000000
     4  O    2.357726   1.354326   2.267556   0.000000
     5  C    3.709588   2.384044   2.696405   1.447703   0.000000
     6  C    4.446412   3.161849   3.270024   2.453385   1.521443
     7  H    1.090453   2.138190   2.576048   3.286149   4.511848
     8  H    1.094865   2.150640   3.132634   2.622943   4.001501
     9  H    1.095074   2.149124   3.122804   2.636230   4.008987
    10  H    4.346476   3.209325   3.684794   2.017891   1.092984
    11  H    3.967600   2.518338   2.402814   2.076240   1.092775
    12  H    4.588269   3.565150   3.945066   2.696679   2.167863
    13  H    5.481938   4.125216   4.072426   3.394020   2.156482
    14  H    4.268498   2.989649   2.812321   2.760694   2.163272
                    6          7          8          9         10
     6  C    0.000000
     7  H    5.167514   0.000000
     8  H    4.997113   1.789830   0.000000
     9  H    4.476716   1.788726   1.763778   0.000000
    10  H    2.174063   5.254098   4.405438   4.598523   0.000000
    11  H    2.170411   4.586352   4.251026   4.505947   1.783928
    12  H    1.095034   5.404759   5.117344   4.365354   2.526860
    13  H    1.096192   6.177897   5.985181   5.564799   2.509549
    14  H    1.093621   4.797523   5.013778   4.312907   3.079207
                   11         12         13         14
    11  H    0.000000
    12  H    3.080070   0.000000
    13  H    2.525967   1.775977   0.000000
    14  H    2.496290   1.781109   1.774502   0.000000
 Stoichiometry    C4H8O2
 Framework group  C1[X(C4H8O2)]
 Deg. of freedom    36
 Full point group                 C1      NOp   1
 Largest Abelian subgroup         C1      NOp   1
 Largest concise Abelian subgroup C1      NOp   1
                         Standard orientation:                         
 ---------------------------------------------------------------------
 Center     Atomic      Atomic             Coordinates (Angstroms)
 Number     Number       Type             X           Y           Z
 ---------------------------------------------------------------------
      1          6           0        2.216982   -0.467662    0.316880
      2          6           0        0.901798    0.176099   -0.058038
      3          8           0        0.715714    1.366661   -0.186964
      4          8           0       -0.055324   -0.765190   -0.237175
      5          6           0       -1.373486   -0.287670   -0.598100
      6          6           0       -2.182564    0.093420    0.632734
      7          1           0        2.977067    0.304377    0.440617
      8          1           0        2.525788   -1.175570   -0.459158
      9          1           0        2.106155   -1.033198    1.248048
     10          1           0       -1.827780   -1.126601   -1.131417
     11          1           0       -1.267023    0.560468   -1.278899
     12          1           0       -2.249044   -0.747426    1.331059
     13          1           0       -3.199545    0.376416    0.337267
     14          1           0       -1.725111    0.944652    1.144739
 ---------------------------------------------------------------------
 Rotational constants (GHZ):           7.3390266           2.2977392           2.0296927
 Standard basis: 6-31G(d) (6D, 7F)
[...]
 SavETr:  write IOETrn=   770 NScale= 10 NData=  16 NLR=1 NState=   10 LETran=     190.
          Differentiating once with respect to electric field.
                with respect to dipole field.
          Electric field/nuclear overlap derivatives assumed to be zero.
 Keep R1 ints in memory in canonical form, NReq=17945410.
          There are     1 degrees of freedom in the 1st order CPHF.  IDoFFX=0 NUNeed=     1.
 LinEq1:  Iter=  0 NonCon=     1 RMS=3.06D-02 Max=7.25D-01 NDo=     1
 AX will form     1 AO Fock derivatives at one time.
 LinEq1:  Iter=  1 NonCon=     1 RMS=9.08D-03 Max=1.50D-01 NDo=     1
 LinEq1:  Iter=  2 NonCon=     1 RMS=6.52D-03 Max=5.93D-02 NDo=     1
 LinEq1:  Iter=  3 NonCon=     1 RMS=2.60D-03 Max=2.56D-02 NDo=     1
 LinEq1:  Iter=  4 NonCon=     1 RMS=1.17D-03 Max=1.16D-02 NDo=     1
 LinEq1:  Iter=  5 NonCon=     1 RMS=3.68D-04 Max=3.03D-03 NDo=     1
 LinEq1:  Iter=  6 NonCon=     1 RMS=9.61D-05 Max=1.00D-03 NDo=     1
 LinEq1:  Iter=  7 NonCon=     1 RMS=4.64D-05 Max=4.18D-04 NDo=     1
 LinEq1:  Iter=  8 NonCon=     1 RMS=1.41D-05 Max=2.52D-04 NDo=     1
 LinEq1:  Iter=  9 NonCon=     1 RMS=5.38D-06 Max=1.00D-04 NDo=     1
 LinEq1:  Iter= 10 NonCon=     1 RMS=2.21D-06 Max=4.58D-05 NDo=     1
 LinEq1:  Iter= 11 NonCon=     1 RMS=5.80D-07 Max=9.76D-06 NDo=     1
 LinEq1:  Iter= 12 NonCon=     1 RMS=1.75D-07 Max=2.03D-06 NDo=     1
 LinEq1:  Iter= 13 NonCon=     1 RMS=8.92D-08 Max=7.29D-07 NDo=     1
 LinEq1:  Iter= 14 NonCon=     1 RMS=1.87D-08 Max=9.95D-08 NDo=     1
 LinEq1:  Iter= 15 NonCon=     1 RMS=3.75D-09 Max=4.06D-08 NDo=     1
 LinEq1:  Iter= 16 NonCon=     1 RMS=5.65D-10 Max=5.82D-09 NDo=     1
 LinEq1:  Iter= 17 NonCon=     1 RMS=1.33D-10 Max=1.35D-09 NDo=     1
 LinEq1:  Iter= 18 NonCon=     0 RMS=3.49D-11 Max=2.71D-10 NDo=     1
 Linear equations converged to 1.000D-10 1.000D-09 after    18 iterations.
 End of Minotr F.D. properties file   721 does not exist.
 End of Minotr F.D. properties file   722 does not exist.
 End of Minotr F.D. properties file   788 does not exist.

 **********************************************************************

            Population analysis using the CI density.

 **********************************************************************

 Orbital symmetries:
       Occupied  (A) (A) (A) (A) (A) (A) (A) (A) (A) (A) (A) (A)
                 (A) (A) (A) (A) (A) (A) (A) (A) (A) (A) (A) (A)
       Virtual   (A) (A) (A) (A) (A) (A) (A) (A) (A) (A) (A) (A)
                 (A) (A) (A) (A) (A) (A) (A) (A) (A) (A) (A) (A)
                 (A) (A) (A) (A) (A) (A) (A) (A) (A) (A) (A) (A)
                 (A) (A) (A) (A) (A) (A) (A) (A) (A) (A) (A) (A)
                 (A) (A) (A) (A) (A) (A) (A) (A) (A) (A) (A) (A)
                 (A) (A) (A) (A) (A) (A) (A) (A) (A) (A) (A) (A)
                 (A) (A) (A) (A) (A) (A) (A) (A) (A) (A)
 The electronic state is 1-A.
 Alpha  occ. eigenvalues --  -19.18530 -19.13145 -10.31346 -10.24118 -10.19429
 Alpha  occ. eigenvalues --  -10.18209  -1.09420  -1.00860  -0.77998  -0.73430
 Alpha  occ. eigenvalues --   -0.64615  -0.55217  -0.49846  -0.47772  -0.46524
 Alpha  occ. eigenvalues --   -0.43251  -0.42234  -0.40629  -0.39436  -0.37091
 Alpha  occ. eigenvalues --   -0.36155  -0.33798  -0.29537  -0.26789
 Alpha virt. eigenvalues --    0.01564   0.10544   0.11541   0.13076   0.14775
 Alpha virt. eigenvalues --    0.15176   0.16638   0.17418   0.18063   0.19087
 Alpha virt. eigenvalues --    0.23139   0.23846   0.30066   0.35870   0.49455
 Alpha virt. eigenvalues --    0.51365   0.53164   0.54683   0.54777   0.58496
 Alpha virt. eigenvalues --    0.60723   0.61550   0.66370   0.67866   0.70844
 Alpha virt. eigenvalues --    0.75435   0.81306   0.84000   0.84954   0.86214
 Alpha virt. eigenvalues --    0.88858   0.89215   0.91461   0.92522   0.93952
 Alpha virt. eigenvalues --    0.95873   1.00900   1.01727   1.07606   1.12039
 Alpha virt. eigenvalues --    1.14039   1.18091   1.37717   1.38967   1.42999
 Alpha virt. eigenvalues --    1.47098   1.50894   1.53985   1.67712   1.69045
 Alpha virt. eigenvalues --    1.74960   1.79017   1.80767   1.81707   1.90857
 Alpha virt. eigenvalues --    1.92801   1.94668   1.97857   2.03844   2.06513
 Alpha virt. eigenvalues --    2.12302   2.17616   2.20612   2.22427   2.32092
 Alpha virt. eigenvalues --    2.32654   2.39196   2.40649   2.46754   2.57011
 Alpha virt. eigenvalues --    2.63574   2.71369   2.74043   2.95344   3.00188
 Alpha virt. eigenvalues --    3.11473   3.97234   4.07001   4.15438   4.21234
 Alpha virt. eigenvalues --    4.40615   4.47400
          Condensed to atoms (all electrons):
               1          2          3          4          5          6
     1  C    5.120859   0.443512  -0.054635  -0.071545   0.005585  -0.000187
     2  C    0.443512   4.787636   0.230745   0.238306  -0.028106   0.003768
     3  O   -0.054635   0.230745   8.146574  -0.031881  -0.000753  -0.003683
     4  O   -0.071545   0.238306  -0.031881   8.181515   0.224814  -0.051778
     5  C    0.005585  -0.028106  -0.000753   0.224814   4.825975   0.351801
     6  C   -0.000187   0.003768  -0.003683  -0.051778   0.351801   5.167099
     7  H    0.360980  -0.026336   0.000500   0.002984  -0.000192   0.000011
     8  H    0.343872  -0.052269   0.002811   0.003936   0.000281   0.000053
     9  H    0.341491  -0.052796   0.002828   0.003804  -0.000081  -0.000150
    10  H   -0.000242   0.004605   0.000380  -0.036020   0.384639  -0.046438
    11  H    0.000184  -0.009120   0.004544  -0.030885   0.372018  -0.051375
    12  H   -0.000037  -0.000824   0.000105   0.001879  -0.030580   0.371546
    13  H    0.000002  -0.000252   0.000040   0.003391  -0.022233   0.342986
    14  H   -0.000126  -0.001144   0.005597  -0.001055  -0.028144   0.369759
               7          8          9         10         11         12
     1  C    0.360980   0.343872   0.341491  -0.000242   0.000184  -0.000037
     2  C   -0.026336  -0.052269  -0.052796   0.004605  -0.009120  -0.000824
     3  O    0.000500   0.002811   0.002828   0.000380   0.004544   0.000105
     4  O    0.002984   0.003936   0.003804  -0.036020  -0.030885   0.001879
     5  C   -0.000192   0.000281  -0.000081   0.384639   0.372018  -0.030580
     6  C    0.000011   0.000053  -0.000150  -0.046438  -0.051375   0.371546
     7  H    0.549961  -0.023834  -0.025152   0.000003   0.000020   0.000001
     8  H   -0.023834   0.635104  -0.071247  -0.000046  -0.000107  -0.000005
     9  H   -0.025152  -0.071247   0.641298   0.000019   0.000065   0.000053
    10  H    0.000003  -0.000046   0.000019   0.571106  -0.034276  -0.004657
    11  H    0.000020  -0.000107   0.000065  -0.034276   0.586978   0.005181
    12  H    0.000001  -0.000005   0.000053  -0.004657   0.005181   0.550317
    13  H   -0.000000  -0.000001   0.000003  -0.000076   0.001437  -0.026219
    14  H    0.000004  -0.000013   0.000077   0.004763  -0.005105  -0.028268
              13         14
     1  C    0.000002  -0.000126
     2  C   -0.000252  -0.001144
     3  O    0.000040   0.005597
     4  O    0.003391  -0.001055
     5  C   -0.022233  -0.028144
     6  C    0.342986   0.369759
     7  H   -0.000000   0.000004
     8  H   -0.000001  -0.000013
     9  H    0.000003   0.000077
    10  H   -0.000076   0.004763
    11  H    0.001437  -0.005105
    12  H   -0.026219  -0.028268
    13  H    0.578495  -0.025027
    14  H   -0.025027   0.540123
 Mulliken charges:
               1
     1  C   -0.489711
     2  C    0.462275
     3  O   -0.303170
     4  O   -0.437464
     5  C   -0.055023
     6  C   -0.453413
     7  H    0.161050
     8  H    0.161465
     9  H    0.159790
    10  H    0.156239
    11  H    0.160442
    12  H    0.161508
    13  H    0.147454
    14  H    0.168559
 Sum of Mulliken charges =  -0.00000
 Mulliken charges with hydrogens summed into heavy atoms:
               1
     1  C   -0.007407
     2  C    0.462275
     3  O   -0.303170
     4  O   -0.437464
     5  C    0.261659
     6  C    0.024108
 Electronic spatial extent (au):  <R**2>=            660.6433
 Charge=              0.0000 electrons
 Dipole moment (field-independent basis, Debye):
    X=             -0.9384    Y=             -0.4925    Z=             -0.0565  Tot=              1.0613
 Quadrupole moment (field-independent basis, Debye-Ang):
   XX=            -31.7893   YY=            -39.1843   ZZ=            -36.3507
   XY=             -0.2712   XZ=              1.3404   YZ=              0.2106
 Traceless Quadrupole moment (field-independent basis, Debye-Ang):
   XX=              3.9854   YY=             -3.4096   ZZ=             -0.5759
   XY=             -0.2712   XZ=              1.3404   YZ=              0.2106
 Octapole moment (field-independent basis, Debye-Ang**2):
  XXX=              2.3900  YYY=             -1.0425  ZZZ=             -2.2339  XYY=             -1.2945
  XXY=              0.3211  XXZ=             -1.3643  XZZ=             -0.8651  YZZ=             -0.0430
  YYZ=             -0.0853  XYZ=              0.3094
 Hexadecapole moment (field-independent basis, Debye-Ang**3):
 XXXX=           -600.3270 YYYY=           -152.6633 ZZZZ=            -99.3685 XXXY=             10.0145
 XXXZ=              4.8377 YYYX=              3.9713 YYYZ=              1.2256 ZZZX=              1.0836
 ZZZY=             -0.9855 XXYY=           -124.2205 XXZZ=           -120.3411 YYZZ=            -39.3998
 XXYZ=              1.6763 YYXZ=              1.1250 ZZXY=              1.7512
 N-N= 2.460708047770D+02 E-N=-1.210413555758D+03  KE= 3.051866630587D+02
 Evaluate density.
 Using the total density.
 Monte-Carlo method of calculating molar volume:
 based on  0.001 e/bohr**3 density envelope.
 Number of points per bohr**3 =   20 CutOff= 1.00D-04
 Using the CI density.
 There are       339 points.  Will hold       339 in memory.
 LenV=   536822280 MDV=   536870912.
 Box volume = 4897.441 fraction occupied=0.162
 Integrated density= 3.7110970921918373D+01 error=-1.0889029078081627D+01
 Molar volume =  794.570 bohr**3/mol ( 70.907 cm**3/mol)
 Recommended a0 for SCRF calculation =  3.85 angstrom (  7.27 bohr)
 ******************************Gaussian NBO Version 3.1******************************
             N A T U R A L   A T O M I C   O R B I T A L   A N D
          N A T U R A L   B O N D   O R B I T A L   A N A L Y S I S
 ******************************Gaussian NBO Version 3.1******************************
       /RESON  / : Allow strongly delocalized NBO set

 Analyzing the CI density

 Job title: Title Card Required                                             

 Storage needed:     34416 in NPA ( 536869792 available)


 NATURAL POPULATIONS:  Natural atomic orbital occupancies 
                                                          
   NAO  Atom  No  lang   Type(AO)    Occupancy
 --------------------------------------------
     1    C    1  S      Cor( 1S)     1.99937
     2    C    1  S      Val( 2S)     1.13263
     3    C    1  S      Ryd( 3S)     0.00027
     4    C    1  S      Ryd( 4S)     0.00001
     5    C    1  px     Val( 2p)     1.11366
     6    C    1  px     Ryd( 3p)     0.00093
     7    C    1  py     Val( 2p)     1.22004
     8    C    1  py     Ryd( 3p)     0.00178
     9    C    1  pz     Val( 2p)     1.24549
    10    C    1  pz     Ryd( 3p)     0.00046
    11    C    1  dxy    Ryd( 3d)     0.00098
    12    C    1  dxz    Ryd( 3d)     0.00074
    13    C    1  dyz    Ryd( 3d)     0.00120
    14    C    1  dx2y2  Ryd( 3d)     0.00026
    15    C    1  dz2    Ryd( 3d)     0.00077
 
    16    C    2  S      Cor( 1S)     1.99952
    17    C    2  S      Val( 2S)     0.75244
    18    C    2  S      Ryd( 3S)     0.00362
    19    C    2  S      Ryd( 4S)     0.00033
    20    C    2  px     Val( 2p)     0.86732
    21    C    2  px     Ryd( 3p)     0.00232
    22    C    2  py     Val( 2p)     0.69372
    23    C    2  py     Ryd( 3p)     0.01969
    24    C    2  pz     Val( 2p)     1.15917
    25    C    2  pz     Ryd( 3p)     0.00637
    26    C    2  dxy    Ryd( 3d)     0.00206
    27    C    2  dxz    Ryd( 3d)     0.00114
    28    C    2  dyz    Ryd( 3d)     0.00236
    29    C    2  dx2y2  Ryd( 3d)     0.00195
    30    C    2  dz2    Ryd( 3d)     0.00067
 
    31    O    3  S      Cor( 1S)     1.99981
    32    O    3  S      Val( 2S)     1.71227
    33    O    3  S      Ryd( 3S)     0.00030
    34    O    3  S      Ryd( 4S)     0.00006
    35    O    3  px     Val( 2p)     1.12311
    36    O    3  px     Ryd( 3p)     0.00123
    37    O    3  py     Val( 2p)     1.60038
    38    O    3  py     Ryd( 3p)     0.00050
    39    O    3  pz     Val( 2p)     1.82921
    40    O    3  pz     Ryd( 3p)     0.00437
    41    O    3  dxy    Ryd( 3d)     0.00294
    42    O    3  dxz    Ryd( 3d)     0.00019
    43    O    3  dyz    Ryd( 3d)     0.00442
    44    O    3  dx2y2  Ryd( 3d)     0.00454
    45    O    3  dz2    Ryd( 3d)     0.00163
 
    46    O    4  S      Cor( 1S)     1.99977
    47    O    4  S      Val( 2S)     1.62212
    48    O    4  S      Ryd( 3S)     0.00096
    49    O    4  S      Ryd( 4S)     0.00004
    50    O    4  px     Val( 2p)     1.40788
    51    O    4  px     Ryd( 3p)     0.00092
    52    O    4  py     Val( 2p)     1.65248
    53    O    4  py     Ryd( 3p)     0.00181
    54    O    4  pz     Val( 2p)     1.82783
    55    O    4  pz     Ryd( 3p)     0.00229
    56    O    4  dxy    Ryd( 3d)     0.00130
    57    O    4  dxz    Ryd( 3d)     0.00057
    58    O    4  dyz    Ryd( 3d)     0.00175
    59    O    4  dx2y2  Ryd( 3d)     0.00135
    60    O    4  dz2    Ryd( 3d)     0.00077
 
    61    C    5  S      Cor( 1S)     1.99928
    62    C    5  S      Val( 2S)     1.03661
    63    C    5  S      Ryd( 3S)     0.00158
    64    C    5  S      Ryd( 4S)     0.00004
    65    C    5  px     Val( 2p)     0.77446
    66    C    5  px     Ryd( 3p)     0.00363
    67    C    5  py     Val( 2p)     1.18601
    68    C    5  py     Ryd( 3p)     0.00491
    69    C    5  pz     Val( 2p)     1.09748
    70    C    5  pz     Ryd( 3p)     0.00143
    71    C    5  dxy    Ryd( 3d)     0.00135
    72    C    5  dxz    Ryd( 3d)     0.00148
    73    C    5  dyz    Ryd( 3d)     0.00147
    74    C    5  dx2y2  Ryd( 3d)     0.00151
    75    C    5  dz2    Ryd( 3d)     0.00078
 
    76    C    6  S      Cor( 1S)     1.99945
    77    C    6  S      Val( 2S)     1.11856
    78    C    6  S      Ryd( 3S)     0.00048
    79    C    6  S      Ryd( 4S)     0.00001
    80    C    6  px     Val( 2p)     1.19604
    81    C    6  px     Ryd( 3p)     0.00135
    82    C    6  py     Val( 2p)     1.24122
    83    C    6  py     Ryd( 3p)     0.00138
    84    C    6  pz     Val( 2p)     1.14588
    85    C    6  pz     Ryd( 3p)     0.00092
    86    C    6  dxy    Ryd( 3d)     0.00046
    87    C    6  dxz    Ryd( 3d)     0.00057
    88    C    6  dyz    Ryd( 3d)     0.00108
    89    C    6  dx2y2  Ryd( 3d)     0.00072
    90    C    6  dz2    Ryd( 3d)     0.00038
 
    91    H    7  S      Val( 1S)     0.75648
    92    H    7  S      Ryd( 2S)     0.00071
 
    93    H    8  S      Val( 1S)     0.76438
    94    H    8  S      Ryd( 2S)     0.00445
 
    95    H    9  S      Val( 1S)     0.76624
    96    H    9  S      Ryd( 2S)     0.00467
 
    97    H   10  S      Val( 1S)     0.77088
    98    H   10  S      Ryd( 2S)     0.00125
 
    99    H   11  S      Val( 1S)     0.78120
   100    H   11  S      Ryd( 2S)     0.00208
 
   101    H   12  S      Val( 1S)     0.76173
   102    H   12  S      Ryd( 2S)     0.00148
 
   103    H   13  S      Val( 1S)     0.76293
   104    H   13  S      Ryd( 2S)     0.00127
 
   105    H   14  S      Val( 1S)     0.75996
   106    H   14  S      Ryd( 2S)     0.00169


 Summary of Natural Population Analysis:                  
                                                          
                                       Natural Population 
                Natural  -----------------------------------------------
    Atom  No    Charge         Core      Valence    Rydberg      Total
 -----------------------------------------------------------------------
      C    1   -0.71859      1.99937     4.71182    0.00741     6.71859
      C    2    0.48732      1.99952     3.47265    0.04051     5.51268
      O    3   -0.28495      1.99981     6.26497    0.02017     8.28495
      O    4   -0.52183      1.99977     6.51032    0.01175     8.52183
      C    5   -0.11202      1.99928     4.09456    0.01818     6.11202
      C    6   -0.70851      1.99945     4.70171    0.00735     6.70851
      H    7    0.24280      0.00000     0.75648    0.00071     0.75720
      H    8    0.23117      0.00000     0.76438    0.00445     0.76883
      H    9    0.22909      0.00000     0.76624    0.00467     0.77091
      H   10    0.22787      0.00000     0.77088    0.00125     0.77213
      H   11    0.21672      0.00000     0.78120    0.00208     0.78328
      H   12    0.23679      0.00000     0.76173    0.00148     0.76321
      H   13    0.23580      0.00000     0.76293    0.00127     0.76420
      H   14    0.23836      0.00000     0.75996    0.00169     0.76164
 =======================================================================
   * Total *   -0.00000     11.99721    35.87982    0.12297    48.00000

                                 Natural Population      
 --------------------------------------------------------
   Core                      11.99721 ( 99.9767% of  12)
   Valence                   35.87982 ( 99.6662% of  36)
   Natural Minimal Basis     47.87703 ( 99.7438% of  48)
   Natural Rydberg Basis      0.12297 (  0.2562% of  48)
 --------------------------------------------------------

    Atom  No          Natural Electron Configuration
 ----------------------------------------------------------------------------
      C    1      [core]2S( 1.13)2p( 3.58)
      C    2      [core]2S( 0.75)2p( 2.72)3p( 0.03)3d( 0.01)
      O    3      [core]2S( 1.71)2p( 4.55)3p( 0.01)3d( 0.01)
      O    4      [core]2S( 1.62)2p( 4.89)3p( 0.01)3d( 0.01)
      C    5      [core]2S( 1.04)2p( 3.06)3p( 0.01)3d( 0.01)
      C    6      [core]2S( 1.12)2p( 3.58)
      H    7            1S( 0.76)
      H    8            1S( 0.76)
      H    9            1S( 0.77)
      H   10            1S( 0.77)
      H   11            1S( 0.78)
      H   12            1S( 0.76)
      H   13            1S( 0.76)
      H   14            1S( 0.76)


 NBO analysis skipped by request.
 1\1\GINC-DELLA-R4C4N5\SP\RB3LYP TD-FC\6-31G(d)\C4H8O2\BJS4\22-Aug-2020
 \0\\# TD(NStates=10, Root=1) B3LYP/6-31G* scf=qc volume pop=NPA densit
 y=current Geom=AllCheck Guess=Read\\Title Card Required\\0,1\C,0,1.026
 5976268,-0.4880995183,0.2728576422\C,0,2.5115283848,-0.270570722,0.092
 9645453\O,0,3.127542562,-0.4546076129,-0.9343346699\O,0,3.0719994645,0
 .1666379705,1.2457524182\C,0,4.4981164941,0.4142711853,1.2190759294\C,
 0,5.288008475,-0.8581697378,1.4869426957\H,0,0.5919233311,-0.823856998
 8,-0.6691677839\H,0,0.545366192,0.4404143316,0.5969060827\H,0,0.848519
 7632,-1.2363697335,1.0523231702\H,0,4.6578016571,1.1570764347,2.004795
 8786\H,0,4.7627543264,0.8470082541,0.2511587306\H,0,4.9874991669,-1.31
 0470456,2.4378465891\H,0,6.3585952919,-0.6283302092,1.5384721545\H,0,5
 .1315872641,-1.5836931878,0.6837266174\\Version=ES64L-G16RevA.03\State
 =1-A\HF=-307.7072325\RMSD=7.070e-09\Dipole=0.2739598,0.0790718,0.30502
 42\Quadrupole=2.490465,-0.4586644,-2.0318006,1.0536903,1.5400671,-0.01
 50298\PG=C01 [X(C4H8O2)]\\@


 ABOVE ALL I AM AN OPTIMIST FOR NUMBER THEORY,
 AND I HOLD THE HOPE THAT WE MAY NOT BE FAR FROM
 A TIME WHEN IRREFUTABLE ARITHMETIC WILL CELEBRATE
 ITS TRIUMPHS IN PHYSICS AND CHEMISTRY.
   -- HERMANN MINKOWSKI, 1905
 Job cpu time:       0 days  0 hours  6 minutes 14.6 seconds.
 Elapsed time:       0 days  0 hours  3 minutes 13.6 seconds.
 File lengths (MBytes):  RWF=    156 Int=      0 D2E=      0 Chk=     12 Scr=      1
 Normal termination of Gaussian 16 at Sat Aug 22 12:49:45 2020.
