 Entering Gaussian System, Link 0=g16
 Input=base_4_conf11123.com
 Output=base_4_conf11123.log
 Initial command:
 /opt/export//g16/l1.exe "/scratch/bjs4/job.7565/Gau-7567.inp" -scrdir="/scratch/bjs4/job.7565/"
 Entering Link 1 = /opt/export//g16/l1.exe PID=      7568.
  
 Copyright (c) 1988,1990,1992,1993,1995,1998,2003,2009,2016,
            Gaussian, Inc.  All Rights Reserved.
  
 This is part of the Gaussian(R) 16 program.  It is based on
 the Gaussian(R) 09 system (copyright 2009, Gaussian, Inc.),
 the Gaussian(R) 03 system (copyright 2003, Gaussian, Inc.),
 the Gaussian(R) 98 system (copyright 1998, Gaussian, Inc.),
 the Gaussian(R) 94 system (copyright 1995, Gaussian, Inc.),
 the Gaussian 92(TM) system (copyright 1992, Gaussian, Inc.),
 the Gaussian 90(TM) system (copyright 1990, Gaussian, Inc.),
 the Gaussian 88(TM) system (copyright 1988, Gaussian, Inc.),
 the Gaussian 86(TM) system (copyright 1986, Carnegie Mellon
 University), and the Gaussian 82(TM) system (copyright 1983,
 Carnegie Mellon University). Gaussian is a federally registered
 trademark of Gaussian, Inc.
  
 This software contains proprietary and confidential information,
 including trade secrets, belonging to Gaussian, Inc.
  
 This software is provided under written license and may be
 used, copied, transmitted, or stored only in accord with that
 written license.
  
 The following legend is applicable only to US Government
 contracts under FAR:
  
                    RESTRICTED RIGHTS LEGEND
  
 Use, reproduction and disclosure by the US Government is
 subject to restrictions as set forth in subparagraphs (a)
 and (c) of the Commercial Computer Software - Restricted
 Rights clause in FAR 52.227-19.
  
 Gaussian, Inc.
 340 Quinnipiac St., Bldg. 40, Wallingford CT 06492
  
  
 ---------------------------------------------------------------
 Warning -- This program may not be used in any manner that
 competes with the business of Gaussian, Inc. or will provide
 assistance to any competitor of Gaussian, Inc.  The licensee
 of this program is prohibited from giving any competitor of
 Gaussian, Inc. access to this program.  By using this program,
 the user acknowledges that Gaussian, Inc. is engaged in the
 business of creating and licensing software in the field of
 computational chemistry and represents and warrants to the
 licensee that it is not a competitor of Gaussian, Inc. and that
 it will not use this program in any manner prohibited above.
 ---------------------------------------------------------------
  

 Cite this work as:
 Gaussian 16, Revision A.03,
 M. J. Frisch, G. W. Trucks, H. B. Schlegel, G. E. Scuseria, 
 M. A. Robb, J. R. Cheeseman, G. Scalmani, V. Barone, 
 G. A. Petersson, H. Nakatsuji, X. Li, M. Caricato, A. V. Marenich, 
 J. Bloino, B. G. Janesko, R. Gomperts, B. Mennucci, H. P. Hratchian, 
 J. V. Ortiz, A. F. Izmaylov, J. L. Sonnenberg, D. Williams-Young, 
 F. Ding, F. Lipparini, F. Egidi, J. Goings, B. Peng, A. Petrone, 
 T. Henderson, D. Ranasinghe, V. G. Zakrzewski, J. Gao, N. Rega, 
 G. Zheng, W. Liang, M. Hada, M. Ehara, K. Toyota, R. Fukuda, 
 J. Hasegawa, M. Ishida, T. Nakajima, Y. Honda, O. Kitao, H. Nakai, 
 T. Vreven, K. Throssell, J. A. Montgomery, Jr., J. E. Peralta, 
 F. Ogliaro, M. J. Bearpark, J. J. Heyd, E. N. Brothers, K. N. Kudin, 
 V. N. Staroverov, T. A. Keith, R. Kobayashi, J. Normand, 
 K. Raghavachari, A. P. Rendell, J. C. Burant, S. S. Iyengar, 
 J. Tomasi, M. Cossi, J. M. Millam, M. Klene, C. Adamo, R. Cammi, 
 J. W. Ochterski, R. L. Martin, K. Morokuma, O. Farkas, 
 J. B. Foresman, and D. J. Fox, Gaussian, Inc., Wallingford CT, 2016.
 
 ******************************************
 Gaussian 16:  ES64L-G16RevA.03 25-Dec-2016
                24-Aug-2020 
 ******************************************
 %nprocshared=3
 Will use up to    3 processors via shared memory.
 %Mem=6GB
 %Chk=base_4_conf111.chk
 ---------------------------------
 # opt=CalcAll B3LYP/6-31G* scf=qc
 ---------------------------------
 1/10=4,18=20,19=15,26=3,38=1/1,3;
 2/9=110,12=2,17=6,18=5,40=1/2;
 3/5=1,6=6,7=1,11=2,25=1,30=1,71=2,74=-5,140=1/1,2,3;
 4//1;
 5/5=2,8=3,38=5/8;
 8/6=4,10=90,11=11/1;
 11/6=1,8=1,9=11,15=111,16=1/1,2,10;
 10/6=1/2;
 6/7=2,8=2,9=2,10=2,18=1,28=1/1;
 7/10=1,25=1/1,2,3,16;
 1/10=4,18=20,19=15,26=3/3(3);
 2/9=110/2;
 7/8=1,9=1,25=1,44=-1/16;
 99//99;
 2/9=110/2;
 3/5=1,6=6,7=1,11=2,25=1,30=1,71=2,74=-5,140=1/1,2,3;
 4/5=5,16=3,69=1/1;
 5/5=2,8=3,38=5/8;
 8/6=4,10=90,11=11/1;
 11/6=1,8=1,9=11,15=111,16=1/1,2,10;
 10/6=1/2;
 7/10=1,25=1/1,2,3,16;
 1/10=4,18=20,19=15,26=3/3(-8);
 2/9=110/2;
 6/7=2,8=2,9=2,10=2,18=1,19=2,28=1/1;
 7/8=1,9=1,25=1,44=-1/16;
 99//99;
 -------------------
 Title Card Required
 -------------------
 Symbolic Z-matrix:
 Charge =  0 Multiplicity = 1
 C                     1.01311  -0.14375  -0.12894 
 C                     2.5217    0.0373    0.0088 
 N1                    2.953     1.4118    0.3252 
 C                     2.4005    1.9412    1.5807 
 C                     2.80132   3.36575   1.94774 
 C                     4.4213    1.4981    0.2306 
 C                     5.17315   0.58048   1.18896 
 H                     0.79424  -1.12847  -0.55545 
 H                     0.57987   0.61199  -0.79166 
 H                     0.50917  -0.09149   0.84143 
 H                     2.96225  -0.24828  -0.95518 
 H                     2.9011   -0.67676   0.74982 
 H                     2.66431   1.2748    2.41083 
 H                     1.30586   1.88195   1.54709 
 H                     3.88652   3.49944   1.94964 
 H                     2.4394    3.60301   2.95365 
 H                     2.36203   4.09471   1.25997 
 H                     4.72666   2.5248    0.47252 
 H                     4.76204   1.30566  -0.79476 
 H                     4.83463   0.72361   2.21949 
 H                     6.24411   0.80551   1.15299 
 H                     5.05361  -0.47418   0.9236 
 

 GradGradGradGradGradGradGradGradGradGradGradGradGradGradGradGradGradGrad
 Berny optimization.
 Initialization pass.
                           ----------------------------
                           !    Initial Parameters    !
                           ! (Angstroms and Degrees)  !
 --------------------------                            --------------------------
 ! Name  Definition              Value          Derivative Info.                !
 --------------------------------------------------------------------------------
 ! R1    R(1,2)                  1.5256         calculate D2E/DX2 analytically  !
 ! R2    R(1,8)                  1.0952         calculate D2E/DX2 analytically  !
 ! R3    R(1,9)                  1.0945         calculate D2E/DX2 analytically  !
 ! R4    R(1,10)                 1.0947         calculate D2E/DX2 analytically  !
 ! R5    R(2,3)                  1.4749         calculate D2E/DX2 analytically  !
 ! R6    R(2,11)                 1.0977         calculate D2E/DX2 analytically  !
 ! R7    R(2,12)                 1.0968         calculate D2E/DX2 analytically  !
 ! R8    R(3,4)                  1.4703         calculate D2E/DX2 analytically  !
 ! R9    R(3,6)                  1.4739         calculate D2E/DX2 analytically  !
 ! R10   R(4,5)                  1.5247         calculate D2E/DX2 analytically  !
 ! R11   R(4,13)                 1.0967         calculate D2E/DX2 analytically  !
 ! R12   R(4,14)                 1.0968         calculate D2E/DX2 analytically  !
 ! R13   R(5,15)                 1.0934         calculate D2E/DX2 analytically  !
 ! R14   R(5,16)                 1.095          calculate D2E/DX2 analytically  !
 ! R15   R(5,17)                 1.0943         calculate D2E/DX2 analytically  !
 ! R16   R(6,7)                  1.525          calculate D2E/DX2 analytically  !
 ! R17   R(6,18)                 1.0981         calculate D2E/DX2 analytically  !
 ! R18   R(6,19)                 1.0975         calculate D2E/DX2 analytically  !
 ! R19   R(7,20)                 1.0941         calculate D2E/DX2 analytically  !
 ! R20   R(7,21)                 1.0949         calculate D2E/DX2 analytically  !
 ! R21   R(7,22)                 1.0941         calculate D2E/DX2 analytically  !
 ! A1    A(2,1,8)              109.8444         calculate D2E/DX2 analytically  !
 ! A2    A(2,1,9)              111.3533         calculate D2E/DX2 analytically  !
 ! A3    A(2,1,10)             111.6857         calculate D2E/DX2 analytically  !
 ! A4    A(8,1,9)              107.8129         calculate D2E/DX2 analytically  !
 ! A5    A(8,1,10)             107.2257         calculate D2E/DX2 analytically  !
 ! A6    A(9,1,10)             108.7562         calculate D2E/DX2 analytically  !
 ! A7    A(1,2,3)              114.7786         calculate D2E/DX2 analytically  !
 ! A8    A(1,2,11)             106.6605         calculate D2E/DX2 analytically  !
 ! A9    A(1,2,12)             109.0135         calculate D2E/DX2 analytically  !
 ! A10   A(3,2,11)             108.2693         calculate D2E/DX2 analytically  !
 ! A11   A(3,2,12)             111.139          calculate D2E/DX2 analytically  !
 ! A12   A(11,2,12)            106.5661         calculate D2E/DX2 analytically  !
 ! A13   A(2,3,4)              114.1321         calculate D2E/DX2 analytically  !
 ! A14   A(2,3,6)              109.3972         calculate D2E/DX2 analytically  !
 ! A15   A(4,3,6)              114.084          calculate D2E/DX2 analytically  !
 ! A16   A(3,4,5)              116.3073         calculate D2E/DX2 analytically  !
 ! A17   A(3,4,13)             109.7041         calculate D2E/DX2 analytically  !
 ! A18   A(3,4,14)             109.234          calculate D2E/DX2 analytically  !
 ! A19   A(5,4,13)             108.8001         calculate D2E/DX2 analytically  !
 ! A20   A(5,4,14)             108.6767         calculate D2E/DX2 analytically  !
 ! A21   A(13,4,14)            103.3235         calculate D2E/DX2 analytically  !
 ! A22   A(4,5,15)             112.0594         calculate D2E/DX2 analytically  !
 ! A23   A(4,5,16)             109.6749         calculate D2E/DX2 analytically  !
 ! A24   A(4,5,17)             111.4428         calculate D2E/DX2 analytically  !
 ! A25   A(15,5,16)            107.4538         calculate D2E/DX2 analytically  !
 ! A26   A(15,5,17)            108.5468         calculate D2E/DX2 analytically  !
 ! A27   A(16,5,17)            107.4785         calculate D2E/DX2 analytically  !
 ! A28   A(3,6,7)              114.5553         calculate D2E/DX2 analytically  !
 ! A29   A(3,6,18)             108.5195         calculate D2E/DX2 analytically  !
 ! A30   A(3,6,19)             111.0385         calculate D2E/DX2 analytically  !
 ! A31   A(7,6,18)             106.6803         calculate D2E/DX2 analytically  !
 ! A32   A(7,6,19)             109.1803         calculate D2E/DX2 analytically  !
 ! A33   A(18,6,19)            106.4649         calculate D2E/DX2 analytically  !
 ! A34   A(6,7,20)             111.14           calculate D2E/DX2 analytically  !
 ! A35   A(6,7,21)             109.7491         calculate D2E/DX2 analytically  !
 ! A36   A(6,7,22)             111.9464         calculate D2E/DX2 analytically  !
 ! A37   A(20,7,21)            107.8595         calculate D2E/DX2 analytically  !
 ! A38   A(20,7,22)            108.7081         calculate D2E/DX2 analytically  !
 ! A39   A(21,7,22)            107.2783         calculate D2E/DX2 analytically  !
 ! D1    D(8,1,2,3)            168.7483         calculate D2E/DX2 analytically  !
 ! D2    D(8,1,2,11)            48.8447         calculate D2E/DX2 analytically  !
 ! D3    D(8,1,2,12)           -65.8582         calculate D2E/DX2 analytically  !
 ! D4    D(9,1,2,3)             49.3889         calculate D2E/DX2 analytically  !
 ! D5    D(9,1,2,11)           -70.5148         calculate D2E/DX2 analytically  !
 ! D6    D(9,1,2,12)           174.7824         calculate D2E/DX2 analytically  !
 ! D7    D(10,1,2,3)           -72.4143         calculate D2E/DX2 analytically  !
 ! D8    D(10,1,2,11)          167.682          calculate D2E/DX2 analytically  !
 ! D9    D(10,1,2,12)           52.9791         calculate D2E/DX2 analytically  !
 ! D10   D(1,2,3,4)             59.2942         calculate D2E/DX2 analytically  !
 ! D11   D(1,2,3,6)           -171.5226         calculate D2E/DX2 analytically  !
 ! D12   D(11,2,3,4)           178.3015         calculate D2E/DX2 analytically  !
 ! D13   D(11,2,3,6)           -52.5152         calculate D2E/DX2 analytically  !
 ! D14   D(12,2,3,4)           -64.983          calculate D2E/DX2 analytically  !
 ! D15   D(12,2,3,6)            64.2003         calculate D2E/DX2 analytically  !
 ! D16   D(2,3,4,5)           -179.2941         calculate D2E/DX2 analytically  !
 ! D17   D(2,3,4,13)            56.7249         calculate D2E/DX2 analytically  !
 ! D18   D(2,3,4,14)           -55.8696         calculate D2E/DX2 analytically  !
 ! D19   D(6,3,4,5)             53.917          calculate D2E/DX2 analytically  !
 ! D20   D(6,3,4,13)           -70.064          calculate D2E/DX2 analytically  !
 ! D21   D(6,3,4,14)           177.3415         calculate D2E/DX2 analytically  !
 ! D22   D(2,3,6,7)            -60.7059         calculate D2E/DX2 analytically  !
 ! D23   D(2,3,6,18)          -179.7743         calculate D2E/DX2 analytically  !
 ! D24   D(2,3,6,19)            63.54           calculate D2E/DX2 analytically  !
 ! D25   D(4,3,6,7)             68.5038         calculate D2E/DX2 analytically  !
 ! D26   D(4,3,6,18)           -50.5646         calculate D2E/DX2 analytically  !
 ! D27   D(4,3,6,19)          -167.2504         calculate D2E/DX2 analytically  !
 ! D28   D(3,4,5,15)           -53.5252         calculate D2E/DX2 analytically  !
 ! D29   D(3,4,5,16)          -172.773          calculate D2E/DX2 analytically  !
 ! D30   D(3,4,5,17)            68.3374         calculate D2E/DX2 analytically  !
 ! D31   D(13,4,5,15)           70.9201         calculate D2E/DX2 analytically  !
 ! D32   D(13,4,5,16)          -48.3277         calculate D2E/DX2 analytically  !
 ! D33   D(13,4,5,17)         -167.2172         calculate D2E/DX2 analytically  !
 ! D34   D(14,4,5,15)         -177.2381         calculate D2E/DX2 analytically  !
 ! D35   D(14,4,5,16)           63.5141         calculate D2E/DX2 analytically  !
 ! D36   D(14,4,5,17)          -55.3755         calculate D2E/DX2 analytically  !
 ! D37   D(3,6,7,20)           -52.9701         calculate D2E/DX2 analytically  !
 ! D38   D(3,6,7,21)          -172.1913         calculate D2E/DX2 analytically  !
 ! D39   D(3,6,7,22)            68.8033         calculate D2E/DX2 analytically  !
 ! D40   D(18,6,7,20)           67.126          calculate D2E/DX2 analytically  !
 ! D41   D(18,6,7,21)          -52.0952         calculate D2E/DX2 analytically  !
 ! D42   D(18,6,7,22)         -171.1006         calculate D2E/DX2 analytically  !
 ! D43   D(19,6,7,20)         -178.1972         calculate D2E/DX2 analytically  !
 ! D44   D(19,6,7,21)           62.5816         calculate D2E/DX2 analytically  !
 ! D45   D(19,6,7,22)          -56.4238         calculate D2E/DX2 analytically  !
 --------------------------------------------------------------------------------
 Trust Radius=3.00D-01 FncErr=1.00D-07 GrdErr=1.00D-06 EigMax=2.50D+02 EigMin=1.00D-04
 Number of steps in this run=    115 maximum allowed number of steps=    132.
 GradGradGradGradGradGradGradGradGradGradGradGradGradGradGradGradGradGrad

                          Input orientation:                          
 ---------------------------------------------------------------------
 Center     Atomic      Atomic             Coordinates (Angstroms)
 Number     Number       Type             X           Y           Z
 ---------------------------------------------------------------------
      1          6           0        1.013110   -0.143750   -0.128940
      2          6           0        2.521700    0.037300    0.008800
      3          7           0        2.953000    1.411800    0.325200
      4          6           0        2.400500    1.941200    1.580700
      5          6           0        2.801320    3.365750    1.947740
      6          6           0        4.421300    1.498100    0.230600
      7          6           0        5.173150    0.580480    1.188960
      8          1           0        0.794240   -1.128470   -0.555450
      9          1           0        0.579870    0.611990   -0.791660
     10          1           0        0.509170   -0.091490    0.841430
     11          1           0        2.962250   -0.248280   -0.955180
     12          1           0        2.901100   -0.676760    0.749820
     13          1           0        2.664310    1.274800    2.410830
     14          1           0        1.305860    1.881950    1.547090
     15          1           0        3.886520    3.499440    1.949640
     16          1           0        2.439400    3.603010    2.953650
     17          1           0        2.362030    4.094710    1.259970
     18          1           0        4.726660    2.524800    0.472520
     19          1           0        4.762040    1.305660   -0.794760
     20          1           0        4.834630    0.723610    2.219490
     21          1           0        6.244110    0.805510    1.152990
     22          1           0        5.053610   -0.474180    0.923600
 ---------------------------------------------------------------------
                    Distance matrix (angstroms):
                    1          2          3          4          5
     1  C    0.000000
     2  C    1.525646   0.000000
     3  N    2.527677   1.474917   0.000000
     4  C    3.032282   2.471921   1.470306   0.000000
     5  C    4.452739   3.862157   2.544320   1.524703   0.000000
     6  C    3.800092   2.406577   1.473873   2.470372   3.010153
     7  C    4.423494   2.952628   2.523141   3.113295   3.736182
     8  H    1.095212   2.159054   3.448008   4.070145   5.521987
     9  H    1.094549   2.177546   2.742046   3.272550   4.474634
    10  H    1.094671   2.181774   2.915249   2.873235   4.293062
    11  H    2.119610   1.097678   2.096503   3.397068   4.638325
    12  H    2.149610   1.096785   2.131919   2.791895   4.217447
    13  H    3.345023   2.705826   2.109968   1.096723   2.145995
    14  H    2.645419   2.692088   2.104074   1.096757   2.144431
    15  H    5.084271   4.197143   2.805086   2.184602   1.093406
    16  H    5.057161   4.625279   3.460338   2.155949   1.095049
    17  H    4.659742   4.248941   2.901904   2.177603   1.094251
    18  H    4.612306   3.356269   2.099129   2.641907   2.567178
    19  H    4.074136   2.696956   2.130306   3.409339   3.950911
    20  H    4.568528   3.272280   2.757258   2.795634   3.345011
    21  H    5.468802   3.969339   3.447351   4.030641   4.363400
    22  H    4.188396   2.740263   2.885752   3.647579   4.568012
                    6          7          8          9         10
     6  C    0.000000
     7  C    1.525044   0.000000
     8  H    4.546681   5.013814   0.000000
     9  H    4.072688   5.002206   1.769449   0.000000
    10  H    4.266693   4.724937   1.762914   1.779569   0.000000
    11  H    2.566076   3.189398   2.373770   2.538215   3.044666
    12  H    2.703815   2.633573   2.519252   3.070040   2.464196
    13  H    2.808964   2.875643   4.251081   3.878163   2.995729
    14  H    3.403888   4.096097   3.707433   2.758552   2.242128
    15  H    2.691923   3.279387   6.103706   5.175522   5.052663
    16  H    3.971596   4.441082   6.116146   5.141148   4.672964
    17  H    3.470242   4.500806   5.747636   4.417535   4.597014
    18  H    1.098127   2.119674   5.465074   4.738445   4.976775
    19  H    1.097497   2.151753   4.661083   4.239308   4.766136
    20  H    2.174019   1.094109   5.239775   5.213681   4.612271
    21  H    2.157109   1.094937   6.029936   5.991889   5.813021
    22  H    2.184022   1.094081   4.556086   4.912864   4.561265
                   11         12         13         14         15
    11  H    0.000000
    12  H    1.759079   0.000000
    13  H    3.706557   2.573638   0.000000
    14  H    3.680063   3.118882   1.720484   0.000000
    15  H    4.830907   4.455476   2.579829   3.072153   0.000000
    16  H    5.512237   4.835955   2.401208   2.495069   1.764347
    17  H    4.912099   4.828848   3.060677   2.468651   1.775968
    18  H    3.583496   3.695883   3.094000   3.642778   1.958990
    19  H    2.383214   3.127110   3.831087   4.214446   3.620903
    20  H    3.811680   2.803481   2.247379   3.774399   2.945669
    21  H    4.040478   3.679047   3.823266   5.069551   3.667443
    22  H    2.820396   2.168995   3.313539   4.470539   4.266675
                   16         17         18         19         20
    16  H    0.000000
    17  H    1.765306   0.000000
    18  H    3.542612   2.945534   0.000000
    19  H    4.972228   4.214352   1.758850   0.000000
    20  H    3.816682   4.289376   2.511543   3.070791   0.000000
    21  H    5.054127   5.089285   2.391997   2.498082   1.769396
    22  H    5.251540   5.313427   3.050287   2.491105   1.778197
                   21         22
    21  H    0.000000
    22  H    1.762815   0.000000
 Stoichiometry    C6H15N
 Framework group  C1[X(C6H15N)]
 Deg. of freedom    60
 Full point group                 C1      NOp   1
 Largest Abelian subgroup         C1      NOp   1
 Largest concise Abelian subgroup C1      NOp   1
                         Standard orientation:                         
 ---------------------------------------------------------------------
 Center     Atomic      Atomic             Coordinates (Angstroms)
 Number     Number       Type             X           Y           Z
 ---------------------------------------------------------------------
      1          6           0       -2.579802    0.407238    0.056021
      2          6           0       -1.400530   -0.558018   -0.016032
      3          7           0       -0.133611    0.046548   -0.468575
      4          6           0        0.342372    1.149858    0.378744
      5          6           0        1.640682    1.822292   -0.053623
      6          6           0        0.864071   -1.015535   -0.689732
      7          6           0        1.199215   -1.838313    0.549814
      8          1           0       -3.509826   -0.152294    0.202536
      9          1           0       -2.678814    0.985188   -0.868213
     10          1           0       -2.483370    1.101625    0.896755
     11          1           0       -1.680552   -1.344320   -0.728924
     12          1           0       -1.279480   -1.047600    0.957925
     13          1           0        0.452252    0.801147    1.412730
     14          1           0       -0.441404    1.913583    0.451518
     15          1           0        2.450871    1.100956   -0.190751
     16          1           0        1.960972    2.533845    0.714647
     17          1           0        1.510742    2.381075   -0.985430
     18          1           0        1.801465   -0.549850   -1.021867
     19          1           0        0.549155   -1.690214   -1.496043
     20          1           0        1.487376   -1.193466    1.385404
     21          1           0        2.040464   -2.505360    0.334789
     22          1           0        0.359375   -2.465286    0.863798
 ---------------------------------------------------------------------
 Rotational constants (GHZ):           2.7850294           2.0729771           1.3619736
 Standard basis: 6-31G(d) (6D, 7F)
 There are   135 symmetry adapted cartesian basis functions of A   symmetry.
 There are   135 symmetry adapted basis functions of A   symmetry.
   135 basis functions,   256 primitive gaussians,   135 cartesian basis functions
    29 alpha electrons       29 beta electrons
       nuclear repulsion energy       338.5739395145 Hartrees.
 NAtoms=   22 NActive=   22 NUniq=   22 SFac= 1.00D+00 NAtFMM=   60 NAOKFM=F Big=F
 Integral buffers will be    131072 words long.
 Raffenetti 2 integral format.
 Two-electron integral symmetry is turned on.
 One-electron integrals computed using PRISM.
 NBasis=   135 RedAO= T EigKep=  4.51D-03  NBF=   135
 NBsUse=   135 1.00D-06 EigRej= -1.00D+00 NBFU=   135
 ExpMin= 1.61D-01 ExpMax= 4.17D+03 ExpMxC= 6.27D+02 IAcc=3 IRadAn=         5 AccDes= 0.00D+00
 Harris functional with IExCor=  402 and IRadAn=       5 diagonalized for initial guess.
 HarFok:  IExCor=  402 AccDes= 0.00D+00 IRadAn=         5 IDoV= 1 UseB2=F ITyADJ=14
 ICtDFT=  3500011 ScaDFX=  1.000000  1.000000  1.000000  1.000000
 FoFCou: FMM=F IPFlag=           0 FMFlag=      100000 FMFlg1=           0
         NFxFlg=           0 DoJE=T BraDBF=F KetDBF=T FulRan=T
         wScrn=  0.000000 ICntrl=       500 IOpCl=  0 I1Cent=   200000004 NGrid=           0
         NMat0=    1 NMatS0=      1 NMatT0=    0 NMatD0=    1 NMtDS0=    0 NMtDT0=    0
 Petite list used in FoFCou.
 Keep R1 ints in memory in canonical form, NReq=45019892.
 Gradient too large for Newton-Raphson -- use scaled steepest descent instead.
     Accept linear search using points  2 and  3.
 Gradient too large for Newton-Raphson -- use scaled steepest descent instead.
     Minimum is close to point  3 DX=  7.66D-02 DF= -1.29D-04 DXR=  9.86D-02 DFR=  9.87D-03 which will be used.
 Gradient too large for Newton-Raphson -- use scaled steepest descent instead.
     Minimum is close to point  2 DX=  4.07D-02 DF= -3.41D-06 DXR=  6.35D-02 DFR=  4.05D-03 which will be used.
 Gradient too large for Newton-Raphson -- use scaled steepest descent instead.
     Accept linear search using points  1 and  2.
 LinEq1:  Iter=  0 NonCon=     1 RMS=5.58D-05 Max=3.38D-04 NDo=     1
 AX will form     1 AO Fock derivatives at one time.
 LinEq1:  Iter=  1 NonCon=     1 RMS=4.03D-05 Max=3.37D-04 NDo=     1
 LinEq1:  Iter=  2 NonCon=     1 RMS=6.46D-06 Max=7.57D-05 NDo=     1
 LinEq1:  Iter=  3 NonCon=     1 RMS=4.74D-06 Max=3.93D-05 NDo=     1
 LinEq1:  Iter=  4 NonCon=     1 RMS=9.01D-07 Max=1.08D-05 NDo=     1
 LinEq1:  Iter=  5 NonCon=     1 RMS=4.76D-07 Max=7.65D-06 NDo=     1
 LinEq1:  Iter=  6 NonCon=     1 RMS=1.30D-07 Max=2.74D-06 NDo=     1
 LinEq1:  Iter=  7 NonCon=     1 RMS=4.49D-08 Max=4.41D-07 NDo=     1
 LinEq1:  Iter=  8 NonCon=     1 RMS=1.75D-08 Max=2.11D-07 NDo=     1
 LinEq1:  Iter=  9 NonCon=     1 RMS=6.50D-09 Max=1.03D-07 NDo=     1
 LinEq1:  Iter= 10 NonCon=     0 RMS=1.25D-09 Max=1.32D-08 NDo=     1
 Linear equations converged to 7.841D-09 7.841D-08 after    10 iterations.
     Minimum is close to point  2 DX=  2.50D-04 DF= -1.42D-12 DXR=  2.50D-04 DFR=  6.54D-08 which will be used.
 LinEq1:  Iter=  0 NonCon=     1 RMS=2.19D-08 Max=2.79D-07 NDo=     1
 LinEq1:  Iter=  1 NonCon=     1 RMS=1.61D-08 Max=1.84D-07 NDo=     1
 LinEq1:  Iter=  2 NonCon=     1 RMS=4.64D-09 Max=5.04D-08 NDo=     1
 LinEq1:  Iter=  3 NonCon=     1 RMS=2.35D-09 Max=3.97D-08 NDo=     1
 LinEq1:  Iter=  4 NonCon=     1 RMS=4.34D-10 Max=5.08D-09 NDo=     1
 LinEq1:  Iter=  5 NonCon=     1 RMS=1.93D-10 Max=2.17D-09 NDo=     1
 LinEq1:  Iter=  6 NonCon=     1 RMS=6.49D-11 Max=1.41D-09 NDo=     1
 LinEq1:  Iter=  7 NonCon=     0 RMS=1.40D-11 Max=1.32D-10 NDo=     1
 Linear equations converged to 1.546D-11 1.546D-10 after     7 iterations.
 SCF Done:  E(RB3LYP) =  -292.408956121     a.u. after    7 cycles
            Convg  =    0.7106D-10                    31 Fock formations.
              S**2 =  0.0000                  -V/T =  2.0100
 DoSCS=F DFT=T ScalE2(SS,OS)=  1.000000  1.000000
 Range of M.O.s used for correlation:     1   135
 NBasis=   135 NAE=    29 NBE=    29 NFC=     0 NFV=     0
 NROrb=    135 NOA=    29 NOB=    29 NVA=   106 NVB=   106
 Symmetrizing basis deriv contribution to polar:
 IMax=3 JMax=2 DiffMx= 0.00D+00
 G2DrvN: will do    23 centers at a time, making    1 passes.
 Calling FoFCou, ICntrl=  3107 FMM=F I1Cent=   0 AccDes= 0.00D+00.
 End of G2Drv F.D. properties file   721 does not exist.
 End of G2Drv F.D. properties file   722 does not exist.
 End of G2Drv F.D. properties file   788 does not exist.
          IDoAtm=1111111111111111111111
          Differentiating once with respect to electric field.
                with respect to dipole field.
          Differentiating once with respect to nuclear coordinates.
 Keep R1 ints in memory in canonical form, NReq=45034167.
          There are    69 degrees of freedom in the 1st order CPHF.  IDoFFX=6 NUNeed=     3.
     66 vectors produced by pass  0 Test12= 4.46D-15 1.45D-09 XBig12= 4.31D+01 1.53D+00.
 AX will form    66 AO Fock derivatives at one time.
     66 vectors produced by pass  1 Test12= 4.46D-15 1.45D-09 XBig12= 1.86D+00 2.30D-01.
     66 vectors produced by pass  2 Test12= 4.46D-15 1.45D-09 XBig12= 9.16D-03 1.33D-02.
     66 vectors produced by pass  3 Test12= 4.46D-15 1.45D-09 XBig12= 1.17D-05 4.65D-04.
     66 vectors produced by pass  4 Test12= 4.46D-15 1.45D-09 XBig12= 7.74D-09 1.09D-05.
     22 vectors produced by pass  5 Test12= 4.46D-15 1.45D-09 XBig12= 3.76D-12 1.80D-07.
      3 vectors produced by pass  6 Test12= 4.46D-15 1.45D-09 XBig12= 1.97D-15 6.12D-09.
 InvSVY:  IOpt=1 It=  1 EMax= 7.99D-15
 Solved reduced A of dimension   355 with    69 vectors.
 Isotropic polarizability for W=    0.000000       71.81 Bohr**3.
 End of Minotr F.D. properties file   721 does not exist.
 End of Minotr F.D. properties file   722 does not exist.
 End of Minotr F.D. properties file   788 does not exist.

 **********************************************************************

            Population analysis using the SCF density.

 **********************************************************************

 Orbital symmetries:
       Occupied  (A) (A) (A) (A) (A) (A) (A) (A) (A) (A) (A) (A)
                 (A) (A) (A) (A) (A) (A) (A) (A) (A) (A) (A) (A)
                 (A) (A) (A) (A) (A)
       Virtual   (A) (A) (A) (A) (A) (A) (A) (A) (A) (A) (A) (A)
                 (A) (A) (A) (A) (A) (A) (A) (A) (A) (A) (A) (A)
                 (A) (A) (A) (A) (A) (A) (A) (A) (A) (A) (A) (A)
                 (A) (A) (A) (A) (A) (A) (A) (A) (A) (A) (A) (A)
                 (A) (A) (A) (A) (A) (A) (A) (A) (A) (A) (A) (A)
                 (A) (A) (A) (A) (A) (A) (A) (A) (A) (A) (A) (A)
                 (A) (A) (A) (A) (A) (A) (A) (A) (A) (A) (A) (A)
                 (A) (A) (A) (A) (A) (A) (A) (A) (A) (A) (A) (A)
                 (A) (A) (A) (A) (A) (A) (A) (A) (A) (A)
 The electronic state is 1-A.
 Alpha  occ. eigenvalues --  -14.31197 -10.19999 -10.19903 -10.19798 -10.17294
 Alpha  occ. eigenvalues --  -10.16979 -10.16642  -0.90572  -0.75530  -0.75103
 Alpha  occ. eigenvalues --   -0.70245  -0.62817  -0.61440  -0.54526  -0.48140
 Alpha  occ. eigenvalues --   -0.46405  -0.45035  -0.43672  -0.41040  -0.39255
 Alpha  occ. eigenvalues --   -0.38642  -0.36975  -0.36578  -0.35397  -0.34837
 Alpha  occ. eigenvalues --   -0.33741  -0.33031  -0.31633  -0.19679
 Alpha virt. eigenvalues --    0.08624   0.10496   0.12108   0.13233   0.14397
 Alpha virt. eigenvalues --    0.14948   0.15692   0.16420   0.16944   0.17989
 Alpha virt. eigenvalues --    0.18700   0.20410   0.20719   0.21939   0.22646
 Alpha virt. eigenvalues --    0.23516   0.24543   0.25605   0.27581   0.28669
 Alpha virt. eigenvalues --    0.29549   0.49503   0.50791   0.51543   0.54658
 Alpha virt. eigenvalues --    0.54957   0.55716   0.59328   0.60133   0.61980
 Alpha virt. eigenvalues --    0.64063   0.66313   0.66741   0.67608   0.71037
 Alpha virt. eigenvalues --    0.73490   0.80156   0.80565   0.84709   0.86563
 Alpha virt. eigenvalues --    0.87408   0.89107   0.89682   0.90039   0.90193
 Alpha virt. eigenvalues --    0.90706   0.91342   0.93402   0.95341   0.97129
 Alpha virt. eigenvalues --    0.98386   0.99792   1.01404   1.01721   1.06236
 Alpha virt. eigenvalues --    1.07473   1.09897   1.13364   1.21626   1.30567
 Alpha virt. eigenvalues --    1.38604   1.40589   1.43623   1.50419   1.58174
 Alpha virt. eigenvalues --    1.60924   1.65623   1.70924   1.73214   1.77723
 Alpha virt. eigenvalues --    1.83888   1.87647   1.91357   1.96465   1.98026
 Alpha virt. eigenvalues --    1.99143   1.99901   2.02691   2.03851   2.05337
 Alpha virt. eigenvalues --    2.12109   2.16413   2.19194   2.22374   2.29061
 Alpha virt. eigenvalues --    2.30356   2.32331   2.34396   2.35403   2.35832
 Alpha virt. eigenvalues --    2.37807   2.43540   2.50866   2.58991   2.60785
 Alpha virt. eigenvalues --    2.70499   2.79670   2.84282   2.87375   4.03176
 Alpha virt. eigenvalues --    4.20475   4.20876   4.24108   4.41838   4.43972
 Alpha virt. eigenvalues --    4.51131
          Condensed to atoms (all electrons):
               1          2          3          4          5          6
     1  C    5.104724   0.374916  -0.051459  -0.003217   0.000135   0.005221
     2  C    0.374916   4.878515   0.330651  -0.045739   0.004892  -0.055695
     3  N   -0.051459   0.330651   6.813410   0.318372  -0.043117   0.346700
     4  C   -0.003217  -0.045739   0.318372   4.885466   0.377841  -0.050071
     5  C    0.000135   0.004892  -0.043117   0.377841   5.093953  -0.007520
     6  C    0.005221  -0.055695   0.346700  -0.050071  -0.007520   4.896876
     7  C    0.000076  -0.010844  -0.063872  -0.007616  -0.001129   0.340397
     8  H    0.365870  -0.027453   0.003489   0.000123  -0.000003  -0.000149
     9  H    0.366174  -0.031898   0.004528  -0.001092  -0.000119   0.000029
    10  H    0.377304  -0.032801  -0.002893   0.001186  -0.000051   0.000027
    11  H   -0.035399   0.381834  -0.043587   0.005881  -0.000167  -0.002351
    12  H   -0.050352   0.350053  -0.053307  -0.010520  -0.000197  -0.008845
    13  H   -0.001574  -0.007175  -0.058216   0.348384  -0.054319  -0.007597
    14  H    0.005463  -0.005486  -0.041585   0.382748  -0.030231   0.005377
    15  H    0.000003  -0.000029  -0.005347  -0.034040   0.377721   0.000450
    16  H    0.000003  -0.000152   0.003168  -0.027234   0.365545   0.000260
    17  H   -0.000045   0.000011   0.002911  -0.031184   0.371418  -0.000376
    18  H   -0.000194   0.006177  -0.038305  -0.007905   0.002145   0.381607
    19  H    0.000165  -0.004230  -0.039466   0.006118   0.000233   0.382278
    20  H   -0.000040  -0.000966  -0.005161   0.003177   0.000391  -0.035276
    21  H   -0.000003   0.000403   0.004405   0.000166  -0.000031  -0.023957
    22  H   -0.000088   0.002707  -0.003181  -0.000258   0.000026  -0.033719
               7          8          9         10         11         12
     1  C    0.000076   0.365870   0.366174   0.377304  -0.035399  -0.050352
     2  C   -0.010844  -0.027453  -0.031898  -0.032801   0.381834   0.350053
     3  N   -0.063872   0.003489   0.004528  -0.002893  -0.043587  -0.053307
     4  C   -0.007616   0.000123  -0.001092   0.001186   0.005881  -0.010520
     5  C   -0.001129  -0.000003  -0.000119  -0.000051  -0.000167  -0.000197
     6  C    0.340397  -0.000149   0.000029   0.000027  -0.002351  -0.008845
     7  C    5.188341   0.000018   0.000034  -0.000037  -0.003212   0.009486
     8  H    0.000018   0.578845  -0.027711  -0.030868  -0.005250   0.001434
     9  H    0.000034  -0.027711   0.565140  -0.031935  -0.004959   0.006613
    10  H   -0.000037  -0.030868  -0.031935   0.573390   0.005314  -0.006491
    11  H   -0.003212  -0.005250  -0.004959   0.005314   0.612345  -0.053076
    12  H    0.009486   0.001434   0.006613  -0.006491  -0.053076   0.686557
    13  H    0.007388   0.000025   0.000463   0.000363  -0.000490   0.015117
    14  H   -0.000223  -0.000089  -0.000384   0.001752   0.000158  -0.001730
    15  H   -0.000128   0.000000  -0.000001  -0.000001  -0.000001  -0.000029
    16  H    0.000038  -0.000000   0.000002   0.000006   0.000002   0.000016
    17  H    0.000178  -0.000000   0.000035   0.000008  -0.000002   0.000027
    18  H   -0.056302   0.000003  -0.000016   0.000007   0.000240  -0.000378
    19  H   -0.057952  -0.000016  -0.000051   0.000000   0.006898  -0.001699
    20  H    0.379488  -0.000000   0.000000  -0.000001   0.000132   0.000719
    21  H    0.356771  -0.000000   0.000000  -0.000000   0.000009  -0.000384
    22  H    0.378708   0.000008  -0.000003   0.000015   0.000933   0.000863
              13         14         15         16         17         18
     1  C   -0.001574   0.005463   0.000003   0.000003  -0.000045  -0.000194
     2  C   -0.007175  -0.005486  -0.000029  -0.000152   0.000011   0.006177
     3  N   -0.058216  -0.041585  -0.005347   0.003168   0.002911  -0.038305
     4  C    0.348384   0.382748  -0.034040  -0.027234  -0.031184  -0.007905
     5  C   -0.054319  -0.030231   0.377721   0.365545   0.371418   0.002145
     6  C   -0.007597   0.005377   0.000450   0.000260  -0.000376   0.381607
     7  C    0.007388  -0.000223  -0.000128   0.000038   0.000178  -0.056302
     8  H    0.000025  -0.000089   0.000000  -0.000000  -0.000000   0.000003
     9  H    0.000463  -0.000384  -0.000001   0.000002   0.000035  -0.000016
    10  H    0.000363   0.001752  -0.000001   0.000006   0.000008   0.000007
    11  H   -0.000490   0.000158  -0.000001   0.000002  -0.000002   0.000240
    12  H    0.015117  -0.001730  -0.000029   0.000016   0.000027  -0.000378
    13  H    0.706699  -0.058531  -0.005095  -0.001106   0.006733  -0.000935
    14  H   -0.058531   0.603665   0.005059  -0.001621  -0.007625   0.000105
    15  H   -0.005095   0.005059   0.567655  -0.029290  -0.032776   0.005066
    16  H   -0.001106  -0.001621  -0.029290   0.575707  -0.029332  -0.000113
    17  H    0.006733  -0.007625  -0.032776  -0.029332   0.565143  -0.000018
    18  H   -0.000935   0.000105   0.005066  -0.000113  -0.000018   0.603833
    19  H   -0.000484  -0.000111  -0.000014  -0.000007  -0.000082  -0.031378
    20  H    0.003327  -0.000103   0.000469  -0.000057  -0.000003  -0.004287
    21  H   -0.000394   0.000006   0.000037  -0.000003  -0.000003  -0.002347
    22  H    0.000005  -0.000018  -0.000022   0.000003  -0.000001   0.005420
              19         20         21         22
     1  C    0.000165  -0.000040  -0.000003  -0.000088
     2  C   -0.004230  -0.000966   0.000403   0.002707
     3  N   -0.039466  -0.005161   0.004405  -0.003181
     4  C    0.006118   0.003177   0.000166  -0.000258
     5  C    0.000233   0.000391  -0.000031   0.000026
     6  C    0.382278  -0.035276  -0.023957  -0.033719
     7  C   -0.057952   0.379488   0.356771   0.378708
     8  H   -0.000016  -0.000000  -0.000000   0.000008
     9  H   -0.000051   0.000000   0.000000  -0.000003
    10  H    0.000000  -0.000001  -0.000000   0.000015
    11  H    0.006898   0.000132   0.000009   0.000933
    12  H   -0.001699   0.000719  -0.000384   0.000863
    13  H   -0.000484   0.003327  -0.000394   0.000005
    14  H   -0.000111  -0.000103   0.000006  -0.000018
    15  H   -0.000014   0.000469   0.000037  -0.000022
    16  H   -0.000007  -0.000057  -0.000003   0.000003
    17  H   -0.000082  -0.000003  -0.000003  -0.000001
    18  H   -0.031378  -0.004287  -0.002347   0.005420
    19  H    0.602503   0.005043   0.000632  -0.005290
    20  H    0.005043   0.564225  -0.029125  -0.031823
    21  H    0.000632  -0.029125   0.586349  -0.030540
    22  H   -0.005290  -0.031823  -0.030540   0.567546
 Mulliken charges:
               1
     1  C   -0.457686
     2  C   -0.107690
     3  N   -0.378136
     4  C   -0.110588
     5  C   -0.457416
     6  C   -0.133668
     7  C   -0.459608
     8  H    0.141723
     9  H    0.155149
    10  H    0.145705
    11  H    0.134746
    12  H    0.116122
    13  H    0.107411
    14  H    0.143403
    15  H    0.150312
    16  H    0.144166
    17  H    0.154982
    18  H    0.137574
    19  H    0.136910
    20  H    0.149872
    21  H    0.138008
    22  H    0.148708
 Sum of Mulliken charges =   0.00000
 Mulliken charges with hydrogens summed into heavy atoms:
               1
     1  C   -0.015109
     2  C    0.143178
     3  N   -0.378136
     4  C    0.140226
     5  C   -0.007956
     6  C    0.140816
     7  C   -0.023020
 APT charges:
               1
     1  C    0.058795
     2  C    0.388745
     3  N   -0.645906
     4  C    0.372381
     5  C    0.065687
     6  C    0.385218
     7  C   -0.007428
     8  H   -0.028869
     9  H   -0.013213
    10  H   -0.024130
    11  H   -0.059456
    12  H   -0.103313
    13  H   -0.114721
    14  H   -0.043428
    15  H   -0.015509
    16  H   -0.026186
    17  H   -0.019977
    18  H   -0.048562
    19  H   -0.059105
    20  H   -0.012565
    21  H   -0.030667
    22  H   -0.017790
 Sum of APT charges =   0.00000
 APT charges with hydrogens summed into heavy atoms:
               1
     1  C   -0.007418
     2  C    0.225977
     3  N   -0.645906
     4  C    0.214231
     5  C    0.004014
     6  C    0.277551
     7  C   -0.068449
 Electronic spatial extent (au):  <R**2>=           1001.8067
 Charge=              0.0000 electrons
 Dipole moment (field-independent basis, Debye):
    X=              0.1437    Y=             -0.2089    Z=              0.5639  Tot=              0.6182
 Quadrupole moment (field-independent basis, Debye-Ang):
   XX=            -45.8681   YY=            -46.0411   ZZ=            -48.5916
   XY=              0.5570   XZ=             -0.3862   YZ=              1.3331
 Traceless Quadrupole moment (field-independent basis, Debye-Ang):
   XX=              0.9655   YY=              0.7925   ZZ=             -1.7580
   XY=              0.5570   XZ=             -0.3862   YZ=              1.3331
 Octapole moment (field-independent basis, Debye-Ang**2):
  XXX=             -0.6479  YYY=              2.1062  ZZZ=             -0.4820  XYY=             -0.5406
  XXY=             -1.7975  XXZ=             -1.6018  XZZ=              0.0225  YZZ=              0.1803
  YYZ=             -1.6546  XYZ=              0.6592
 Hexadecapole moment (field-independent basis, Debye-Ang**3):
 XXXX=           -707.5243 YYYY=           -521.2243 ZZZZ=           -146.1064 XXXY=              2.8507
 XXXZ=             -0.0359 YYYX=              2.0802 YYYZ=              4.8300 ZZZX=              0.3950
 ZZZY=              2.3259 XXYY=           -205.2615 XXZZ=           -142.5653 YYZZ=           -108.9599
 XXYZ=              2.1876 YYXZ=             -0.5642 ZZXY=              1.3256
 N-N= 3.385739395145D+02 E-N=-1.353323649918D+03  KE= 2.895255486073D+02
  Exact polarizability:  78.197   0.516  74.959  -0.492   1.874  62.266
 Approx polarizability:  96.919   1.024  97.119  -0.789   3.149  91.395
 Calling FoFJK, ICntrl=    100127 FMM=F ISym2X=0 I1Cent= 0 IOpClX= 0 NMat=1 NMatS=1 NMatT=0.
 ***** Axes restored to original set *****
 -------------------------------------------------------------------
 Center     Atomic                   Forces (Hartrees/Bohr)
 Number     Number              X              Y              Z
 -------------------------------------------------------------------
      1        6          -0.002639963    0.000668265    0.002825525
      2        6          -0.005006568    0.006729208   -0.002083168
      3        7           0.001318998    0.002684529   -0.013997106
      4        6          -0.001703900   -0.011790845    0.002300662
      5        6          -0.000824732    0.001992204   -0.002787379
      6        6          -0.001065380    0.007535529    0.009385861
      7        6           0.008001287   -0.003958590    0.000570772
      8        1           0.000335192   -0.000782444    0.000348814
      9        1           0.000410655    0.001226026    0.000104655
     10        1          -0.001995732    0.000569827   -0.000552398
     11        1           0.004407670    0.003300113    0.000944797
     12        1          -0.000409154   -0.004862578    0.003195915
     13        1           0.003418094   -0.002640247    0.008404337
     14        1           0.000803983    0.001713342   -0.005339961
     15        1          -0.000589236    0.001878507    0.001714830
     16        1          -0.000665025   -0.000897252    0.000318175
     17        1           0.001622652    0.000420534   -0.002156041
     18        1          -0.002352801   -0.001026815   -0.005703462
     19        1          -0.006016387   -0.000319319   -0.001561339
     20        1           0.000900941   -0.001320158    0.001232130
     21        1           0.001554356   -0.000361938    0.000902765
     22        1           0.000495049   -0.000757898    0.001931615
 -------------------------------------------------------------------
 Cartesian Forces:  Max     0.013997106 RMS     0.003853078
 FormGI is forming the generalized inverse of G from B-inverse, IUseBI=4.

 GradGradGradGradGradGradGradGradGradGradGradGradGradGradGradGradGradGrad
 Berny optimization.
 Internal  Forces:  Max     0.016126175 RMS     0.003546189
 Search for a local minimum.
 Step number   1 out of a maximum of  115
 All quantities printed in internal units (Hartrees-Bohrs-Radians)
 Mixed Optimization -- RFO/linear search
 Second derivative matrix not updated -- analytic derivatives used.
 ITU=  0
     Eigenvalues ---   -0.00105   0.00185   0.00247   0.00255   0.00378
     Eigenvalues ---    0.00721   0.02288   0.04233   0.04495   0.04579
     Eigenvalues ---    0.04647   0.04703   0.04755   0.04771   0.04831
     Eigenvalues ---    0.04859   0.04986   0.05048   0.05466   0.08435
     Eigenvalues ---    0.08918   0.09326   0.11620   0.11900   0.12180
     Eigenvalues ---    0.12693   0.12726   0.12773   0.13915   0.14493
     Eigenvalues ---    0.14678   0.16431   0.16534   0.16784   0.19065
     Eigenvalues ---    0.20969   0.24379   0.25969   0.27233   0.28800
     Eigenvalues ---    0.29672   0.30073   0.31546   0.32380   0.32553
     Eigenvalues ---    0.33173   0.33478   0.33784   0.33945   0.33972
     Eigenvalues ---    0.34081   0.34098   0.34195   0.34343   0.34941
     Eigenvalues ---    0.35006   0.35112   0.36157   0.41175   0.43786
 RFO step:  Lambda=-7.98371951D-03 EMin=-1.05100791D-03
 Linear search not attempted -- first point.
 Iteration  1 RMS(Cart)=  0.18442712 RMS(Int)=  0.01740778
 Iteration  2 RMS(Cart)=  0.02512822 RMS(Int)=  0.00052268
 Iteration  3 RMS(Cart)=  0.00043807 RMS(Int)=  0.00040327
 Iteration  4 RMS(Cart)=  0.00000036 RMS(Int)=  0.00040327
 Variable       Old X    -DE/DX   Delta X   Delta X   Delta X     New X
                                 (Linear)    (Quad)   (Total)
    R1        2.88305   0.00340   0.00000   0.00999   0.00999   2.89304
    R2        2.06965   0.00050   0.00000   0.00123   0.00123   2.07088
    R3        2.06840   0.00062   0.00000   0.00214   0.00214   2.07054
    R4        2.06863   0.00046   0.00000   0.00012   0.00012   2.06875
    R5        2.78719  -0.00598   0.00000  -0.01948  -0.01948   2.76771
    R6        2.07431   0.00008   0.00000  -0.00043  -0.00043   2.07389
    R7        2.07262   0.00518   0.00000   0.02183   0.02183   2.09445
    R8        2.77848  -0.00204   0.00000  -0.00625  -0.00625   2.77223
    R9        2.78522   0.00106   0.00000  -0.01758  -0.01758   2.76764
   R10        2.88127   0.00235   0.00000   0.00447   0.00447   2.88574
   R11        2.07251   0.00879   0.00000   0.02437   0.02437   2.09688
   R12        2.07257  -0.00073   0.00000  -0.00192  -0.00192   2.07065
   R13        2.06624  -0.00035   0.00000   0.00230   0.00230   2.06854
   R14        2.06934   0.00032   0.00000   0.00119   0.00119   2.07054
   R15        2.06784   0.00098   0.00000   0.00307   0.00307   2.07091
   R16        2.88192   0.01217   0.00000   0.02579   0.02579   2.90771
   R17        2.07516  -0.00287   0.00000  -0.00483  -0.00483   2.07033
   R18        2.07397  -0.00035   0.00000  -0.00078  -0.00078   2.07319
   R19        2.06757   0.00071   0.00000   0.00405   0.00405   2.07162
   R20        2.06913   0.00142   0.00000   0.00295   0.00295   2.07208
   R21        2.06751   0.00021   0.00000   0.00231   0.00231   2.06983
    A1        1.91715  -0.00075   0.00000  -0.00147  -0.00150   1.91564
    A2        1.94348  -0.00174   0.00000  -0.01529  -0.01527   1.92821
    A3        1.94928   0.00306   0.00000   0.01485   0.01486   1.96414
    A4        1.88169   0.00113   0.00000   0.00829   0.00827   1.88996
    A5        1.87144  -0.00071   0.00000   0.00059   0.00055   1.87199
    A6        1.89815  -0.00102   0.00000  -0.00658  -0.00652   1.89163
    A7        2.00326  -0.00429   0.00000  -0.01490  -0.01487   1.98839
    A8        1.86158   0.00526   0.00000   0.02700   0.02689   1.88847
    A9        1.90264  -0.00082   0.00000  -0.00286  -0.00286   1.89978
   A10        1.88965  -0.00313   0.00000  -0.02192  -0.02177   1.86788
   A11        1.93974   0.00384   0.00000   0.01521   0.01524   1.95498
   A12        1.85993  -0.00060   0.00000  -0.00143  -0.00143   1.85850
   A13        1.99198  -0.00926   0.00000  -0.04244  -0.04314   1.94885
   A14        1.90934   0.00772   0.00000   0.03823   0.03854   1.94789
   A15        1.99114   0.00323   0.00000   0.02697   0.02738   2.01853
   A16        2.02994  -0.00181   0.00000  -0.01806  -0.01865   2.01129
   A17        1.91470   0.00468   0.00000   0.03634   0.03659   1.95128
   A18        1.90649  -0.00352   0.00000  -0.03674  -0.03755   1.86894
   A19        1.89892  -0.00113   0.00000  -0.00336  -0.00321   1.89571
   A20        1.89677   0.00032   0.00000  -0.01174  -0.01288   1.88388
   A21        1.80334   0.00187   0.00000   0.04030   0.04067   1.84401
   A22        1.95581   0.00344   0.00000   0.01044   0.01045   1.96626
   A23        1.91419  -0.00204   0.00000  -0.01146  -0.01145   1.90274
   A24        1.94504  -0.00036   0.00000  -0.00333  -0.00334   1.94171
   A25        1.87542  -0.00086   0.00000  -0.00537  -0.00534   1.87008
   A26        1.89450  -0.00164   0.00000  -0.00114  -0.00114   1.89336
   A27        1.87585   0.00137   0.00000   0.01094   0.01093   1.88678
   A28        1.99937   0.01613   0.00000   0.04079   0.04031   2.03968
   A29        1.89402  -0.00485   0.00000  -0.00786  -0.01003   1.88399
   A30        1.93799  -0.01065   0.00000  -0.07369  -0.07375   1.86424
   A31        1.86192  -0.00117   0.00000   0.04274   0.04194   1.90387
   A32        1.90556  -0.00114   0.00000   0.00701   0.00769   1.91324
   A33        1.85816   0.00107   0.00000  -0.00761  -0.00876   1.84940
   A34        1.93976   0.00184   0.00000   0.00605   0.00603   1.94579
   A35        1.91548   0.00088   0.00000   0.00805   0.00801   1.92349
   A36        1.95383   0.00217   0.00000   0.00098   0.00096   1.95479
   A37        1.88250  -0.00153   0.00000  -0.00423  -0.00427   1.87823
   A38        1.89731  -0.00232   0.00000  -0.01699  -0.01698   1.88033
   A39        1.87236  -0.00130   0.00000   0.00578   0.00574   1.87810
    D1        2.94521  -0.00146   0.00000   0.00573   0.00566   2.95087
    D2        0.85250   0.00140   0.00000   0.02340   0.02348   0.87598
    D3       -1.14944  -0.00023   0.00000   0.01250   0.01249  -1.13695
    D4        0.86200  -0.00128   0.00000   0.00604   0.00595   0.86795
    D5       -1.23072   0.00157   0.00000   0.02371   0.02377  -1.20695
    D6        3.05053  -0.00005   0.00000   0.01281   0.01278   3.06331
    D7       -1.26387  -0.00090   0.00000   0.01487   0.01483  -1.24904
    D8        2.92660   0.00195   0.00000   0.03255   0.03265   2.95925
    D9        0.92466   0.00033   0.00000   0.02164   0.02166   0.94632
   D10        1.03488  -0.00170   0.00000   0.01793   0.01808   1.05296
   D11       -2.99363   0.00181   0.00000   0.05312   0.05276  -2.94087
   D12        3.11195   0.00004   0.00000   0.02722   0.02758   3.13953
   D13       -0.91656   0.00355   0.00000   0.06241   0.06227  -0.85430
   D14       -1.13417  -0.00039   0.00000   0.02095   0.02120  -1.11297
   D15        1.12051   0.00312   0.00000   0.05614   0.05588   1.17639
   D16       -3.12927   0.00519   0.00000  -0.14827  -0.14889   3.00503
   D17        0.99004   0.00418   0.00000  -0.16034  -0.16066   0.82938
   D18       -0.97511   0.00138   0.00000  -0.20768  -0.20741  -1.18252
   D19        0.94103  -0.00034   0.00000  -0.18850  -0.18867   0.75236
   D20       -1.22285  -0.00135   0.00000  -0.20057  -0.20045  -1.42329
   D21        3.09519  -0.00415   0.00000  -0.24792  -0.24720   2.84799
   D22       -1.05952   0.00150   0.00000  -0.14394  -0.14430  -1.20382
   D23       -3.13765  -0.00385   0.00000  -0.21866  -0.21848   2.92705
   D24        1.10898   0.00381   0.00000  -0.16286  -0.16407   0.94491
   D25        1.19562  -0.00184   0.00000  -0.14686  -0.14629   1.04932
   D26       -0.88252  -0.00719   0.00000  -0.22159  -0.22047  -1.10299
   D27       -2.91907   0.00046   0.00000  -0.16578  -0.16607  -3.08514
   D28       -0.93419  -0.00419   0.00000  -0.20265  -0.20253  -1.13672
   D29       -3.01546  -0.00394   0.00000  -0.19495  -0.19482   3.07291
   D30        1.19271  -0.00410   0.00000  -0.19907  -0.19894   0.99377
   D31        1.23779  -0.00019   0.00000  -0.17015  -0.17015   1.06763
   D32       -0.84348   0.00005   0.00000  -0.16245  -0.16244  -1.00592
   D33       -2.91849  -0.00010   0.00000  -0.16657  -0.16657  -3.08506
   D34       -3.09339   0.00159   0.00000  -0.13061  -0.13075   3.05904
   D35        1.10853   0.00183   0.00000  -0.12292  -0.12304   0.98549
   D36       -0.96648   0.00167   0.00000  -0.12703  -0.12716  -1.09365
   D37       -0.92450  -0.00208   0.00000  -0.08187  -0.08235  -1.00685
   D38       -3.00530  -0.00189   0.00000  -0.08559  -0.08607  -3.09138
   D39        1.20084  -0.00222   0.00000  -0.09874  -0.09925   1.10160
   D40        1.17157   0.00086   0.00000  -0.03684  -0.03635   1.13522
   D41       -0.90923   0.00104   0.00000  -0.04056  -0.04007  -0.94930
   D42       -2.98627   0.00071   0.00000  -0.05371  -0.05324  -3.03951
   D43       -3.11013   0.00094   0.00000  -0.02004  -0.02002  -3.13015
   D44        1.09225   0.00112   0.00000  -0.02375  -0.02374   1.06851
   D45       -0.98478   0.00079   0.00000  -0.03691  -0.03692  -1.02170
         Item               Value     Threshold  Converged?
 Maximum Force            0.016126     0.000450     NO 
 RMS     Force            0.003546     0.000300     NO 
 Maximum Displacement     0.785761     0.001800     NO 
 RMS     Displacement     0.197365     0.001200     NO 
 Predicted change in Energy=-5.193147D-03
 GradGradGradGradGradGradGradGradGradGradGradGradGradGradGradGradGradGrad

                          Input orientation:                          
 ---------------------------------------------------------------------
 Center     Atomic      Atomic             Coordinates (Angstroms)
 Number     Number       Type             X           Y           Z
 ---------------------------------------------------------------------
      1          6           0        0.967617   -0.131853   -0.145776
      2          6           0        2.484288    0.007059    0.009655
      3          7           0        2.928923    1.371563    0.302069
      4          6           0        2.353644    1.871617    1.555501
      5          6           0        2.905730    3.211751    2.036308
      6          6           0        4.381800    1.504463    0.173792
      7          6           0        5.241656    0.782171    1.225702
      8          1           0        0.725755   -1.121109   -0.550481
      9          1           0        0.582100    0.625966   -0.836865
     10          1           0        0.437332   -0.032120    0.806745
     11          1           0        2.954360   -0.288061   -0.937097
     12          1           0        2.833744   -0.716324    0.773204
     13          1           0        2.451566    1.132730    2.377519
     14          1           0        1.276803    1.989746    1.390858
     15          1           0        3.965728    3.159402    2.304375
     16          1           0        2.360185    3.521014    2.934782
     17          1           0        2.777837    3.990029    1.275472
     18          1           0        4.625281    2.572586    0.184239
     19          1           0        4.646134    1.144540   -0.828294
     20          1           0        4.993824    1.111278    2.241596
     21          1           0        6.304026    0.995389    1.057733
     22          1           0        5.111546   -0.304654    1.186004
 ---------------------------------------------------------------------
                    Distance matrix (angstroms):
                    1          2          3          4          5
     1  C    0.000000
     2  C    1.530930   0.000000
     3  N    2.511483   1.464608   0.000000
     4  C    2.971414   2.425548   1.467000   0.000000
     5  C    4.438182   3.815100   2.528718   1.527068   0.000000
     6  C    3.799513   2.422748   1.464571   2.481398   2.926189
     7  C    4.580808   3.111695   2.559142   3.104234   3.466481
     8  H    1.095861   2.163089   3.434269   4.005195   5.497040
     9  H    1.095681   2.172087   2.713055   3.226984   4.510063
    10  H    1.094735   2.197025   2.903971   2.803052   4.257642
    11  H    2.144234   1.097453   2.071360   3.352330   4.592624
    12  H    2.160685   1.108337   2.142498   2.745892   4.126790
    13  H    3.188775   2.622019   2.142989   1.109620   2.155231
    14  H    2.637806   2.701257   2.072948   1.095741   2.136189
    15  H    5.081758   4.171051   2.877596   2.194999   1.094622
    16  H    4.977199   4.573800   3.445980   2.150109   1.095681
    17  H    4.720884   4.189572   2.797625   2.178538   1.095876
    18  H    4.560856   3.346081   2.081819   2.744458   2.606827
    19  H    3.953037   2.582557   2.068350   3.386241   3.938059
    20  H    4.843063   3.535340   2.844877   2.831853   2.968884
    21  H    5.585371   4.082360   3.479059   4.076895   4.173523
    22  H    4.356104   2.895418   2.890482   3.532521   4.237187
                    6          7          8          9         10
     6  C    0.000000
     7  C    1.538691   0.000000
     8  H    4.559042   5.212548   0.000000
     9  H    4.028760   5.098043   1.776211   0.000000
    10  H    4.280250   4.890820   1.763845   1.776370   0.000000
    11  H    2.546528   3.324879   2.410420   2.544231   3.072771
    12  H    2.772664   2.871983   2.521826   3.076356   2.492398
    13  H    2.953032   3.038779   4.078161   3.752862   2.807373
    14  H    3.370126   4.147960   3.708082   2.702824   2.265798
    15  H    2.729711   2.905641   6.080329   5.266368   4.987814
    16  H    3.971960   4.327250   6.030565   5.076239   4.566252
    17  H    3.156649   4.045149   5.802489   4.538739   4.677109
    18  H    1.095572   2.161052   5.421208   4.602097   4.971008
    19  H    1.097084   2.169068   4.536488   4.096994   4.666036
    20  H    2.192026   1.096254   5.567374   5.401459   4.912003
    21  H    2.176112   1.096497   6.179242   6.038743   5.961281
    22  H    2.197728   1.095306   4.787185   5.047171   4.697487
                   11         12         13         14         15
    11  H    0.000000
    12  H    1.767226   0.000000
    13  H    3.641171   2.477678   0.000000
    14  H    3.663602   3.182511   1.757283   0.000000
    15  H    4.838906   4.318232   2.530896   3.071307   0.000000
    16  H    5.463840   4.780346   2.454138   2.429444   1.762370
    17  H    4.819614   4.733409   3.079792   2.503507   1.777546
    18  H    3.497524   3.791229   3.407154   3.606652   2.296593
    19  H    2.219523   3.051618   3.885036   4.122062   3.786322
    20  H    4.027611   3.187829   2.545980   3.913017   2.292539
    21  H    4.104492   3.879920   4.074573   5.135435   3.421214
    22  H    3.026761   2.351225   3.249811   4.473420   3.816194
                   16         17         18         19         20
    16  H    0.000000
    17  H    1.774181   0.000000
    18  H    3.687229   2.571572   0.000000
    19  H    5.003391   4.001646   1.750706   0.000000
    20  H    3.636398   3.759149   2.550286   3.089695   0.000000
    21  H    5.045392   4.631338   2.463479   2.515542   1.769630
    22  H    5.026325   4.888610   3.085206   2.524712   1.770027
                   21         22
    21  H    0.000000
    22  H    1.768778   0.000000
 Stoichiometry    C6H15N
 Framework group  C1[X(C6H15N)]
 Deg. of freedom    60
 Full point group                 C1      NOp   1
 Largest Abelian subgroup         C1      NOp   1
 Largest concise Abelian subgroup C1      NOp   1
                         Standard orientation:                         
 ---------------------------------------------------------------------
 Center     Atomic      Atomic             Coordinates (Angstroms)
 Number     Number       Type             X           Y           Z
 ---------------------------------------------------------------------
      1          6           0       -2.634840    0.185481    0.065761
      2          6           0       -1.375520   -0.685071    0.065691
      3          7           0       -0.188602   -0.012642   -0.467357
      4          6           0        0.153788    1.181255    0.313328
      5          6           0        1.481520    1.840420   -0.053506
      6          6           0        0.907960   -0.955861   -0.697264
      7          6           0        1.567647   -1.572266    0.548701
      8          1           0       -3.512054   -0.432011    0.289614
      9          1           0       -2.781418    0.647634   -0.916811
     10          1           0       -2.595992    0.979498    0.818405
     11          1           0       -1.562915   -1.558931   -0.571220
     12          1           0       -1.208218   -1.072854    1.090408
     13          1           0        0.149678    0.975761    1.403746
     14          1           0       -0.643918    1.913938    0.147533
     15          1           0        2.343475    1.201054    0.161999
     16          1           0        1.601654    2.754837    0.538039
     17          1           0        1.509092    2.114858   -1.114104
     18          1           0        1.673233   -0.445283   -1.292198
     19          1           0        0.511184   -1.753950   -1.336964
     20          1           0        1.965336   -0.799155    1.216470
     21          1           0        2.403235   -2.218390    0.254385
     22          1           0        0.864512   -2.182262    1.125936
 ---------------------------------------------------------------------
 Rotational constants (GHZ):           3.0075805           1.9842845           1.3692574
 Standard basis: 6-31G(d) (6D, 7F)
 There are   135 symmetry adapted cartesian basis functions of A   symmetry.
 There are   135 symmetry adapted basis functions of A   symmetry.
   135 basis functions,   256 primitive gaussians,   135 cartesian basis functions
    29 alpha electrons       29 beta electrons
       nuclear repulsion energy       339.0658752928 Hartrees.
 NAtoms=   22 NActive=   22 NUniq=   22 SFac= 1.00D+00 NAtFMM=   60 NAOKFM=F Big=F
 Integral buffers will be    131072 words long.
 Raffenetti 2 integral format.
 Two-electron integral symmetry is turned on.
 One-electron integrals computed using PRISM.
 NBasis=   135 RedAO= T EigKep=  4.15D-03  NBF=   135
 NBsUse=   135 1.00D-06 EigRej= -1.00D+00 NBFU=   135
 Initial guess from the checkpoint file:  "base_4_conf111.chk"
 B after Tr=     0.000000   -0.000000    0.000000
         Rot=    0.998362    0.022621   -0.010079   -0.051577 Ang=   6.56 deg.
 ExpMin= 1.61D-01 ExpMax= 4.17D+03 ExpMxC= 6.27D+02 IAcc=2 IRadAn=         4 AccDes= 0.00D+00
 Harris functional with IExCor=  402 and IRadAn=       4 diagonalized for initial guess.
 HarFok:  IExCor=  402 AccDes= 0.00D+00 IRadAn=         4 IDoV= 1 UseB2=F ITyADJ=14
 ICtDFT=  3500011 ScaDFX=  1.000000  1.000000  1.000000  1.000000
 FoFCou: FMM=F IPFlag=           0 FMFlag=      100000 FMFlg1=           0
         NFxFlg=           0 DoJE=T BraDBF=F KetDBF=T FulRan=T
         wScrn=  0.000000 ICntrl=       500 IOpCl=  0 I1Cent=   200000004 NGrid=           0
         NMat0=    1 NMatS0=      1 NMatT0=    0 NMatD0=    1 NMtDS0=    0 NMtDT0=    0
 Petite list used in FoFCou.
 Keep R1 ints in memory in canonical form, NReq=45019892.
 Gradient too large for Newton-Raphson -- use scaled steepest descent instead.
 Gradient too large for Newton-Raphson -- use scaled steepest descent instead.
 Gradient too large for Newton-Raphson -- use scaled steepest descent instead.
     Accept linear search using points  1 and  2.
 Gradient too large for Newton-Raphson -- use scaled steepest descent instead.
     Accept linear search using points  1 and  2.
 Gradient too large for Newton-Raphson -- use scaled steepest descent instead.
 Gradient too large for Newton-Raphson -- use scaled steepest descent instead.
     Accept linear search using points  1 and  2.
 Gradient too large for Newton-Raphson -- use scaled steepest descent instead.
     Accept linear search using points  2 and  3.
 Gradient too large for Newton-Raphson -- use scaled steepest descent instead.
     Accept linear search using points  1 and  2.
 Gradient too large for Newton-Raphson -- use scaled steepest descent instead.
 Gradient too large for Newton-Raphson -- use scaled steepest descent instead.
     Minimum is close to point  3 DX= -8.23D-03 DF= -2.63D-08 DXR=  2.10D-02 DFR=  4.42D-04 which will be used.
 LinEq1:  Iter=  0 NonCon=     1 RMS=1.19D-04 Max=1.79D-03 NDo=     1
 AX will form     1 AO Fock derivatives at one time.
 LinEq1:  Iter=  1 NonCon=     1 RMS=5.73D-06 Max=6.01D-05 NDo=     1
 LinEq1:  Iter=  2 NonCon=     1 RMS=4.43D-06 Max=6.19D-05 NDo=     1
 LinEq1:  Iter=  3 NonCon=     1 RMS=1.21D-06 Max=1.68D-05 NDo=     1
 LinEq1:  Iter=  4 NonCon=     1 RMS=5.33D-07 Max=6.26D-06 NDo=     1
 LinEq1:  Iter=  5 NonCon=     1 RMS=1.56D-07 Max=1.69D-06 NDo=     1
 LinEq1:  Iter=  6 NonCon=     1 RMS=4.63D-08 Max=3.62D-07 NDo=     1
 LinEq1:  Iter=  7 NonCon=     1 RMS=1.72D-08 Max=1.28D-07 NDo=     1
 LinEq1:  Iter=  8 NonCon=     0 RMS=7.31D-09 Max=4.63D-08 NDo=     1
 Linear equations converged to 7.841D-09 7.841D-08 after     8 iterations.
     Accept linear search using points  1 and  2.
     Minimum is close to point  2 DX= -6.90D-05 DF= -2.27D-13 DXR=  6.90D-05 DFR=  4.89D-09 which will be used.
 LinEq1:  Iter=  0 NonCon=     1 RMS=2.02D-07 Max=2.04D-06 NDo=     1
 LinEq1:  Iter=  1 NonCon=     1 RMS=6.41D-08 Max=6.36D-07 NDo=     1
 LinEq1:  Iter=  2 NonCon=     1 RMS=3.48D-08 Max=3.42D-07 NDo=     1
 LinEq1:  Iter=  3 NonCon=     1 RMS=1.19D-08 Max=1.44D-07 NDo=     1
 LinEq1:  Iter=  4 NonCon=     1 RMS=3.76D-09 Max=3.78D-08 NDo=     1
 LinEq1:  Iter=  5 NonCon=     1 RMS=1.76D-09 Max=1.87D-08 NDo=     1
 LinEq1:  Iter=  6 NonCon=     1 RMS=6.14D-10 Max=7.86D-09 NDo=     1
 LinEq1:  Iter=  7 NonCon=     1 RMS=1.50D-10 Max=1.29D-09 NDo=     1
 LinEq1:  Iter=  8 NonCon=     0 RMS=7.68D-11 Max=5.56D-10 NDo=     1
 Linear equations converged to 1.173D-10 1.173D-09 after     8 iterations.
 SCF Done:  E(RB3LYP) =  -292.412871098     a.u. after   13 cycles
            Convg  =    0.1634D-09                    47 Fock formations.
              S**2 =  0.0000                  -V/T =  2.0101
 DoSCS=F DFT=T ScalE2(SS,OS)=  1.000000  1.000000
 Range of M.O.s used for correlation:     1   135
 NBasis=   135 NAE=    29 NBE=    29 NFC=     0 NFV=     0
 NROrb=    135 NOA=    29 NOB=    29 NVA=   106 NVB=   106
 Symmetrizing basis deriv contribution to polar:
 IMax=3 JMax=2 DiffMx= 0.00D+00
 G2DrvN: will do    23 centers at a time, making    1 passes.
 Calling FoFCou, ICntrl=  3107 FMM=F I1Cent=   0 AccDes= 0.00D+00.
 End of G2Drv F.D. properties file   721 does not exist.
 End of G2Drv F.D. properties file   722 does not exist.
 End of G2Drv F.D. properties file   788 does not exist.
          IDoAtm=1111111111111111111111
          Differentiating once with respect to electric field.
                with respect to dipole field.
          Differentiating once with respect to nuclear coordinates.
 Keep R1 ints in memory in canonical form, NReq=45034167.
          There are    69 degrees of freedom in the 1st order CPHF.  IDoFFX=6 NUNeed=     3.
     66 vectors produced by pass  0 Test12= 4.46D-15 1.45D-09 XBig12= 4.29D+01 1.64D+00.
 AX will form    66 AO Fock derivatives at one time.
     66 vectors produced by pass  1 Test12= 4.46D-15 1.45D-09 XBig12= 2.00D+00 2.42D-01.
     66 vectors produced by pass  2 Test12= 4.46D-15 1.45D-09 XBig12= 9.59D-03 1.68D-02.
     66 vectors produced by pass  3 Test12= 4.46D-15 1.45D-09 XBig12= 1.24D-05 4.43D-04.
     66 vectors produced by pass  4 Test12= 4.46D-15 1.45D-09 XBig12= 8.57D-09 9.48D-06.
     21 vectors produced by pass  5 Test12= 4.46D-15 1.45D-09 XBig12= 3.85D-12 2.11D-07.
      3 vectors produced by pass  6 Test12= 4.46D-15 1.45D-09 XBig12= 2.02D-15 6.91D-09.
 InvSVY:  IOpt=1 It=  1 EMax= 5.33D-15
 Solved reduced A of dimension   354 with    69 vectors.
 Isotropic polarizability for W=    0.000000       71.92 Bohr**3.
 End of Minotr F.D. properties file   721 does not exist.
 End of Minotr F.D. properties file   722 does not exist.
 End of Minotr F.D. properties file   788 does not exist.
 Calling FoFJK, ICntrl=    100127 FMM=F ISym2X=0 I1Cent= 0 IOpClX= 0 NMat=1 NMatS=1 NMatT=0.
 ***** Axes restored to original set *****
 -------------------------------------------------------------------
 Center     Atomic                   Forces (Hartrees/Bohr)
 Number     Number              X              Y              Z
 -------------------------------------------------------------------
      1        6          -0.000124028    0.000066701   -0.000360684
      2        6          -0.001038490   -0.000016194   -0.001601393
      3        7          -0.001438691   -0.001121859   -0.000550208
      4        6          -0.000293828   -0.001461785    0.001554618
      5        6          -0.000699047    0.001436294   -0.000528159
      6        6           0.000073888    0.001883421    0.001903109
      7        6           0.001337196   -0.000839882   -0.000296553
      8        1           0.000011869   -0.000067479    0.000079604
      9        1           0.000011784    0.000017782   -0.000033577
     10        1          -0.000066059    0.000259079   -0.000055207
     11        1           0.000539326   -0.000069910    0.000181982
     12        1          -0.000837255   -0.000164440    0.000106452
     13        1           0.001387022   -0.000073730   -0.000098472
     14        1          -0.000276564   -0.000141690    0.000680389
     15        1          -0.000297186    0.000557286   -0.000317889
     16        1          -0.000438284    0.000575334   -0.000379798
     17        1           0.000502494   -0.000082188   -0.000077788
     18        1           0.000414214    0.000137867    0.000000641
     19        1           0.000486487   -0.000183891    0.000120863
     20        1           0.000577210   -0.000506858   -0.000348047
     21        1           0.000106457   -0.000160040   -0.000097133
     22        1           0.000061484   -0.000043818    0.000117252
 -------------------------------------------------------------------
 Cartesian Forces:  Max     0.001903109 RMS     0.000685233
 FormGI is forming the generalized inverse of G from B-inverse, IUseBI=4.

 GradGradGradGradGradGradGradGradGradGradGradGradGradGradGradGradGradGrad
 Berny optimization.
 Using GEDIIS/GDIIS optimizer.
 Internal  Forces:  Max     0.003089209 RMS     0.000853694
 Search for a local minimum.
 Step number   2 out of a maximum of  115
 All quantities printed in internal units (Hartrees-Bohrs-Radians)
 Mixed Optimization -- En-DIIS/RFO-DIIS
 Second derivative matrix not updated -- analytic derivatives used.
 DE= -3.91D-03 DEPred=-5.19D-03 R= 7.54D-01
 TightC=F SS=  1.41D+00  RLast= 8.61D-01 DXNew= 5.0454D-01 2.5833D+00
 Trust test= 7.54D-01 RLast= 8.61D-01 DXMaxT set to 5.05D-01
 ITU=  1  0
 Use linear search instead of GDIIS.
     Eigenvalues ---    0.00196   0.00264   0.00325   0.00418   0.00527
     Eigenvalues ---    0.01521   0.02053   0.04392   0.04527   0.04576
     Eigenvalues ---    0.04661   0.04672   0.04714   0.04801   0.04833
     Eigenvalues ---    0.04861   0.04981   0.05068   0.05476   0.08625
     Eigenvalues ---    0.08802   0.09233   0.11771   0.12109   0.12286
     Eigenvalues ---    0.12436   0.12632   0.12733   0.13967   0.14032
     Eigenvalues ---    0.14423   0.16347   0.16471   0.16665   0.19849
     Eigenvalues ---    0.20671   0.24554   0.25072   0.26969   0.27356
     Eigenvalues ---    0.29201   0.29882   0.30076   0.30575   0.32813
     Eigenvalues ---    0.33114   0.33331   0.33561   0.33733   0.33825
     Eigenvalues ---    0.33859   0.33901   0.33951   0.33999   0.34725
     Eigenvalues ---    0.34823   0.34858   0.36623   0.37909   0.39391
 RFO step:  Lambda=-2.40565331D-03 EMin= 1.96074455D-03
 Quintic linear search produced a step of -0.12825.
 Iteration  1 RMS(Cart)=  0.11235308 RMS(Int)=  0.00593664
 Iteration  2 RMS(Cart)=  0.00976043 RMS(Int)=  0.00006517
 Iteration  3 RMS(Cart)=  0.00005104 RMS(Int)=  0.00006027
 Iteration  4 RMS(Cart)=  0.00000000 RMS(Int)=  0.00006027
 Variable       Old X    -DE/DX   Delta X   Delta X   Delta X     New X
                                 (Linear)    (Quad)   (Total)
    R1        2.89304   0.00018  -0.00128   0.00283   0.00155   2.89458
    R2        2.07088   0.00003  -0.00016   0.00042   0.00026   2.07114
    R3        2.07054   0.00003  -0.00027  -0.00011  -0.00038   2.07015
    R4        2.06875   0.00001  -0.00002   0.00013   0.00012   2.06887
    R5        2.76771   0.00077   0.00250  -0.00166   0.00084   2.76855
    R6        2.07389   0.00009   0.00005  -0.00071  -0.00066   2.07323
    R7        2.09445  -0.00008  -0.00280   0.00303   0.00023   2.09468
    R8        2.77223   0.00103   0.00080  -0.00381  -0.00301   2.76922
    R9        2.76764   0.00294   0.00225   0.00419   0.00645   2.77409
   R10        2.88574   0.00144  -0.00057   0.00496   0.00439   2.89013
   R11        2.09688   0.00010  -0.00313   0.00322   0.00010   2.09697
   R12        2.07065   0.00015   0.00025  -0.00181  -0.00156   2.06908
   R13        2.06854  -0.00039  -0.00029   0.00095   0.00065   2.06919
   R14        2.07054   0.00007  -0.00015   0.00017   0.00001   2.07055
   R15        2.07091  -0.00006  -0.00039   0.00001  -0.00038   2.07052
   R16        2.90771   0.00146  -0.00331   0.00553   0.00223   2.90993
   R17        2.07033   0.00023   0.00062  -0.00093  -0.00031   2.07002
   R18        2.07319   0.00007   0.00010   0.00047   0.00057   2.07375
   R19        2.07162  -0.00061  -0.00052   0.00037  -0.00015   2.07147
   R20        2.07208   0.00009  -0.00038   0.00037  -0.00000   2.07208
   R21        2.06983   0.00003  -0.00030   0.00080   0.00051   2.07034
    A1        1.91564  -0.00001   0.00019   0.00092   0.00112   1.91676
    A2        1.92821  -0.00006   0.00196  -0.00485  -0.00289   1.92532
    A3        1.96414   0.00007  -0.00191   0.00400   0.00209   1.96624
    A4        1.88996   0.00005  -0.00106   0.00379   0.00274   1.89270
    A5        1.87199   0.00003  -0.00007  -0.00130  -0.00137   1.87062
    A6        1.89163  -0.00008   0.00084  -0.00243  -0.00160   1.89003
    A7        1.98839  -0.00070   0.00191  -0.00566  -0.00376   1.98463
    A8        1.88847   0.00022  -0.00345   0.00406   0.00062   1.88908
    A9        1.89978  -0.00007   0.00037   0.00052   0.00089   1.90067
   A10        1.86788   0.00010   0.00279  -0.00523  -0.00247   1.86542
   A11        1.95498   0.00055  -0.00195   0.00792   0.00597   1.96094
   A12        1.85850  -0.00006   0.00018  -0.00154  -0.00135   1.85714
   A13        1.94885   0.00124   0.00553   0.00747   0.01314   1.96199
   A14        1.94789   0.00052  -0.00494   0.01750   0.01257   1.96045
   A15        2.01853  -0.00103  -0.00351  -0.01257  -0.01625   2.00228
   A16        2.01129  -0.00148   0.00239  -0.02463  -0.02221   1.98908
   A17        1.95128   0.00002  -0.00469   0.01110   0.00645   1.95773
   A18        1.86894   0.00092   0.00482  -0.00273   0.00201   1.87095
   A19        1.89571   0.00161   0.00041   0.01362   0.01406   1.90977
   A20        1.88388  -0.00108   0.00165  -0.00670  -0.00502   1.87887
   A21        1.84401   0.00005  -0.00522   0.01132   0.00605   1.85006
   A22        1.96626   0.00066  -0.00134   0.00185   0.00046   1.96672
   A23        1.90274   0.00030   0.00147   0.00838   0.00985   1.91259
   A24        1.94171  -0.00018   0.00043  -0.01105  -0.01063   1.93107
   A25        1.87008  -0.00004   0.00069   0.00244   0.00309   1.87317
   A26        1.89336  -0.00053   0.00015  -0.00435  -0.00425   1.88911
   A27        1.88678  -0.00024  -0.00140   0.00332   0.00195   1.88873
   A28        2.03968   0.00309  -0.00517   0.01277   0.00765   2.04732
   A29        1.88399  -0.00069   0.00129   0.00319   0.00472   1.88872
   A30        1.86424  -0.00069   0.00946  -0.01008  -0.00059   1.86365
   A31        1.90387  -0.00032  -0.00538   0.00473  -0.00060   1.90327
   A32        1.91324  -0.00200  -0.00099  -0.00911  -0.01018   1.90306
   A33        1.84940   0.00041   0.00112  -0.00301  -0.00176   1.84764
   A34        1.94579   0.00085  -0.00077   0.00565   0.00488   1.95067
   A35        1.92349  -0.00013  -0.00103  -0.00239  -0.00341   1.92008
   A36        1.95479   0.00001  -0.00012  -0.00137  -0.00150   1.95329
   A37        1.87823  -0.00028   0.00055  -0.00207  -0.00152   1.87672
   A38        1.88033  -0.00038   0.00218  -0.00134   0.00083   1.88116
   A39        1.87810  -0.00011  -0.00074   0.00139   0.00065   1.87875
    D1        2.95087  -0.00004  -0.00073   0.00518   0.00447   2.95534
    D2        0.87598   0.00012  -0.00301   0.01248   0.00946   0.88544
    D3       -1.13695   0.00011  -0.00160   0.01186   0.01026  -1.12669
    D4        0.86795  -0.00006  -0.00076   0.00293   0.00218   0.87013
    D5       -1.20695   0.00010  -0.00305   0.01023   0.00718  -1.19977
    D6        3.06331   0.00009  -0.00164   0.00961   0.00798   3.07129
    D7       -1.24904   0.00004  -0.00190   0.00675   0.00485  -1.24419
    D8        2.95925   0.00020  -0.00419   0.01405   0.00985   2.96910
    D9        0.94632   0.00019  -0.00278   0.01343   0.01065   0.95697
   D10        1.05296   0.00056  -0.00232   0.09657   0.09415   1.14711
   D11       -2.94087   0.00068  -0.00677   0.10097   0.09432  -2.84655
   D12        3.13953   0.00048  -0.00354   0.09465   0.09100  -3.05266
   D13       -0.85430   0.00060  -0.00799   0.09905   0.09116  -0.76314
   D14       -1.11297   0.00076  -0.00272   0.09393   0.09110  -1.02187
   D15        1.17639   0.00088  -0.00717   0.09832   0.09126   1.26765
   D16        3.00503   0.00302   0.01910   0.16427   0.18339  -3.09477
   D17        0.82938   0.00200   0.02061   0.15616   0.17677   1.00615
   D18       -1.18252   0.00139   0.02660   0.13831   0.16484  -1.01768
   D19        0.75236   0.00203   0.02420   0.14356   0.16781   0.92016
   D20       -1.42329   0.00101   0.02571   0.13545   0.16119  -1.26210
   D21        2.84799   0.00040   0.03170   0.11760   0.14926   2.99725
   D22       -1.20382   0.00083   0.01851  -0.02558  -0.00698  -1.21080
   D23        2.92705  -0.00041   0.02802  -0.04370  -0.01568   2.91137
   D24        0.94491  -0.00022   0.02104  -0.03684  -0.01560   0.92931
   D25        1.04932   0.00217   0.01876  -0.00978   0.00889   1.05821
   D26       -1.10299   0.00093   0.02828  -0.02789   0.00019  -1.10281
   D27       -3.08514   0.00112   0.02130  -0.02103   0.00027  -3.08486
   D28       -1.13672  -0.00016   0.02598  -0.08017  -0.05415  -1.19087
   D29        3.07291  -0.00072   0.02499  -0.08996  -0.06495   3.00797
   D30        0.99377  -0.00051   0.02552  -0.09264  -0.06706   0.92671
   D31        1.06763   0.00008   0.02182  -0.07275  -0.05094   1.01669
   D32       -1.00592  -0.00048   0.02083  -0.08253  -0.06174  -1.06766
   D33       -3.08506  -0.00027   0.02136  -0.08521  -0.06385   3.13428
   D34        3.05904   0.00039   0.01677  -0.05606  -0.03932   3.01973
   D35        0.98549  -0.00017   0.01578  -0.06585  -0.05011   0.93538
   D36       -1.09365   0.00004   0.01631  -0.06853  -0.05222  -1.14587
[...]
     3  N   -0.034272   0.002556  -0.005281  -0.005410  -0.046069  -0.035309
     4  C    0.017906  -0.001879  -0.002215  -0.022753  -0.005404  -0.054415
     5  C    0.001187   0.000036   0.000124   0.000425  -0.000074   0.001052
     6  C    0.488448  -0.000323  -0.001524  -0.000238  -0.052762  -0.004405
     7  C    6.182734  -0.000029  -0.000013  -0.000060  -0.017156  -0.021349
     8  H   -0.000029   0.632027  -0.005529   0.007143   0.024906   0.019244
     9  H   -0.000013  -0.005529   0.578120  -0.012198   0.010347   0.008900
    10  H   -0.000060   0.007143  -0.012198   0.602200   0.013176   0.013762
    11  H   -0.017156   0.024906   0.010347   0.013176   0.782203   0.060659
    12  H   -0.021349   0.019244   0.008900   0.013762   0.060659   0.680325
    13  H   -0.043211   0.000355   0.000334   0.003855   0.005307   0.030716
    14  H   -0.002379   0.003723   0.005176   0.046189   0.007139   0.030460
    15  H   -0.008324   0.000003   0.000034   0.000099   0.000249   0.000469
    16  H   -0.000358   0.000003   0.000021   0.000263   0.000034   0.000197
    17  H   -0.000203   0.000015   0.000271   0.000601   0.000216   0.000237
    18  H   -0.089584   0.000032   0.000220   0.000135   0.006875   0.002278
    19  H   -0.101078   0.000517   0.001837   0.000410   0.080118   0.011697
    20  H   -0.073660   0.000014   0.000014   0.000051   0.004041   0.009350
    21  H    0.001336   0.000003   0.000004   0.000003   0.003381   0.001736
    22  H    0.031146   0.000177   0.000065   0.000111   0.028646   0.027847
              13         14         15         16         17         18
     1  C    0.001525  -0.014672   0.000049  -0.000013  -0.000033   0.000283
     2  C   -0.014678  -0.022645   0.000165   0.000100   0.000515  -0.000021
     3  N   -0.038052  -0.061341  -0.006893   0.002126  -0.007100  -0.042285
     4  C    0.007043  -0.066164  -0.084833  -0.102350  -0.068543  -0.013639
     5  C   -0.056729  -0.050782   0.095741   0.217125   0.261083  -0.032160
     6  C   -0.002998   0.003036  -0.019553  -0.000256  -0.006781   0.096261
     7  C   -0.043211  -0.002379  -0.008324  -0.000358  -0.000203  -0.089584
     8  H    0.000355   0.003723   0.000003   0.000003   0.000015   0.000032
     9  H    0.000334   0.005176   0.000034   0.000021   0.000271   0.000220
    10  H    0.003855   0.046189   0.000099   0.000263   0.000601   0.000135
    11  H    0.005307   0.007139   0.000249   0.000034   0.000216   0.006875
    12  H    0.030716   0.030460   0.000469   0.000197   0.000237   0.002278
    13  H    0.723871   0.092114   0.033429   0.025279   0.012086   0.014619
    14  H    0.092114   0.871582   0.021425   0.031839   0.019788   0.004859
    15  H    0.033429   0.021425   0.738468   0.036435   0.015353   0.050895
    16  H    0.025279   0.031839   0.036435   0.654617   0.006522   0.002637
    17  H    0.012086   0.019788   0.015353   0.006522   0.622755   0.010659
    18  H    0.014619   0.004859   0.050895   0.002637   0.010659   0.711922
    19  H    0.005289   0.002200   0.004130   0.000131   0.001339   0.074266
    20  H    0.059429   0.003877   0.016450   0.001216   0.000564   0.032181
    21  H    0.003558   0.000145   0.002087   0.000032   0.000061   0.033181
    22  H    0.012473   0.001184   0.000782   0.000039   0.000045   0.016774
              19         20         21         22
     1  C    0.003451   0.000193   0.000040   0.000944
     2  C   -0.061667  -0.007375  -0.002877  -0.033288
     3  N   -0.042024  -0.004806   0.002885  -0.004204
     4  C    0.003808  -0.024895  -0.000697  -0.006560
     5  C   -0.002335  -0.006179  -0.000524  -0.000073
     6  C   -0.075232  -0.064789  -0.112544  -0.073891
     7  C   -0.101078  -0.073660   0.001336   0.031146
     8  H    0.000517   0.000014   0.000003   0.000177
     9  H    0.001837   0.000014   0.000004   0.000065
    10  H    0.000410   0.000051   0.000003   0.000111
    11  H    0.080118   0.004041   0.003381   0.028646
    12  H    0.011697   0.009350   0.001736   0.027847
    13  H    0.005289   0.059429   0.003558   0.012473
    14  H    0.002200   0.003877   0.000145   0.001184
    15  H    0.004130   0.016450   0.002087   0.000782
    16  H    0.000131   0.001216   0.000032   0.000039
    17  H    0.001339   0.000564   0.000061   0.000045
    18  H    0.074266   0.032181   0.033181   0.016774
    19  H    0.911166   0.024873   0.047528   0.037853
    20  H    0.024873   0.811856   0.081510   0.063796
    21  H    0.047528   0.081510   0.781531   0.062939
    22  H    0.037853   0.063796   0.062939   0.743677
 Mulliken charges:
               1
     1  C   -0.448907
     2  C   -0.091182
     3  N   -0.194344
     4  C   -0.073926
     5  C   -0.423016
     6  C   -0.096139
     7  C   -0.352603
     8  H    0.139800
     9  H    0.150608
    10  H    0.144070
    11  H    0.098515
    12  H    0.143404
    13  H    0.124389
    14  H    0.073248
    15  H    0.103342
    16  H    0.124361
    17  H    0.130552
    18  H    0.119612
    19  H    0.071725
    20  H    0.072289
    21  H    0.094682
    22  H    0.089520
 Sum of Mulliken charges =  -0.00000
 Mulliken charges with hydrogens summed into heavy atoms:
               1
     1  C   -0.014428
     2  C    0.150737
     3  N   -0.194344
     4  C    0.123710
     5  C   -0.064761
     6  C    0.095198
     7  C   -0.096113
 Electronic spatial extent (au):  <R**2>=           1028.2567
 Charge=              0.0000 electrons
 Dipole moment (field-independent basis, Debye):
    X=             -1.4337    Y=              0.4067    Z=             -0.2305  Tot=              1.5080
 Quadrupole moment (field-independent basis, Debye-Ang):
   XX=            -51.6256   YY=            -52.9838   ZZ=            -49.5807
   XY=              1.0358   XZ=             -0.7672   YZ=             -0.2597
 Traceless Quadrupole moment (field-independent basis, Debye-Ang):
   XX=             -0.2289   YY=             -1.5871   ZZ=              1.8160
   XY=              1.0358   XZ=             -0.7672   YZ=             -0.2597
 Octapole moment (field-independent basis, Debye-Ang**2):
  XXX=            -11.8878  YYY=              5.7226  ZZZ=             -2.3890  XYY=             -3.1538
  XXY=             -0.3242  XXZ=             -1.1223  XZZ=             -2.3662  YZZ=              2.3477
  YYZ=              1.1034  XYZ=              1.9862
 Hexadecapole moment (field-independent basis, Debye-Ang**3):
 XXXX=           -763.9267 YYYY=           -600.6704 ZZZZ=           -159.2797 XXXY=              5.9040
 XXXZ=             -5.0065 YYYX=              7.6717 YYYZ=             -2.5910 ZZZX=             -0.2393
 ZZZY=             -2.4845 XXYY=           -226.0014 XXZZ=           -152.1759 YYZZ=           -122.9419
 XXYZ=             -1.5295 YYXZ=              0.2328 ZZXY=              1.5256
 N-N= 3.367799705336D+02 E-N=-1.347747539791D+03  KE= 2.896295126501D+02
 Evaluate density.
 Using the total density.
 Monte-Carlo method of calculating molar volume:
 based on  0.001 e/bohr**3 density envelope.
 Number of points per bohr**3 =   20 CutOff= 1.00D-04
 Using the CI density.
 There are       374 points.  Will hold       374 in memory.
 LenV=   805236022 MDV=   805306368.
 Box volume = 6544.185 fraction occupied=0.198
 Integrated density= 3.5664671812301556D+01 error=-2.2335328187698444D+01
 Molar volume = 1294.839 bohr**3/mol (115.550 cm**3/mol)
 Recommended a0 for SCRF calculation =  4.44 angstrom (  8.39 bohr)
 ******************************Gaussian NBO Version 3.1******************************
             N A T U R A L   A T O M I C   O R B I T A L   A N D
          N A T U R A L   B O N D   O R B I T A L   A N A L Y S I S
 ******************************Gaussian NBO Version 3.1******************************
       /RESON  / : Allow strongly delocalized NBO set

 Analyzing the CI density

 Job title: Title Card Required                                             

 Storage needed:     56284 in NPA ( 805303728 available)


 NATURAL POPULATIONS:  Natural atomic orbital occupancies 
                                                          
   NAO  Atom  No  lang   Type(AO)    Occupancy
 --------------------------------------------
     1    C    1  S      Cor( 1S)     1.99944
     2    C    1  S      Val( 2S)     1.10993
     3    C    1  S      Ryd( 3S)     0.00046
     4    C    1  S      Ryd( 4S)     0.00001
     5    C    1  px     Val( 2p)     1.11904
     6    C    1  px     Ryd( 3p)     0.00370
     7    C    1  py     Val( 2p)     1.21294
     8    C    1  py     Ryd( 3p)     0.00233
     9    C    1  pz     Val( 2p)     1.24383
    10    C    1  pz     Ryd( 3p)     0.00149
    11    C    1  dxy    Ryd( 3d)     0.00072
    12    C    1  dxz    Ryd( 3d)     0.00028
    13    C    1  dyz    Ryd( 3d)     0.00063
    14    C    1  dx2y2  Ryd( 3d)     0.00057
    15    C    1  dz2    Ryd( 3d)     0.00094
 
    16    C    2  S      Cor( 1S)     1.99931
    17    C    2  S      Val( 2S)     1.05030
    18    C    2  S      Ryd( 3S)     0.00208
    19    C    2  S      Ryd( 4S)     0.00005
    20    C    2  px     Val( 2p)     0.90500
    21    C    2  px     Ryd( 3p)     0.00365
    22    C    2  py     Val( 2p)     1.13494
    23    C    2  py     Ryd( 3p)     0.00283
    24    C    2  pz     Val( 2p)     1.20919
    25    C    2  pz     Ryd( 3p)     0.00390
    26    C    2  dxy    Ryd( 3d)     0.00109
    27    C    2  dxz    Ryd( 3d)     0.00072
    28    C    2  dyz    Ryd( 3d)     0.00084
    29    C    2  dx2y2  Ryd( 3d)     0.00092
    30    C    2  dz2    Ryd( 3d)     0.00102
 
    31    N    3  S      Cor( 1S)     1.99932
    32    N    3  S      Val( 2S)     1.28554
    33    N    3  S      Ryd( 3S)     0.00149
    34    N    3  S      Ryd( 4S)     0.00004
    35    N    3  px     Val( 2p)     1.28224
    36    N    3  px     Ryd( 3p)     0.00092
    37    N    3  py     Val( 2p)     1.27061
    38    N    3  py     Ryd( 3p)     0.00102
    39    N    3  pz     Val( 2p)     1.18502
    40    N    3  pz     Ryd( 3p)     0.00224
    41    N    3  dxy    Ryd( 3d)     0.00099
    42    N    3  dxz    Ryd( 3d)     0.00068
    43    N    3  dyz    Ryd( 3d)     0.00072
    44    N    3  dx2y2  Ryd( 3d)     0.00061
    45    N    3  dz2    Ryd( 3d)     0.00052
 
    46    C    4  S      Cor( 1S)     1.99929
    47    C    4  S      Val( 2S)     1.05701
    48    C    4  S      Ryd( 3S)     0.00223
    49    C    4  S      Ryd( 4S)     0.00005
    50    C    4  px     Val( 2p)     1.18647
    51    C    4  px     Ryd( 3p)     0.00458
    52    C    4  py     Val( 2p)     0.96467
    53    C    4  py     Ryd( 3p)     0.00301
    54    C    4  pz     Val( 2p)     1.09261
    55    C    4  pz     Ryd( 3p)     0.00343
    56    C    4  dxy    Ryd( 3d)     0.00104
    57    C    4  dxz    Ryd( 3d)     0.00070
    58    C    4  dyz    Ryd( 3d)     0.00132
    59    C    4  dx2y2  Ryd( 3d)     0.00081
    60    C    4  dz2    Ryd( 3d)     0.00070
 
    61    C    5  S      Cor( 1S)     1.99945
    62    C    5  S      Val( 2S)     1.11784
    63    C    5  S      Ryd( 3S)     0.00050
    64    C    5  S      Ryd( 4S)     0.00002
    65    C    5  px     Val( 2p)     1.19201
    66    C    5  px     Ryd( 3p)     0.00348
    67    C    5  py     Val( 2p)     1.17097
    68    C    5  py     Ryd( 3p)     0.00196
    69    C    5  pz     Val( 2p)     1.21132
    70    C    5  pz     Ryd( 3p)     0.00275
    71    C    5  dxy    Ryd( 3d)     0.00063
    72    C    5  dxz    Ryd( 3d)     0.00051
    73    C    5  dyz    Ryd( 3d)     0.00085
    74    C    5  dx2y2  Ryd( 3d)     0.00054
    75    C    5  dz2    Ryd( 3d)     0.00055
 
    76    C    6  S      Cor( 1S)     1.99933
    77    C    6  S      Val( 2S)     1.04463
    78    C    6  S      Ryd( 3S)     0.00148
    79    C    6  S      Ryd( 4S)     0.00007
    80    C    6  px     Val( 2p)     1.01754
    81    C    6  px     Ryd( 3p)     0.00394
    82    C    6  py     Val( 2p)     1.07343
    83    C    6  py     Ryd( 3p)     0.00430
    84    C    6  pz     Val( 2p)     1.16120
    85    C    6  pz     Ryd( 3p)     0.00505
    86    C    6  dxy    Ryd( 3d)     0.00163
    87    C    6  dxz    Ryd( 3d)     0.00093
    88    C    6  dyz    Ryd( 3d)     0.00110
    89    C    6  dx2y2  Ryd( 3d)     0.00041
    90    C    6  dz2    Ryd( 3d)     0.00056
 
    91    C    7  S      Cor( 1S)     1.99940
    92    C    7  S      Val( 2S)     1.15053
    93    C    7  S      Ryd( 3S)     0.00077
    94    C    7  S      Ryd( 4S)     0.00008
    95    C    7  px     Val( 2p)     1.20637
    96    C    7  px     Ryd( 3p)     0.00221
    97    C    7  py     Val( 2p)     1.18516
    98    C    7  py     Ryd( 3p)     0.00192
    99    C    7  pz     Val( 2p)     1.13569
   100    C    7  pz     Ryd( 3p)     0.00344
   101    C    7  dxy    Ryd( 3d)     0.00096
   102    C    7  dxz    Ryd( 3d)     0.00085
   103    C    7  dyz    Ryd( 3d)     0.00096
   104    C    7  dx2y2  Ryd( 3d)     0.00011
   105    C    7  dz2    Ryd( 3d)     0.00023
 
   106    H    8  S      Val( 1S)     0.76530
   107    H    8  S      Ryd( 2S)     0.00854
 
   108    H    9  S      Val( 1S)     0.76501
   109    H    9  S      Ryd( 2S)     0.00479
 
   110    H   10  S      Val( 1S)     0.77065
   111    H   10  S      Ryd( 2S)     0.01087
 
   112    H   11  S      Val( 1S)     0.76872
   113    H   11  S      Ryd( 2S)     0.03451
 
   114    H   12  S      Val( 1S)     0.74216
   115    H   12  S      Ryd( 2S)     0.02627
 
   116    H   13  S      Val( 1S)     0.74397
   117    H   13  S      Ryd( 2S)     0.03659
 
   118    H   14  S      Val( 1S)     0.79130
   119    H   14  S      Ryd( 2S)     0.03408
 
   120    H   15  S      Val( 1S)     0.78325
   121    H   15  S      Ryd( 2S)     0.02625
 
   122    H   16  S      Val( 1S)     0.76966
   123    H   16  S      Ryd( 2S)     0.01109
 
   124    H   17  S      Val( 1S)     0.77207
   125    H   17  S      Ryd( 2S)     0.00758
 
   126    H   18  S      Val( 1S)     0.76438
   127    H   18  S      Ryd( 2S)     0.02507
 
   128    H   19  S      Val( 1S)     0.78777
   129    H   19  S      Ryd( 2S)     0.03758
 
   130    H   20  S      Val( 1S)     0.79114
   131    H   20  S      Ryd( 2S)     0.03564
 
   132    H   21  S      Val( 1S)     0.78084
   133    H   21  S      Ryd( 2S)     0.02208
 
   134    H   22  S      Val( 1S)     0.78805
   135    H   22  S      Ryd( 2S)     0.02511


 Summary of Natural Population Analysis:                  
                                                          
                                       Natural Population 
                Natural  -----------------------------------------------
    Atom  No    Charge         Core      Valence    Rydberg      Total
 -----------------------------------------------------------------------
      C    1   -0.69630      1.99944     4.68574    0.01112     6.69630
      C    2   -0.31583      1.99931     4.29943    0.01709     6.31583
      N    3   -0.03196      1.99932     5.02341    0.00923     7.03196
      C    4   -0.31793      1.99929     4.30077    0.01787     6.31793
      C    5   -0.70337      1.99945     4.69214    0.01178     6.70337
      C    6   -0.31560      1.99933     4.29680    0.01947     6.31560
      C    7   -0.68868      1.99940     4.67775    0.01153     6.68868
      H    8    0.22616      0.00000     0.76530    0.00854     0.77384
      H    9    0.23020      0.00000     0.76501    0.00479     0.76980
      H   10    0.21849      0.00000     0.77065    0.01087     0.78151
      H   11    0.19677      0.00000     0.76872    0.03451     0.80323
      H   12    0.23157      0.00000     0.74216    0.02627     0.76843
      H   13    0.21944      0.00000     0.74397    0.03659     0.78056
      H   14    0.17462      0.00000     0.79130    0.03408     0.82538
      H   15    0.19050      0.00000     0.78325    0.02625     0.80950
      H   16    0.21924      0.00000     0.76966    0.01109     0.78076
      H   17    0.22035      0.00000     0.77207    0.00758     0.77965
      H   18    0.21055      0.00000     0.76438    0.02507     0.78945
      H   19    0.17464      0.00000     0.78777    0.03758     0.82536
      H   20    0.17322      0.00000     0.79114    0.03564     0.82678
      H   21    0.19708      0.00000     0.78084    0.02208     0.80292
      H   22    0.18684      0.00000     0.78805    0.02511     0.81316
 =======================================================================
   * Total *   -0.00000     13.99553    43.56033    0.44414    58.00000

                                 Natural Population      
 --------------------------------------------------------
   Core                      13.99553 ( 99.9681% of  14)
   Valence                   43.56033 ( 99.0007% of  44)
   Natural Minimal Basis     57.55586 ( 99.2342% of  58)
   Natural Rydberg Basis      0.44414 (  0.7658% of  58)
 --------------------------------------------------------

    Atom  No          Natural Electron Configuration
 ----------------------------------------------------------------------------
      C    1      [core]2S( 1.11)2p( 3.58)3p( 0.01)
      C    2      [core]2S( 1.05)2p( 3.25)3p( 0.01)
      N    3      [core]2S( 1.29)2p( 3.74)
      C    4      [core]2S( 1.06)2p( 3.24)3p( 0.01)
      C    5      [core]2S( 1.12)2p( 3.57)3p( 0.01)
      C    6      [core]2S( 1.04)2p( 3.25)3p( 0.01)
      C    7      [core]2S( 1.15)2p( 3.53)3p( 0.01)
      H    8            1S( 0.77)2S( 0.01)
      H    9            1S( 0.77)
      H   10            1S( 0.77)2S( 0.01)
      H   11            1S( 0.77)2S( 0.03)
      H   12            1S( 0.74)2S( 0.03)
      H   13            1S( 0.74)2S( 0.04)
      H   14            1S( 0.79)2S( 0.03)
      H   15            1S( 0.78)2S( 0.03)
      H   16            1S( 0.77)2S( 0.01)
      H   17            1S( 0.77)2S( 0.01)
      H   18            1S( 0.76)2S( 0.03)
      H   19            1S( 0.79)2S( 0.04)
      H   20            1S( 0.79)2S( 0.04)
      H   21            1S( 0.78)2S( 0.02)
      H   22            1S( 0.79)2S( 0.03)


 NBO analysis skipped by request.
 1\1\GINC-DELLA-R1C4N16\SP\RB3LYP TD-FC\6-31G(d)\C6H15N1\BJS4\24-Aug-20
 20\0\\# TD(NStates=10, Root=1) B3LYP/6-31G* scf=qc volume pop=NPA dens
 ity=current Geom=AllCheck Guess=Read\\Title Card Required\\0,1\C,0,0.9
 842173852,0.0086287245,-0.3186363033\C,0,2.4468014769,-0.0050010693,0.
 1361426389\N,0,2.9550967449,1.3306393756,0.4651048715\C,0,2.4953132178
 ,1.8016172789,1.7737285492\C,0,2.680879812,3.3062492669,1.9824795062\C
 ,0,4.3970390107,1.471949774,0.237535814\C,0,5.3366674886,0.6391991557,
 1.1293166894\H,0,0.6682018643,-0.9998543215,-0.6109941863\H,0,0.859688
 5424,0.677254475,-1.1766575217\H,0,0.3064239674,0.3464341194,0.4728416
 776\H,0,3.0589731446,-0.3968259757,-0.685126552\H,0,2.565197952,-0.717
 384045,0.9753456904\H,0,2.9705719158,1.2503615822,2.6088750184\H,0,1.4
 251857367,1.5790957493,1.8400579321\H,0,3.7358593378,3.5926723911,2.05
 03927693\H,0,2.198643852,3.6172819584,2.9162430639\H,0,2.2291426502,3.
 8642889776,1.1553887853\H,0,4.654621082,2.5324610372,0.3369298995\H,0,
 4.5820827524,1.2154361815,-0.8134391822\H,0,5.235528423,0.8999625495,2
 .1886978777\H,0,6.3803524896,0.8175660169,0.8442365609\H,0,5.143391153
 6,-0.4348532023,1.0285764011\\Version=ES64L-G16RevA.03\State=1-A\HF=-2
 92.4150241\RMSD=4.230e-13\Dipole=-0.5294887,-0.1184857,-0.2399692\Quad
 rupole=-1.2578291,0.8007042,0.4571249,0.8683355,-0.0577217,-0.7773534\
 PG=C01 [X(C6H15N1)]\\@


 NEVER LISTEN TO CRITICISM
 OR YOU'LL BE DOIN' EVERYBODY ELSE'S THING BUT BUT YOUR OWN.

                                               -- ANDY CAPP
 Job cpu time:       0 days  0 hours 12 minutes 52.9 seconds.
 Elapsed time:       0 days  0 hours  4 minutes 18.8 seconds.
 File lengths (MBytes):  RWF=    210 Int=      0 D2E=      0 Chk=     16 Scr=      1
 Normal termination of Gaussian 16 at Mon Aug 24 16:45:56 2020.
