 Entering Gaussian System, Link 0=g16
 Input=base_9_conf28123.com
 Output=base_9_conf28123.log
 Initial command:
 /opt/export//g16/l1.exe "/scratch/bjs4/job.25689/Gau-25694.inp" -scrdir="/scratch/bjs4/job.25689/"
 Entering Link 1 = /opt/export//g16/l1.exe PID=     25695.
  
 Copyright (c) 1988,1990,1992,1993,1995,1998,2003,2009,2016,
            Gaussian, Inc.  All Rights Reserved.
  
 This is part of the Gaussian(R) 16 program.  It is based on
 the Gaussian(R) 09 system (copyright 2009, Gaussian, Inc.),
 the Gaussian(R) 03 system (copyright 2003, Gaussian, Inc.),
 the Gaussian(R) 98 system (copyright 1998, Gaussian, Inc.),
 the Gaussian(R) 94 system (copyright 1995, Gaussian, Inc.),
 the Gaussian 92(TM) system (copyright 1992, Gaussian, Inc.),
 the Gaussian 90(TM) system (copyright 1990, Gaussian, Inc.),
 the Gaussian 88(TM) system (copyright 1988, Gaussian, Inc.),
 the Gaussian 86(TM) system (copyright 1986, Carnegie Mellon
 University), and the Gaussian 82(TM) system (copyright 1983,
 Carnegie Mellon University). Gaussian is a federally registered
 trademark of Gaussian, Inc.
  
 This software contains proprietary and confidential information,
 including trade secrets, belonging to Gaussian, Inc.
  
 This software is provided under written license and may be
 used, copied, transmitted, or stored only in accord with that
 written license.
  
 The following legend is applicable only to US Government
 contracts under FAR:
  
                    RESTRICTED RIGHTS LEGEND
  
 Use, reproduction and disclosure by the US Government is
 subject to restrictions as set forth in subparagraphs (a)
 and (c) of the Commercial Computer Software - Restricted
 Rights clause in FAR 52.227-19.
  
 Gaussian, Inc.
 340 Quinnipiac St., Bldg. 40, Wallingford CT 06492
  
  
 ---------------------------------------------------------------
 Warning -- This program may not be used in any manner that
 competes with the business of Gaussian, Inc. or will provide
 assistance to any competitor of Gaussian, Inc.  The licensee
 of this program is prohibited from giving any competitor of
 Gaussian, Inc. access to this program.  By using this program,
 the user acknowledges that Gaussian, Inc. is engaged in the
 business of creating and licensing software in the field of
 computational chemistry and represents and warrants to the
 licensee that it is not a competitor of Gaussian, Inc. and that
 it will not use this program in any manner prohibited above.
 ---------------------------------------------------------------
  

 Cite this work as:
 Gaussian 16, Revision A.03,
 M. J. Frisch, G. W. Trucks, H. B. Schlegel, G. E. Scuseria, 
 M. A. Robb, J. R. Cheeseman, G. Scalmani, V. Barone, 
 G. A. Petersson, H. Nakatsuji, X. Li, M. Caricato, A. V. Marenich, 
 J. Bloino, B. G. Janesko, R. Gomperts, B. Mennucci, H. P. Hratchian, 
 J. V. Ortiz, A. F. Izmaylov, J. L. Sonnenberg, D. Williams-Young, 
 F. Ding, F. Lipparini, F. Egidi, J. Goings, B. Peng, A. Petrone, 
 T. Henderson, D. Ranasinghe, V. G. Zakrzewski, J. Gao, N. Rega, 
 G. Zheng, W. Liang, M. Hada, M. Ehara, K. Toyota, R. Fukuda, 
 J. Hasegawa, M. Ishida, T. Nakajima, Y. Honda, O. Kitao, H. Nakai, 
 T. Vreven, K. Throssell, J. A. Montgomery, Jr., J. E. Peralta, 
 F. Ogliaro, M. J. Bearpark, J. J. Heyd, E. N. Brothers, K. N. Kudin, 
 V. N. Staroverov, T. A. Keith, R. Kobayashi, J. Normand, 
 K. Raghavachari, A. P. Rendell, J. C. Burant, S. S. Iyengar, 
 J. Tomasi, M. Cossi, J. M. Millam, M. Klene, C. Adamo, R. Cammi, 
 J. W. Ochterski, R. L. Martin, K. Morokuma, O. Farkas, 
 J. B. Foresman, and D. J. Fox, Gaussian, Inc., Wallingford CT, 2016.
 
 ******************************************
 Gaussian 16:  ES64L-G16RevA.03 25-Dec-2016
                24-Aug-2020 
 ******************************************
 %nprocshared=7
 Will use up to    7 processors via shared memory.
 %Mem=14GB
 %Chk=base_9_conf281.chk
 ---------------------------------
 # opt=CalcAll B3LYP/6-31G* scf=qc
 ---------------------------------
 1/10=4,18=20,19=15,26=3,38=1/1,3;
 2/9=110,12=2,17=6,18=5,40=1/2;
 3/5=1,6=6,7=1,11=2,25=1,30=1,71=2,74=-5,140=1/1,2,3;
 4//1;
 5/5=2,8=3,38=5/8;
 8/6=4,10=90,11=11/1;
 11/6=1,8=1,9=11,15=111,16=1/1,2,10;
 10/6=1/2;
 6/7=2,8=2,9=2,10=2,18=1,28=1/1;
 7/10=1,25=1/1,2,3,16;
 1/10=4,18=20,19=15,26=3/3(3);
 2/9=110/2;
 7/8=1,9=1,25=1,44=-1/16;
 99//99;
 2/9=110/2;
 3/5=1,6=6,7=1,11=2,25=1,30=1,71=2,74=-5,140=1/1,2,3;
 4/5=5,16=3,69=1/1;
 5/5=2,8=3,38=5/8;
 8/6=4,10=90,11=11/1;
 11/6=1,8=1,9=11,15=111,16=1/1,2,10;
 10/6=1/2;
 7/10=1,25=1/1,2,3,16;
 1/10=4,18=20,19=15,26=3/3(-8);
 2/9=110/2;
 6/7=2,8=2,9=2,10=2,18=1,19=2,28=1/1;
 7/8=1,9=1,25=1,44=-1/16;
 99//99;
 -------------------
 Title Card Required
 -------------------
 Symbolic Z-matrix:
 Charge =  0 Multiplicity = 1
 P                     1.082    -0.0564    0.0094 
 N1                    1.0483    0.5576    1.4384 
 C                     1.0614   -0.1704    2.7563 
 C                     1.77988  -1.52551   2.8154 
 C                     1.74063   0.70382   3.84794 
 C                    -0.39296  -0.29969   3.28564 
 N                     1.1236    1.2666   -1.0195 
 C                     0.13361   1.59246  -2.04026 
 C                     0.80873   2.65129  -2.89871 
 C                     1.66533   3.40993  -1.91262 
 C                     2.09623   2.3491   -0.91429 
 N                    -0.698    -0.0564    0.0094 
 C                    -1.3698   -1.27093   0.52241 
 C                    -2.7694   -0.88681   0.97104 
 C                    -2.6177    0.55612   1.35835 
 C                    -1.559     1.05691   0.39291 
 N                     2.862    -0.0564    0.0094 
 C                     3.6924   -0.7612    0.97797 
 C                     5.0651   -0.8789    0.32487 
 C                     4.7644   -0.8697   -1.15831 
 C                     3.5367    0.0115   -1.27775 
 H                     2.86362  -1.39981   2.86154 
 H                     1.58806  -2.18857   1.97656 
 H                     1.50915  -2.07069   3.72981 
 H                     2.81645   0.80573   3.69063 
 H                     1.62664   0.24397   4.83995 
 H                     1.30249   1.70649   3.90205 
 H                    -0.99096  -1.03296   2.7554 
 H                    -0.92282   0.66071   3.2409 
 H                    -0.41116  -0.63003   4.33186 
 H                    -0.77957   1.99008  -1.58887 
 H                    -0.13569   0.73327  -2.66557 
 H                     0.09377   3.29874  -3.40934 
 H                     1.4481    2.1857   -3.65894 
 H                     1.05977   4.17619  -1.41478 
 H                     2.51611   3.9039   -2.3911 
 H                     2.14182   2.7991    0.08167 
 H                     3.09389   1.97365  -1.1551 
 H                    -0.8173   -1.67659   1.37634 
 H                    -1.4533   -2.04624  -0.24366 
 H                    -3.1286   -1.50236   1.80173 
 H                    -3.4816   -0.9816    0.14282 
 H                    -2.272     0.64642   2.3933 
 H                    -3.5571    1.11065   1.25889 
 H                    -1.0583    1.8969    0.85417 
 H                    -2.0907    1.38871  -0.50243 
 H                     3.3475   -1.75524   1.2371 
 H                     3.7732   -0.20815   1.92618 
 H                     5.5891   -1.79161   0.62818 
 H                     5.6907   -0.01945   0.5878 
 H                     4.5443   -1.88603  -1.50537 
 H                     5.6076   -0.49347  -1.74503 
 H                     2.9026   -0.29984  -2.11137 
 H                     3.8322    1.04818  -1.46962 
 

 GradGradGradGradGradGradGradGradGradGradGradGradGradGradGradGradGradGrad
 Berny optimization.
 Initialization pass.
                           ----------------------------
                           !    Initial Parameters    !
                           ! (Angstroms and Degrees)  !
 --------------------------                            --------------------------
 ! Name  Definition              Value          Derivative Info.                !
 --------------------------------------------------------------------------------
 ! R1    R(1,2)                  1.5557         calculate D2E/DX2 analytically  !
 ! R2    R(1,7)                  1.6765         calculate D2E/DX2 analytically  !
 ! R3    R(1,12)                 1.78           calculate D2E/DX2 analytically  !
 ! R4    R(1,17)                 1.78           calculate D2E/DX2 analytically  !
 ! R5    R(2,3)                  1.5057         calculate D2E/DX2 analytically  !
 ! R6    R(3,4)                  1.5349         calculate D2E/DX2 analytically  !
 ! R7    R(3,5)                  1.5548         calculate D2E/DX2 analytically  !
 ! R8    R(3,6)                  1.5531         calculate D2E/DX2 analytically  !
 ! R9    R(4,22)                 1.092          calculate D2E/DX2 analytically  !
 ! R10   R(4,23)                 1.0863         calculate D2E/DX2 analytically  !
 ! R11   R(4,24)                 1.0985         calculate D2E/DX2 analytically  !
 ! R12   R(5,25)                 1.092          calculate D2E/DX2 analytically  !
 ! R13   R(5,26)                 1.0993         calculate D2E/DX2 analytically  !
 ! R14   R(5,27)                 1.0956         calculate D2E/DX2 analytically  !
 ! R15   R(6,28)                 1.0846         calculate D2E/DX2 analytically  !
 ! R16   R(6,29)                 1.0978         calculate D2E/DX2 analytically  !
 ! R17   R(6,30)                 1.0973         calculate D2E/DX2 analytically  !
 ! R18   R(7,8)                  1.4588         calculate D2E/DX2 analytically  !
 ! R19   R(7,11)                 1.4591         calculate D2E/DX2 analytically  !
 ! R20   R(8,9)                  1.5211         calculate D2E/DX2 analytically  !
 ! R21   R(8,31)                 1.0935         calculate D2E/DX2 analytically  !
 ! R22   R(8,32)                 1.0962         calculate D2E/DX2 analytically  !
 ! R23   R(9,10)                 1.5105         calculate D2E/DX2 analytically  !
 ! R24   R(9,33)                 1.0914         calculate D2E/DX2 analytically  !
 ! R25   R(9,34)                 1.097          calculate D2E/DX2 analytically  !
 ! R26   R(10,11)                1.5191         calculate D2E/DX2 analytically  !
 ! R27   R(10,35)                1.0962         calculate D2E/DX2 analytically  !
 ! R28   R(10,36)                1.094          calculate D2E/DX2 analytically  !
 ! R29   R(11,37)                1.0939         calculate D2E/DX2 analytically  !
 ! R30   R(11,38)                1.0928         calculate D2E/DX2 analytically  !
 ! R31   R(12,13)                1.4797         calculate D2E/DX2 analytically  !
 ! R32   R(12,16)                1.4587         calculate D2E/DX2 analytically  !
 ! R33   R(13,14)                1.5191         calculate D2E/DX2 analytically  !
 ! R34   R(13,39)                1.095          calculate D2E/DX2 analytically  !
 ! R35   R(13,40)                1.0931         calculate D2E/DX2 analytically  !
 ! R36   R(14,15)                1.5017         calculate D2E/DX2 analytically  !
 ! R37   R(14,41)                1.0945         calculate D2E/DX2 analytically  !
 ! R38   R(14,42)                1.0964         calculate D2E/DX2 analytically  !
 ! R39   R(15,16)                1.5178         calculate D2E/DX2 analytically  !
 ! R40   R(15,43)                1.0949         calculate D2E/DX2 analytically  !
 ! R41   R(15,44)                1.0954         calculate D2E/DX2 analytically  !
 ! R42   R(16,45)                1.0812         calculate D2E/DX2 analytically  !
 ! R43   R(16,46)                1.0929         calculate D2E/DX2 analytically  !
 ! R44   R(17,18)                1.4575         calculate D2E/DX2 analytically  !
 ! R45   R(17,21)                1.4548         calculate D2E/DX2 analytically  !
 ! R46   R(18,19)                1.5247         calculate D2E/DX2 analytically  !
 ! R47   R(18,47)                1.0836         calculate D2E/DX2 analytically  !
 ! R48   R(18,48)                1.1007         calculate D2E/DX2 analytically  !
 ! R49   R(19,20)                1.5134         calculate D2E/DX2 analytically  !
 ! R50   R(19,49)                1.0953         calculate D2E/DX2 analytically  !
 ! R51   R(19,50)                1.0951         calculate D2E/DX2 analytically  !
 ! R52   R(20,21)                1.5159         calculate D2E/DX2 analytically  !
 ! R53   R(20,51)                1.0963         calculate D2E/DX2 analytically  !
 ! R54   R(20,52)                1.094          calculate D2E/DX2 analytically  !
 ! R55   R(21,53)                1.0927         calculate D2E/DX2 analytically  !
 ! R56   R(21,54)                1.0949         calculate D2E/DX2 analytically  !
 ! A1    A(2,1,7)              104.6442         calculate D2E/DX2 analytically  !
 ! A2    A(2,1,12)              88.7587         calculate D2E/DX2 analytically  !
 ! A3    A(2,1,17)              91.2413         calculate D2E/DX2 analytically  !
 ! A4    A(7,1,12)              91.4218         calculate D2E/DX2 analytically  !
 ! A5    A(7,1,17)              88.5782         calculate D2E/DX2 analytically  !
 ! A6    A(1,2,3)              127.8064         calculate D2E/DX2 analytically  !
 ! A7    A(2,3,4)              117.6867         calculate D2E/DX2 analytically  !
 ! A8    A(2,3,5)              110.2734         calculate D2E/DX2 analytically  !
 ! A9    A(2,3,6)              109.295          calculate D2E/DX2 analytically  !
 ! A10   A(4,3,5)              105.36           calculate D2E/DX2 analytically  !
 ! A11   A(4,3,6)              110.5921         calculate D2E/DX2 analytically  !
 ! A12   A(5,3,6)              102.5095         calculate D2E/DX2 analytically  !
 ! A13   A(3,4,22)             111.3801         calculate D2E/DX2 analytically  !
 ! A14   A(3,4,23)             115.2443         calculate D2E/DX2 analytically  !
 ! A15   A(3,4,24)             110.784          calculate D2E/DX2 analytically  !
 ! A16   A(22,4,23)            106.1488         calculate D2E/DX2 analytically  !
 ! A17   A(22,4,24)            105.4594         calculate D2E/DX2 analytically  !
 ! A18   A(23,4,24)            107.238          calculate D2E/DX2 analytically  !
 ! A19   A(3,5,25)             112.4401         calculate D2E/DX2 analytically  !
 ! A20   A(3,5,26)             110.6756         calculate D2E/DX2 analytically  !
 ! A21   A(3,5,27)             111.998          calculate D2E/DX2 analytically  !
 ! A22   A(25,5,26)            105.7343         calculate D2E/DX2 analytically  !
 ! A23   A(25,5,27)            108.4028         calculate D2E/DX2 analytically  !
 ! A24   A(26,5,27)            107.2653         calculate D2E/DX2 analytically  !
 ! A25   A(3,6,28)             113.9505         calculate D2E/DX2 analytically  !
 ! A26   A(3,6,29)             111.4238         calculate D2E/DX2 analytically  !
 ! A27   A(3,6,30)             111.4423         calculate D2E/DX2 analytically  !
 ! A28   A(28,6,29)            107.783          calculate D2E/DX2 analytically  !
 ! A29   A(28,6,30)            104.6813         calculate D2E/DX2 analytically  !
 ! A30   A(29,6,30)            107.1114         calculate D2E/DX2 analytically  !
 ! A31   A(1,7,8)              126.0755         calculate D2E/DX2 analytically  !
 ! A32   A(1,7,11)             123.9009         calculate D2E/DX2 analytically  !
 ! A33   A(8,7,11)             109.7006         calculate D2E/DX2 analytically  !
 ! A34   A(7,8,9)              104.4286         calculate D2E/DX2 analytically  !
 ! A35   A(7,8,31)             111.0447         calculate D2E/DX2 analytically  !
 ! A36   A(7,8,32)             113.0018         calculate D2E/DX2 analytically  !
 ! A37   A(9,8,31)             110.5172         calculate D2E/DX2 analytically  !
 ! A38   A(9,8,32)             109.4314         calculate D2E/DX2 analytically  !
 ! A39   A(31,8,32)            108.3793         calculate D2E/DX2 analytically  !
 ! A40   A(8,9,10)             103.4662         calculate D2E/DX2 analytically  !
 ! A41   A(8,9,33)             112.7207         calculate D2E/DX2 analytically  !
 ! A42   A(8,9,34)             110.7524         calculate D2E/DX2 analytically  !
 ! A43   A(10,9,33)            112.2711         calculate D2E/DX2 analytically  !
 ! A44   A(10,9,34)            109.5745         calculate D2E/DX2 analytically  !
 ! A45   A(33,9,34)            108.0196         calculate D2E/DX2 analytically  !
 ! A46   A(9,10,11)            103.8364         calculate D2E/DX2 analytically  !
 ! A47   A(9,10,35)            109.5282         calculate D2E/DX2 analytically  !
 ! A48   A(9,10,36)            112.4747         calculate D2E/DX2 analytically  !
 ! A49   A(11,10,35)           110.2653         calculate D2E/DX2 analytically  !
 ! A50   A(11,10,36)           112.4675         calculate D2E/DX2 analytically  !
 ! A51   A(35,10,36)           108.2167         calculate D2E/DX2 analytically  !
 ! A52   A(7,11,10)            106.3569         calculate D2E/DX2 analytically  !
 ! A53   A(7,11,37)            113.4939         calculate D2E/DX2 analytically  !
 ! A54   A(7,11,38)            109.7416         calculate D2E/DX2 analytically  !
 ! A55   A(10,11,37)           108.8388         calculate D2E/DX2 analytically  !
 ! A56   A(10,11,38)           110.7354         calculate D2E/DX2 analytically  !
 ! A57   A(37,11,38)           107.6933         calculate D2E/DX2 analytically  !
 ! A58   A(1,12,13)            117.0009         calculate D2E/DX2 analytically  !
 ! A59   A(1,12,16)            126.1743         calculate D2E/DX2 analytically  !
 ! A60   A(13,12,16)           105.5041         calculate D2E/DX2 analytically  !
 ! A61   A(12,13,14)           108.2481         calculate D2E/DX2 analytically  !
 ! A62   A(12,13,39)           110.2041         calculate D2E/DX2 analytically  !
 ! A63   A(12,13,40)           111.9539         calculate D2E/DX2 analytically  !
 ! A64   A(14,13,39)           109.1621         calculate D2E/DX2 analytically  !
 ! A65   A(14,13,40)           108.4169         calculate D2E/DX2 analytically  !
 ! A66   A(39,13,40)           108.8024         calculate D2E/DX2 analytically  !
 ! A67   A(13,14,15)           103.0653         calculate D2E/DX2 analytically  !
 ! A68   A(13,14,41)           112.5999         calculate D2E/DX2 analytically  !
 ! A69   A(13,14,42)           110.7026         calculate D2E/DX2 analytically  !
 ! A70   A(15,14,41)           112.1971         calculate D2E/DX2 analytically  !
 ! A71   A(15,14,42)           110.0911         calculate D2E/DX2 analytically  !
 ! A72   A(41,14,42)           108.1498         calculate D2E/DX2 analytically  !
 ! A73   A(14,15,16)           102.9113         calculate D2E/DX2 analytically  !
 ! A74   A(14,15,43)           110.7897         calculate D2E/DX2 analytically  !
 ! A75   A(14,15,44)           112.1097         calculate D2E/DX2 analytically  !
 ! A76   A(16,15,43)           110.7205         calculate D2E/DX2 analytically  !
 ! A77   A(16,15,44)           111.9259         calculate D2E/DX2 analytically  !
 ! A78   A(43,15,44)           108.352          calculate D2E/DX2 analytically  !
 ! A79   A(12,16,15)           109.0942         calculate D2E/DX2 analytically  !
 ! A80   A(12,16,45)           115.579          calculate D2E/DX2 analytically  !
 ! A81   A(12,16,46)           107.6667         calculate D2E/DX2 analytically  !
 ! A82   A(15,16,45)           107.938          calculate D2E/DX2 analytically  !
 ! A83   A(15,16,46)           106.3748         calculate D2E/DX2 analytically  !
 ! A84   A(45,16,46)           109.8114         calculate D2E/DX2 analytically  !
 ! A85   A(1,17,18)            124.7311         calculate D2E/DX2 analytically  !
 ! A86   A(1,17,21)            117.63           calculate D2E/DX2 analytically  !
 ! A87   A(18,17,21)           110.2597         calculate D2E/DX2 analytically  !
 ! A88   A(17,18,19)           105.4033         calculate D2E/DX2 analytically  !
 ! A89   A(17,18,47)           114.9076         calculate D2E/DX2 analytically  !
 ! A90   A(17,18,48)           111.7974         calculate D2E/DX2 analytically  !
 ! A91   A(19,18,47)           108.5526         calculate D2E/DX2 analytically  !
 ! A92   A(19,18,48)           109.981          calculate D2E/DX2 analytically  !
 ! A93   A(47,18,48)           106.1578         calculate D2E/DX2 analytically  !
 ! A94   A(18,19,20)           103.9127         calculate D2E/DX2 analytically  !
 ! A95   A(18,19,49)           112.1131         calculate D2E/DX2 analytically  !
 ! A96   A(18,19,50)           110.5427         calculate D2E/DX2 analytically  !
 ! A97   A(20,19,49)           111.8098         calculate D2E/DX2 analytically  !
 ! A98   A(20,19,50)           110.1241         calculate D2E/DX2 analytically  !
 ! A99   A(49,19,50)           108.3134         calculate D2E/DX2 analytically  !
 ! A100  A(19,20,21)           103.985          calculate D2E/DX2 analytically  !
 ! A101  A(19,20,51)           110.1524         calculate D2E/DX2 analytically  !
 ! A102  A(19,20,52)           111.9972         calculate D2E/DX2 analytically  !
 ! A103  A(21,20,51)           110.5707         calculate D2E/DX2 analytically  !
 ! A104  A(21,20,52)           112.4608         calculate D2E/DX2 analytically  !
 ! A105  A(51,20,52)           107.6854         calculate D2E/DX2 analytically  !
 ! A106  A(17,21,20)           106.1854         calculate D2E/DX2 analytically  !
 ! A107  A(17,21,53)           113.1132         calculate D2E/DX2 analytically  !
 ! A108  A(17,21,54)           108.9285         calculate D2E/DX2 analytically  !
 ! A109  A(20,21,53)           111.3745         calculate D2E/DX2 analytically  !
 ! A110  A(20,21,54)           110.2193         calculate D2E/DX2 analytically  !
 ! A111  A(53,21,54)           107.0201         calculate D2E/DX2 analytically  !
 ! A112  L(12,1,17,2,-1)       180.0            calculate D2E/DX2 analytically  !
 ! A113  L(12,1,17,2,-2)       180.0            calculate D2E/DX2 analytically  !
 ! D1    D(7,1,2,3)           -177.26           calculate D2E/DX2 analytically  !
 ! D2    D(12,1,2,3)            91.5945         calculate D2E/DX2 analytically  !
 ! D3    D(17,1,2,3)           -88.4055         calculate D2E/DX2 analytically  !
 ! D4    D(2,1,7,8)           -120.0001         calculate D2E/DX2 analytically  !
 ! D5    D(2,1,7,11)            52.7906         calculate D2E/DX2 analytically  !
 ! D6    D(12,1,7,8)           -30.9117         calculate D2E/DX2 analytically  !
 ! D7    D(12,1,7,11)          141.8789         calculate D2E/DX2 analytically  !
 ! D8    D(17,1,7,8)           149.0883         calculate D2E/DX2 analytically  !
 ! D9    D(17,1,7,11)          -38.1211         calculate D2E/DX2 analytically  !
 ! D10   D(2,1,12,13)          -90.3529         calculate D2E/DX2 analytically  !
 ! D11   D(2,1,12,16)           47.7405         calculate D2E/DX2 analytically  !
 ! D12   D(7,1,12,13)          165.0266         calculate D2E/DX2 analytically  !
 ! D13   D(7,1,12,16)          -56.88           calculate D2E/DX2 analytically  !
 ! D14   D(13,12,17,18)        -31.0588         calculate D2E/DX2 analytically  !
 ! D15   D(13,12,17,21)        115.9186         calculate D2E/DX2 analytically  !
 ! D16   D(16,12,17,18)        107.0346         calculate D2E/DX2 analytically  !
 ! D17   D(16,12,17,21)       -105.988          calculate D2E/DX2 analytically  !
 ! D18   D(2,1,17,18)           59.2941         calculate D2E/DX2 analytically  !
 ! D19   D(2,1,17,21)         -153.7285         calculate D2E/DX2 analytically  !
 ! D20   D(7,1,17,18)          163.9146         calculate D2E/DX2 analytically  !
 ! D21   D(7,1,17,21)          -49.108          calculate D2E/DX2 analytically  !
 ! D22   D(1,2,3,4)             29.6471         calculate D2E/DX2 analytically  !
 ! D23   D(1,2,3,5)            150.4917         calculate D2E/DX2 analytically  !
 ! D24   D(1,2,3,6)            -97.5478         calculate D2E/DX2 analytically  !
 ! D25   D(2,3,4,22)            77.432          calculate D2E/DX2 analytically  !
 ! D26   D(2,3,4,23)           -43.5533         calculate D2E/DX2 analytically  !
 ! D27   D(2,3,4,24)          -165.5178         calculate D2E/DX2 analytically  !
 ! D28   D(5,3,4,22)           -45.9306         calculate D2E/DX2 analytically  !
 ! D29   D(5,3,4,23)          -166.9159         calculate D2E/DX2 analytically  !
 ! D30   D(5,3,4,24)            71.1195         calculate D2E/DX2 analytically  !
 ! D31   D(6,3,4,22)          -156.0004         calculate D2E/DX2 analytically  !
 ! D32   D(6,3,4,23)            83.0143         calculate D2E/DX2 analytically  !
 ! D33   D(6,3,4,24)           -38.9502         calculate D2E/DX2 analytically  !
 ! D34   D(2,3,5,25)           -70.1148         calculate D2E/DX2 analytically  !
 ! D35   D(2,3,5,26)           171.8869         calculate D2E/DX2 analytically  !
 ! D36   D(2,3,5,27)            52.2439         calculate D2E/DX2 analytically  !
 ! D37   D(4,3,5,25)            57.8471         calculate D2E/DX2 analytically  !
 ! D38   D(4,3,5,26)           -60.1511         calculate D2E/DX2 analytically  !
 ! D39   D(4,3,5,27)          -179.7941         calculate D2E/DX2 analytically  !
 ! D40   D(6,3,5,25)           173.6042         calculate D2E/DX2 analytically  !
 ! D41   D(6,3,5,26)            55.6059         calculate D2E/DX2 analytically  !
 ! D42   D(6,3,5,27)           -64.0371         calculate D2E/DX2 analytically  !
 ! D43   D(2,3,6,28)            73.8476         calculate D2E/DX2 analytically  !
 ! D44   D(2,3,6,29)           -48.3799         calculate D2E/DX2 analytically  !
 ! D45   D(2,3,6,30)          -167.9623         calculate D2E/DX2 analytically  !
 ! D46   D(4,3,6,28)           -57.2562         calculate D2E/DX2 analytically  !
 ! D47   D(4,3,6,29)          -179.4837         calculate D2E/DX2 analytically  !
 ! D48   D(4,3,6,30)            60.9338         calculate D2E/DX2 analytically  !
 ! D49   D(5,3,6,28)          -169.1695         calculate D2E/DX2 analytically  !
 ! D50   D(5,3,6,29)            68.603          calculate D2E/DX2 analytically  !
 ! D51   D(5,3,6,30)           -50.9795         calculate D2E/DX2 analytically  !
 ! D52   D(1,7,8,9)           -166.1341         calculate D2E/DX2 analytically  !
 ! D53   D(1,7,8,31)            74.738          calculate D2E/DX2 analytically  !
 ! D54   D(1,7,8,32)           -47.2914         calculate D2E/DX2 analytically  !
 ! D55   D(11,7,8,9)            20.218          calculate D2E/DX2 analytically  !
 ! D56   D(11,7,8,31)          -98.9099         calculate D2E/DX2 analytically  !
 ! D57   D(11,7,8,32)          139.0606         calculate D2E/DX2 analytically  !
 ! D58   D(1,7,11,10)         -172.8865         calculate D2E/DX2 analytically  !
 ! D59   D(1,7,11,37)          -53.248          calculate D2E/DX2 analytically  !
 ! D60   D(1,7,11,38)           67.2882         calculate D2E/DX2 analytically  !
 ! D61   D(8,7,11,10)            0.9286         calculate D2E/DX2 analytically  !
 ! D62   D(8,7,11,37)          120.5671         calculate D2E/DX2 analytically  !
 ! D63   D(8,7,11,38)         -118.8966         calculate D2E/DX2 analytically  !
 ! D64   D(7,8,9,10)           -33.2708         calculate D2E/DX2 analytically  !
 ! D65   D(7,8,9,33)          -154.7881         calculate D2E/DX2 analytically  !
 ! D66   D(7,8,9,34)            84.0607         calculate D2E/DX2 analytically  !
 ! D67   D(31,8,9,10)           86.2137         calculate D2E/DX2 analytically  !
 ! D68   D(31,8,9,33)          -35.3036         calculate D2E/DX2 analytically  !
 ! D69   D(31,8,9,34)         -156.4548         calculate D2E/DX2 analytically  !
 ! D70   D(32,8,9,10)         -154.5107         calculate D2E/DX2 analytically  !
 ! D71   D(32,8,9,33)           83.9721         calculate D2E/DX2 analytically  !
 ! D72   D(32,8,9,34)          -37.1792         calculate D2E/DX2 analytically  !
 ! D73   D(8,9,10,11)           33.5727         calculate D2E/DX2 analytically  !
 ! D74   D(8,9,10,35)          -84.1922         calculate D2E/DX2 analytically  !
 ! D75   D(8,9,10,36)          155.4312         calculate D2E/DX2 analytically  !
 ! D76   D(33,9,10,11)         155.3919         calculate D2E/DX2 analytically  !
 ! D77   D(33,9,10,35)          37.627          calculate D2E/DX2 analytically  !
 ! D78   D(33,9,10,36)         -82.7497         calculate D2E/DX2 analytically  !
 ! D79   D(34,9,10,11)         -84.5811         calculate D2E/DX2 analytically  !
 ! D80   D(34,9,10,35)         157.654          calculate D2E/DX2 analytically  !
 ! D81   D(34,9,10,36)          37.2773         calculate D2E/DX2 analytically  !
 ! D82   D(9,10,11,7)          -21.7983         calculate D2E/DX2 analytically  !
 ! D83   D(9,10,11,37)        -144.4221         calculate D2E/DX2 analytically  !
 ! D84   D(9,10,11,38)          97.3794         calculate D2E/DX2 analytically  !
 ! D85   D(35,10,11,7)          95.4544         calculate D2E/DX2 analytically  !
 ! D86   D(35,10,11,37)        -27.1694         calculate D2E/DX2 analytically  !
 ! D87   D(35,10,11,38)       -145.3679         calculate D2E/DX2 analytically  !
 ! D88   D(36,10,11,7)        -143.6615         calculate D2E/DX2 analytically  !
 ! D89   D(36,10,11,37)         93.7147         calculate D2E/DX2 analytically  !
 ! D90   D(36,10,11,38)        -24.4838         calculate D2E/DX2 analytically  !
 ! D91   D(1,12,13,14)         157.0421         calculate D2E/DX2 analytically  !
 ! D92   D(1,12,13,39)          37.7263         calculate D2E/DX2 analytically  !
 ! D93   D(1,12,13,40)         -83.5141         calculate D2E/DX2 analytically  !
 ! D94   D(16,12,13,14)         11.0647         calculate D2E/DX2 analytically  !
 ! D95   D(16,12,13,39)       -108.2511         calculate D2E/DX2 analytically  !
 ! D96   D(16,12,13,40)        130.5085         calculate D2E/DX2 analytically  !
 ! D97   D(1,12,16,15)        -131.3984         calculate D2E/DX2 analytically  !
 ! D98   D(1,12,16,45)          -9.5933         calculate D2E/DX2 analytically  !
 ! D99   D(1,12,16,46)         113.555          calculate D2E/DX2 analytically  !
 ! D100  D(13,12,16,15)         10.4614         calculate D2E/DX2 analytically  !
 ! D101  D(13,12,16,45)        132.2665         calculate D2E/DX2 analytically  !
 ! D102  D(13,12,16,46)       -104.5852         calculate D2E/DX2 analytically  !
 ! D103  D(12,13,14,15)        -28.1234         calculate D2E/DX2 analytically  !
 ! D104  D(12,13,14,41)       -149.2341         calculate D2E/DX2 analytically  !
 ! D105  D(12,13,14,42)         89.5666         calculate D2E/DX2 analytically  !
 ! D106  D(39,13,14,15)         91.8473         calculate D2E/DX2 analytically  !
 ! D107  D(39,13,14,41)        -29.2633         calculate D2E/DX2 analytically  !
 ! D108  D(39,13,14,42)       -150.4626         calculate D2E/DX2 analytically  !
 ! D109  D(40,13,14,15)       -149.7712         calculate D2E/DX2 analytically  !
 ! D110  D(40,13,14,41)         89.1182         calculate D2E/DX2 analytically  !
 ! D111  D(40,13,14,42)        -32.0812         calculate D2E/DX2 analytically  !
 ! D112  D(13,14,15,16)         32.8584         calculate D2E/DX2 analytically  !
 ! D113  D(13,14,15,43)        -85.5205         calculate D2E/DX2 analytically  !
 ! D114  D(13,14,15,44)        153.298          calculate D2E/DX2 analytically  !
 ! D115  D(41,14,15,16)        154.2426         calculate D2E/DX2 analytically  !
 ! D116  D(41,14,15,43)         35.8638         calculate D2E/DX2 analytically  !
 ! D117  D(41,14,15,44)        -85.3178         calculate D2E/DX2 analytically  !
 ! D118  D(42,14,15,16)        -85.2611         calculate D2E/DX2 analytically  !
 ! D119  D(42,14,15,43)        156.36           calculate D2E/DX2 analytically  !
 ! D120  D(42,14,15,44)         35.1785         calculate D2E/DX2 analytically  !
 ! D121  D(14,15,16,12)        -27.8207         calculate D2E/DX2 analytically  !
 ! D122  D(14,15,16,45)       -154.141          calculate D2E/DX2 analytically  !
 ! D123  D(14,15,16,46)         88.0565         calculate D2E/DX2 analytically  !
 ! D124  D(43,15,16,12)         90.6067         calculate D2E/DX2 analytically  !
 ! D125  D(43,15,16,45)        -35.7136         calculate D2E/DX2 analytically  !
 ! D126  D(43,15,16,46)       -153.5161         calculate D2E/DX2 analytically  !
 ! D127  D(44,15,16,12)       -148.3864         calculate D2E/DX2 analytically  !
 ! D128  D(44,15,16,45)         85.2933         calculate D2E/DX2 analytically  !
 ! D129  D(44,15,16,46)        -32.5093         calculate D2E/DX2 analytically  !
 ! D130  D(1,17,18,19)         160.9637         calculate D2E/DX2 analytically  !
 ! D131  D(1,17,18,47)          41.5044         calculate D2E/DX2 analytically  !
 ! D132  D(1,17,18,48)         -79.5698         calculate D2E/DX2 analytically  !
 ! D133  D(21,17,18,19)         11.9386         calculate D2E/DX2 analytically  !
 ! D134  D(21,17,18,47)       -107.5207         calculate D2E/DX2 analytically  !
 ! D135  D(21,17,18,48)        131.4051         calculate D2E/DX2 analytically  !
 ! D136  D(1,17,21,20)        -143.1212         calculate D2E/DX2 analytically  !
 ! D137  D(1,17,21,53)         -20.6751         calculate D2E/DX2 analytically  !
 ! D138  D(1,17,21,54)          98.1941         calculate D2E/DX2 analytically  !
 ! D139  D(18,17,21,20)          8.3623         calculate D2E/DX2 analytically  !
 ! D140  D(18,17,21,53)        130.8084         calculate D2E/DX2 analytically  !
 ! D141  D(18,17,21,54)       -110.3223         calculate D2E/DX2 analytically  !
 ! D142  D(17,18,19,20)        -27.3401         calculate D2E/DX2 analytically  !
 ! D143  D(17,18,19,49)       -148.257          calculate D2E/DX2 analytically  !
 ! D144  D(17,18,19,50)         90.7818         calculate D2E/DX2 analytically  !
 ! D145  D(47,18,19,20)         96.2508         calculate D2E/DX2 analytically  !
 ! D146  D(47,18,19,49)        -24.6662         calculate D2E/DX2 analytically  !
 ! D147  D(47,18,19,50)       -145.6274         calculate D2E/DX2 analytically  !
 ! D148  D(48,18,19,20)       -148.0041         calculate D2E/DX2 analytically  !
 ! D149  D(48,18,19,49)         91.0789         calculate D2E/DX2 analytically  !
 ! D150  D(48,18,19,50)        -29.8823         calculate D2E/DX2 analytically  !
 ! D151  D(18,19,20,21)         32.0464         calculate D2E/DX2 analytically  !
 ! D152  D(18,19,20,51)        -86.4502         calculate D2E/DX2 analytically  !
 ! D153  D(18,19,20,52)        153.7309         calculate D2E/DX2 analytically  !
 ! D154  D(49,19,20,21)        153.1668         calculate D2E/DX2 analytically  !
 ! D155  D(49,19,20,51)         34.6702         calculate D2E/DX2 analytically  !
 ! D156  D(49,19,20,52)        -85.1487         calculate D2E/DX2 analytically  !
 ! D157  D(50,19,20,21)        -86.3639         calculate D2E/DX2 analytically  !
 ! D158  D(50,19,20,51)        155.1394         calculate D2E/DX2 analytically  !
 ! D159  D(50,19,20,52)         35.3206         calculate D2E/DX2 analytically  !
 ! D160  D(19,20,21,17)        -25.291          calculate D2E/DX2 analytically  !
 ! D161  D(19,20,21,53)       -148.8325         calculate D2E/DX2 analytically  !
 ! D162  D(19,20,21,54)         92.5397         calculate D2E/DX2 analytically  !
 ! D163  D(51,20,21,17)         92.9179         calculate D2E/DX2 analytically  !
 ! D164  D(51,20,21,53)        -30.6236         calculate D2E/DX2 analytically  !
 ! D165  D(51,20,21,54)       -149.2514         calculate D2E/DX2 analytically  !
 ! D166  D(52,20,21,17)       -146.6667         calculate D2E/DX2 analytically  !
 ! D167  D(52,20,21,53)         89.7918         calculate D2E/DX2 analytically  !
 ! D168  D(52,20,21,54)        -28.836          calculate D2E/DX2 analytically  !
 --------------------------------------------------------------------------------
 Trust Radius=3.00D-01 FncErr=1.00D-07 GrdErr=1.00D-06 EigMax=2.50D+02 EigMin=1.00D-04
 Number of steps in this run=    324 maximum allowed number of steps=    324.
 GradGradGradGradGradGradGradGradGradGradGradGradGradGradGradGradGradGrad

 Stoichiometry    C16H33N4P
 Framework group  C1[X(C16H33N4P)]
 Deg. of freedom   156
 Full point group                 C1      NOp   1
 Largest Abelian subgroup         C1      NOp   1
 Largest concise Abelian subgroup C1      NOp   1
                         Standard orientation:                         
 ---------------------------------------------------------------------
 Center     Atomic      Atomic             Coordinates (Angstroms)
 Number     Number       Type             X           Y           Z
 ---------------------------------------------------------------------
      1         15           0        0.113430    0.080655   -0.512335
      2          7           0       -0.502300   -0.631204    0.726336
      3          6           0       -1.179317   -1.975129    0.776632
      4          6           0       -0.728589   -3.039022   -0.233816
      5          6           0       -0.982317   -2.625596    2.174979
      6          6           0       -2.718363   -1.777204    0.711491
      7          7           0        0.773979    1.495937    0.097047
      8          6           0        0.407979    2.852831   -0.294231
      9          6           0        1.518090    3.723684    0.274199
     10          6           0        1.906587    3.011264    1.548248
     11          6           0        1.706298    1.541973    1.218451
     12          7           0       -1.454572    0.877690   -0.785292
     13          6           0       -2.420923    0.177327   -1.660069
     14          6           0       -3.815924    0.674515   -1.321730
     15          6           0       -3.695084    1.068030    0.122435
     16          6           0       -2.261786    1.557410    0.221806
     17          7           0        1.681432   -0.716379   -0.239379
     18          6           0        1.887464   -2.159167   -0.220687
     19          6           0        3.383157   -2.357545   -0.440344
     20          6           0        3.800497   -1.134911   -1.228583
     21          6           0        2.874689   -0.043394   -0.729088
     22          1           0        0.219269   -3.493149    0.062422
     23          1           0       -0.588173   -2.682512   -1.250320
     24          1           0       -1.449407   -3.866861   -0.275844
     25          1           0        0.049279   -2.939858    2.346934
     26          1           0       -1.590939   -3.536278    2.268669
     27          1           0       -1.278410   -1.951716    2.986431
     28          1           0       -3.085513   -1.500421   -0.270871
     29          1           0       -3.054690   -1.011862    1.423010
     30          1           0       -3.252683   -2.703564    0.957237
     31          1           0       -0.558258    3.137161    0.131557
     32          1           0        0.359637    2.986912   -1.381166
     33          1           0        1.196872    4.750741    0.456067
     34          1           0        2.377191    3.752459   -0.407442
     35          1           0        1.232176    3.314083    2.357675
     36          1           0        2.932304    3.234574    1.856165
     37          1           0        1.340532    1.026284    2.111084
     38          1           0        2.652778    1.077454    0.930915
     39          1           0       -2.372818   -0.902990   -1.487984
     40          1           0       -2.231351    0.374284   -2.718470
     41          1           0       -4.584276   -0.088864   -1.479401
     42          1           0       -4.073772    1.549414   -1.930193
     43          1           0       -3.855544    0.203938    0.775414
     44          1           0       -4.413480    1.847354    0.398895
     45          1           0       -1.936457    1.429625    1.244976
     46          1           0       -2.281000    2.620557   -0.030736
     47          1           0        1.350904   -2.706748   -0.986506
     48          1           0        1.586435   -2.602591    0.740693
     49          1           0        3.601025   -3.284509   -0.981531
     50          1           0        3.911822   -2.386368    0.518220
     51          1           0        3.649726   -1.307140   -2.300696
     52          1           0        4.855777   -0.889888   -1.076520
     53          1           0        2.663343    0.688774   -1.512160
     54          1           0        3.341721    0.499179    0.099366
 ---------------------------------------------------------------------
 Rotational constants (GHZ):           0.3562496           0.2844009           0.1942916
 Standard basis: 6-31G(d) (6D, 7F)
 There are   385 symmetry adapted cartesian basis functions of A   symmetry.
 There are   385 symmetry adapted basis functions of A   symmetry.
   385 basis functions,   744 primitive gaussians,   385 cartesian basis functions
    86 alpha electrons       86 beta electrons
       nuclear repulsion energy      2212.4959849815 Hartrees.
 NAtoms=   54 NActive=   54 NUniq=   54 SFac= 1.00D+00 NAtFMM=   60 NAOKFM=F Big=F
 Integral buffers will be    131072 words long.
 Raffenetti 2 integral format.
 Two-electron integral symmetry is turned on.
 One-electron integrals computed using PRISM.
 NBasis=   385 RedAO= T EigKep=  2.09D-03  NBF=   385
 NBsUse=   385 1.00D-06 EigRej= -1.00D+00 NBFU=   385
 ExpMin= 9.98D-02 ExpMax= 1.94D+04 ExpMxC= 2.91D+03 IAcc=3 IRadAn=         5 AccDes= 0.00D+00
 Harris functional with IExCor=  402 and IRadAn=       5 diagonalized for initial guess.
 HarFok:  IExCor=  402 AccDes= 0.00D+00 IRadAn=         5 IDoV= 1 UseB2=F ITyADJ=14
 ICtDFT=  3500011 ScaDFX=  1.000000  1.000000  1.000000  1.000000
 FoFCou: FMM=F IPFlag=           0 FMFlag=      100000 FMFlg1=           0
         NFxFlg=           0 DoJE=T BraDBF=F KetDBF=T FulRan=T
         wScrn=  0.000000 ICntrl=       500 IOpCl=  0 I1Cent=   200000004 NGrid=           0
         NMat0=    1 NMatS0=      1 NMatT0=    0 NMatD0=    1 NMtDS0=    0 NMtDT0=    0
 Petite list used in FoFCou.
 Gradient too large for Newton-Raphson -- use scaled steepest descent instead.
 Alpha Gap=    -0.221 HL deriv= 7.95D-03 Rot set to   1.13D+00
     Minimum is close to point  2 DX=  2.85D-02 DF= -5.90D-03 DXR=  8.66D-02 DFR=  7.56D-03 which will be used.
 Gradient too large for Newton-Raphson -- use scaled steepest descent instead.
     Minimum is close to point  3 DX=  1.20D-02 DF= -5.06D-05 DXR=  2.34D-02 DFR=  5.49D-04 which will be used.
 Gradient too large for Newton-Raphson -- use scaled steepest descent instead.
     Minimum is close to point  2 DX=  6.53D-03 DF= -3.80D-06 DXR=  1.61D-02 DFR=  2.58D-04 which will be used.
 Gradient too large for Newton-Raphson -- use scaled steepest descent instead.
     Accept linear search using points  1 and  2.
 Gradient too large for Newton-Raphson -- use scaled steepest descent instead.
     Accept linear search using points  3 and  4.
 Gradient too large for Newton-Raphson -- use scaled steepest descent instead.
     Accept linear search using points  1 and  2.
 Gradient too large for Newton-Raphson -- use scaled steepest descent instead.
     Minimum is close to point  3 DX=  3.62D-02 DF= -2.91D-07 DXR=  2.09D-02 DFR=  4.63D-04 which will be used.
 Gradient too large for Newton-Raphson -- use scaled steepest descent instead.
 Restarting incremental Fock formation.
     Minimum is close to point  3 DX= -5.17D-03 DF= -5.35D-08 DXR=  1.75D-02 DFR=  3.08D-04 which will be used.
 LinEq1:  Iter=  0 NonCon=     1 RMS=4.75D-04 Max=7.60D-02 NDo=     1
 AX will form     1 AO Fock derivatives at one time.
 LinEq1:  Iter=  1 NonCon=     1 RMS=5.02D-04 Max=5.66D-02 NDo=     1
 LinEq1:  Iter=  2 NonCon=     1 RMS=1.30D-04 Max=1.10D-02 NDo=     1
 LinEq1:  Iter=  3 NonCon=     1 RMS=1.21D-04 Max=7.88D-03 NDo=     1
 LinEq1:  Iter=  4 NonCon=     1 RMS=8.72D-05 Max=6.76D-03 NDo=     1
 LinEq1:  Iter=  5 NonCon=     1 RMS=3.95D-05 Max=1.15D-03 NDo=     1
 LinEq1:  Iter=  6 NonCon=     1 RMS=3.78D-05 Max=3.57D-03 NDo=     1
 LinEq1:  Iter=  7 NonCon=     1 RMS=2.61D-05 Max=8.03D-04 NDo=     1
 LinEq1:  Iter=  8 NonCon=     1 RMS=1.29D-05 Max=4.13D-04 NDo=     1
 LinEq1:  Iter=  9 NonCon=     1 RMS=8.36D-06 Max=2.50D-04 NDo=     1
 LinEq1:  Iter= 10 NonCon=     1 RMS=3.89D-06 Max=1.55D-04 NDo=     1
 LinEq1:  Iter= 11 NonCon=     1 RMS=2.45D-06 Max=1.64D-04 NDo=     1
 LinEq1:  Iter= 12 NonCon=     1 RMS=1.28D-06 Max=3.50D-05 NDo=     1
 LinEq1:  Iter= 13 NonCon=     1 RMS=6.94D-07 Max=2.74D-05 NDo=     1
 LinEq1:  Iter= 14 NonCon=     1 RMS=3.71D-07 Max=8.95D-06 NDo=     1
 LinEq1:  Iter= 15 NonCon=     1 RMS=1.41D-07 Max=4.20D-06 NDo=     1
 LinEq1:  Iter= 16 NonCon=     1 RMS=6.96D-08 Max=1.89D-06 NDo=     1
 LinEq1:  Iter= 17 NonCon=     1 RMS=3.25D-08 Max=9.91D-07 NDo=     1
 LinEq1:  Iter= 18 NonCon=     1 RMS=1.38D-08 Max=4.25D-07 NDo=     1
 LinEq1:  Iter= 19 NonCon=     0 RMS=5.88D-09 Max=1.17D-07 NDo=     1
 Linear equations converged to 2.268D-08 2.268D-07 after    19 iterations.
     Accept linear search using points  1 and  2.
 LinEq1:  Iter=  0 NonCon=     1 RMS=1.02D-04 Max=1.45D-02 NDo=     1
 LinEq1:  Iter=  1 NonCon=     1 RMS=1.39D-04 Max=1.59D-02 NDo=     1
 LinEq1:  Iter=  2 NonCon=     1 RMS=1.17D-04 Max=8.60D-03 NDo=     1
 LinEq1:  Iter=  3 NonCon=     1 RMS=1.10D-04 Max=1.09D-02 NDo=     1
 LinEq1:  Iter=  4 NonCon=     1 RMS=9.76D-05 Max=9.10D-03 NDo=     1
 LinEq1:  Iter=  5 NonCon=     1 RMS=5.29D-05 Max=3.11D-03 NDo=     1
 LinEq1:  Iter=  6 NonCon=     1 RMS=3.77D-05 Max=2.81D-03 NDo=     1
 LinEq1:  Iter=  7 NonCon=     1 RMS=2.52D-05 Max=1.09D-03 NDo=     1
 LinEq1:  Iter=  8 NonCon=     1 RMS=1.91D-05 Max=1.06D-03 NDo=     1
 LinEq1:  Iter=  9 NonCon=     1 RMS=8.22D-06 Max=2.20D-04 NDo=     1
 LinEq1:  Iter= 10 NonCon=     1 RMS=4.96D-06 Max=1.96D-04 NDo=     1
 LinEq1:  Iter= 11 NonCon=     1 RMS=2.86D-06 Max=8.83D-05 NDo=     1
 LinEq1:  Iter= 12 NonCon=     1 RMS=1.29D-06 Max=4.36D-05 NDo=     1
 LinEq1:  Iter= 13 NonCon=     1 RMS=6.15D-07 Max=1.56D-05 NDo=     1
 LinEq1:  Iter= 14 NonCon=     1 RMS=3.12D-07 Max=8.49D-06 NDo=     1
 LinEq1:  Iter= 15 NonCon=     1 RMS=1.09D-07 Max=2.28D-06 NDo=     1
 LinEq1:  Iter= 16 NonCon=     1 RMS=5.89D-08 Max=1.47D-06 NDo=     1
 LinEq1:  Iter= 17 NonCon=     1 RMS=2.20D-08 Max=5.44D-07 NDo=     1
 LinEq1:  Iter= 18 NonCon=     0 RMS=8.16D-09 Max=1.57D-07 NDo=     1
 Linear equations converged to 2.268D-08 2.268D-07 after    18 iterations.
     Minimum is close to point  2 DX=  2.45D-03 DF= -8.71D-11 DXR=  2.45D-03 DFR=  5.99D-06 which will be used.
 LinEq1:  Iter=  0 NonCon=     1 RMS=2.29D-07 Max=2.51D-05 NDo=     1
 LinEq1:  Iter=  1 NonCon=     1 RMS=1.48D-07 Max=1.41D-05 NDo=     1
 LinEq1:  Iter=  2 NonCon=     1 RMS=3.64D-07 Max=4.15D-05 NDo=     1
 LinEq1:  Iter=  3 NonCon=     1 RMS=2.31D-07 Max=1.49D-05 NDo=     1
 LinEq1:  Iter=  4 NonCon=     1 RMS=2.08D-07 Max=1.46D-05 NDo=     1
 LinEq1:  Iter=  5 NonCon=     1 RMS=1.68D-07 Max=1.30D-05 NDo=     1
 LinEq1:  Iter=  6 NonCon=     1 RMS=1.21D-07 Max=7.02D-06 NDo=     1
 LinEq1:  Iter=  7 NonCon=     1 RMS=1.25D-07 Max=6.75D-06 NDo=     1
 LinEq1:  Iter=  8 NonCon=     1 RMS=7.49D-08 Max=2.12D-06 NDo=     1
 LinEq1:  Iter=  9 NonCon=     1 RMS=3.93D-08 Max=1.10D-06 NDo=     1
 LinEq1:  Iter= 10 NonCon=     1 RMS=2.39D-08 Max=8.47D-07 NDo=     1
 LinEq1:  Iter= 11 NonCon=     1 RMS=1.17D-08 Max=4.10D-07 NDo=     1
 LinEq1:  Iter= 12 NonCon=     1 RMS=4.05D-09 Max=1.35D-07 NDo=     1
 LinEq1:  Iter= 13 NonCon=     1 RMS=2.36D-09 Max=6.79D-08 NDo=     1
 LinEq1:  Iter= 14 NonCon=     1 RMS=8.97D-10 Max=1.86D-08 NDo=     1
 LinEq1:  Iter= 15 NonCon=     1 RMS=3.75D-10 Max=7.45D-09 NDo=     1
 LinEq1:  Iter= 16 NonCon=     1 RMS=1.96D-10 Max=4.70D-09 NDo=     1
 LinEq1:  Iter= 17 NonCon=     1 RMS=7.52D-11 Max=1.64D-09 NDo=     1
 LinEq1:  Iter= 18 NonCon=     0 RMS=3.09D-11 Max=6.18D-10 NDo=     1
 Linear equations converged to 9.969D-11 9.969D-10 after    18 iterations.
 SCF Done:  E(RB3LYP) =  -1189.66434477     a.u. after   12 cycles
            Convg  =    0.3816D-08                    81 Fock formations.
              S**2 =  0.0000                  -V/T =  2.0069
 DoSCS=F DFT=T ScalE2(SS,OS)=  1.000000  1.000000
 Range of M.O.s used for correlation:     1   385
 NBasis=   385 NAE=    86 NBE=    86 NFC=     0 NFV=     0
 NROrb=    385 NOA=    86 NOB=    86 NVA=   299 NVB=   299

 **** Warning!!: The smallest alpha delta epsilon is  0.35885957D-01

 Symmetrizing basis deriv contribution to polar:
 IMax=3 JMax=2 DiffMx= 0.00D+00
 G2DrvN: will do    55 centers at a time, making    1 passes.
 Calling FoFCou, ICntrl=  3107 FMM=F I1Cent=   0 AccDes= 0.00D+00.
 End of G2Drv F.D. properties file   721 does not exist.
 End of G2Drv F.D. properties file   722 does not exist.
 End of G2Drv F.D. properties file   788 does not exist.
          IDoAtm=11111111111111111111111111111111111111111111111111
          IDoAtm=1111
          Differentiating once with respect to electric field.
                with respect to dipole field.
          Differentiating once with respect to nuclear coordinates.
 CalDSu exits because no D1Ps are significant.
          There are   165 degrees of freedom in the 1st order CPHF.  IDoFFX=6 NUNeed=     3.
    162 vectors produced by pass  0 Test12= 2.57D-14 1.00D-09 XBig12= 1.22D+03 3.11D+01.
 AX will form   162 AO Fock derivatives at one time.
    162 vectors produced by pass  1 Test12= 2.57D-14 1.00D-09 XBig12= 3.07D+02 2.68D+00.
    162 vectors produced by pass  2 Test12= 2.57D-14 1.00D-09 XBig12= 2.83D+00 1.93D-01.
    162 vectors produced by pass  3 Test12= 2.57D-14 1.00D-09 XBig12= 6.60D-03 6.41D-03.
    162 vectors produced by pass  4 Test12= 2.57D-14 1.00D-09 XBig12= 7.27D-06 2.03D-04.
     75 vectors produced by pass  5 Test12= 2.57D-14 1.00D-09 XBig12= 5.61D-09 5.50D-06.
      6 vectors produced by pass  6 Test12= 2.57D-14 1.00D-09 XBig12= 3.62D-12 1.28D-07.
      3 vectors produced by pass  7 Test12= 2.57D-14 1.00D-09 XBig12= 2.69D-15 3.44D-09.
 InvSVY:  IOpt=1 It=  1 EMax= 2.13D-14
 Solved reduced A of dimension   894 with   165 vectors.
 Isotropic polarizability for W=    0.000000      243.68 Bohr**3.
 End of Minotr F.D. properties file   721 does not exist.
 End of Minotr F.D. properties file   722 does not exist.
 End of Minotr F.D. properties file   788 does not exist.

 **********************************************************************

            Population analysis using the SCF density.

 **********************************************************************

 Orbital symmetries:
       Occupied  (A) (A) (A) (A) (A) (A) (A) (A) (A) (A) (A) (A)
                 (A) (A) (A) (A) (A) (A) (A) (A) (A) (A) (A) (A)
                 (A) (A) (A) (A) (A) (A) (A) (A) (A) (A) (A) (A)
                 (A) (A) (A) (A) (A) (A) (A) (A) (A) (A) (A) (A)
                 (A) (A) (A) (A) (A) (A) (A) (A) (A) (A) (A) (A)
                 (A) (A) (A) (A) (A) (A) (A) (A) (A) (A) (A) (A)
                 (A) (A) (A) (A) (A) (A) (A) (A) (A) (A) (A) (A)
                 (A) (A)
       Virtual   (A) (A) (A) (A) (A) (A) (A) (A) (A) (A) (A) (A)
                 (A) (A) (A) (A) (A) (A) (A) (A) (A) (A) (A) (A)
                 (A) (A) (A) (A) (A) (A) (A) (A) (A) (A) (A) (A)
                 (A) (A) (A) (A) (A) (A) (A) (A) (A) (A) (A) (A)
                 (A) (A) (A) (A) (A) (A) (A) (A) (A) (A) (A) (A)
                 (A) (A) (A) (A) (A) (A) (A) (A) (A) (A) (A) (A)
                 (A) (A) (A) (A) (A) (A) (A) (A) (A) (A) (A) (A)
                 (A) (A) (A) (A) (A) (A) (A) (A) (A) (A) (A) (A)
                 (A) (A) (A) (A) (A) (A) (A) (A) (A) (A) (A) (A)
                 (A) (A) (A) (A) (A) (A) (A) (A) (A) (A) (A) (A)
                 (A) (A) (A) (A) (A) (A) (A) (A) (A) (A) (A) (A)
                 (A) (A) (A) (A) (A) (A) (A) (A) (A) (A) (A) (A)
                 (A) (A) (A) (A) (A) (A) (A) (A) (A) (A) (A) (A)
                 (A) (A) (A) (A) (A) (A) (A) (A) (A) (A) (A) (A)
                 (A) (A) (A) (A) (A) (A) (A) (A) (A) (A) (A) (A)
                 (A) (A) (A) (A) (A) (A) (A) (A) (A) (A) (A) (A)
                 (A) (A) (A) (A) (A) (A) (A) (A) (A) (A) (A) (A)
                 (A) (A) (A) (A) (A) (A) (A) (A) (A) (A) (A) (A)
                 (A) (A) (A) (A) (A) (A) (A) (A) (A) (A) (A) (A)
                 (A) (A) (A) (A) (A) (A) (A) (A) (A) (A) (A) (A)
                 (A) (A) (A) (A) (A) (A) (A) (A) (A) (A) (A) (A)
                 (A) (A) (A) (A) (A) (A) (A) (A) (A) (A) (A) (A)
                 (A) (A) (A) (A) (A) (A) (A) (A) (A) (A) (A) (A)
                 (A) (A) (A) (A) (A) (A) (A) (A) (A) (A) (A) (A)
                 (A) (A) (A) (A) (A) (A) (A) (A) (A) (A) (A)
 The electronic state is 1-A.
 Alpha  occ. eigenvalues --  -77.14925 -14.31944 -14.31656 -14.29977 -14.24603
 Alpha  occ. eigenvalues --  -10.21096 -10.19706 -10.19646 -10.19599 -10.19088
 Alpha  occ. eigenvalues --  -10.18863 -10.18801 -10.17584 -10.17508 -10.17391
 Alpha  occ. eigenvalues --  -10.17263 -10.17126 -10.16313 -10.15576 -10.15529
 Alpha  occ. eigenvalues --  -10.14838  -6.60063  -4.76449  -4.76295  -4.76222
 Alpha  occ. eigenvalues --   -0.94342  -0.90609  -0.89533  -0.83825  -0.79010
 Alpha  occ. eigenvalues --   -0.76001  -0.75230  -0.73450  -0.73010  -0.71804
 Alpha  occ. eigenvalues --   -0.71239  -0.67604  -0.66331  -0.62916  -0.59032
 Alpha  occ. eigenvalues --   -0.58472  -0.57566  -0.56722  -0.56326  -0.55611
 Alpha  occ. eigenvalues --   -0.51831  -0.50572  -0.49308  -0.48457  -0.48190
 Alpha  occ. eigenvalues --   -0.47375  -0.45682  -0.44323  -0.43756  -0.42953
 Alpha  occ. eigenvalues --   -0.41893  -0.41241  -0.40953  -0.40422  -0.40384
 Alpha  occ. eigenvalues --   -0.39335  -0.39150  -0.37795  -0.37354  -0.37158
 Alpha  occ. eigenvalues --   -0.36756  -0.36207  -0.34922  -0.34566  -0.34101
 Alpha  occ. eigenvalues --   -0.33532  -0.33460  -0.33184  -0.33056  -0.32645
 Alpha  occ. eigenvalues --   -0.32336  -0.31903  -0.31408  -0.31121  -0.30015
 Alpha  occ. eigenvalues --   -0.29051  -0.24748  -0.22021  -0.20561  -0.20337
 Alpha  occ. eigenvalues --   -0.13230
 Alpha virt. eigenvalues --   -0.09641   0.06461   0.07947   0.09417   0.10067
 Alpha virt. eigenvalues --    0.10795   0.11082   0.11974   0.12162   0.12649
 Alpha virt. eigenvalues --    0.13851   0.14173   0.14945   0.15115   0.15508
 Alpha virt. eigenvalues --    0.16098   0.16281   0.16546   0.16807   0.17002
 Alpha virt. eigenvalues --    0.17880   0.18266   0.18704   0.18762   0.19031
 Alpha virt. eigenvalues --    0.19226   0.19612   0.20028   0.20381   0.21106
 Alpha virt. eigenvalues --    0.21370   0.21481   0.21980   0.22342   0.22903
 Alpha virt. eigenvalues --    0.23165   0.23709   0.24157   0.24962   0.25530
 Alpha virt. eigenvalues --    0.26662   0.26910   0.27097   0.27942   0.29148
 Alpha virt. eigenvalues --    0.29764   0.30067   0.30929   0.31332   0.31605
 Alpha virt. eigenvalues --    0.32056   0.33273   0.34204   0.34637   0.37114
 Alpha virt. eigenvalues --    0.38057   0.42794   0.44495   0.49138   0.49246
 Alpha virt. eigenvalues --    0.50518   0.51195   0.52819   0.53589   0.54443
 Alpha virt. eigenvalues --    0.54584   0.55530   0.55686   0.56115   0.56712
 Alpha virt. eigenvalues --    0.57046   0.58238   0.59110   0.59591   0.60484
 Alpha virt. eigenvalues --    0.61032   0.61526   0.62377   0.62719   0.63764
 Alpha virt. eigenvalues --    0.64693   0.65584   0.65942   0.66209   0.67762
 Alpha virt. eigenvalues --    0.68377   0.68605   0.69076   0.69572   0.70350
 Alpha virt. eigenvalues --    0.71296   0.71831   0.73543   0.74387   0.75562
 Alpha virt. eigenvalues --    0.77910   0.78493   0.78849   0.79661   0.79811
 Alpha virt. eigenvalues --    0.81974   0.82567   0.83635   0.84313   0.85180
 Alpha virt. eigenvalues --    0.85785   0.86228   0.86469   0.86933   0.87307
 Alpha virt. eigenvalues --    0.87399   0.87913   0.88465   0.88552   0.89198
 Alpha virt. eigenvalues --    0.89998   0.90328   0.90713   0.90936   0.91508
 Alpha virt. eigenvalues --    0.92395   0.92811   0.94022   0.94153   0.94544
 Alpha virt. eigenvalues --    0.94696   0.94802   0.95639   0.95890   0.96020
 Alpha virt. eigenvalues --    0.96574   0.97023   0.97661   0.98446   0.98642
 Alpha virt. eigenvalues --    0.99903   1.00493   1.01555   1.02317   1.03040
 Alpha virt. eigenvalues --    1.04364   1.05125   1.07052   1.07987   1.08913
 Alpha virt. eigenvalues --    1.09606   1.10294   1.11696   1.13468   1.14057
 Alpha virt. eigenvalues --    1.15234   1.15942   1.16594   1.17685   1.21461
 Alpha virt. eigenvalues --    1.23244   1.25256   1.26848   1.28134   1.30674
 Alpha virt. eigenvalues --    1.34289   1.36412   1.38686   1.38888   1.42833
 Alpha virt. eigenvalues --    1.44350   1.45063   1.46343   1.48409   1.49888
 Alpha virt. eigenvalues --    1.51878   1.52116   1.53335   1.56172   1.56373
 Alpha virt. eigenvalues --    1.58041   1.58892   1.62764   1.65817   1.67965
 Alpha virt. eigenvalues --    1.70625   1.71560   1.73344   1.74355   1.76004
 Alpha virt. eigenvalues --    1.76960   1.78583   1.79544   1.80584   1.81110
 Alpha virt. eigenvalues --    1.82773   1.84371   1.85070   1.85373   1.86365
 Alpha virt. eigenvalues --    1.86885   1.88178   1.89140   1.90342   1.90905
 Alpha virt. eigenvalues --    1.92144   1.92637   1.94211   1.95161   1.95937
 Alpha virt. eigenvalues --    1.98713   1.99976   2.01358   2.02119   2.03226
 Alpha virt. eigenvalues --    2.03936   2.04929   2.05447   2.06139   2.06338
 Alpha virt. eigenvalues --    2.07230   2.09135   2.09686   2.10009   2.10193
 Alpha virt. eigenvalues --    2.10577   2.11680   2.12314   2.13220   2.14984
 Alpha virt. eigenvalues --    2.17479   2.17881   2.19546   2.21257   2.22317
 Alpha virt. eigenvalues --    2.23993   2.24754   2.26175   2.26627   2.26847
 Alpha virt. eigenvalues --    2.27962   2.28967   2.29050   2.31628   2.32122
 Alpha virt. eigenvalues --    2.34860   2.35582   2.35926   2.36510   2.37573
 Alpha virt. eigenvalues --    2.40107   2.41514   2.41563   2.45438   2.47243
 Alpha virt. eigenvalues --    2.48540   2.49418   2.50321   2.51319   2.52518
 Alpha virt. eigenvalues --    2.55409   2.55900   2.59219   2.60115   2.60273
 Alpha virt. eigenvalues --    2.61671   2.62960   2.66984   2.67465   2.69711
 Alpha virt. eigenvalues --    2.70066   2.71565   2.72913   2.73429   2.75252
 Alpha virt. eigenvalues --    2.77464   2.78388   2.78891   2.85234   2.89831
 Alpha virt. eigenvalues --    2.93695   2.96363   2.98000   3.66424   4.01876
 Alpha virt. eigenvalues --    4.09673   4.16440   4.17467   4.21939   4.25441
 Alpha virt. eigenvalues --    4.26469   4.27188   4.30499   4.34143   4.35632
 Alpha virt. eigenvalues --    4.37445   4.37862   4.53105   4.54935   4.56722
 Alpha virt. eigenvalues --    4.58578   4.61416   4.63256   4.74191
          Condensed to atoms (all electrons):
 Mulliken charges:
               1
     1  P    1.001683
     2  N   -0.541281
     3  C    0.229171
     4  C   -0.476833
     5  C   -0.440305
     6  C   -0.440466
     7  N   -0.513165
     8  C   -0.096608
     9  C   -0.287809
    10  C   -0.299617
    11  C   -0.083039
    12  N   -0.513178
    13  C   -0.128134
    14  C   -0.286567
    15  C   -0.294876
    16  C   -0.092893
    17  N   -0.501770
    18  C   -0.113420
    19  C   -0.300365
    20  C   -0.291284
    21  C   -0.132260
    22  H    0.147175
    23  H    0.143673
    24  H    0.126142
    25  H    0.133975
    26  H    0.129288
    27  H    0.145084
    28  H    0.134045
    29  H    0.155477
    30  H    0.118558
    31  H    0.139379
    32  H    0.140797
    33  H    0.137297
    34  H    0.133950
    35  H    0.140643
    36  H    0.136268
    37  H    0.151867
    38  H    0.117663
    39  H    0.140458
    40  H    0.131423
    41  H    0.138066
    42  H    0.138641
    43  H    0.144013
    44  H    0.131469
    45  H    0.153118
    46  H    0.129402
    47  H    0.150476
    48  H    0.153358
    49  H    0.138943
    50  H    0.140667
    51  H    0.135126
    52  H    0.135014
    53  H    0.153718
    54  H    0.157841
 Sum of Mulliken charges =   0.00000
 Mulliken charges with hydrogens summed into heavy atoms:
               1
     1  P    1.001683
     2  N   -0.541281
     3  C    0.229171
     4  C   -0.059843
     5  C   -0.031958
     6  C   -0.032385
     7  N   -0.513165
     8  C    0.183569
     9  C   -0.016562
    10  C   -0.022706
    11  C    0.186491
    12  N   -0.513178
    13  C    0.143747
    14  C   -0.009860
    15  C   -0.019394
    16  C    0.189627
    17  N   -0.501770
    18  C    0.190413
    19  C   -0.020755
    20  C   -0.021144
    21  C    0.179299
 APT charges:
               1
     1  P    0.407150
     2  N   -0.291642
     3  C    0.382639
     4  C   -0.028975
     5  C    0.070298
     6  C   -0.026015
     7  N   -0.674885
     8  C    0.365506
     9  C    0.102185
    10  C    0.106685
    11  C    0.264260
    12  N   -0.491740
    13  C    0.402573
    14  C    0.116483
    15  C    0.089462
    16  C    0.342413
    17  N   -0.457039
    18  C    0.306323
    19  C    0.115933
    20  C    0.134726
    21  C    0.287989
    22  H    0.000745
    23  H   -0.031552
    24  H   -0.039599
    25  H   -0.030439
    26  H   -0.061509
    27  H   -0.011314
    28  H    0.000802
    29  H   -0.001315
    30  H   -0.102467
    31  H   -0.060672
    32  H   -0.051206
    33  H   -0.044956
    34  H   -0.044898
    35  H   -0.049631
    36  H   -0.045794
    37  H   -0.072018
    38  H    0.029011
    39  H   -0.117026
    40  H   -0.097011
    41  H   -0.040124
    42  H   -0.042141
    43  H    0.001229
    44  H   -0.054450
    45  H   -0.049884
    46  H   -0.069725
    47  H   -0.055796
    48  H   -0.061480
    49  H   -0.051246
    50  H   -0.049346
    51  H   -0.052794
    52  H   -0.056855
    53  H   -0.031384
    54  H   -0.079482
 Sum of APT charges =   0.00000
 APT charges with hydrogens summed into heavy atoms:
               1
     1  P    0.407150
     2  N   -0.291642
     3  C    0.382639
     4  C   -0.099381
     5  C   -0.032963
     6  C   -0.128995
     7  N   -0.674885
     8  C    0.253627
     9  C    0.012330
    10  C    0.011260
    11  C    0.221254
    12  N   -0.491740
    13  C    0.188537
    14  C    0.034218
    15  C    0.036241
    16  C    0.222803
    17  N   -0.457039
    18  C    0.189047
    19  C    0.015340
    20  C    0.025077
    21  C    0.177123
 Electronic spatial extent (au):  <R**2>=           6381.8015
 Charge=              0.0000 electrons
 Dipole moment (field-independent basis, Debye):
    X=              1.1700    Y=              0.4291    Z=             -1.0197  Tot=              1.6102
 Quadrupole moment (field-independent basis, Debye-Ang):
   XX=           -132.6755   YY=           -134.6509   ZZ=           -139.4413
   XY=             -0.9119   XZ=              0.5295   YZ=              1.9427
 Traceless Quadrupole moment (field-independent basis, Debye-Ang):
   XX=              2.9137   YY=              0.9383   ZZ=             -3.8521
   XY=             -0.9119   XZ=              0.5295   YZ=              1.9427
 Octapole moment (field-independent basis, Debye-Ang**2):
  XXX=             10.0100  YYY=             10.0610  ZZZ=             -2.6099  XYY=              6.0669
  XXY=              5.4205  XXZ=             -0.2941  XZZ=              2.4935  YZZ=              4.2298
  YYZ=              0.6476  XYZ=              0.4906
 Hexadecapole moment (field-independent basis, Debye-Ang**3):
 XXXX=          -4313.5449 YYYY=          -3357.3562 ZZZZ=          -1039.4457 XXXY=             -9.4755
 XXXZ=             20.7639 YYYX=            -22.6031 YYYZ=              9.1258 ZZZX=             -0.3663
 ZZZY=              7.2643 XXYY=          -1277.1841 XXZZ=           -897.1556 YYZZ=           -738.5365
 XXYZ=              2.3828 YYXZ=             -2.9178 ZZXY=             -6.0360
 N-N= 2.212495984982D+03 E-N=-7.204019160633D+03  KE= 1.181532655142D+03
  Exact polarizability: 303.555   3.397 243.863 -12.134  -6.495 183.633
 Approx polarizability: 488.278  -1.119 350.787 -67.123 -24.371 356.296
 Calling FoFJK, ICntrl=    100127 FMM=F ISym2X=0 I1Cent= 0 IOpClX= 0 NMat=1 NMatS=1 NMatT=0.
 ***** Axes restored to original set *****
 -------------------------------------------------------------------
 Center     Atomic                   Forces (Hartrees/Bohr)
 Number     Number              X              Y              Z
 -------------------------------------------------------------------
      1       15          -0.007310056    0.048482178   -0.012783950
      2        7           0.003924741   -0.014750577    0.135079127
      3        6          -0.003699464    0.025105782   -0.003678312
      4        6           0.001280353   -0.009415161    0.020048791
      5        6           0.004283882    0.004964242    0.000601188
      6        6          -0.001538101   -0.002796113    0.014121520
      7        7          -0.008243667    0.015043492   -0.026091949
      8        6          -0.003896271   -0.002558938   -0.011354289
      9        6          -0.000210103    0.001440262   -0.010751082
     10        6          -0.001446096    0.010328370   -0.000357201
     11        6           0.002750516    0.011915894    0.007156992
     12        7          -0.032933319   -0.039452400    0.002207958
     13        6           0.006499985   -0.015227077   -0.019273682
     14        6          -0.008201904   -0.007125801    0.000043490
     15        6          -0.008913223    0.006160046    0.008469467
     16        6          -0.013747731    0.016840910   -0.021615919
     17        7           0.023724103   -0.027231234   -0.028298184
     18        6           0.019774366    0.009358560   -0.006881277
     19        6           0.009880007    0.000402873    0.002884359
     20        6           0.007703881   -0.007871199   -0.011400170
     21        6           0.014598952   -0.031174492   -0.004970987
     22        1          -0.012483202   -0.002348924    0.010853025
     23        1          -0.007498110   -0.002736302   -0.005095398
     24        1          -0.004521682    0.000902297   -0.000126033
     25        1           0.002586266    0.002605973   -0.004237659
     26        1          -0.001877618   -0.000772095   -0.002570758
     27        1          -0.000278838   -0.000298301   -0.002779569
     28        1           0.001928201    0.002634807    0.005586594
     29        1           0.012554134   -0.003349410    0.003380144
     30        1           0.004041365    0.000308377    0.002229905
     31        1          -0.000242119    0.001938856   -0.004501692
     32        1          -0.002337438   -0.002691315    0.005709906
     33        1          -0.002439492   -0.000439287   -0.002987748
     34        1          -0.001307452   -0.001714713   -0.001021526
     35        1           0.000937300    0.001734632    0.000264428
     36        1           0.000735376    0.002086787    0.001459005
     37        1          -0.001554536   -0.007845932    0.008752820
     38        1          -0.014404526    0.025394291    0.005656883
     39        1           0.003685836   -0.008531982   -0.010631834
     40        1           0.005249366   -0.003439955   -0.001876188
     41        1          -0.000740161   -0.003530773   -0.001093997
     42        1           0.000216833   -0.001853716   -0.000335582
     43        1          -0.009930833    0.002127323   -0.009850607
     44        1           0.000938091    0.002720500   -0.000465495
     45        1           0.015338499    0.004727953   -0.003926121
     46        1          -0.003720737    0.009809679   -0.001617552
     47        1          -0.001576147   -0.002444705   -0.010099069
     48        1          -0.003140536    0.003380336   -0.006357119
     49        1           0.001652872    0.001745749    0.002515960
     50        1           0.001384307    0.000424349    0.001122316
     51        1          -0.000072028   -0.001169180   -0.000943919
     52        1           0.000821383   -0.001226084   -0.002816608
     53        1          -0.001878325    0.002888725   -0.001265335
     54        1           0.013653102   -0.013477578   -0.006087070
 -------------------------------------------------------------------
 Cartesian Forces:  Max     0.135079127 RMS     0.014911709
 FormGI is forming the generalized inverse of G from B-inverse, IUseBI=4.

 GradGradGradGradGradGradGradGradGradGradGradGradGradGradGradGradGradGrad
 Berny optimization.
 Internal  Forces:  Max     0.183627049 RMS     0.021758366
 Search for a local minimum.
 Step number   1 out of a maximum of  324
 All quantities printed in internal units (Hartrees-Bohrs-Radians)
 Mixed Optimization -- RFO/linear search
 Second derivative matrix not updated -- analytic derivatives used.
 ITU=  0
     Eigenvalues ---   -0.11686  -0.10343  -0.01367  -0.01220  -0.00694
     Eigenvalues ---   -0.00555  -0.00245   0.00122   0.00230   0.00259
     Eigenvalues ---    0.00282   0.00390   0.00557   0.00589   0.01015
     Eigenvalues ---    0.01285   0.01673   0.01976   0.02089   0.02215
     Eigenvalues ---    0.02310   0.02489   0.02528   0.03548   0.03947
     Eigenvalues ---    0.04154   0.04176   0.04214   0.04269   0.04332
     Eigenvalues ---    0.04335   0.04430   0.04517   0.04534   0.04575
     Eigenvalues ---    0.04596   0.04689   0.04790   0.04836   0.04883
     Eigenvalues ---    0.04922   0.04960   0.04986   0.05059   0.05230
     Eigenvalues ---    0.05427   0.05455   0.05543   0.05641   0.05800
     Eigenvalues ---    0.06040   0.06160   0.06340   0.06374   0.06414
     Eigenvalues ---    0.06483   0.06741   0.06808   0.07136   0.07248
     Eigenvalues ---    0.07434   0.07467   0.07691   0.07721   0.08026
     Eigenvalues ---    0.08058   0.08822   0.09269   0.09371   0.09539
     Eigenvalues ---    0.09673   0.09802   0.09875   0.09953   0.10274
     Eigenvalues ---    0.10485   0.10738   0.11168   0.11602   0.11866
     Eigenvalues ---    0.12234   0.12372   0.12722   0.13976   0.14375
     Eigenvalues ---    0.14672   0.15521   0.16178   0.16944   0.18038
     Eigenvalues ---    0.18428   0.20561   0.21443   0.22078   0.22567
     Eigenvalues ---    0.22769   0.23143   0.23762   0.24650   0.24870
     Eigenvalues ---    0.25513   0.25726   0.26527   0.27032   0.27762
     Eigenvalues ---    0.28427   0.28766   0.29302   0.30376   0.30636
     Eigenvalues ---    0.30795   0.30934   0.30994   0.31644   0.31825
     Eigenvalues ---    0.32178   0.32376   0.32473   0.32917   0.33020
     Eigenvalues ---    0.33033   0.33099   0.33137   0.33148   0.33214
     Eigenvalues ---    0.33325   0.33403   0.33510   0.33563   0.33628
     Eigenvalues ---    0.33700   0.34009   0.34025   0.34103   0.34121
     Eigenvalues ---    0.34199   0.34225   0.34279   0.34581   0.34634
     Eigenvalues ---    0.34809   0.34940   0.35255   0.35429   0.35488
     Eigenvalues ---    0.35756   0.35993   0.36161   0.36392   0.37218
     Eigenvalues ---    0.45210   0.57727   0.63978   1.60620   1.77823
     Eigenvalues ---    2.51884
 RFO step:  Lambda=-2.00182828D-01 EMin=-1.16859579D-01
 Linear search not attempted -- first point.
 Maximum step size (   0.300) exceeded in Quadratic search.
    -- Step size scaled by   0.431
 Iteration  1 RMS(Cart)=  0.16531858 RMS(Int)=  0.00332633
 Iteration  2 RMS(Cart)=  0.00999661 RMS(Int)=  0.00069467
 Iteration  3 RMS(Cart)=  0.00003438 RMS(Int)=  0.00069463
 Iteration  4 RMS(Cart)=  0.00000015 RMS(Int)=  0.00069463
 Variable       Old X    -DE/DX   Delta X   Delta X   Delta X     New X
                                 (Linear)    (Quad)   (Total)
    R1        2.93983   0.15935   0.00000   0.01641   0.01641   2.95624
    R2        3.16815   0.05955   0.00000  -0.00201  -0.00201   3.16614
    R3        3.36371   0.04626   0.00000  -0.02869  -0.02871   3.33500
    R4        3.36371   0.08653   0.00000  -0.02323  -0.02321   3.34050
    R5        2.84529   0.02635   0.00000  -0.04422  -0.04422   2.80107
    R6        2.90061   0.00212   0.00000   0.00333   0.00333   2.90394
    R7        2.93808  -0.00059   0.00000  -0.00071  -0.00071   2.93736
    R8        2.93491  -0.00701   0.00000   0.00542   0.00542   2.94033
    R9        2.06354  -0.01220   0.00000   0.00282   0.00282   2.06637
   R10        2.05285   0.00693   0.00000   0.00583   0.00583   2.05868
   R11        2.07583   0.00056   0.00000  -0.00018  -0.00018   2.07565
   R12        2.06363   0.00340   0.00000   0.00347   0.00347   2.06710
   R13        2.07744  -0.00180   0.00000  -0.00008  -0.00008   2.07736
   R14        2.07030  -0.00030   0.00000  -0.00020  -0.00020   2.07010
   R15        2.04967  -0.00558   0.00000   0.01055   0.01055   2.06022
   R16        2.07450  -0.00913   0.00000   0.00213   0.00213   2.07663
   R17        2.07357   0.00197   0.00000   0.00311   0.00311   2.07668
   R18        2.75681   0.01521   0.00000  -0.00033  -0.00034   2.75647
   R19        2.75724   0.01780   0.00000   0.01584   0.01585   2.77309
   R20        2.87452   0.00777   0.00000   0.01225   0.01215   2.88667
   R21        2.06642  -0.00095   0.00000   0.00267   0.00267   2.06909
   R22        2.07159  -0.00057   0.00000  -0.00134  -0.00134   2.07026
   R23        2.85447   0.00988   0.00000   0.01718   0.01726   2.87173
   R24        2.06240   0.00274   0.00000   0.00189   0.00189   2.06430
   R25        2.07312   0.00067   0.00000   0.00010   0.00010   2.07323
   R26        2.87070   0.01272   0.00000   0.01224   0.01226   2.88296
   R27        2.07156   0.00081   0.00000  -0.00010  -0.00010   2.07146
   R28        2.06731   0.00088   0.00000   0.00036   0.00036   2.06767
   R29        2.06708   0.00468   0.00000   0.00350   0.00350   2.07058
   R30        2.06515  -0.02312   0.00000   0.00383   0.00383   2.06897
   R31        2.79627   0.00456   0.00000  -0.00185  -0.00174   2.79453
   R32        2.75658   0.01883   0.00000   0.00082   0.00095   2.75752
   R33        2.87070   0.01452   0.00000   0.00711   0.00705   2.87776
   R34        2.06924  -0.00327   0.00000   0.00855   0.00855   2.07779
   R35        2.06572   0.00335   0.00000   0.00363   0.00363   2.06936
   R36        2.83778   0.01706   0.00000   0.01733   0.01721   2.85499
   R37        2.06834   0.00140   0.00000   0.00044   0.00044   2.06878
   R38        2.07196   0.00027   0.00000   0.00037   0.00037   2.07233
   R39        2.86822   0.01092   0.00000   0.00661   0.00656   2.87478
   R40        2.06904  -0.01227   0.00000  -0.00136  -0.00136   2.06768
   R41        2.06998   0.00061   0.00000   0.00041   0.00041   2.07039
   R42        2.04322   0.00910   0.00000   0.00749   0.00749   2.05070
   R43        2.06528   0.00611   0.00000   0.00443   0.00443   2.06972
   R44        2.75436  -0.00069   0.00000   0.00552   0.00559   2.75995
   R45        2.74927   0.03602   0.00000   0.02861   0.02868   2.77795
   R46        2.88126   0.00922   0.00000   0.01374   0.01375   2.89500
   R47        2.04773   0.00033   0.00000   0.00630   0.00630   2.05403
   R48        2.07998  -0.00401   0.00000  -0.00483  -0.00483   2.07515
   R49        2.85988   0.00402   0.00000   0.01576   0.01562   2.87550
   R50        2.06976   0.00003   0.00000  -0.00070  -0.00070   2.06906
   R51        2.06937   0.00139   0.00000   0.00049   0.00049   2.06986
   R52        2.86468   0.00823   0.00000   0.01274   0.01274   2.87742
   R53        2.07166   0.00140   0.00000   0.00038   0.00038   2.07204
   R54        2.06731   0.00172   0.00000   0.00053   0.00053   2.06784
   R55        2.06486   0.00123   0.00000  -0.00444  -0.00444   2.06042
   R56        2.06909  -0.00801   0.00000   0.00476   0.00476   2.07385
    A1        1.82639  -0.00881   0.00000   0.00987   0.00758   1.83397
    A2        1.54913   0.08529   0.00000   0.10398   0.10337   1.65250
    A3        1.59246   0.03388   0.00000   0.08329   0.08268   1.67514
    A4        1.59561  -0.07290   0.00000   0.04624   0.04530   1.64091
    A5        1.54598   0.06266   0.00000  -0.01262  -0.01187   1.53411
    A6        2.23064   0.18363   0.00000   0.05443   0.05443   2.28508
    A7        2.05402   0.02288   0.00000  -0.00511  -0.00513   2.04889
    A8        1.92463  -0.02284   0.00000  -0.00557  -0.00563   1.91900
    A9        1.90756   0.01401   0.00000   0.00293   0.00289   1.91044
   A10        1.83888   0.00911   0.00000   0.00211   0.00215   1.84103
   A11        1.93020  -0.02547   0.00000  -0.00991  -0.00996   1.92024
   A12        1.78913  -0.00183   0.00000   0.01887   0.01889   1.80802
   A13        1.94395   0.00499   0.00000  -0.00264  -0.00265   1.94130
   A14        2.01139  -0.00509   0.00000  -0.01183  -0.01185   1.99955
   A15        1.93355  -0.00607   0.00000   0.00281   0.00281   1.93636
   A16        1.85265   0.00554   0.00000   0.00675   0.00672   1.85937
   A17        1.84061  -0.00139   0.00000   0.00318   0.00318   1.84379
   A18        1.87166   0.00263   0.00000   0.00324   0.00324   1.87490
   A19        1.96245  -0.00150   0.00000  -0.00540  -0.00541   1.95704
   A20        1.93165  -0.00202   0.00000   0.00307   0.00308   1.93473
   A21        1.95473  -0.00291   0.00000  -0.00519  -0.00520   1.94954
   A22        1.84541   0.00357   0.00000   0.00511   0.00512   1.85053
   A23        1.89199   0.00073   0.00000   0.00164   0.00161   1.89359
   A24        1.87213   0.00272   0.00000   0.00162   0.00163   1.87376
   A25        1.98881   0.00775   0.00000  -0.01722  -0.01724   1.97157
   A26        1.94471  -0.01044   0.00000  -0.00105  -0.00109   1.94362
   A27        1.94503  -0.00597   0.00000   0.00698   0.00699   1.95203
   A28        1.88117   0.00494   0.00000   0.00342   0.00335   1.88452
   A29        1.82703   0.00032   0.00000   0.00781   0.00785   1.83488
   A30        1.86945   0.00424   0.00000   0.00143   0.00142   1.87087
   A31        2.20043  -0.01887   0.00000   0.04960   0.04942   2.24986
   A32        2.16248   0.02696   0.00000  -0.06870  -0.06862   2.09386
   A33        1.91464  -0.00912   0.00000   0.01719   0.01714   1.93178
   A34        1.82262   0.00737   0.00000  -0.01033  -0.01032   1.81230
   A35        1.93809   0.00320   0.00000   0.00575   0.00577   1.94387
   A36        1.97225  -0.00756   0.00000  -0.00343  -0.00341   1.96884
   A37        1.92889  -0.00501   0.00000   0.00372   0.00359   1.93248
   A38        1.90994   0.00234   0.00000   0.00793   0.00804   1.91798
   A39        1.89157  -0.00029   0.00000  -0.00338  -0.00340   1.88817
   A40        1.80583  -0.00503   0.00000  -0.00016  -0.00022   1.80560
   A41        1.96735  -0.00066   0.00000  -0.00358  -0.00356   1.96378
   A42        1.93299   0.00180   0.00000   0.00088   0.00090   1.93390
   A43        1.95950   0.00148   0.00000   0.00012   0.00013   1.95963
   A44        1.91244   0.00415   0.00000   0.00380   0.00383   1.91626
   A45        1.88530  -0.00153   0.00000  -0.00080  -0.00081   1.88448
   A46        1.81229   0.00253   0.00000   0.00525   0.00520   1.81749
   A47        1.91163  -0.00340   0.00000  -0.00834  -0.00823   1.90339
   A48        1.96305   0.00342   0.00000   0.00702   0.00696   1.97001
   A49        1.92449   0.00117   0.00000  -0.00053  -0.00051   1.92399
   A50        1.96293  -0.00309   0.00000  -0.00261  -0.00264   1.96029
   A51        1.88874  -0.00059   0.00000  -0.00094  -0.00094   1.88780
   A52        1.85628   0.00092   0.00000  -0.01526  -0.01523   1.84105
   A53        1.98084  -0.00858   0.00000  -0.01270  -0.01274   1.96810
   A54        1.91535   0.01237   0.00000   0.01414   0.01428   1.92963
   A55        1.89959   0.00446   0.00000   0.01277   0.01279   1.91239
   A56        1.93270  -0.00702   0.00000   0.01814   0.01794   1.95064
   A57        1.87960  -0.00240   0.00000  -0.01579  -0.01587   1.86374
   A58        2.04205  -0.00344   0.00000   0.00063   0.00078   2.04283
[...]
   189    C   13  px     Val( 2p)     1.20312
   190    C   13  px     Ryd( 3p)     0.00359
   191    C   13  py     Val( 2p)     0.87450
   192    C   13  py     Ryd( 3p)     0.00250
   193    C   13  pz     Val( 2p)     1.13967
   194    C   13  pz     Ryd( 3p)     0.00247
   195    C   13  dxy    Ryd( 3d)     0.00106
   196    C   13  dxz    Ryd( 3d)     0.00121
   197    C   13  dyz    Ryd( 3d)     0.00090
   198    C   13  dx2y2  Ryd( 3d)     0.00118
   199    C   13  dz2    Ryd( 3d)     0.00077
 
   200    C   14  S      Cor( 1S)     1.99933
   201    C   14  S      Val( 2S)     1.04743
   202    C   14  S      Ryd( 3S)     0.00061
   203    C   14  S      Ryd( 4S)     0.00002
   204    C   14  px     Val( 2p)     1.14923
   205    C   14  px     Ryd( 3p)     0.00290
   206    C   14  py     Val( 2p)     1.15373
   207    C   14  py     Ryd( 3p)     0.00281
   208    C   14  pz     Val( 2p)     1.10414
   209    C   14  pz     Ryd( 3p)     0.00243
   210    C   14  dxy    Ryd( 3d)     0.00089
   211    C   14  dxz    Ryd( 3d)     0.00101
   212    C   14  dyz    Ryd( 3d)     0.00070
   213    C   14  dx2y2  Ryd( 3d)     0.00049
   214    C   14  dz2    Ryd( 3d)     0.00041
 
   215    C   15  S      Cor( 1S)     1.99934
   216    C   15  S      Val( 2S)     1.04858
   217    C   15  S      Ryd( 3S)     0.00055
   218    C   15  S      Ryd( 4S)     0.00003
   219    C   15  px     Val( 2p)     1.15741
   220    C   15  px     Ryd( 3p)     0.00151
   221    C   15  py     Val( 2p)     1.02519
   222    C   15  py     Ryd( 3p)     0.00181
   223    C   15  pz     Val( 2p)     1.22647
   224    C   15  pz     Ryd( 3p)     0.00419
   225    C   15  dxy    Ryd( 3d)     0.00070
   226    C   15  dxz    Ryd( 3d)     0.00096
   227    C   15  dyz    Ryd( 3d)     0.00040
   228    C   15  dx2y2  Ryd( 3d)     0.00059
   229    C   15  dz2    Ryd( 3d)     0.00081
 
   230    C   16  S      Cor( 1S)     1.99933
   231    C   16  S      Val( 2S)     1.03596
   232    C   16  S      Ryd( 3S)     0.00174
   233    C   16  S      Ryd( 4S)     0.00004
   234    C   16  px     Val( 2p)     1.03693
   235    C   16  px     Ryd( 3p)     0.00400
   236    C   16  py     Val( 2p)     1.17451
   237    C   16  py     Ryd( 3p)     0.00395
   238    C   16  pz     Val( 2p)     1.00025
   239    C   16  pz     Ryd( 3p)     0.00315
   240    C   16  dxy    Ryd( 3d)     0.00088
   241    C   16  dxz    Ryd( 3d)     0.00156
   242    C   16  dyz    Ryd( 3d)     0.00044
   243    C   16  dx2y2  Ryd( 3d)     0.00080
   244    C   16  dz2    Ryd( 3d)     0.00124
 
   245    N   17  S      Cor( 1S)     1.99943
   246    N   17  S      Val( 2S)     1.31739
   247    N   17  S      Ryd( 3S)     0.00301
   248    N   17  S      Ryd( 4S)     0.00005
   249    N   17  px     Val( 2p)     1.45543
   250    N   17  px     Ryd( 3p)     0.00243
   251    N   17  py     Val( 2p)     1.66554
   252    N   17  py     Ryd( 3p)     0.00404
   253    N   17  pz     Val( 2p)     1.33872
   254    N   17  pz     Ryd( 3p)     0.00341
   255    N   17  dxy    Ryd( 3d)     0.00043
   256    N   17  dxz    Ryd( 3d)     0.00058
   257    N   17  dyz    Ryd( 3d)     0.00038
   258    N   17  dx2y2  Ryd( 3d)     0.00041
   259    N   17  dz2    Ryd( 3d)     0.00049
 
   260    C   18  S      Cor( 1S)     1.99934
   261    C   18  S      Val( 2S)     1.02657
   262    C   18  S      Ryd( 3S)     0.00177
   263    C   18  S      Ryd( 4S)     0.00003
   264    C   18  px     Val( 2p)     1.10777
   265    C   18  px     Ryd( 3p)     0.00219
   266    C   18  py     Val( 2p)     1.25167
   267    C   18  py     Ryd( 3p)     0.00393
   268    C   18  pz     Val( 2p)     0.84850
   269    C   18  pz     Ryd( 3p)     0.00326
   270    C   18  dxy    Ryd( 3d)     0.00103
   271    C   18  dxz    Ryd( 3d)     0.00072
   272    C   18  dyz    Ryd( 3d)     0.00122
   273    C   18  dx2y2  Ryd( 3d)     0.00062
   274    C   18  dz2    Ryd( 3d)     0.00146
 
   275    C   19  S      Cor( 1S)     1.99933
   276    C   19  S      Val( 2S)     1.04573
   277    C   19  S      Ryd( 3S)     0.00053
   278    C   19  S      Ryd( 4S)     0.00002
   279    C   19  px     Val( 2p)     1.06193
   280    C   19  px     Ryd( 3p)     0.00173
   281    C   19  py     Val( 2p)     1.19451
   282    C   19  py     Ryd( 3p)     0.00270
   283    C   19  pz     Val( 2p)     1.15837
   284    C   19  pz     Ryd( 3p)     0.00308
   285    C   19  dxy    Ryd( 3d)     0.00075
   286    C   19  dxz    Ryd( 3d)     0.00036
   287    C   19  dyz    Ryd( 3d)     0.00071
   288    C   19  dx2y2  Ryd( 3d)     0.00070
   289    C   19  dz2    Ryd( 3d)     0.00097
 
   290    C   20  S      Cor( 1S)     1.99934
   291    C   20  S      Val( 2S)     1.04535
   292    C   20  S      Ryd( 3S)     0.00062
   293    C   20  S      Ryd( 4S)     0.00002
   294    C   20  px     Val( 2p)     1.21359
   295    C   20  px     Ryd( 3p)     0.00431
   296    C   20  py     Val( 2p)     1.18055
   297    C   20  py     Ryd( 3p)     0.00176
   298    C   20  pz     Val( 2p)     1.01785
   299    C   20  pz     Ryd( 3p)     0.00191
   300    C   20  dxy    Ryd( 3d)     0.00051
   301    C   20  dxz    Ryd( 3d)     0.00051
   302    C   20  dyz    Ryd( 3d)     0.00056
   303    C   20  dx2y2  Ryd( 3d)     0.00111
   304    C   20  dz2    Ryd( 3d)     0.00078
 
   305    C   21  S      Cor( 1S)     1.99934
   306    C   21  S      Val( 2S)     1.03106
   307    C   21  S      Ryd( 3S)     0.00178
   308    C   21  S      Ryd( 4S)     0.00004
   309    C   21  px     Val( 2p)     0.90980
   310    C   21  px     Ryd( 3p)     0.00383
   311    C   21  py     Val( 2p)     1.17100
   312    C   21  py     Ryd( 3p)     0.00305
   313    C   21  pz     Val( 2p)     1.13262
   314    C   21  pz     Ryd( 3p)     0.00286
   315    C   21  dxy    Ryd( 3d)     0.00123
   316    C   21  dxz    Ryd( 3d)     0.00089
   317    C   21  dyz    Ryd( 3d)     0.00116
   318    C   21  dx2y2  Ryd( 3d)     0.00098
   319    C   21  dz2    Ryd( 3d)     0.00074
 
   320    H   22  S      Val( 1S)     0.77768
   321    H   22  S      Ryd( 2S)     0.01039
 
   322    H   23  S      Val( 1S)     0.78477
   323    H   23  S      Ryd( 2S)     0.02003
 
   324    H   24  S      Val( 1S)     0.76199
   325    H   24  S      Ryd( 2S)     0.00484
 
   326    H   25  S      Val( 1S)     0.77086
   327    H   25  S      Ryd( 2S)     0.00501
 
   328    H   26  S      Val( 1S)     0.77160
   329    H   26  S      Ryd( 2S)     0.00450
 
   330    H   27  S      Val( 1S)     0.77242
   331    H   27  S      Ryd( 2S)     0.00588
 
   332    H   28  S      Val( 1S)     0.77943
   333    H   28  S      Ryd( 2S)     0.01774
 
   334    H   29  S      Val( 1S)     0.78456
   335    H   29  S      Ryd( 2S)     0.00820
 
   336    H   30  S      Val( 1S)     0.76890
   337    H   30  S      Ryd( 2S)     0.00471
 
   338    H   31  S      Val( 1S)     0.78307
   339    H   31  S      Ryd( 2S)     0.01055
 
   340    H   32  S      Val( 1S)     0.77156
   341    H   32  S      Ryd( 2S)     0.01077
 
   342    H   33  S      Val( 1S)     0.76167
   343    H   33  S      Ryd( 2S)     0.00543
 
   344    H   34  S      Val( 1S)     0.77614
   345    H   34  S      Ryd( 2S)     0.00881
 
   346    H   35  S      Val( 1S)     0.76486
   347    H   35  S      Ryd( 2S)     0.00546
 
   348    H   36  S      Val( 1S)     0.75945
   349    H   36  S      Ryd( 2S)     0.00344
 
   350    H   37  S      Val( 1S)     0.77719
   351    H   37  S      Ryd( 2S)     0.01096
 
   352    H   38  S      Val( 1S)     0.79158
   353    H   38  S      Ryd( 2S)     0.01240
 
   354    H   39  S      Val( 1S)     0.79003
   355    H   39  S      Ryd( 2S)     0.01886
 
   356    H   40  S      Val( 1S)     0.77869
   357    H   40  S      Ryd( 2S)     0.01349
 
   358    H   41  S      Val( 1S)     0.76790
   359    H   41  S      Ryd( 2S)     0.00783
 
   360    H   42  S      Val( 1S)     0.76859
   361    H   42  S      Ryd( 2S)     0.00755
 
   362    H   43  S      Val( 1S)     0.77994
   363    H   43  S      Ryd( 2S)     0.01429
 
   364    H   44  S      Val( 1S)     0.76202
   365    H   44  S      Ryd( 2S)     0.00458
 
   366    H   45  S      Val( 1S)     0.79666
   367    H   45  S      Ryd( 2S)     0.02961
 
   368    H   46  S      Val( 1S)     0.78119
   369    H   46  S      Ryd( 2S)     0.01117
 
   370    H   47  S      Val( 1S)     0.77375
   371    H   47  S      Ryd( 2S)     0.00775
 
   372    H   48  S      Val( 1S)     0.74841
   373    H   48  S      Ryd( 2S)     0.00774
 
   374    H   49  S      Val( 1S)     0.75455
   375    H   49  S      Ryd( 2S)     0.00230
 
   376    H   50  S      Val( 1S)     0.76504
   377    H   50  S      Ryd( 2S)     0.00459
 
   378    H   51  S      Val( 1S)     0.76557
   379    H   51  S      Ryd( 2S)     0.00551
 
   380    H   52  S      Val( 1S)     0.75455
   381    H   52  S      Ryd( 2S)     0.00291
 
   382    H   53  S      Val( 1S)     0.76904
   383    H   53  S      Ryd( 2S)     0.01526
 
   384    H   54  S      Val( 1S)     0.78197
   385    H   54  S      Ryd( 2S)     0.01773

 WARNING:  1 low occupancy (<1.9990e) core orbital  found on  P    1


 Summary of Natural Population Analysis:                  
                                                          
                                       Natural Population 
                Natural  -----------------------------------------------
    Atom  No    Charge         Core      Valence    Rydberg      Total
 -----------------------------------------------------------------------
      P    1    2.31534      9.99766     2.54474    0.14225    12.68466
      N    2   -0.80050      1.99939     5.78772    0.01339     7.80050
      C    3    0.11334      1.99912     3.86942    0.01813     5.88666
      C    4   -0.66973      1.99930     4.66012    0.01031     6.66973
      C    5   -0.66758      1.99936     4.65695    0.01127     6.66758
      C    6   -0.68137      1.99933     4.67141    0.01063     6.68137
      N    7   -0.85665      1.99943     5.84422    0.01300     7.85665
      C    8   -0.25234      1.99934     4.23626    0.01673     6.25234
      C    9   -0.46626      1.99933     4.45555    0.01138     6.46626
      C   10   -0.46721      1.99933     4.45598    0.01189     6.46721
      C   11   -0.25616      1.99936     4.24181    0.01499     6.25616
      N   12   -0.79216      1.99945     5.77978    0.01293     7.79216
      C   13   -0.26099      1.99934     4.24623    0.01542     6.26099
      C   14   -0.46613      1.99933     4.45453    0.01227     6.46613
      C   15   -0.46853      1.99934     4.45765    0.01155     6.46853
      C   16   -0.26478      1.99933     4.24764    0.01780     6.26478
      N   17   -0.79174      1.99943     5.77709    0.01523     7.79174
      C   18   -0.25008      1.99934     4.23450    0.01623     6.25008
      C   19   -0.47142      1.99933     4.46054    0.01155     6.47142
      C   20   -0.46878      1.99934     4.45735    0.01209     6.46878
      C   21   -0.26038      1.99934     4.24449    0.01656     6.26038
      H   22    0.21193      0.00000     0.77768    0.01039     0.78807
      H   23    0.19520      0.00000     0.78477    0.02003     0.80480
      H   24    0.23317      0.00000     0.76199    0.00484     0.76683
      H   25    0.22413      0.00000     0.77086    0.00501     0.77587
      H   26    0.22390      0.00000     0.77160    0.00450     0.77610
      H   27    0.22170      0.00000     0.77242    0.00588     0.77830
      H   28    0.20283      0.00000     0.77943    0.01774     0.79717
      H   29    0.20723      0.00000     0.78456    0.00820     0.79277
      H   30    0.22639      0.00000     0.76890    0.00471     0.77361
      H   31    0.20638      0.00000     0.78307    0.01055     0.79362
      H   32    0.21767      0.00000     0.77156    0.01077     0.78233
      H   33    0.23291      0.00000     0.76167    0.00543     0.76709
      H   34    0.21505      0.00000     0.77614    0.00881     0.78495
      H   35    0.22968      0.00000     0.76486    0.00546     0.77032
      H   36    0.23711      0.00000     0.75945    0.00344     0.76289
      H   37    0.21185      0.00000     0.77719    0.01096     0.78815
      H   38    0.19602      0.00000     0.79158    0.01240     0.80398
      H   39    0.19111      0.00000     0.79003    0.01886     0.80889
      H   40    0.20782      0.00000     0.77869    0.01349     0.79218
      H   41    0.22427      0.00000     0.76790    0.00783     0.77573
      H   42    0.22386      0.00000     0.76859    0.00755     0.77614
      H   43    0.20577      0.00000     0.77994    0.01429     0.79423
      H   44    0.23340      0.00000     0.76202    0.00458     0.76660
      H   45    0.17373      0.00000     0.79666    0.02961     0.82627
      H   46    0.20764      0.00000     0.78119    0.01117     0.79236
      H   47    0.21850      0.00000     0.77375    0.00775     0.78150
      H   48    0.24385      0.00000     0.74841    0.00774     0.75615
      H   49    0.24315      0.00000     0.75455    0.00230     0.75685
      H   50    0.23037      0.00000     0.76504    0.00459     0.76963
      H   51    0.22893      0.00000     0.76557    0.00551     0.77107
      H   52    0.24255      0.00000     0.75455    0.00291     0.75745
      H   53    0.21570      0.00000     0.76904    0.01526     0.78430
      H   54    0.20030      0.00000     0.78197    0.01773     0.79970
 =======================================================================
   * Total *   -0.00000     49.98450   121.27959    0.73590   172.00000

                                 Natural Population      
 --------------------------------------------------------
   Core                      49.98450 ( 99.9690% of  50)
   Valence                  121.27959 ( 99.4095% of 122)
   Natural Minimal Basis    171.26410 ( 99.5721% of 172)
   Natural Rydberg Basis      0.73590 (  0.4279% of 172)
 --------------------------------------------------------

    Atom  No          Natural Electron Configuration
 ----------------------------------------------------------------------------
      P    1      [core]3S( 0.80)3p( 1.74)4S( 0.03)3d( 0.09)4p( 0.02)
      N    2      [core]2S( 1.43)2p( 4.36)3p( 0.01)
      C    3      [core]2S( 0.90)2p( 2.97)3p( 0.01)3d( 0.01)
      C    4      [core]2S( 1.11)2p( 3.55)3p( 0.01)
      C    5      [core]2S( 1.10)2p( 3.55)3p( 0.01)
      C    6      [core]2S( 1.11)2p( 3.56)3p( 0.01)
      N    7      [core]2S( 1.33)2p( 4.52)3p( 0.01)
      C    8      [core]2S( 1.02)2p( 3.21)3p( 0.01)3d( 0.01)
      C    9      [core]2S( 1.05)2p( 3.41)3p( 0.01)
      C   10      [core]2S( 1.05)2p( 3.41)3p( 0.01)
      C   11      [core]2S( 1.02)2p( 3.22)3p( 0.01)3d( 0.01)
      N   12      [core]2S( 1.35)2p( 4.43)3p( 0.01)
      C   13      [core]2S( 1.03)2p( 3.22)3p( 0.01)3d( 0.01)
      C   14      [core]2S( 1.05)2p( 3.41)3p( 0.01)
      C   15      [core]2S( 1.05)2p( 3.41)3p( 0.01)
      C   16      [core]2S( 1.04)2p( 3.21)3p( 0.01)
      N   17      [core]2S( 1.32)2p( 4.46)3p( 0.01)
      C   18      [core]2S( 1.03)2p( 3.21)3p( 0.01)3d( 0.01)
      C   19      [core]2S( 1.05)2p( 3.41)3p( 0.01)
      C   20      [core]2S( 1.05)2p( 3.41)3p( 0.01)
      C   21      [core]2S( 1.03)2p( 3.21)3p( 0.01)
      H   22            1S( 0.78)2S( 0.01)
      H   23            1S( 0.78)2S( 0.02)
      H   24            1S( 0.76)
      H   25            1S( 0.77)2S( 0.01)
      H   26            1S( 0.77)
      H   27            1S( 0.77)2S( 0.01)
      H   28            1S( 0.78)2S( 0.02)
      H   29            1S( 0.78)2S( 0.01)
      H   30            1S( 0.77)
      H   31            1S( 0.78)2S( 0.01)
      H   32            1S( 0.77)2S( 0.01)
      H   33            1S( 0.76)2S( 0.01)
      H   34            1S( 0.78)2S( 0.01)
      H   35            1S( 0.76)2S( 0.01)
      H   36            1S( 0.76)
      H   37            1S( 0.78)2S( 0.01)
      H   38            1S( 0.79)2S( 0.01)
      H   39            1S( 0.79)2S( 0.02)
      H   40            1S( 0.78)2S( 0.01)
      H   41            1S( 0.77)2S( 0.01)
      H   42            1S( 0.77)2S( 0.01)
      H   43            1S( 0.78)2S( 0.01)
      H   44            1S( 0.76)
      H   45            1S( 0.80)2S( 0.03)
      H   46            1S( 0.78)2S( 0.01)
      H   47            1S( 0.77)2S( 0.01)
      H   48            1S( 0.75)2S( 0.01)
      H   49            1S( 0.75)
      H   50            1S( 0.77)
      H   51            1S( 0.77)2S( 0.01)
      H   52            1S( 0.75)
      H   53            1S( 0.77)2S( 0.02)
      H   54            1S( 0.78)2S( 0.02)


 NBO analysis skipped by request.
 1\1\GINC-DELLA-R4C2N5\SP\RB3LYP TD-FC\6-31G(d)\C16H33N4P1\BJS4\24-Aug-
 2020\0\\# TD(NStates=10, Root=1) B3LYP/6-31G* scf=qc volume pop=NPA de
 nsity=current Geom=AllCheck Guess=Read\\Title Card Required\\0,1\P,0,1
 .2257157474,0.3177543491,0.5422861633\N,0,1.7005936426,0.4093945043,2.
 0149609104\C,0,1.1251167439,0.7332989147,3.3079566962\C,0,0.1133860363
 ,-0.3462261074,3.7549024562\C,0,2.2930553058,0.7520783711,4.3180022155
 \C,0,0.4329401591,2.1145009702,3.3364473864\N,0,0.958176607,1.80520718
 1,-0.2364739296\C,0,0.263102034,2.0153191792,-1.526399266\C,0,1.071386
 6061,3.1152791705,-2.2286836763\C,0,1.5871661846,3.9534016616,-1.05090
 6482\C,0,1.93557978,2.8926810706,0.0033801728\N,0,-0.1713584564,-0.520
 8492805,0.0290906515\C,0,-0.1726096041,-1.9984334187,0.1071469279\C,0,
 -1.6446549332,-2.3723823443,-0.1029850849\C,0,-2.3860220197,-1.2313691
 488,0.6072899584\C,0,-1.5382905642,0.0045442872,0.260028818\N,0,2.4476
 151461,-0.5175001396,-0.2626343544\C,0,3.6137180535,-1.1266689041,0.40
 35116821\C,0,4.6318316418,-1.2874036092,-0.7346435035\C,0,3.743347585,
 -1.5316521846,-1.963807748\C,0,2.5577582657,-0.5818088671,-1.725335031
 4\H,0,0.5800623899,-1.3366538741,3.7175187536\H,0,-0.7637238762,-0.357
 3558786,3.0978378068\H,0,-0.2382462466,-0.1679677489,4.7795116896\H,0,
 2.7904673003,-0.2237002419,4.3369282983\H,0,1.9446905214,0.9864791118,
 5.331941298\H,0,3.0351681964,1.5016649212,4.0221341989\H,0,-0.38343262
 31,2.1643254819,2.6062812959\H,0,1.1488971063,2.9081370056,3.096830001
 5\H,0,0.0143067752,2.3282949932,4.3283506011\H,0,-0.7662390672,2.36178
 09052,-1.3511980049\H,0,0.2009209707,1.0909942433,-2.10669279\H,0,0.46
 92620978,3.6876232024,-2.9422450002\H,0,1.9148174832,2.6757472637,-2.7
 763263608\H,0,0.7886633541,4.6070754374,-0.6783227667\H,0,2.4448011752
 ,4.5845415912,-1.3047304218\H,0,1.8567327857,3.274304189,1.0241315688\
 H,0,2.9665908428,2.5325406549,-0.1336728982\H,0,0.1775666378,-2.356105
 3693,1.0874063621\H,0,0.4851907297,-2.4268092908,-0.6557849905\H,0,-1.
 8848195412,-3.3627142871,0.2969687803\H,0,-1.8839593513,-2.3727511474,
 -1.1737275218\H,0,-2.3806860186,-1.4025420675,1.6903976781\H,0,-3.4286
 39299,-1.1236699193,0.2910254643\H,0,-1.5603538235,0.7570024286,1.0565
 082707\H,0,-1.9161881202,0.4865012461,-0.6517201864\H,0,3.3535792423,-
 2.1055663108,0.8347522634\H,0,3.9643711803,-0.4936171549,1.2202705302\
 H,0,5.3454045387,-2.0966530771,-0.5486826192\H,0,5.2022261171,-0.35871
 9701,-0.863098558\H,0,3.3933846622,-2.5715293822,-1.9724921755\H,0,4.2
 473075477,-1.3402496685,-2.9167553836\H,0,1.6311891896,-0.9508457147,-
 2.1844433411\H,0,2.7645531609,0.4100125033,-2.1583468053\\Version=ES64
 L-G16RevA.03\State=1-A\HF=-1189.9309632\RMSD=2.775e-10\Dipole=0.700898
 5,-0.236845,-0.711438\Quadrupole=0.5042375,0.5186786,-1.0229161,-1.320
 1703,-1.1829809,-0.2007833\PG=C01 [X(C16H33N4P1)]\\@


 THERE IS NO CURE FOR BIRTH AND DEATH SAVE TO ENJOY THE INTERVAL.

                               -- GEORGE SANTAYANA
 Job cpu time:       0 days  2 hours  8 minutes 20.6 seconds.
 Elapsed time:       0 days  0 hours 18 minutes 23.2 seconds.
 File lengths (MBytes):  RWF=   1207 Int=      0 D2E=      0 Chk=    268 Scr=      1
 Normal termination of Gaussian 16 at Mon Aug 24 20:19:11 2020.
