 Entering Gaussian System, Link 0=g16
 Input=base_4_conf21123.com
 Output=base_4_conf21123.log
 Initial command:
 /opt/export//g16/l1.exe "/scratch/bjs4/job.17049/Gau-17053.inp" -scrdir="/scratch/bjs4/job.17049/"
 Entering Link 1 = /opt/export//g16/l1.exe PID=     17055.
  
 Copyright (c) 1988,1990,1992,1993,1995,1998,2003,2009,2016,
            Gaussian, Inc.  All Rights Reserved.
  
 This is part of the Gaussian(R) 16 program.  It is based on
 the Gaussian(R) 09 system (copyright 2009, Gaussian, Inc.),
 the Gaussian(R) 03 system (copyright 2003, Gaussian, Inc.),
 the Gaussian(R) 98 system (copyright 1998, Gaussian, Inc.),
 the Gaussian(R) 94 system (copyright 1995, Gaussian, Inc.),
 the Gaussian 92(TM) system (copyright 1992, Gaussian, Inc.),
 the Gaussian 90(TM) system (copyright 1990, Gaussian, Inc.),
 the Gaussian 88(TM) system (copyright 1988, Gaussian, Inc.),
 the Gaussian 86(TM) system (copyright 1986, Carnegie Mellon
 University), and the Gaussian 82(TM) system (copyright 1983,
 Carnegie Mellon University). Gaussian is a federally registered
 trademark of Gaussian, Inc.
  
 This software contains proprietary and confidential information,
 including trade secrets, belonging to Gaussian, Inc.
  
 This software is provided under written license and may be
 used, copied, transmitted, or stored only in accord with that
 written license.
  
 The following legend is applicable only to US Government
 contracts under FAR:
  
                    RESTRICTED RIGHTS LEGEND
  
 Use, reproduction and disclosure by the US Government is
 subject to restrictions as set forth in subparagraphs (a)
 and (c) of the Commercial Computer Software - Restricted
 Rights clause in FAR 52.227-19.
  
 Gaussian, Inc.
 340 Quinnipiac St., Bldg. 40, Wallingford CT 06492
  
  
 ---------------------------------------------------------------
 Warning -- This program may not be used in any manner that
 competes with the business of Gaussian, Inc. or will provide
 assistance to any competitor of Gaussian, Inc.  The licensee
 of this program is prohibited from giving any competitor of
 Gaussian, Inc. access to this program.  By using this program,
 the user acknowledges that Gaussian, Inc. is engaged in the
 business of creating and licensing software in the field of
 computational chemistry and represents and warrants to the
 licensee that it is not a competitor of Gaussian, Inc. and that
 it will not use this program in any manner prohibited above.
 ---------------------------------------------------------------
  

 Cite this work as:
 Gaussian 16, Revision A.03,
 M. J. Frisch, G. W. Trucks, H. B. Schlegel, G. E. Scuseria, 
 M. A. Robb, J. R. Cheeseman, G. Scalmani, V. Barone, 
 G. A. Petersson, H. Nakatsuji, X. Li, M. Caricato, A. V. Marenich, 
 J. Bloino, B. G. Janesko, R. Gomperts, B. Mennucci, H. P. Hratchian, 
 J. V. Ortiz, A. F. Izmaylov, J. L. Sonnenberg, D. Williams-Young, 
 F. Ding, F. Lipparini, F. Egidi, J. Goings, B. Peng, A. Petrone, 
 T. Henderson, D. Ranasinghe, V. G. Zakrzewski, J. Gao, N. Rega, 
 G. Zheng, W. Liang, M. Hada, M. Ehara, K. Toyota, R. Fukuda, 
 J. Hasegawa, M. Ishida, T. Nakajima, Y. Honda, O. Kitao, H. Nakai, 
 T. Vreven, K. Throssell, J. A. Montgomery, Jr., J. E. Peralta, 
 F. Ogliaro, M. J. Bearpark, J. J. Heyd, E. N. Brothers, K. N. Kudin, 
 V. N. Staroverov, T. A. Keith, R. Kobayashi, J. Normand, 
 K. Raghavachari, A. P. Rendell, J. C. Burant, S. S. Iyengar, 
 J. Tomasi, M. Cossi, J. M. Millam, M. Klene, C. Adamo, R. Cammi, 
 J. W. Ochterski, R. L. Martin, K. Morokuma, O. Farkas, 
 J. B. Foresman, and D. J. Fox, Gaussian, Inc., Wallingford CT, 2016.
 
 ******************************************
 Gaussian 16:  ES64L-G16RevA.03 25-Dec-2016
                24-Aug-2020 
 ******************************************
 %nprocshared=3
 Will use up to    3 processors via shared memory.
 %Mem=6GB
 %Chk=base_4_conf211.chk
 ---------------------------------
 # opt=CalcAll B3LYP/6-31G* scf=qc
 ---------------------------------
 1/10=4,18=20,19=15,26=3,38=1/1,3;
 2/9=110,12=2,17=6,18=5,40=1/2;
 3/5=1,6=6,7=1,11=2,25=1,30=1,71=2,74=-5,140=1/1,2,3;
 4//1;
 5/5=2,8=3,38=5/8;
 8/6=4,10=90,11=11/1;
 11/6=1,8=1,9=11,15=111,16=1/1,2,10;
 10/6=1/2;
 6/7=2,8=2,9=2,10=2,18=1,28=1/1;
 7/10=1,25=1/1,2,3,16;
 1/10=4,18=20,19=15,26=3/3(3);
 2/9=110/2;
 7/8=1,9=1,25=1,44=-1/16;
 99//99;
 2/9=110/2;
 3/5=1,6=6,7=1,11=2,25=1,30=1,71=2,74=-5,140=1/1,2,3;
 4/5=5,16=3,69=1/1;
 5/5=2,8=3,38=5/8;
 8/6=4,10=90,11=11/1;
 11/6=1,8=1,9=11,15=111,16=1/1,2,10;
 10/6=1/2;
 7/10=1,25=1/1,2,3,16;
 1/10=4,18=20,19=15,26=3/3(-8);
 2/9=110/2;
 6/7=2,8=2,9=2,10=2,18=1,19=2,28=1/1;
 7/8=1,9=1,25=1,44=-1/16;
 99//99;
 -------------------
 Title Card Required
 -------------------
 Symbolic Z-matrix:
 Charge =  0 Multiplicity = 1
 C                     3.09993  -0.53297  -1.28273 
 C                     2.5217    0.0373    0.0088 
 N1                    2.953     1.4118    0.3252 
 C                     2.4005    1.9412    1.5807 
 C                     0.8812    2.0409    1.6614 
 C                     4.4213    1.4981    0.2306 
 C                     4.99746   2.87277   0.55323 
 H                     2.89556  -1.60747  -1.33896 
 H                     4.18486  -0.39565  -1.32842 
 H                     2.64907  -0.07054  -2.16659 
 H                     2.85343  -0.6229    0.82058 
 H                     1.42792  -0.03579  -0.02653 
 H                     2.83094   2.92865   1.78679 
 H                     2.75736   1.33004   2.41856 
 H                     0.4612    2.60064   0.82127 
 H                     0.59428   2.56306   2.58019 
 H                     0.41614   1.05073   1.68719 
 H                     4.71863   1.26584  -0.80068 
 H                     4.90215   0.74655   0.86972 
 H                     4.51659   3.65247  -0.04502 
 H                     6.06844   2.88768   0.32593 
 H                     4.88646   3.12439   1.61218 
 

 GradGradGradGradGradGradGradGradGradGradGradGradGradGradGradGradGradGrad
 Berny optimization.
 Initialization pass.
                           ----------------------------
                           !    Initial Parameters    !
                           ! (Angstroms and Degrees)  !
 --------------------------                            --------------------------
 ! Name  Definition              Value          Derivative Info.                !
 --------------------------------------------------------------------------------
 ! R1    R(1,2)                  1.5256         calculate D2E/DX2 analytically  !
 ! R2    R(1,8)                  1.0952         calculate D2E/DX2 analytically  !
 ! R3    R(1,9)                  1.0945         calculate D2E/DX2 analytically  !
 ! R4    R(1,10)                 1.0947         calculate D2E/DX2 analytically  !
 ! R5    R(2,3)                  1.4749         calculate D2E/DX2 analytically  !
 ! R6    R(2,11)                 1.0977         calculate D2E/DX2 analytically  !
 ! R7    R(2,12)                 1.0968         calculate D2E/DX2 analytically  !
 ! R8    R(3,4)                  1.4703         calculate D2E/DX2 analytically  !
 ! R9    R(3,6)                  1.4739         calculate D2E/DX2 analytically  !
 ! R10   R(4,5)                  1.5247         calculate D2E/DX2 analytically  !
 ! R11   R(4,13)                 1.0967         calculate D2E/DX2 analytically  !
 ! R12   R(4,14)                 1.0968         calculate D2E/DX2 analytically  !
 ! R13   R(5,15)                 1.0934         calculate D2E/DX2 analytically  !
 ! R14   R(5,16)                 1.0951         calculate D2E/DX2 analytically  !
 ! R15   R(5,17)                 1.0942         calculate D2E/DX2 analytically  !
 ! R16   R(6,7)                  1.525          calculate D2E/DX2 analytically  !
 ! R17   R(6,18)                 1.0981         calculate D2E/DX2 analytically  !
 ! R18   R(6,19)                 1.0975         calculate D2E/DX2 analytically  !
 ! R19   R(7,20)                 1.0941         calculate D2E/DX2 analytically  !
 ! R20   R(7,21)                 1.0949         calculate D2E/DX2 analytically  !
 ! R21   R(7,22)                 1.0941         calculate D2E/DX2 analytically  !
 ! A1    A(2,1,8)              109.844          calculate D2E/DX2 analytically  !
 ! A2    A(2,1,9)              111.3535         calculate D2E/DX2 analytically  !
 ! A3    A(2,1,10)             111.6855         calculate D2E/DX2 analytically  !
 ! A4    A(8,1,9)              107.8129         calculate D2E/DX2 analytically  !
 ! A5    A(8,1,10)             107.2257         calculate D2E/DX2 analytically  !
 ! A6    A(9,1,10)             108.7564         calculate D2E/DX2 analytically  !
 ! A7    A(1,2,3)              114.7785         calculate D2E/DX2 analytically  !
 ! A8    A(1,2,11)             106.6605         calculate D2E/DX2 analytically  !
 ! A9    A(1,2,12)             109.0133         calculate D2E/DX2 analytically  !
 ! A10   A(3,2,11)             108.2692         calculate D2E/DX2 analytically  !
 ! A11   A(3,2,12)             111.1392         calculate D2E/DX2 analytically  !
 ! A12   A(11,2,12)            106.5662         calculate D2E/DX2 analytically  !
 ! A13   A(2,3,4)              114.1321         calculate D2E/DX2 analytically  !
 ! A14   A(2,3,6)              109.3972         calculate D2E/DX2 analytically  !
 ! A15   A(4,3,6)              114.084          calculate D2E/DX2 analytically  !
 ! A16   A(3,4,5)              116.3069         calculate D2E/DX2 analytically  !
 ! A17   A(3,4,13)             109.7041         calculate D2E/DX2 analytically  !
 ! A18   A(3,4,14)             109.2339         calculate D2E/DX2 analytically  !
 ! A19   A(5,4,13)             108.8            calculate D2E/DX2 analytically  !
 ! A20   A(5,4,14)             108.6767         calculate D2E/DX2 analytically  !
 ! A21   A(13,4,14)            103.3242         calculate D2E/DX2 analytically  !
 ! A22   A(4,5,15)             112.0594         calculate D2E/DX2 analytically  !
 ! A23   A(4,5,16)             109.6743         calculate D2E/DX2 analytically  !
 ! A24   A(4,5,17)             111.4429         calculate D2E/DX2 analytically  !
 ! A25   A(15,5,16)            107.4537         calculate D2E/DX2 analytically  !
 ! A26   A(15,5,17)            108.5474         calculate D2E/DX2 analytically  !
 ! A27   A(16,5,17)            107.4785         calculate D2E/DX2 analytically  !
 ! A28   A(3,6,7)              114.5553         calculate D2E/DX2 analytically  !
 ! A29   A(3,6,18)             108.5196         calculate D2E/DX2 analytically  !
 ! A30   A(3,6,19)             111.0388         calculate D2E/DX2 analytically  !
 ! A31   A(7,6,18)             106.6804         calculate D2E/DX2 analytically  !
 ! A32   A(7,6,19)             109.18           calculate D2E/DX2 analytically  !
 ! A33   A(18,6,19)            106.4648         calculate D2E/DX2 analytically  !
 ! A34   A(6,7,20)             111.1398         calculate D2E/DX2 analytically  !
 ! A35   A(6,7,21)             109.7484         calculate D2E/DX2 analytically  !
 ! A36   A(6,7,22)             111.9463         calculate D2E/DX2 analytically  !
 ! A37   A(20,7,21)            107.8592         calculate D2E/DX2 analytically  !
 ! A38   A(20,7,22)            108.7084         calculate D2E/DX2 analytically  !
 ! A39   A(21,7,22)            107.2793         calculate D2E/DX2 analytically  !
 ! D1    D(8,1,2,3)            168.7481         calculate D2E/DX2 analytically  !
 ! D2    D(8,1,2,11)            48.8445         calculate D2E/DX2 analytically  !
 ! D3    D(8,1,2,12)           -65.8585         calculate D2E/DX2 analytically  !
 ! D4    D(9,1,2,3)             49.3887         calculate D2E/DX2 analytically  !
 ! D5    D(9,1,2,11)           -70.5148         calculate D2E/DX2 analytically  !
 ! D6    D(9,1,2,12)           174.7822         calculate D2E/DX2 analytically  !
 ! D7    D(10,1,2,3)           -72.4149         calculate D2E/DX2 analytically  !
 ! D8    D(10,1,2,11)          167.6816         calculate D2E/DX2 analytically  !
 ! D9    D(10,1,2,12)           52.9786         calculate D2E/DX2 analytically  !
 ! D10   D(1,2,3,4)           -179.294          calculate D2E/DX2 analytically  !
 ! D11   D(1,2,3,6)            -50.1107         calculate D2E/DX2 analytically  !
 ! D12   D(11,2,3,4)           -60.2866         calculate D2E/DX2 analytically  !
 ! D13   D(11,2,3,6)            68.8966         calculate D2E/DX2 analytically  !
 ! D14   D(12,2,3,4)            56.4291         calculate D2E/DX2 analytically  !
 ! D15   D(12,2,3,6)          -174.3877         calculate D2E/DX2 analytically  !
 ! D16   D(2,3,4,5)            -60.7059         calculate D2E/DX2 analytically  !
 ! D17   D(2,3,4,13)           175.3136         calculate D2E/DX2 analytically  !
 ! D18   D(2,3,4,14)            62.7183         calculate D2E/DX2 analytically  !
 ! D19   D(6,3,4,5)            172.5052         calculate D2E/DX2 analytically  !
 ! D20   D(6,3,4,13)            48.5247         calculate D2E/DX2 analytically  !
 ! D21   D(6,3,4,14)           -64.0706         calculate D2E/DX2 analytically  !
 ! D22   D(2,3,6,7)           -179.294          calculate D2E/DX2 analytically  !
 ! D23   D(2,3,6,18)            61.6375         calculate D2E/DX2 analytically  !
 ! D24   D(2,3,6,19)           -55.0484         calculate D2E/DX2 analytically  !
 ! D25   D(4,3,6,7)            -50.0843         calculate D2E/DX2 analytically  !
 ! D26   D(4,3,6,18)          -169.1528         calculate D2E/DX2 analytically  !
 ! D27   D(4,3,6,19)            74.1613         calculate D2E/DX2 analytically  !
 ! D28   D(3,4,5,15)           -53.5256         calculate D2E/DX2 analytically  !
 ! D29   D(3,4,5,16)          -172.7729         calculate D2E/DX2 analytically  !
 ! D30   D(3,4,5,17)            68.3378         calculate D2E/DX2 analytically  !
 ! D31   D(13,4,5,15)           70.9193         calculate D2E/DX2 analytically  !
 ! D32   D(13,4,5,16)          -48.3279         calculate D2E/DX2 analytically  !
 ! D33   D(13,4,5,17)         -167.2172         calculate D2E/DX2 analytically  !
 ! D34   D(14,4,5,15)         -177.2382         calculate D2E/DX2 analytically  !
 ! D35   D(14,4,5,16)           63.5146         calculate D2E/DX2 analytically  !
 ! D36   D(14,4,5,17)          -55.3747         calculate D2E/DX2 analytically  !
 ! D37   D(3,6,7,20)           -52.9706         calculate D2E/DX2 analytically  !
 ! D38   D(3,6,7,21)          -172.1909         calculate D2E/DX2 analytically  !
 ! D39   D(3,6,7,22)            68.803          calculate D2E/DX2 analytically  !
 ! D40   D(18,6,7,20)           67.1257         calculate D2E/DX2 analytically  !
 ! D41   D(18,6,7,21)          -52.0945         calculate D2E/DX2 analytically  !
 ! D42   D(18,6,7,22)         -171.1007         calculate D2E/DX2 analytically  !
 ! D43   D(19,6,7,20)         -178.1978         calculate D2E/DX2 analytically  !
 ! D44   D(19,6,7,21)           62.5819         calculate D2E/DX2 analytically  !
 ! D45   D(19,6,7,22)          -56.4242         calculate D2E/DX2 analytically  !
 --------------------------------------------------------------------------------
 Trust Radius=3.00D-01 FncErr=1.00D-07 GrdErr=1.00D-06 EigMax=2.50D+02 EigMin=1.00D-04
 Number of steps in this run=    115 maximum allowed number of steps=    132.
 GradGradGradGradGradGradGradGradGradGradGradGradGradGradGradGradGradGrad

                          Input orientation:                          
 ---------------------------------------------------------------------
 Center     Atomic      Atomic             Coordinates (Angstroms)
 Number     Number       Type             X           Y           Z
 ---------------------------------------------------------------------
      1          6           0        3.099930   -0.532970   -1.282730
      2          6           0        2.521700    0.037300    0.008800
      3          7           0        2.953000    1.411800    0.325200
      4          6           0        2.400500    1.941200    1.580700
      5          6           0        0.881200    2.040900    1.661400
      6          6           0        4.421300    1.498100    0.230600
      7          6           0        4.997460    2.872770    0.553230
      8          1           0        2.895560   -1.607470   -1.338960
      9          1           0        4.184860   -0.395650   -1.328420
     10          1           0        2.649070   -0.070540   -2.166590
     11          1           0        2.853430   -0.622900    0.820580
     12          1           0        1.427920   -0.035790   -0.026530
     13          1           0        2.830940    2.928650    1.786790
     14          1           0        2.757360    1.330040    2.418560
     15          1           0        0.461200    2.600640    0.821270
     16          1           0        0.594280    2.563060    2.580190
     17          1           0        0.416140    1.050730    1.687190
     18          1           0        4.718630    1.265840   -0.800680
     19          1           0        4.902150    0.746550    0.869720
     20          1           0        4.516590    3.652470   -0.045020
     21          1           0        6.068440    2.887680    0.325930
     22          1           0        4.886460    3.124390    1.612180
 ---------------------------------------------------------------------
                    Distance matrix (angstroms):
                    1          2          3          4          5
     1  C    0.000000
     2  C    1.525650   0.000000
     3  N    2.527678   1.474917   0.000000
     4  C    3.848370   2.471921   1.470306   0.000000
     5  C    4.496162   3.071928   2.544318   1.524705   0.000000
     6  C    2.856822   2.406577   1.473873   2.470372   3.856699
     7  C    4.309343   3.803378   2.523142   2.944099   4.343230
     8  H    1.095207   2.159050   3.448002   4.621965   5.135213
     9  H    1.094540   2.177545   2.742046   4.136156   5.078383
    10  H    1.094680   2.181782   2.915257   4.260407   4.715618
    11  H    2.119614   1.097677   2.096502   2.712478   3.419430
    12  H    2.149615   1.096789   2.131924   2.727194   2.731419
    13  H    4.634342   3.408340   2.109971   1.096727   2.145998
    14  H    4.157849   2.744751   2.104071   1.096757   2.144432
    15  H    4.605347   3.387695   2.805083   2.184601   1.093402
    16  H    5.548498   4.087353   3.460338   2.155950   1.095057
    17  H    4.304795   2.877050   2.901904   2.177605   1.094250
    18  H    2.467444   2.644063   2.099133   3.391284   4.624762
    19  H    3.085160   2.628833   2.130316   2.861981   4.297690
    20  H    4.588764   4.129399   2.757259   3.170055   4.327249
    21  H    4.806317   4.561206   3.447345   3.990496   5.422912
    22  H    4.994845   4.206310   2.885749   2.753348   4.149516
                    6          7          8          9         10
     6  C    0.000000
     7  C    1.525047   0.000000
     8  H    3.799469   5.298199   0.000000
     9  H    2.464292   3.857913   1.769439   0.000000
    10  H    3.368672   4.644936   1.762919   1.779572   0.000000
    11  H    2.702764   4.109507   2.373766   2.538218   3.044676
    12  H    3.373316   4.640847   2.519249   3.070038   2.464198
    13  H    2.645269   2.493712   5.509163   4.752747   4.965625
    14  H    2.753926   3.298109   4.771480   4.365274   4.795514
    15  H    4.152936   4.552313   5.319858   5.240665   4.566102
    16  H    4.615278   4.857209   6.168383   6.076468   5.804303
    17  H    4.285219   5.059070   4.729813   5.038767   4.592912
    18  H    1.098129   2.119680   3.445176   1.823176   2.816860
    19  H    1.097506   2.151758   3.800800   2.578943   3.868227
    20  H    2.174019   1.094107   5.654112   4.259629   4.674344
    21  H    2.157102   1.094936   5.748513   4.130981   5.162927
    22  H    2.184023   1.094079   5.921436   4.640049   5.430708
                   11         12         13         14         15
    11  H    0.000000
    12  H    1.759083   0.000000
    13  H    3.680703   3.747599   0.000000
    14  H    2.525222   3.100221   1.720494   0.000000
    15  H    4.014222   2.933270   2.579823   3.072151   0.000000
    16  H    4.283728   3.774118   2.401205   2.495071   1.764348
    17  H    3.080979   2.267391   3.060680   2.468649   1.775970
    18  H    3.110433   3.622474   3.608783   3.770173   4.747433
    19  H    2.464764   3.672274   3.145233   2.709149   4.812695
    20  H    4.668421   4.810768   2.592462   3.815468   4.278200
    21  H    4.785931   5.495938   3.552069   4.215281   5.636390
    22  H    4.336130   4.963225   2.072189   2.898794   4.525790
                   16         17         18         19         20
    16  H    0.000000
    17  H    1.765312   0.000000
    18  H    5.488472   4.974655   0.000000
    19  H    4.978269   4.570018   1.758857   0.000000
    20  H    4.843868   5.155899   2.511542   3.070794   0.000000
    21  H    5.929038   6.097205   2.391987   2.498075   1.769391
    22  H    4.435645   4.928433   3.050290   2.491107   1.778197
                   21         22
    21  H    0.000000
    22  H    1.762824   0.000000
 Stoichiometry    C6H15N
 Framework group  C1[X(C6H15N)]
 Deg. of freedom    60
 Full point group                 C1      NOp   1
 Largest Abelian subgroup         C1      NOp   1
 Largest concise Abelian subgroup C1      NOp   1
                         Standard orientation:                         
 ---------------------------------------------------------------------
 Center     Atomic      Atomic             Coordinates (Angstroms)
 Number     Number       Type             X           Y           Z
 ---------------------------------------------------------------------
      1          6           0        2.137874   -1.346778   -0.202888
      2          6           0        0.680290   -1.260927    0.239478
      3          7           0       -0.020868   -0.032115   -0.177388
      4          6           0       -1.419345    0.043289    0.270248
      5          6           0       -2.348890   -1.057401   -0.228904
      6          6           0        0.791428    1.142508    0.186943
      7          6           0        0.164694    2.484195   -0.177544
      8          1           0        2.633505   -2.178294    0.309372
      9          1           0        2.683299   -0.429910    0.041817
     10          1           0        2.223964   -1.531119   -1.278495
     11          1           0        0.681432   -1.301166    1.336417
     12          1           0        0.148790   -2.156069   -0.105737
     13          1           0       -1.843829    1.016290   -0.005235
     14          1           0       -1.447573    0.056469    1.366562
     15          1           0       -2.326161   -1.151536   -1.318008
     16          1           0       -3.380087   -0.828028    0.059492
     17          1           0       -2.092825   -2.026666    0.209660
     18          1           0        1.747820    1.085217   -0.349640
     19          1           0        1.034399    1.136907    1.257201
     20          1           0       -0.119845    2.512893   -1.233614
     21          1           0        0.885801    3.289240   -0.002068
     22          1           0       -0.718925    2.701262    0.429997
 ---------------------------------------------------------------------
 Rotational constants (GHZ):           2.4455053           2.2426596           1.2546158
 Standard basis: 6-31G(d) (6D, 7F)
 There are   135 symmetry adapted cartesian basis functions of A   symmetry.
 There are   135 symmetry adapted basis functions of A   symmetry.
   135 basis functions,   256 primitive gaussians,   135 cartesian basis functions
    29 alpha electrons       29 beta electrons
       nuclear repulsion energy       335.7749175440 Hartrees.
 NAtoms=   22 NActive=   22 NUniq=   22 SFac= 1.00D+00 NAtFMM=   60 NAOKFM=F Big=F
 Integral buffers will be    131072 words long.
 Raffenetti 2 integral format.
 Two-electron integral symmetry is turned on.
 One-electron integrals computed using PRISM.
 NBasis=   135 RedAO= T EigKep=  4.04D-03  NBF=   135
 NBsUse=   135 1.00D-06 EigRej= -1.00D+00 NBFU=   135
 ExpMin= 1.61D-01 ExpMax= 4.17D+03 ExpMxC= 6.27D+02 IAcc=3 IRadAn=         5 AccDes= 0.00D+00
 Harris functional with IExCor=  402 and IRadAn=       5 diagonalized for initial guess.
 HarFok:  IExCor=  402 AccDes= 0.00D+00 IRadAn=         5 IDoV= 1 UseB2=F ITyADJ=14
 ICtDFT=  3500011 ScaDFX=  1.000000  1.000000  1.000000  1.000000
 FoFCou: FMM=F IPFlag=           0 FMFlag=      100000 FMFlg1=           0
         NFxFlg=           0 DoJE=T BraDBF=F KetDBF=T FulRan=T
         wScrn=  0.000000 ICntrl=       500 IOpCl=  0 I1Cent=   200000004 NGrid=           0
         NMat0=    1 NMatS0=      1 NMatT0=    0 NMatD0=    1 NMtDS0=    0 NMtDT0=    0
 Petite list used in FoFCou.
 Keep R1 ints in memory in canonical form, NReq=45019892.
 Gradient too large for Newton-Raphson -- use scaled steepest descent instead.
     Accept linear search using points  2 and  3.
 Gradient too large for Newton-Raphson -- use scaled steepest descent instead.
     Minimum is close to point  3 DX=  6.39D-02 DF= -9.27D-05 DXR=  8.37D-02 DFR=  7.08D-03 which will be used.
 Gradient too large for Newton-Raphson -- use scaled steepest descent instead.
 Gradient too large for Newton-Raphson -- use scaled steepest descent instead.
     Accept linear search using points  1 and  2.
 LinEq1:  Iter=  0 NonCon=     1 RMS=6.00D-05 Max=8.50D-04 NDo=     1
 AX will form     1 AO Fock derivatives at one time.
 LinEq1:  Iter=  1 NonCon=     1 RMS=3.47D-05 Max=3.39D-04 NDo=     1
 LinEq1:  Iter=  2 NonCon=     1 RMS=1.09D-05 Max=1.75D-04 NDo=     1
 LinEq1:  Iter=  3 NonCon=     1 RMS=6.73D-06 Max=4.74D-05 NDo=     1
 LinEq1:  Iter=  4 NonCon=     1 RMS=8.04D-07 Max=1.51D-05 NDo=     1
 LinEq1:  Iter=  5 NonCon=     1 RMS=3.08D-07 Max=4.82D-06 NDo=     1
 LinEq1:  Iter=  6 NonCon=     1 RMS=1.28D-07 Max=2.45D-06 NDo=     1
 LinEq1:  Iter=  7 NonCon=     1 RMS=1.77D-08 Max=1.63D-07 NDo=     1
 LinEq1:  Iter=  8 NonCon=     1 RMS=8.79D-09 Max=9.82D-08 NDo=     1
 LinEq1:  Iter=  9 NonCon=     0 RMS=3.61D-09 Max=4.55D-08 NDo=     1
 Linear equations converged to 7.841D-09 7.841D-08 after     9 iterations.
     Minimum is close to point  2 DX=  4.61D-05 DF= -5.68D-14 DXR=  4.61D-05 DFR=  2.14D-09 which will be used.
 LinEq1:  Iter=  0 NonCon=     1 RMS=4.84D-08 Max=1.45D-06 NDo=     1
 LinEq1:  Iter=  1 NonCon=     1 RMS=2.63D-08 Max=6.88D-07 NDo=     1
 LinEq1:  Iter=  2 NonCon=     1 RMS=1.09D-08 Max=1.44D-07 NDo=     1
 LinEq1:  Iter=  3 NonCon=     1 RMS=3.16D-09 Max=3.85D-08 NDo=     1
 LinEq1:  Iter=  4 NonCon=     1 RMS=9.30D-10 Max=1.35D-08 NDo=     1
 LinEq1:  Iter=  5 NonCon=     1 RMS=2.58D-10 Max=2.65D-09 NDo=     1
 LinEq1:  Iter=  6 NonCon=     1 RMS=1.20D-10 Max=9.44D-10 NDo=     1
 LinEq1:  Iter=  7 NonCon=     1 RMS=2.89D-11 Max=2.14D-10 NDo=     1
 LinEq1:  Iter=  8 NonCon=     0 RMS=7.09D-12 Max=6.72D-11 NDo=     1
 Linear equations converged to 2.269D-11 2.269D-10 after     8 iterations.
 SCF Done:  E(RB3LYP) =  -292.407254894     a.u. after    7 cycles
            Convg  =    0.2960D-10                    32 Fock formations.
              S**2 =  0.0000                  -V/T =  2.0100
 DoSCS=F DFT=T ScalE2(SS,OS)=  1.000000  1.000000
 Range of M.O.s used for correlation:     1   135
 NBasis=   135 NAE=    29 NBE=    29 NFC=     0 NFV=     0
 NROrb=    135 NOA=    29 NOB=    29 NVA=   106 NVB=   106
 Symmetrizing basis deriv contribution to polar:
 IMax=3 JMax=2 DiffMx= 0.00D+00
 G2DrvN: will do    23 centers at a time, making    1 passes.
 Calling FoFCou, ICntrl=  3107 FMM=F I1Cent=   0 AccDes= 0.00D+00.
 End of G2Drv F.D. properties file   721 does not exist.
 End of G2Drv F.D. properties file   722 does not exist.
 End of G2Drv F.D. properties file   788 does not exist.
          IDoAtm=1111111111111111111111
          Differentiating once with respect to electric field.
                with respect to dipole field.
          Differentiating once with respect to nuclear coordinates.
 Keep R1 ints in memory in canonical form, NReq=45034167.
          There are    69 degrees of freedom in the 1st order CPHF.  IDoFFX=6 NUNeed=     3.
     66 vectors produced by pass  0 Test12= 4.46D-15 1.45D-09 XBig12= 4.38D+01 1.89D+00.
 AX will form    66 AO Fock derivatives at one time.
     66 vectors produced by pass  1 Test12= 4.46D-15 1.45D-09 XBig12= 2.50D+00 3.78D-01.
     66 vectors produced by pass  2 Test12= 4.46D-15 1.45D-09 XBig12= 1.29D-02 2.20D-02.
     66 vectors produced by pass  3 Test12= 4.46D-15 1.45D-09 XBig12= 1.21D-05 4.89D-04.
     66 vectors produced by pass  4 Test12= 4.46D-15 1.45D-09 XBig12= 7.29D-09 1.13D-05.
     23 vectors produced by pass  5 Test12= 4.46D-15 1.45D-09 XBig12= 4.88D-12 3.60D-07.
      3 vectors produced by pass  6 Test12= 4.46D-15 1.45D-09 XBig12= 2.47D-15 8.54D-09.
 InvSVY:  IOpt=1 It=  1 EMax= 5.33D-15
 Solved reduced A of dimension   356 with    69 vectors.
 Isotropic polarizability for W=    0.000000       72.88 Bohr**3.
 End of Minotr F.D. properties file   721 does not exist.
 End of Minotr F.D. properties file   722 does not exist.
 End of Minotr F.D. properties file   788 does not exist.

 **********************************************************************

            Population analysis using the SCF density.

 **********************************************************************

 Orbital symmetries:
       Occupied  (A) (A) (A) (A) (A) (A) (A) (A) (A) (A) (A) (A)
                 (A) (A) (A) (A) (A) (A) (A) (A) (A) (A) (A) (A)
                 (A) (A) (A) (A) (A)
       Virtual   (A) (A) (A) (A) (A) (A) (A) (A) (A) (A) (A) (A)
                 (A) (A) (A) (A) (A) (A) (A) (A) (A) (A) (A) (A)
                 (A) (A) (A) (A) (A) (A) (A) (A) (A) (A) (A) (A)
                 (A) (A) (A) (A) (A) (A) (A) (A) (A) (A) (A) (A)
                 (A) (A) (A) (A) (A) (A) (A) (A) (A) (A) (A) (A)
                 (A) (A) (A) (A) (A) (A) (A) (A) (A) (A) (A) (A)
                 (A) (A) (A) (A) (A) (A) (A) (A) (A) (A) (A) (A)
                 (A) (A) (A) (A) (A) (A) (A) (A) (A) (A) (A) (A)
                 (A) (A) (A) (A) (A) (A) (A) (A) (A) (A)
 The electronic state is 1-A.
 Alpha  occ. eigenvalues --  -14.31290 -10.19962 -10.19951 -10.19898 -10.17142
 Alpha  occ. eigenvalues --  -10.17119 -10.17063  -0.90576  -0.75654  -0.75270
 Alpha  occ. eigenvalues --   -0.70325  -0.62183  -0.61778  -0.54869  -0.46743
 Alpha  occ. eigenvalues --   -0.46570  -0.46148  -0.43202  -0.43019  -0.39311
 Alpha  occ. eigenvalues --   -0.37216  -0.36998  -0.36794  -0.35590  -0.34451
 Alpha  occ. eigenvalues --   -0.34021  -0.32419  -0.32120  -0.19777
 Alpha virt. eigenvalues --    0.09561   0.10585   0.11079   0.13783   0.14950
 Alpha virt. eigenvalues --    0.15283   0.15631   0.16588   0.17294   0.18461
 Alpha virt. eigenvalues --    0.18684   0.19244   0.20468   0.20716   0.22106
 Alpha virt. eigenvalues --    0.22897   0.24379   0.25368   0.26969   0.28381
 Alpha virt. eigenvalues --    0.29065   0.49351   0.50509   0.53514   0.53830
 Alpha virt. eigenvalues --    0.54865   0.55425   0.59063   0.60937   0.61900
 Alpha virt. eigenvalues --    0.63745   0.66402   0.66838   0.68611   0.71271
 Alpha virt. eigenvalues --    0.73873   0.80257   0.80965   0.85481   0.86257
 Alpha virt. eigenvalues --    0.87974   0.89047   0.89622   0.90008   0.90374
 Alpha virt. eigenvalues --    0.90540   0.90987   0.92801   0.93397   0.95867
 Alpha virt. eigenvalues --    0.96368   0.99692   1.01106   1.02585   1.06293
 Alpha virt. eigenvalues --    1.09238   1.10026   1.11991   1.27737   1.30209
 Alpha virt. eigenvalues --    1.32765   1.41307   1.41657   1.56175   1.58033
 Alpha virt. eigenvalues --    1.59821   1.64026   1.69432   1.70625   1.82753
 Alpha virt. eigenvalues --    1.87084   1.87649   1.91734   1.96174   1.96841
 Alpha virt. eigenvalues --    1.97960   1.99406   2.01675   2.05121   2.07472
 Alpha virt. eigenvalues --    2.09038   2.18348   2.18847   2.20505   2.27993
 Alpha virt. eigenvalues --    2.31276   2.31370   2.32281   2.35138   2.36132
 Alpha virt. eigenvalues --    2.37820   2.45759   2.47113   2.55157   2.60970
 Alpha virt. eigenvalues --    2.77139   2.78146   2.85957   2.88225   4.03455
 Alpha virt. eigenvalues --    4.20639   4.20852   4.21503   4.40871   4.42509
 Alpha virt. eigenvalues --    4.52496
          Condensed to atoms (all electrons):
               1          2          3          4          5          6
     1  C    5.109339   0.377471  -0.042886   0.004816   0.000126  -0.010795
     2  C    0.377471   4.883790   0.319748  -0.045303  -0.003212  -0.048955
     3  N   -0.042886   0.319748   6.837270   0.329795  -0.048726   0.330515
     4  C    0.004816  -0.045303   0.329795   4.872797   0.378484  -0.046623
     5  C    0.000126  -0.003212  -0.048726   0.378484   5.096610   0.004988
     6  C   -0.010795  -0.048955   0.330515  -0.046623   0.004988   4.887030
     7  C    0.000767   0.005604  -0.048177  -0.005584   0.000285   0.372163
     8  H    0.364844  -0.027994   0.003280  -0.000141   0.000001   0.000332
     9  H    0.378683  -0.035887  -0.006708   0.000012   0.000001   0.002365
    10  H    0.370106  -0.031723   0.002908   0.000001  -0.000037  -0.001025
    11  H   -0.055467   0.346823  -0.059915  -0.008502  -0.001324  -0.012577
    12  H   -0.031687   0.380263  -0.038786  -0.004145   0.003856   0.005665
    13  H   -0.000181   0.005655  -0.037954   0.382971  -0.032047  -0.008885
    14  H   -0.000191  -0.011419  -0.059586   0.343046  -0.053865  -0.004771
    15  H   -0.000072  -0.000649   0.003910  -0.031802   0.366467   0.000096
    16  H   -0.000002   0.000062   0.003335  -0.027309   0.365852  -0.000137
    17  H   -0.000074   0.001936  -0.003117  -0.032705   0.377798  -0.000119
    18  H   -0.002412  -0.006832  -0.042460   0.005384  -0.000137   0.387481
    19  H   -0.001685  -0.008929  -0.056451  -0.008818  -0.000294   0.341315
    20  H   -0.000045   0.000053   0.003759  -0.001589  -0.000189  -0.031155
    21  H    0.000008  -0.000144   0.003357   0.000358  -0.000006  -0.027787
    22  H   -0.000011  -0.000132  -0.003593   0.000505  -0.000036  -0.031775
               7          8          9         10         11         12
     1  C    0.000767   0.364844   0.378683   0.370106  -0.055467  -0.031687
     2  C    0.005604  -0.027994  -0.035887  -0.031723   0.346823   0.380263
     3  N   -0.048177   0.003280  -0.006708   0.002908  -0.059915  -0.038786
     4  C   -0.005584  -0.000141   0.000012   0.000001  -0.008502  -0.004145
     5  C    0.000285   0.000001   0.000001  -0.000037  -0.001324   0.003856
     6  C    0.372163   0.000332   0.002365  -0.001025  -0.012577   0.005665
     7  C    5.107593  -0.000013  -0.000117  -0.000083  -0.000286  -0.000165
     8  H   -0.000013   0.578006  -0.027667  -0.030070  -0.002184  -0.000871
     9  H   -0.000117  -0.027667   0.564962  -0.032377  -0.004184   0.004901
    10  H   -0.000083  -0.030070  -0.032377   0.570081   0.006917  -0.007206
    11  H   -0.000286  -0.002184  -0.004184   0.006917   0.703700  -0.051609
    12  H   -0.000165  -0.000871   0.004901  -0.007206  -0.051609   0.598691
    13  H    0.005929   0.000002  -0.000004   0.000001  -0.000468   0.000078
    14  H   -0.001508   0.000018  -0.000027   0.000031   0.017339  -0.001657
    15  H   -0.000066   0.000001  -0.000001   0.000021   0.000330  -0.000224
    16  H    0.000002   0.000000   0.000000  -0.000000   0.000035  -0.000098
    17  H    0.000003   0.000004  -0.000000   0.000007   0.000128   0.002301
    18  H   -0.031377   0.000004   0.002596   0.000246  -0.001587   0.000063
    19  H   -0.049500   0.000076   0.000542   0.000438   0.018826  -0.000462
    20  H    0.367166   0.000000   0.000019   0.000019   0.000052  -0.000005
    21  H    0.366249  -0.000000   0.000033   0.000001   0.000014   0.000003
    22  H    0.376041   0.000001  -0.000004   0.000000  -0.000014  -0.000002
              13         14         15         16         17         18
     1  C   -0.000181  -0.000191  -0.000072  -0.000002  -0.000074  -0.002412
     2  C    0.005655  -0.011419  -0.000649   0.000062   0.001936  -0.006832
     3  N   -0.037954  -0.059586   0.003910   0.003335  -0.003117  -0.042460
     4  C    0.382971   0.343046  -0.031802  -0.027309  -0.032705   0.005384
     5  C   -0.032047  -0.053865   0.366467   0.365852   0.377798  -0.000137
     6  C   -0.008885  -0.004771   0.000096  -0.000137  -0.000119   0.387481
     7  C    0.005929  -0.001508  -0.000066   0.000002   0.000003  -0.031377
     8  H    0.000002   0.000018   0.000001   0.000000   0.000004   0.000004
     9  H   -0.000004  -0.000027  -0.000001   0.000000  -0.000000   0.002596
    10  H    0.000001   0.000031   0.000021  -0.000000   0.000007   0.000246
    11  H   -0.000468   0.017339   0.000330   0.000035   0.000128  -0.001587
    12  H    0.000078  -0.001657  -0.000224  -0.000098   0.002301   0.000063
    13  H    0.601808  -0.057065  -0.004844  -0.004237   0.005028   0.000254
    14  H   -0.057065   0.712066   0.006899   0.001393  -0.007033  -0.000536
    15  H   -0.004844   0.006899   0.565872  -0.028163  -0.032404  -0.000012
    16  H   -0.004237   0.001393  -0.028163   0.576113  -0.030385   0.000002
    17  H    0.005028  -0.007033  -0.032404  -0.030385   0.571309   0.000001
    18  H    0.000254  -0.000536  -0.000012   0.000002   0.000001   0.606300
    19  H   -0.001340   0.012728   0.000037   0.000014  -0.000011  -0.058251
    20  H   -0.000253   0.000550   0.000064   0.000006  -0.000001  -0.006221
    21  H    0.000000  -0.000001  -0.000000  -0.000000   0.000000  -0.004175
    22  H    0.001949   0.000424   0.000008   0.000008  -0.000002   0.005090
              19         20         21         22
     1  C   -0.001685  -0.000045   0.000008  -0.000011
     2  C   -0.008929   0.000053  -0.000144  -0.000132
     3  N   -0.056451   0.003759   0.003357  -0.003593
     4  C   -0.008818  -0.001589   0.000358   0.000505
     5  C   -0.000294  -0.000189  -0.000006  -0.000036
     6  C    0.341315  -0.031155  -0.027787  -0.031775
     7  C   -0.049500   0.367166   0.366249   0.376041
     8  H    0.000076   0.000000  -0.000000   0.000001
     9  H    0.000542   0.000019   0.000033  -0.000004
    10  H    0.000438   0.000019   0.000001   0.000000
    11  H    0.018826   0.000052   0.000014  -0.000014
    12  H   -0.000462  -0.000005   0.000003  -0.000002
    13  H   -0.001340  -0.000253   0.000000   0.001949
    14  H    0.012728   0.000550  -0.000001   0.000424
    15  H    0.000037   0.000064  -0.000000   0.000008
    16  H    0.000014   0.000006  -0.000000   0.000008
    17  H   -0.000011  -0.000001   0.000000  -0.000002
    18  H   -0.058251  -0.006221  -0.004175   0.005090
    19  H    0.704672   0.006851   0.000427  -0.006167
    20  H    0.006851   0.566220  -0.027974  -0.033095
    21  H    0.000427  -0.027974   0.577685  -0.030417
    22  H   -0.006167  -0.033095  -0.030417   0.573167
 Mulliken charges:
               1
     1  C   -0.460653
     2  C   -0.100229
     3  N   -0.389519
     4  C   -0.105648
     5  C   -0.454593
     6  C   -0.107346
     7  C   -0.464928
     8  H    0.142371
     9  H    0.152863
    10  H    0.151744
    11  H    0.103952
    12  H    0.141095
    13  H    0.143603
    14  H    0.103162
    15  H    0.154532
    16  H    0.143507
    17  H    0.147338
    18  H    0.146578
    19  H    0.105983
    20  H    0.155767
    21  H    0.142369
    22  H    0.148052
 Sum of Mulliken charges =   0.00000
 Mulliken charges with hydrogens summed into heavy atoms:
               1
     1  C   -0.013676
     2  C    0.144819
     3  N   -0.389519
     4  C    0.141117
     5  C   -0.009216
     6  C    0.145215
     7  C   -0.018739
 APT charges:
               1
     1  C    0.054858
     2  C    0.390889
     3  N   -0.658982
     4  C    0.401390
     5  C    0.060718
     6  C    0.381467
     7  C    0.062042
     8  H   -0.028851
     9  H   -0.005362
    10  H   -0.023738
    11  H   -0.121545
    12  H   -0.046778
    13  H   -0.043275
    14  H   -0.125727
    15  H   -0.013773
    16  H   -0.027004
    17  H   -0.022900
    18  H   -0.047038
    19  H   -0.120160
    20  H   -0.012578
    21  H   -0.027632
    22  H   -0.026018
 Sum of APT charges =   0.00000
 APT charges with hydrogens summed into heavy atoms:
               1
     1  C   -0.003094
     2  C    0.222566
     3  N   -0.658982
     4  C    0.232387
     5  C   -0.002959
     6  C    0.214269
     7  C   -0.004186
 Electronic spatial extent (au):  <R**2>=           1044.2572
 Charge=              0.0000 electrons
 Dipole moment (field-independent basis, Debye):
    X=              0.0380    Y=              0.0612    Z=              0.4640  Tot=              0.4696
 Quadrupole moment (field-independent basis, Debye-Ang):
   XX=            -45.5743   YY=            -45.7554   ZZ=            -48.6992
   XY=              0.0136   XZ=             -0.0988   YZ=             -0.0021
 Traceless Quadrupole moment (field-independent basis, Debye-Ang):
   XX=              1.1020   YY=              0.9209   ZZ=             -2.0229
   XY=              0.0136   XZ=             -0.0988   YZ=             -0.0021
 Octapole moment (field-independent basis, Debye-Ang**2):
  XXX=             -2.3503  YYY=             -1.8876  ZZZ=             -2.3006  XYY=              1.7799
  XXY=              1.7937  XXZ=             -0.3865  XZZ=             -0.0251  YZZ=             -0.0013
  YYZ=             -0.4360  XYZ=             -0.3267
 Hexadecapole moment (field-independent basis, Debye-Ang**3):
 XXXX=           -688.3599 YYYY=           -634.7379 ZZZZ=           -108.3047 XXXY=             -0.3507
 XXXZ=             -0.7830 YYYX=              1.2142 YYYZ=             -0.0139 ZZZX=              0.5152
 ZZZY=              0.6587 XXYY=           -219.3749 XXZZ=           -134.6380 YYZZ=           -124.4881
 XXYZ=             -0.8292 YYXZ=              0.0460 ZZXY=             -1.0246
 N-N= 3.357749175440D+02 E-N=-1.347687311937D+03  KE= 2.895162541611D+02
  Exact polarizability:  78.626  -0.306  77.476   0.129   0.097  62.534
 Approx polarizability:  97.832  -0.186  97.289   0.345   0.223  92.547
 Calling FoFJK, ICntrl=    100127 FMM=F ISym2X=0 I1Cent= 0 IOpClX= 0 NMat=1 NMatS=1 NMatT=0.
 ***** Axes restored to original set *****
 -------------------------------------------------------------------
 Center     Atomic                   Forces (Hartrees/Bohr)
 Number     Number              X              Y              Z
 -------------------------------------------------------------------
      1        6          -0.002356205   -0.000125785   -0.005344132
      2        6           0.003171555    0.002359452    0.008355393
      3        7          -0.003154447    0.006183945   -0.016547850
      4        6           0.009570269   -0.003483553    0.001451832
      5        6          -0.001145918   -0.002286715   -0.002639945
      6        6          -0.004789400    0.010042718   -0.001984304
      7        6           0.000860282    0.001186563    0.002812952
      8        1          -0.000794310   -0.000200338    0.000953502
      9        1          -0.003577650   -0.005434002   -0.002868060
     10        1           0.001683379    0.002493176   -0.000913365
     11        1          -0.000276096   -0.006580173    0.007338257
     12        1           0.001242754    0.004214321    0.000490403
     13        1          -0.002235929   -0.000198517   -0.007278531
     14        1           0.000032712   -0.006567578    0.008791640
     15        1           0.000821404    0.000049652   -0.002420031
     16        1           0.000736580   -0.000579967    0.001052310
     17        1          -0.001938308    0.000276724   -0.000489511
     18        1          -0.002247010    0.002062243    0.004587246
     19        1           0.003858714   -0.005273428    0.005128214
     20        1          -0.001281490    0.000525431   -0.000101869
     21        1           0.000607645   -0.000569361   -0.000202387
     22        1           0.001211467    0.001905191   -0.000171765
 -------------------------------------------------------------------
 Cartesian Forces:  Max     0.016547850 RMS     0.004220588
 FormGI is forming the generalized inverse of G from B-inverse, IUseBI=4.

 GradGradGradGradGradGradGradGradGradGradGradGradGradGradGradGradGradGrad
 Berny optimization.
 Internal  Forces:  Max     0.021150083 RMS     0.004796120
 Search for a local minimum.
 Step number   1 out of a maximum of  115
 All quantities printed in internal units (Hartrees-Bohrs-Radians)
 Mixed Optimization -- RFO/linear search
 Second derivative matrix not updated -- analytic derivatives used.
 ITU=  0
     Eigenvalues ---   -0.00286   0.00169   0.00191   0.00292   0.00321
     Eigenvalues ---    0.00345   0.01796   0.04129   0.04358   0.04497
     Eigenvalues ---    0.04638   0.04662   0.04743   0.04790   0.04818
     Eigenvalues ---    0.04869   0.04987   0.05073   0.05343   0.08620
     Eigenvalues ---    0.08903   0.09454   0.11730   0.11778   0.12002
     Eigenvalues ---    0.12648   0.12739   0.12819   0.13820   0.14219
     Eigenvalues ---    0.14863   0.16538   0.16593   0.16642   0.18526
     Eigenvalues ---    0.21290   0.22450   0.26277   0.27552   0.29539
     Eigenvalues ---    0.29844   0.30061   0.31193   0.32058   0.32091
     Eigenvalues ---    0.33007   0.33593   0.33682   0.33971   0.33982
     Eigenvalues ---    0.34049   0.34157   0.34222   0.34277   0.34938
     Eigenvalues ---    0.35032   0.35097   0.35859   0.41098   0.60851
 RFO step:  Lambda=-1.00470030D-02 EMin=-2.86330818D-03
 Linear search not attempted -- first point.
 Iteration  1 RMS(Cart)=  0.14919149 RMS(Int)=  0.02978690
 Iteration  2 RMS(Cart)=  0.07802820 RMS(Int)=  0.00257104
 Iteration  3 RMS(Cart)=  0.00392348 RMS(Int)=  0.00069378
 Iteration  4 RMS(Cart)=  0.00000918 RMS(Int)=  0.00069376
 Iteration  5 RMS(Cart)=  0.00000001 RMS(Int)=  0.00069376
 Variable       Old X    -DE/DX   Delta X   Delta X   Delta X     New X
                                 (Linear)    (Quad)   (Total)
    R1        2.88306   0.00623   0.00000   0.01259   0.01259   2.89565
    R2        2.06964   0.00030   0.00000   0.00125   0.00125   2.07089
    R3        2.06838  -0.00411   0.00000  -0.00216  -0.00216   2.06622
    R4        2.06865   0.00110   0.00000   0.00037   0.00037   2.06902
    R5        2.78719   0.00160   0.00000  -0.01772  -0.01772   2.76946
    R6        2.07431   0.00930   0.00000   0.02251   0.02251   2.09682
    R7        2.07263  -0.00154   0.00000  -0.00708  -0.00708   2.06555
    R8        2.77848  -0.00811   0.00000  -0.00376  -0.00376   2.77471
    R9        2.78522  -0.00184   0.00000  -0.00366  -0.00366   2.78155
   R10        2.88127   0.00112   0.00000   0.01031   0.01031   2.89159
   R11        2.07251  -0.00242   0.00000  -0.00792  -0.00792   2.06460
   R12        2.07257   0.01039   0.00000   0.02503   0.02503   2.09760
   R13        2.06623   0.00157   0.00000   0.00377   0.00377   2.07000
   R14        2.06936   0.00041   0.00000   0.00160   0.00160   2.07096
   R15        2.06783   0.00056   0.00000   0.00011   0.00011   2.06794
   R16        2.88192   0.00377   0.00000   0.01036   0.01036   2.89228
   R17        2.07516  -0.00535   0.00000  -0.01358  -0.01358   2.06158
   R18        2.07398   0.00829   0.00000   0.02395   0.02395   2.09794
   R19        2.06756   0.00099   0.00000   0.00307   0.00307   2.07063
   R20        2.06913   0.00063   0.00000   0.00168   0.00168   2.07081
   R21        2.06751   0.00015   0.00000  -0.00014  -0.00014   2.06737
    A1        1.91714  -0.00309   0.00000   0.00269   0.00258   1.91972
    A2        1.94348   0.00732   0.00000   0.03537   0.03539   1.97887
    A3        1.94928  -0.00059   0.00000  -0.02483  -0.02468   1.92460
    A4        1.88169  -0.00267   0.00000  -0.01162  -0.01183   1.86986
    A5        1.87144   0.00152   0.00000   0.01794   0.01796   1.88941
    A6        1.89816  -0.00278   0.00000  -0.01998  -0.01974   1.87842
    A7        2.00326   0.01565   0.00000  -0.01948  -0.02191   1.98135
    A8        1.86158  -0.00115   0.00000   0.06844   0.06786   1.92943
    A9        1.90264  -0.00523   0.00000  -0.03576  -0.03820   1.86444
   A10        1.88965  -0.00076   0.00000   0.04780   0.04707   1.93673
   A11        1.93974  -0.01036   0.00000  -0.05340  -0.05567   1.88407
   A12        1.85993   0.00142   0.00000   0.00030   0.00188   1.86181
   A13        1.99198  -0.01610   0.00000  -0.04106  -0.04206   1.94992
   A14        1.90934   0.02115   0.00000   0.01055   0.00794   1.91728
   A15        1.99114  -0.00652   0.00000  -0.04634  -0.04725   1.94389
   A16        2.02994  -0.00980   0.00000  -0.03644  -0.03744   1.99250
   A17        1.91470  -0.00022   0.00000  -0.03124  -0.03306   1.88164
   A18        1.90649   0.00621   0.00000   0.03636   0.03682   1.94331
   A19        1.89892   0.00314   0.00000  -0.01872  -0.02066   1.87826
   A20        1.89677   0.00050   0.00000   0.01533   0.01577   1.91254
   A21        1.80335   0.00148   0.00000   0.04478   0.04518   1.84853
   A22        1.95580  -0.00273   0.00000  -0.02831  -0.02824   1.92756
   A23        1.91418  -0.00115   0.00000  -0.00162  -0.00170   1.91247
   A24        1.94505   0.00316   0.00000   0.02747   0.02754   1.97258
   A25        1.87542   0.00200   0.00000   0.01414   0.01406   1.88948
   A26        1.89451  -0.00060   0.00000  -0.00444  -0.00425   1.89026
   A27        1.87585  -0.00063   0.00000  -0.00690  -0.00698   1.86887
   A28        1.99937   0.00105   0.00000   0.00908   0.00907   2.00843
   A29        1.89402  -0.00105   0.00000  -0.00885  -0.00888   1.88514
   A30        1.93799   0.00044   0.00000  -0.00651  -0.00659   1.93140
   A31        1.86192  -0.00025   0.00000   0.00395   0.00398   1.86590
   A32        1.90555  -0.00088   0.00000   0.00807   0.00807   1.91362
   A33        1.85816   0.00065   0.00000  -0.00672  -0.00678   1.85138
   A34        1.93976  -0.00108   0.00000  -0.00969  -0.00969   1.93006
   A35        1.91547  -0.00124   0.00000  -0.00744  -0.00747   1.90800
   A36        1.95383   0.00351   0.00000   0.02184   0.02187   1.97570
   A37        1.88250   0.00087   0.00000   0.00507   0.00501   1.88750
   A38        1.89732  -0.00118   0.00000  -0.00638  -0.00633   1.89099
   A39        1.87238  -0.00096   0.00000  -0.00368  -0.00366   1.86871
    D1        2.94521   0.00595   0.00000   0.05624   0.05608   3.00129
    D2        0.85250  -0.00184   0.00000  -0.04029  -0.04065   0.81184
    D3       -1.14945  -0.00035   0.00000  -0.05857  -0.05785  -1.20730
    D4        0.86200   0.00666   0.00000   0.04656   0.04621   0.90821
    D5       -1.23072  -0.00113   0.00000  -0.04997  -0.05052  -1.28124
    D6        3.05052   0.00036   0.00000  -0.06825  -0.06771   2.98281
    D7       -1.26388   0.00545   0.00000   0.06471   0.06454  -1.19934
    D8        2.92660  -0.00233   0.00000  -0.03182  -0.03219   2.89440
    D9        0.92465  -0.00084   0.00000  -0.05010  -0.04939   0.87526
   D10       -3.12927  -0.00374   0.00000  -0.33100  -0.33021   2.82371
   D11       -0.87460  -0.00757   0.00000  -0.41894  -0.41849  -1.29309
   D12       -1.05220   0.00416   0.00000  -0.22240  -0.22173  -1.27393
   D13        1.20247   0.00034   0.00000  -0.31033  -0.31002   0.89245
   D14        0.98487  -0.00041   0.00000  -0.22353  -0.22447   0.76041
   D15       -3.04364  -0.00423   0.00000  -0.31147  -0.31275   2.92679
   D16       -1.05952   0.00437   0.00000  -0.07463  -0.07316  -1.13268
   D17        3.05980   0.00780   0.00000   0.00473   0.00493   3.06473
   D18        1.09464   0.00285   0.00000  -0.05128  -0.05044   1.04420
   D19        3.01078  -0.00532   0.00000  -0.01145  -0.01165   2.99913
   D20        0.84692  -0.00189   0.00000   0.06791   0.06644   0.91335
   D21       -1.11824  -0.00684   0.00000   0.01190   0.01107  -1.10717
   D22       -3.12927   0.00473   0.00000  -0.06279  -0.06267   3.09124
   D23        1.07578   0.00512   0.00000  -0.06732  -0.06716   1.00862
   D24       -0.96078   0.00471   0.00000  -0.05018  -0.05011  -1.01089
   D25       -0.87414  -0.00436   0.00000  -0.14780  -0.14792  -1.02206
   D26       -2.95227  -0.00397   0.00000  -0.15233  -0.15241  -3.10468
   D27        1.29436  -0.00437   0.00000  -0.13519  -0.13536   1.15900
   D28       -0.93420   0.00223   0.00000   0.04814   0.04785  -0.88635
   D29       -3.01546   0.00223   0.00000   0.04953   0.04916  -2.96629
   D30        1.19272   0.00178   0.00000   0.04198   0.04155   1.23427
   D31        1.23778  -0.00281   0.00000  -0.03687  -0.03644   1.20134
   D32       -0.84348  -0.00281   0.00000  -0.03548  -0.03512  -0.87861
   D33       -2.91849  -0.00326   0.00000  -0.04303  -0.04274  -2.96123
   D34       -3.09339   0.00074   0.00000   0.01380   0.01388  -3.07951
   D35        1.10854   0.00074   0.00000   0.01519   0.01519   1.12373
   D36       -0.96647   0.00029   0.00000   0.00764   0.00757  -0.95890
   D37       -0.92451   0.00053   0.00000   0.01872   0.01876  -0.90576
   D38       -3.00530   0.00092   0.00000   0.02330   0.02329  -2.98201
   D39        1.20084   0.00071   0.00000   0.01897   0.01898   1.21981
   D40        1.17157  -0.00032   0.00000   0.01591   0.01594   1.18751
   D41       -0.90922   0.00007   0.00000   0.02049   0.02048  -0.88874
   D42       -2.98627  -0.00014   0.00000   0.01616   0.01616  -2.97011
   D43       -3.11014  -0.00013   0.00000   0.01408   0.01409  -3.09605
   D44        1.09226   0.00026   0.00000   0.01866   0.01862   1.11088
   D45       -0.98479   0.00005   0.00000   0.01433   0.01431  -0.97048
         Item               Value     Threshold  Converged?
 Maximum Force            0.021150     0.000450     NO 
 RMS     Force            0.004796     0.000300     NO 
 Maximum Displacement     0.863554     0.001800     NO 
 RMS     Displacement     0.213342     0.001200     NO 
 Predicted change in Energy=-7.639996D-03
 GradGradGradGradGradGradGradGradGradGradGradGradGradGradGradGradGradGrad

                          Input orientation:                          
 ---------------------------------------------------------------------
 Center     Atomic      Atomic             Coordinates (Angstroms)
 Number     Number       Type             X           Y           Z
 ---------------------------------------------------------------------
      1          6           0        2.889462   -0.465523   -1.348341
      2          6           0        2.656680   -0.017138    0.098289
      3          7           0        3.036568    1.376269    0.347094
      4          6           0        2.422280    1.896008    1.575292
      5          6           0        0.895738    1.986793    1.522139
      6          6           0        4.503132    1.494672    0.389082
      7          6           0        5.033911    2.918194    0.574506
      8          1           0        2.723854   -1.545153   -1.437210
      9          1           0        3.902484   -0.264377   -1.707283
     10          1           0        2.192097    0.044908   -2.020573
     11          1           0        3.170095   -0.700957    0.805388
     12          1           0        1.585077   -0.113658    0.290884
     13          1           0        2.807934    2.904724    1.740818
     14          1           0        2.729032    1.303530    2.462412
     15          1           0        0.575176    2.515002    0.617632
     16          1           0        0.530468    2.543540    2.392552
     17          1           0        0.407939    1.007373    1.539272
     18          1           0        4.898310    1.129817   -0.560059
     19          1           0        4.927242    0.833144    1.173310
     20          1           0        4.588872    3.594510   -0.163845
     21          1           0        6.120110    2.921871    0.429643
     22          1           0        4.841659    3.323253    1.572410
 ---------------------------------------------------------------------
                    Distance matrix (angstroms):
                    1          2          3          4          5
     1  C    0.000000
     2  C    1.532310   0.000000
     3  N    2.507655   1.465538   0.000000
     4  C    3.787177   2.428293   1.468315   0.000000
     5  C    4.269478   3.023905   2.517265   1.530162   0.000000
     6  C    3.076513   2.404062   1.471935   2.428603   3.813042
     7  C    4.443595   3.807122   2.533501   2.977760   4.346261
     8  H    1.095868   2.167279   3.437476   4.583416   4.957257
     9  H    1.093395   2.207542   2.768031   4.199234   4.953529
    10  H    1.094877   2.170083   2.844556   4.050901   4.242908
    11  H    2.184658   1.109591   2.131368   2.810019   3.593108
    12  H    2.124214   1.093043   2.080834   2.527720   2.530429
    13  H    4.572539   3.355303   2.081085   1.092537   2.132348
    14  H    4.204417   2.708963   2.138794   1.110004   2.170697
    15  H    4.254938   3.318751   2.725501   2.170728   1.095399
    16  H    5.349167   4.042461   3.439034   2.160130   1.095905
    17  H    4.082363   2.860576   2.909822   2.201940   1.094306
    18  H    2.683648   2.602658   2.085604   3.358198   4.592443
    19  H    3.492535   2.652187   2.133603   2.750655   4.207803
    20  H    4.557948   4.104398   2.755231   3.256322   4.366525
    21  H    5.007270   4.554439   3.450207   4.004854   5.418670
    22  H    5.166883   4.255041   2.924124   2.808992   4.166407
                    6          7          8          9         10
     6  C    0.000000
     7  C    1.530530   0.000000
     8  H    3.967583   5.413394   0.000000
     9  H    2.801745   4.076205   1.761391   0.000000
    10  H    3.639936   4.802719   1.775211   1.766135   0.000000
    11  H    2.602131   4.077422   2.437425   2.653396   3.082020
    12  H    3.333379   4.600764   2.516406   3.063619   2.395088
    13  H    2.586336   2.513054   5.468852   4.809433   4.765067
    14  H    2.735447   3.388776   4.829294   4.606700   4.687172
    15  H    4.064745   4.477135   5.032301   4.919467   3.959283
    16  H    4.571223   4.871001   6.016264   6.005292   5.336650
    17  H    4.281473   5.097218   4.553932   4.936529   4.096590
    18  H    1.090941   2.122244   3.557122   2.061933   3.260938
    19  H    1.110182   2.171953   4.162455   3.248461   4.278226
    20  H    2.173108   1.095730   5.613902   4.212403   4.668152
    21  H    2.157118   1.095823   5.913882   4.431309   5.450666
    22  H    2.204217   1.094004   6.102810   4.950710   5.538705
                   11         12         13         14         15
    11  H    0.000000
    12  H    1.766895   0.000000
    13  H    3.742609   3.564873   0.000000
    14  H    2.637847   2.834183   1.758052   0.000000
    15  H    4.136574   2.834875   2.529553   3.083825   0.000000
    16  H    4.473643   3.548226   2.396260   2.525111   1.775712
    17  H    3.329637   2.049595   3.066030   2.515426   1.774918
    18  H    2.864071   3.639759   3.579665   3.724416   4.689902
    19  H    2.361439   3.584017   3.017445   2.591365   4.698713
    20  H    4.626378   4.793754   2.697274   3.950295   4.229161
    21  H    4.687073   5.458958   3.562301   4.272071   5.563019
    22  H    4.424558   4.905099   2.083163   3.055255   4.446094
                   16         17         18         19         20
    16  H    0.000000
    17  H    1.761508   0.000000
    18  H    5.458439   4.958388   0.000000
    19  H    4.872743   4.537442   1.758812   0.000000
    20  H    4.910229   5.203277   2.515442   3.086685   0.000000
    21  H    5.936349   6.125805   2.384065   2.517689   1.774644
    22  H    4.457236   5.002227   3.059705   2.523341   1.775405
                   21         22
    21  H    0.000000
    22  H    1.761096   0.000000
 Stoichiometry    C6H15N
 Framework group  C1[X(C6H15N)]
 Deg. of freedom    60
 Full point group                 C1      NOp   1
 Largest Abelian subgroup         C1      NOp   1
 Largest concise Abelian subgroup C1      NOp   1
                         Standard orientation:                         
 ---------------------------------------------------------------------
 Center     Atomic      Atomic             Coordinates (Angstroms)
 Number     Number       Type             X           Y           Z
 ---------------------------------------------------------------------
      1          6           0        1.932113    1.612088   -0.327333
      2          6           0        1.309968    0.418714    0.405313
      3          7           0        0.004077    0.021096   -0.127931
      4          6           0       -0.359269   -1.340682    0.283757
      5          6           0        0.558212   -2.429964   -0.275787
      6          6           0       -1.020327    0.996217    0.279902
      7          6           0       -2.423208    0.732490   -0.272273
      8          1           0        2.830111    1.950046    0.202110
      9          1           0        1.260926    2.471779   -0.404480
     10          1           0        2.220894    1.324708   -1.343587
     11          1           0        1.249572    0.619103    1.494987
     12          1           0        1.995915   -0.422831    0.278738
     13          1           0       -1.370043   -1.541064   -0.079314
     14          1           0       -0.409930   -1.428598    1.389114
     15          1           0        0.668601   -2.317551   -1.359797
     16          1           0        0.122803   -3.415486   -0.075352
     17          1           0        1.555805   -2.421870    0.173932
     18          1           0       -0.715332    1.978215   -0.084530
     19          1           0       -1.064127    1.078829    1.386139
     20          1           0       -2.390975    0.602175   -1.359749
     21          1           0       -3.067444    1.590705   -0.050337
     22          1           0       -2.900242   -0.149016    0.166168
 ---------------------------------------------------------------------
 Rotational constants (GHZ):           2.3926746           2.2617066           1.2755870
 Standard basis: 6-31G(d) (6D, 7F)
 There are   135 symmetry adapted cartesian basis functions of A   symmetry.
 There are   135 symmetry adapted basis functions of A   symmetry.
   135 basis functions,   256 primitive gaussians,   135 cartesian basis functions
    29 alpha electrons       29 beta electrons
       nuclear repulsion energy       335.7226602612 Hartrees.
 NAtoms=   22 NActive=   22 NUniq=   22 SFac= 1.00D+00 NAtFMM=   60 NAOKFM=F Big=F
 Integral buffers will be    131072 words long.
 Raffenetti 2 integral format.
 Two-electron integral symmetry is turned on.
 One-electron integrals computed using PRISM.
 NBasis=   135 RedAO= T EigKep=  4.22D-03  NBF=   135
 NBsUse=   135 1.00D-06 EigRej= -1.00D+00 NBFU=   135
 Initial guess from the checkpoint file:  "base_4_conf211.chk"
 B after Tr=     0.000000   -0.000000   -0.000000
         Rot=    0.785458    0.009069    0.007326   -0.618805 Ang=  76.47 deg.
 ExpMin= 1.61D-01 ExpMax= 4.17D+03 ExpMxC= 6.27D+02 IAcc=2 IRadAn=         4 AccDes= 0.00D+00
 Harris functional with IExCor=  402 and IRadAn=       4 diagonalized for initial guess.
 HarFok:  IExCor=  402 AccDes= 0.00D+00 IRadAn=         4 IDoV= 1 UseB2=F ITyADJ=14
 ICtDFT=  3500011 ScaDFX=  1.000000  1.000000  1.000000  1.000000
 FoFCou: FMM=F IPFlag=           0 FMFlag=      100000 FMFlg1=           0
         NFxFlg=           0 DoJE=T BraDBF=F KetDBF=T FulRan=T
         wScrn=  0.000000 ICntrl=       500 IOpCl=  0 I1Cent=   200000004 NGrid=           0
         NMat0=    1 NMatS0=      1 NMatT0=    0 NMatD0=    1 NMtDS0=    0 NMtDT0=    0
 Petite list used in FoFCou.
 Keep R1 ints in memory in canonical form, NReq=45019892.
 Gradient too large for Newton-Raphson -- use scaled steepest descent instead.
     Minimum is close to point  4 DX=  1.16D-01 DF= -3.40D-04 DXR=  8.79D-02 DFR=  7.79D-03 which will be used.
 Gradient too large for Newton-Raphson -- use scaled steepest descent instead.
     Accept linear search using points  2 and  3.
 Gradient too large for Newton-Raphson -- use scaled steepest descent instead.
     Accept linear search using points  1 and  2.
 Gradient too large for Newton-Raphson -- use scaled steepest descent instead.
     Accept linear search using points  1 and  2.
 Gradient too large for Newton-Raphson -- use scaled steepest descent instead.
 Gradient too large for Newton-Raphson -- use scaled steepest descent instead.
     Accept linear search using points  1 and  2.
 Gradient too large for Newton-Raphson -- use scaled steepest descent instead.
     Accept linear search using points  2 and  3.
 Gradient too large for Newton-Raphson -- use scaled steepest descent instead.
     Accept linear search using points  1 and  2.
 Gradient too large for Newton-Raphson -- use scaled steepest descent instead.
     Accept linear search using points  2 and  3.
     Minimum is close to point  3 DX= -1.22D-01 DF= -5.20D-07 DXR=  8.89D-02 DFR=  4.63D-03 which will be used.
 Gradient too large for Newton-Raphson -- use scaled steepest descent instead.
     Accept linear search using points  1 and  2.
 LinEq1:  Iter=  0 NonCon=     1 RMS=1.36D-04 Max=1.83D-03 NDo=     1
 AX will form     1 AO Fock derivatives at one time.
 LinEq1:  Iter=  1 NonCon=     1 RMS=6.24D-06 Max=6.46D-05 NDo=     1
 LinEq1:  Iter=  2 NonCon=     1 RMS=4.52D-06 Max=6.70D-05 NDo=     1
 LinEq1:  Iter=  3 NonCon=     1 RMS=1.56D-06 Max=1.62D-05 NDo=     1
 LinEq1:  Iter=  4 NonCon=     1 RMS=7.77D-07 Max=6.30D-06 NDo=     1
 LinEq1:  Iter=  5 NonCon=     1 RMS=2.44D-07 Max=2.64D-06 NDo=     1
 LinEq1:  Iter=  6 NonCon=     1 RMS=7.52D-08 Max=7.85D-07 NDo=     1
 LinEq1:  Iter=  7 NonCon=     1 RMS=3.63D-08 Max=2.78D-07 NDo=     1
 LinEq1:  Iter=  8 NonCon=     1 RMS=1.04D-08 Max=1.13D-07 NDo=     1
 LinEq1:  Iter=  9 NonCon=     0 RMS=2.52D-09 Max=2.65D-08 NDo=     1
 Linear equations converged to 7.841D-09 7.841D-08 after     9 iterations.
     Minimum is close to point  2 DX=  6.36D-05 DF= -2.27D-13 DXR=  6.36D-05 DFR=  3.55D-09 which will be used.
 LinEq1:  Iter=  0 NonCon=     1 RMS=2.57D-07 Max=3.07D-06 NDo=     1
 LinEq1:  Iter=  1 NonCon=     1 RMS=8.50D-08 Max=9.80D-07 NDo=     1
 LinEq1:  Iter=  2 NonCon=     1 RMS=4.93D-08 Max=5.83D-07 NDo=     1
 LinEq1:  Iter=  3 NonCon=     1 RMS=1.63D-08 Max=2.29D-07 NDo=     1
 LinEq1:  Iter=  4 NonCon=     1 RMS=4.54D-09 Max=3.54D-08 NDo=     1
 LinEq1:  Iter=  5 NonCon=     1 RMS=2.25D-09 Max=2.17D-08 NDo=     1
 LinEq1:  Iter=  6 NonCon=     1 RMS=7.74D-10 Max=7.76D-09 NDo=     1
 LinEq1:  Iter=  7 NonCon=     1 RMS=1.45D-10 Max=1.46D-09 NDo=     1
 LinEq1:  Iter=  8 NonCon=     0 RMS=6.25D-11 Max=4.17D-10 NDo=     1
 Linear equations converged to 1.452D-10 1.452D-09 after     8 iterations.
 SCF Done:  E(RB3LYP) =  -292.413619829     a.u. after   13 cycles
            Convg  =    0.1648D-09                    46 Fock formations.
              S**2 =  0.0000                  -V/T =  2.0101
 DoSCS=F DFT=T ScalE2(SS,OS)=  1.000000  1.000000
 Range of M.O.s used for correlation:     1   135
 NBasis=   135 NAE=    29 NBE=    29 NFC=     0 NFV=     0
 NROrb=    135 NOA=    29 NOB=    29 NVA=   106 NVB=   106
 Symmetrizing basis deriv contribution to polar:
 IMax=3 JMax=2 DiffMx= 0.00D+00
 G2DrvN: will do    23 centers at a time, making    1 passes.
 Calling FoFCou, ICntrl=  3107 FMM=F I1Cent=   0 AccDes= 0.00D+00.
 End of G2Drv F.D. properties file   721 does not exist.
 End of G2Drv F.D. properties file   722 does not exist.
 End of G2Drv F.D. properties file   788 does not exist.
          IDoAtm=1111111111111111111111
          Differentiating once with respect to electric field.
                with respect to dipole field.
          Differentiating once with respect to nuclear coordinates.
 Keep R1 ints in memory in canonical form, NReq=45034167.
          There are    69 degrees of freedom in the 1st order CPHF.  IDoFFX=6 NUNeed=     3.
     66 vectors produced by pass  0 Test12= 4.46D-15 1.45D-09 XBig12= 4.37D+01 2.26D+00.
 AX will form    66 AO Fock derivatives at one time.
     66 vectors produced by pass  1 Test12= 4.46D-15 1.45D-09 XBig12= 2.82D+00 3.30D-01.
     66 vectors produced by pass  2 Test12= 4.46D-15 1.45D-09 XBig12= 1.46D-02 2.13D-02.
     66 vectors produced by pass  3 Test12= 4.46D-15 1.45D-09 XBig12= 1.44D-05 6.26D-04.
     66 vectors produced by pass  4 Test12= 4.46D-15 1.45D-09 XBig12= 9.70D-09 1.25D-05.
     22 vectors produced by pass  5 Test12= 4.46D-15 1.45D-09 XBig12= 5.92D-12 3.34D-07.
      3 vectors produced by pass  6 Test12= 4.46D-15 1.45D-09 XBig12= 2.88D-15 1.16D-08.
 InvSVY:  IOpt=1 It=  1 EMax= 7.11D-15
 Solved reduced A of dimension   355 with    69 vectors.
 Isotropic polarizability for W=    0.000000       72.88 Bohr**3.
 End of Minotr F.D. properties file   721 does not exist.
 End of Minotr F.D. properties file   722 does not exist.
 End of Minotr F.D. properties file   788 does not exist.
 Calling FoFJK, ICntrl=    100127 FMM=F ISym2X=0 I1Cent= 0 IOpClX= 0 NMat=1 NMatS=1 NMatT=0.
 ***** Axes restored to original set *****
 -------------------------------------------------------------------
 Center     Atomic                   Forces (Hartrees/Bohr)
 Number     Number              X              Y              Z
 -------------------------------------------------------------------
      1        6          -0.000758385   -0.000777622   -0.000508911
      2        6          -0.001291691   -0.000517081   -0.002807650
      3        7           0.002579125    0.002018775    0.001013075
      4        6          -0.000177944   -0.000954646    0.001376623
      5        6          -0.000282125    0.000766999    0.000066275
      6        6          -0.000391828    0.001803107    0.001856742
      7        6          -0.000065033    0.000215429   -0.000482533
      8        1          -0.000890452   -0.000176258   -0.000114408
      9        1           0.000912656   -0.000305059    0.000792578
     10        1           0.000505806    0.000589654   -0.000277796
     11        1           0.000396417   -0.000096682   -0.000643058
     12        1           0.000564268   -0.001219069    0.001294226
     13        1          -0.000122488    0.000351737   -0.000714941
     14        1          -0.000391902   -0.000679745    0.000298478
     15        1           0.000114270   -0.000107503   -0.000128875
     16        1          -0.000030333    0.000026337    0.000062695
     17        1          -0.000348830    0.000116316   -0.000046519
     18        1          -0.000417646   -0.002087652   -0.001865853
     19        1           0.000145284    0.000927307    0.000848197
     20        1          -0.000187983    0.000032191    0.000129864
     21        1           0.000014313    0.000026283   -0.000249443
     22        1           0.000124501    0.000047181    0.000101233
 -------------------------------------------------------------------
 Cartesian Forces:  Max     0.002807650 RMS     0.000888363
 FormGI is forming the generalized inverse of G from B-inverse, IUseBI=4.

 GradGradGradGradGradGradGradGradGradGradGradGradGradGradGradGradGradGrad
 Berny optimization.
 Using GEDIIS/GDIIS optimizer.
 Internal  Forces:  Max     0.002911529 RMS     0.000629764
 Search for a local minimum.
 Step number   2 out of a maximum of  115
 All quantities printed in internal units (Hartrees-Bohrs-Radians)
 Mixed Optimization -- En-DIIS/RFO-DIIS
 Second derivative matrix not updated -- analytic derivatives used.
 DE= -6.36D-03 DEPred=-7.64D-03 R= 8.33D-01
 TightC=F SS=  1.41D+00  RLast= 8.57D-01 DXNew= 5.0454D-01 2.5715D+00
 Trust test= 8.33D-01 RLast= 8.57D-01 DXMaxT set to 5.05D-01
 ITU=  1  0
 Use linear search instead of GDIIS.
     Eigenvalues ---    0.00000   0.00140   0.00206   0.00297   0.00415
     Eigenvalues ---    0.00480   0.02501   0.04418   0.04487   0.04522
     Eigenvalues ---    0.04643   0.04688   0.04802   0.04813   0.04822
     Eigenvalues ---    0.04879   0.04984   0.05098   0.05234   0.08685
     Eigenvalues ---    0.08775   0.09250   0.11777   0.11858   0.12095
     Eigenvalues ---    0.12616   0.12623   0.12705   0.13996   0.14100
     Eigenvalues ---    0.14659   0.16316   0.16489   0.16532   0.19669
     Eigenvalues ---    0.20396   0.22522   0.26052   0.26875   0.28908
     Eigenvalues ---    0.29292   0.29430   0.30256   0.30335   0.30542
     Eigenvalues ---    0.33649   0.33803   0.33817   0.33892   0.33953
     Eigenvalues ---    0.33995   0.34051   0.34112   0.34582   0.34869
     Eigenvalues ---    0.34940   0.35077   0.38513   0.39670   0.40703
 RFO step:  Lambda=-2.52078950D-03 EMin= 3.42247831D-06
 Quintic linear search produced a step of  0.04788.
 Iteration  1 RMS(Cart)=  0.15854197 RMS(Int)=  0.01303969
 Iteration  2 RMS(Cart)=  0.02483039 RMS(Int)=  0.00023703
 Iteration  3 RMS(Cart)=  0.00039371 RMS(Int)=  0.00005007
 Iteration  4 RMS(Cart)=  0.00000011 RMS(Int)=  0.00005007
 Variable       Old X    -DE/DX   Delta X   Delta X   Delta X     New X
                                 (Linear)    (Quad)   (Total)
    R1        2.89565   0.00026   0.00060  -0.00331  -0.00271   2.89293
    R2        2.07089   0.00032   0.00006   0.00098   0.00104   2.07193
    R3        2.06622   0.00053  -0.00010   0.00340   0.00330   2.06951
    R4        2.06902   0.00012   0.00002  -0.00003  -0.00001   2.06900
    R5        2.76946   0.00291  -0.00085   0.00962   0.00877   2.77823
    R6        2.09682  -0.00017   0.00108  -0.00333  -0.00225   2.09458
    R7        2.06555  -0.00022  -0.00034   0.00097   0.00063   2.06618
    R8        2.77471   0.00111  -0.00018   0.00073   0.00055   2.77526
    R9        2.78155  -0.00069  -0.00018  -0.00795  -0.00813   2.77343
   R10        2.89159   0.00059   0.00049   0.00157   0.00206   2.89365
   R11        2.06460   0.00017  -0.00038   0.00132   0.00094   2.06553
   R12        2.09760   0.00049   0.00120  -0.00206  -0.00086   2.09674
   R13        2.07000   0.00002   0.00018  -0.00100  -0.00082   2.06918
   R14        2.07096   0.00007   0.00008   0.00040   0.00048   2.07144
   R15        2.06794   0.00005   0.00001   0.00126   0.00127   2.06921
   R16        2.89228   0.00020   0.00050   0.00032   0.00081   2.89310
   R17        2.06158   0.00217  -0.00065   0.00662   0.00597   2.06755
   R18        2.09794   0.00010   0.00115  -0.00122  -0.00007   2.09787
   R19        2.07063   0.00001   0.00015  -0.00125  -0.00111   2.06952
   R20        2.07081   0.00005   0.00008   0.00029   0.00037   2.07118
   R21        2.06737   0.00009  -0.00001   0.00113   0.00112   2.06849
    A1        1.91972   0.00005   0.00012   0.00396   0.00408   1.92380
    A2        1.97887  -0.00121   0.00169  -0.01618  -0.01450   1.96438
    A3        1.92460   0.00043  -0.00118   0.00202   0.00082   1.92542
    A4        1.86986   0.00049  -0.00057   0.00488   0.00432   1.87418
    A5        1.88941  -0.00007   0.00086   0.00353   0.00437   1.89378
    A6        1.87842   0.00034  -0.00095   0.00257   0.00160   1.88002
    A7        1.98135   0.00057  -0.00105  -0.00550  -0.00668   1.97467
    A8        1.92943  -0.00089   0.00325  -0.00614  -0.00292   1.92652
    A9        1.86444   0.00048  -0.00183   0.01707   0.01513   1.87958
   A10        1.93673   0.00036   0.00225   0.00042   0.00262   1.93935
   A11        1.88407  -0.00024  -0.00267   0.00536   0.00259   1.88666
   A12        1.86181  -0.00032   0.00009  -0.01061  -0.01043   1.85138
   A13        1.94992   0.00005  -0.00201   0.00294   0.00079   1.95071
   A14        1.91728   0.00061   0.00038   0.00977   0.00999   1.92727
   A15        1.94389   0.00018  -0.00226   0.00813   0.00577   1.94966
   A16        1.99250   0.00052  -0.00179  -0.00794  -0.00980   1.98270
   A17        1.88164  -0.00043  -0.00158   0.00023  -0.00150   1.88015
   A18        1.94331   0.00006   0.00176  -0.00122   0.00059   1.94390
   A19        1.87826  -0.00062  -0.00099  -0.00219  -0.00332   1.87494
   A20        1.91254  -0.00007   0.00076   0.00960   0.01039   1.92293
   A21        1.84853   0.00050   0.00216   0.00197   0.00415   1.85268
   A22        1.92756  -0.00031  -0.00135  -0.00517  -0.00652   1.92104
   A23        1.91247  -0.00003  -0.00008   0.00578   0.00569   1.91816
   A24        1.97258   0.00057   0.00132  -0.00037   0.00094   1.97352
   A25        1.88948   0.00012   0.00067   0.00341   0.00409   1.89357
   A26        1.89026  -0.00017  -0.00020  -0.00440  -0.00462   1.88565
   A27        1.86887  -0.00019  -0.00033   0.00105   0.00070   1.86957
   A28        2.00843   0.00002   0.00043  -0.01581  -0.01538   1.99305
   A29        1.88514  -0.00131  -0.00043  -0.01303  -0.01344   1.87170
   A30        1.93140   0.00060  -0.00032   0.01064   0.01038   1.94179
   A31        1.86590   0.00094   0.00019   0.01075   0.01079   1.87669
   A32        1.91362  -0.00039   0.00039   0.00872   0.00911   1.92273
   A33        1.85138   0.00015  -0.00032  -0.00067  -0.00104   1.85033
   A34        1.93006  -0.00007  -0.00046  -0.00782  -0.00830   1.92176
   A35        1.90800  -0.00002  -0.00036   0.00881   0.00845   1.91646
   A36        1.97570   0.00012   0.00105  -0.00162  -0.00060   1.97511
   A37        1.88750   0.00002   0.00024   0.00491   0.00516   1.89267
   A38        1.89099  -0.00005  -0.00030  -0.00296  -0.00329   1.88769
   A39        1.86871   0.00001  -0.00018  -0.00081  -0.00099   1.86772
    D1        3.00129   0.00036   0.00268   0.07747   0.08015   3.08143
    D2        0.81184   0.00015  -0.00195   0.08605   0.08407   0.89591
    D3       -1.20730   0.00072  -0.00277   0.09222   0.08948  -1.11782
    D4        0.90821   0.00050   0.00221   0.07923   0.08145   0.98966
    D5       -1.28124   0.00029  -0.00242   0.08782   0.08537  -1.19586
    D6        2.98281   0.00086  -0.00324   0.09398   0.09078   3.07359
    D7       -1.19934   0.00058   0.00309   0.08558   0.08866  -1.11068
    D8        2.89440   0.00037  -0.00154   0.09416   0.09259   2.98699
    D9        0.87526   0.00093  -0.00236   0.10033   0.09799   0.97326
   D10        2.82371  -0.00017  -0.01581  -0.10011  -0.11588   2.70783
   D11       -1.29309   0.00055  -0.02004  -0.08047  -0.10048  -1.39357
   D12       -1.27393  -0.00063  -0.01062  -0.11225  -0.12284  -1.39678
   D13        0.89245   0.00009  -0.01484  -0.09261  -0.10744   0.78501
   D14        0.76041  -0.00095  -0.01075  -0.12164  -0.13244   0.62797
   D15        2.92679  -0.00024  -0.01497  -0.10200  -0.11703   2.80976
   D16       -1.13268  -0.00034  -0.00350  -0.13744  -0.14087  -1.27355
   D17        3.06473   0.00041   0.00024  -0.12988  -0.12966   2.93507
   D18        1.04420   0.00002  -0.00241  -0.13172  -0.13410   0.91010
   D19        2.99913  -0.00131  -0.00056  -0.15825  -0.15881   2.84033
   D20        0.91335  -0.00056   0.00318  -0.15070  -0.14759   0.76576
   D21       -1.10717  -0.00095   0.00053  -0.15254  -0.15204  -1.25921
   D22        3.09124  -0.00120  -0.00300  -0.23759  -0.24053   2.85071
   D23        1.00862  -0.00147  -0.00322  -0.23186  -0.23518   0.77344
   D24       -1.01089  -0.00122  -0.00240  -0.22933  -0.23174  -1.24262
   D25       -1.02206  -0.00057  -0.00708  -0.22104  -0.22804  -1.25009
   D26       -3.10468  -0.00084  -0.00730  -0.21532  -0.22268   2.95582
   D27        1.15900  -0.00058  -0.00648  -0.21279  -0.21924   0.93976
   D28       -0.88635   0.00038   0.00229  -0.03118  -0.02893  -0.91528
   D29       -2.96629   0.00043   0.00235  -0.03582  -0.03349  -2.99979
   D30        1.23427   0.00033   0.00199  -0.04088  -0.03893   1.19534
   D31        1.20134  -0.00027  -0.00174  -0.03735  -0.03907   1.16227
   D32       -0.87861  -0.00021  -0.00168  -0.04198  -0.04363  -0.92223
   D33       -2.96123  -0.00032  -0.00205  -0.04705  -0.04907  -3.01030
[...]
     2  C    0.003765  -0.122281  -0.091309  -0.090419   0.090034  -0.132615
     3  N   -0.043473   0.001178  -0.011935  -0.013434  -0.047751  -0.077189
     4  C    0.002289   0.000249   0.000598   0.000925  -0.007694  -0.021293
     5  C   -0.000756  -0.000090  -0.000012  -0.000811   0.000811  -0.028935
     6  C    0.352742  -0.001704  -0.033438  -0.002971  -0.044535  -0.002469
     7  C    5.516263   0.000079   0.001832   0.000413   0.002326   0.000368
     8  H    0.000079   0.653102   0.029136   0.011550   0.019537   0.033418
     9  H    0.001832   0.029136   0.696299   0.016369   0.021638   0.020702
    10  H    0.000413   0.011550   0.016369   0.633821   0.011692   0.025144
    11  H    0.002326   0.019537   0.021638   0.011692   0.674606   0.072270
    12  H    0.000368   0.033418   0.020702   0.025144   0.072270   0.907183
    13  H   -0.028919   0.000041   0.000281   0.000297   0.004815   0.010371
    14  H    0.000811   0.000205   0.000368   0.000331   0.021253   0.039030
    15  H   -0.000813   0.000036   0.000080   0.000789   0.000351   0.007488
    16  H   -0.000090   0.000004   0.000004   0.000037   0.000239   0.004731
    17  H   -0.000012   0.000483   0.000209   0.002108   0.003615   0.071751
    18  H   -0.012023   0.004733   0.071797   0.007494   0.039006   0.010373
    19  H   -0.022922   0.000239   0.003617   0.000351   0.021235   0.004814
    20  H    0.262357   0.000038   0.002109   0.000791   0.000331   0.000297
    21  H    0.243301   0.000004   0.000483   0.000036   0.000205   0.000041
    22  H    0.156648   0.000004   0.000209   0.000080   0.000367   0.000281
              13         14         15         16         17         18
     1  C    0.000368   0.002327   0.000412   0.000079   0.001832  -0.028977
     2  C   -0.002467  -0.044564  -0.002967  -0.001704  -0.033413  -0.021267
     3  N   -0.077158  -0.047760  -0.013427   0.001180  -0.011946  -0.077180
     4  C   -0.132491   0.089926  -0.090498  -0.122205  -0.091288  -0.002463
     5  C   -0.012033  -0.022913   0.262277   0.243384   0.156661   0.000368
     6  C   -0.021286  -0.007686   0.000924   0.000249   0.000598  -0.132717
     7  C   -0.028919   0.000811  -0.000813  -0.000090  -0.000012  -0.012023
     8  H    0.000041   0.000205   0.000036   0.000004   0.000483   0.004733
     9  H    0.000281   0.000368   0.000080   0.000004   0.000209   0.071797
    10  H    0.000297   0.000331   0.000789   0.000037   0.002108   0.007494
    11  H    0.004815   0.021253   0.000351   0.000239   0.003615   0.039006
    12  H    0.010371   0.039030   0.007488   0.004731   0.071751   0.010373
    13  H    0.907019   0.072267   0.025183   0.033372   0.020690   0.010371
    14  H    0.072267   0.674684   0.011704   0.019525   0.021627   0.004816
    15  H    0.025183   0.011704   0.634049   0.011564   0.016415   0.000297
    16  H    0.033372   0.019525   0.011564   0.652902   0.029063   0.000041
    17  H    0.020690   0.021627   0.016415   0.029063   0.696156   0.000281
    18  H    0.010371   0.004816   0.000297   0.000041   0.000281   0.907228
    19  H    0.039005   0.021237   0.000331   0.000204   0.000367   0.072268
    20  H    0.007486   0.000351   0.000790   0.000036   0.000080   0.025180
    21  H    0.004731   0.000239   0.000038   0.000004   0.000004   0.033398
    22  H    0.071730   0.003614   0.002112   0.000482   0.000209   0.020696
              19         20         21         22
     1  C    0.000808  -0.000812  -0.000090  -0.000012
     2  C   -0.007677   0.000925   0.000249   0.000598
     3  N   -0.047746  -0.013428   0.001180  -0.011939
     4  C   -0.044529  -0.002965  -0.001703  -0.033398
     5  C    0.002326   0.000412   0.000079   0.001830
     6  C    0.090025  -0.090493  -0.122249  -0.091300
     7  C   -0.022922   0.262357   0.243301   0.156648
     8  H    0.000239   0.000038   0.000004   0.000004
     9  H    0.003617   0.002109   0.000483   0.000209
    10  H    0.000351   0.000791   0.000036   0.000080
    11  H    0.021235   0.000331   0.000205   0.000367
    12  H    0.004814   0.000297   0.000041   0.000281
    13  H    0.039005   0.007486   0.004731   0.071730
    14  H    0.021237   0.000351   0.000239   0.003614
    15  H    0.000331   0.000790   0.000038   0.002112
    16  H    0.000204   0.000036   0.000004   0.000482
    17  H    0.000367   0.000080   0.000004   0.000209
    18  H    0.072268   0.025180   0.033398   0.020696
    19  H    0.674572   0.011699   0.019526   0.021622
    20  H    0.011699   0.633978   0.011566   0.016397
    21  H    0.019526   0.011566   0.652990   0.029087
    22  H    0.021622   0.016397   0.029087   0.696184
 Mulliken charges:
               1
     1  C   -0.433421
     2  C   -0.086683
     3  N   -0.177178
     4  C   -0.086713
     5  C   -0.433417
     6  C   -0.086679
     7  C   -0.433429
     8  H    0.126856
     9  H    0.114474
    10  H    0.132903
    11  H    0.138622
    12  H    0.066286
    13  H    0.066328
    14  H    0.138609
    15  H    0.132863
    16  H    0.126901
    17  H    0.114511
    18  H    0.066278
    19  H    0.138628
    20  H    0.132877
    21  H    0.126884
    22  H    0.114499
 Sum of Mulliken charges =  -0.00000
 Mulliken charges with hydrogens summed into heavy atoms:
               1
     1  C   -0.059188
     2  C    0.118225
     3  N   -0.177178
     4  C    0.118225
     5  C   -0.059142
     6  C    0.118227
     7  C   -0.059169
 Electronic spatial extent (au):  <R**2>=           1043.1748
 Charge=              0.0000 electrons
 Dipole moment (field-independent basis, Debye):
    X=              0.0010    Y=             -0.0002    Z=              0.7731  Tot=              0.7731
 Quadrupole moment (field-independent basis, Debye-Ang):
   XX=            -52.6323   YY=            -52.6318   ZZ=            -48.3270
   XY=              0.0007   XZ=              0.0001   YZ=              0.0001
 Traceless Quadrupole moment (field-independent basis, Debye-Ang):
   XX=             -1.4353   YY=             -1.4348   ZZ=              2.8701
   XY=              0.0007   XZ=              0.0001   YZ=              0.0001
 Octapole moment (field-independent basis, Debye-Ang**2):
  XXX=              3.6885  YYY=             -0.9402  ZZZ=              0.0646  XYY=             -3.6742
  XXY=              0.9359  XXZ=              2.2333  XZZ=             -0.0000  YZZ=             -0.0001
  YYZ=              2.2339  XYZ=              0.0006
 Hexadecapole moment (field-independent basis, Debye-Ang**3):
 XXXX=           -689.3794 YYYY=           -689.3259 ZZZZ=           -155.0420 XXXY=              0.0078
 XXXZ=              4.6082 YYYX=              0.0054 YYYZ=             -0.7420 ZZZX=              0.0011
 ZZZY=              0.0004 XXYY=           -229.7866 XXZZ=           -138.5515 YYZZ=           -138.5420
 XXYZ=              0.7427 YYXZ=             -4.6083 ZZXY=              0.0005
 N-N= 3.352788590010D+02 E-N=-1.344887588962D+03  KE= 2.896523077735D+02
 Evaluate density.
 Using the total density.
 Monte-Carlo method of calculating molar volume:
 based on  0.001 e/bohr**3 density envelope.
 Number of points per bohr**3 =   20 CutOff= 1.00D-04
 Using the CI density.
 There are       370 points.  Will hold       370 in memory.
 LenV=   805236578 MDV=   805306368.
 Box volume = 6341.720 fraction occupied=0.178
 Integrated density= 3.2271598010718073D+01 error=-2.5728401989281927D+01
 Molar volume = 1131.226 bohr**3/mol (100.949 cm**3/mol)
 Recommended a0 for SCRF calculation =  4.26 angstrom (  8.06 bohr)
 ******************************Gaussian NBO Version 3.1******************************
             N A T U R A L   A T O M I C   O R B I T A L   A N D
          N A T U R A L   B O N D   O R B I T A L   A N A L Y S I S
 ******************************Gaussian NBO Version 3.1******************************
       /RESON  / : Allow strongly delocalized NBO set

 Analyzing the CI density

 Job title: Title Card Required                                             

 Storage needed:     56284 in NPA ( 805303728 available)


 NATURAL POPULATIONS:  Natural atomic orbital occupancies 
                                                          
   NAO  Atom  No  lang   Type(AO)    Occupancy
 --------------------------------------------
     1    C    1  S      Cor( 1S)     1.99944
     2    C    1  S      Val( 2S)     1.11166
     3    C    1  S      Ryd( 3S)     0.00048
     4    C    1  S      Ryd( 4S)     0.00002
     5    C    1  px     Val( 2p)     1.15479
     6    C    1  px     Ryd( 3p)     0.00515
     7    C    1  py     Val( 2p)     1.24090
     8    C    1  py     Ryd( 3p)     0.00171
     9    C    1  pz     Val( 2p)     1.18476
    10    C    1  pz     Ryd( 3p)     0.00315
    11    C    1  dxy    Ryd( 3d)     0.00091
    12    C    1  dxz    Ryd( 3d)     0.00058
    13    C    1  dyz    Ryd( 3d)     0.00032
    14    C    1  dx2y2  Ryd( 3d)     0.00038
    15    C    1  dz2    Ryd( 3d)     0.00090
 
    16    C    2  S      Cor( 1S)     1.99931
    17    C    2  S      Val( 2S)     1.05594
    18    C    2  S      Ryd( 3S)     0.00217
    19    C    2  S      Ryd( 4S)     0.00005
    20    C    2  px     Val( 2p)     1.10086
    21    C    2  px     Ryd( 3p)     0.00353
    22    C    2  py     Val( 2p)     0.98766
    23    C    2  py     Ryd( 3p)     0.00528
    24    C    2  pz     Val( 2p)     1.15853
    25    C    2  pz     Ryd( 3p)     0.00225
    26    C    2  dxy    Ryd( 3d)     0.00150
    27    C    2  dxz    Ryd( 3d)     0.00060
    28    C    2  dyz    Ryd( 3d)     0.00058
    29    C    2  dx2y2  Ryd( 3d)     0.00070
    30    C    2  dz2    Ryd( 3d)     0.00123
 
    31    N    3  S      Cor( 1S)     1.99928
    32    N    3  S      Val( 2S)     1.30455
    33    N    3  S      Ryd( 3S)     0.00155
    34    N    3  S      Ryd( 4S)     0.00008
    35    N    3  px     Val( 2p)     1.29585
    36    N    3  px     Ryd( 3p)     0.00100
    37    N    3  py     Val( 2p)     1.29586
    38    N    3  py     Ryd( 3p)     0.00100
    39    N    3  pz     Val( 2p)     1.13391
    40    N    3  pz     Ryd( 3p)     0.00269
    41    N    3  dxy    Ryd( 3d)     0.00084
    42    N    3  dxz    Ryd( 3d)     0.00086
    43    N    3  dyz    Ryd( 3d)     0.00086
    44    N    3  dx2y2  Ryd( 3d)     0.00084
    45    N    3  dz2    Ryd( 3d)     0.00036
 
    46    C    4  S      Cor( 1S)     1.99931
    47    C    4  S      Val( 2S)     1.05595
    48    C    4  S      Ryd( 3S)     0.00217
    49    C    4  S      Ryd( 4S)     0.00005
    50    C    4  px     Val( 2p)     0.85206
    51    C    4  px     Ryd( 3p)     0.00466
    52    C    4  py     Val( 2p)     1.23651
    53    C    4  py     Ryd( 3p)     0.00414
    54    C    4  pz     Val( 2p)     1.15848
    55    C    4  pz     Ryd( 3p)     0.00225
    56    C    4  dxy    Ryd( 3d)     0.00064
    57    C    4  dxz    Ryd( 3d)     0.00072
    58    C    4  dyz    Ryd( 3d)     0.00046
    59    C    4  dx2y2  Ryd( 3d)     0.00156
    60    C    4  dz2    Ryd( 3d)     0.00123
 
    61    C    5  S      Cor( 1S)     1.99944
    62    C    5  S      Val( 2S)     1.11167
    63    C    5  S      Ryd( 3S)     0.00048
    64    C    5  S      Ryd( 4S)     0.00002
    65    C    5  px     Val( 2p)     1.18763
    66    C    5  px     Ryd( 3p)     0.00234
    67    C    5  py     Val( 2p)     1.20802
    68    C    5  py     Ryd( 3p)     0.00452
    69    C    5  pz     Val( 2p)     1.18479
    70    C    5  pz     Ryd( 3p)     0.00316
    71    C    5  dxy    Ryd( 3d)     0.00038
    72    C    5  dxz    Ryd( 3d)     0.00046
    73    C    5  dyz    Ryd( 3d)     0.00044
    74    C    5  dx2y2  Ryd( 3d)     0.00091
    75    C    5  dz2    Ryd( 3d)     0.00090
 
    76    C    6  S      Cor( 1S)     1.99931
    77    C    6  S      Val( 2S)     1.05596
    78    C    6  S      Ryd( 3S)     0.00217
    79    C    6  S      Ryd( 4S)     0.00005
    80    C    6  px     Val( 2p)     1.17989
    81    C    6  px     Ryd( 3p)     0.00502
    82    C    6  py     Val( 2p)     0.90865
    83    C    6  py     Ryd( 3p)     0.00379
    84    C    6  pz     Val( 2p)     1.15850
    85    C    6  pz     Ryd( 3p)     0.00225
    86    C    6  dxy    Ryd( 3d)     0.00116
    87    C    6  dxz    Ryd( 3d)     0.00045
    88    C    6  dyz    Ryd( 3d)     0.00073
    89    C    6  dx2y2  Ryd( 3d)     0.00104
    90    C    6  dz2    Ryd( 3d)     0.00123
 
    91    C    7  S      Cor( 1S)     1.99944
    92    C    7  S      Val( 2S)     1.11167
    93    C    7  S      Ryd( 3S)     0.00048
    94    C    7  S      Ryd( 4S)     0.00002
    95    C    7  px     Val( 2p)     1.25105
    96    C    7  px     Ryd( 3p)     0.00280
    97    C    7  py     Val( 2p)     1.14459
    98    C    7  py     Ryd( 3p)     0.00406
    99    C    7  pz     Val( 2p)     1.18479
   100    C    7  pz     Ryd( 3p)     0.00316
   101    C    7  dxy    Ryd( 3d)     0.00065
   102    C    7  dxz    Ryd( 3d)     0.00031
   103    C    7  dyz    Ryd( 3d)     0.00058
   104    C    7  dx2y2  Ryd( 3d)     0.00064
   105    C    7  dz2    Ryd( 3d)     0.00090
 
   106    H    8  S      Val( 1S)     0.77079
   107    H    8  S      Ryd( 2S)     0.01094
 
   108    H    9  S      Val( 1S)     0.78084
   109    H    9  S      Ryd( 2S)     0.02048
 
   110    H   10  S      Val( 1S)     0.77184
   111    H   10  S      Ryd( 2S)     0.00968
 
   112    H   11  S      Val( 1S)     0.73964
   113    H   11  S      Ryd( 2S)     0.02491
 
   114    H   12  S      Val( 1S)     0.78815
   115    H   12  S      Ryd( 2S)     0.04425
 
   116    H   13  S      Val( 1S)     0.78813
   117    H   13  S      Ryd( 2S)     0.04425
 
   118    H   14  S      Val( 1S)     0.73964
   119    H   14  S      Ryd( 2S)     0.02491
 
   120    H   15  S      Val( 1S)     0.77186
   121    H   15  S      Ryd( 2S)     0.00969
 
   122    H   16  S      Val( 1S)     0.77077
   123    H   16  S      Ryd( 2S)     0.01092
 
   124    H   17  S      Val( 1S)     0.78082
   125    H   17  S      Ryd( 2S)     0.02047
 
   126    H   18  S      Val( 1S)     0.78816
   127    H   18  S      Ryd( 2S)     0.04426
 
   128    H   19  S      Val( 1S)     0.73963
   129    H   19  S      Ryd( 2S)     0.02490
 
   130    H   20  S      Val( 1S)     0.77185
   131    H   20  S      Ryd( 2S)     0.00969
 
   132    H   21  S      Val( 1S)     0.77078
   133    H   21  S      Ryd( 2S)     0.01093
 
   134    H   22  S      Val( 1S)     0.78083
   135    H   22  S      Ryd( 2S)     0.02047


 Summary of Natural Population Analysis:                  
                                                          
                                       Natural Population 
                Natural  -----------------------------------------------
    Atom  No    Charge         Core      Valence    Rydberg      Total
 -----------------------------------------------------------------------
      C    1   -0.70514      1.99944     4.69211    0.01359     6.70514
      C    2   -0.32019      1.99931     4.30299    0.01789     6.32019
      N    3   -0.03952      1.99928     5.03017    0.01007     7.03952
      C    4   -0.32020      1.99931     4.30300    0.01789     6.32020
      C    5   -0.70513      1.99944     4.69210    0.01359     6.70513
      C    6   -0.32020      1.99931     4.30300    0.01789     6.32020
      C    7   -0.70513      1.99944     4.69210    0.01359     6.70513
      H    8    0.21827      0.00000     0.77079    0.01094     0.78173
      H    9    0.19868      0.00000     0.78084    0.02048     0.80132
      H   10    0.21849      0.00000     0.77184    0.00968     0.78151
      H   11    0.23545      0.00000     0.73964    0.02491     0.76455
      H   12    0.16759      0.00000     0.78815    0.04425     0.83241
      H   13    0.16763      0.00000     0.78813    0.04425     0.83237
      H   14    0.23544      0.00000     0.73964    0.02491     0.76456
      H   15    0.21845      0.00000     0.77186    0.00969     0.78155
      H   16    0.21831      0.00000     0.77077    0.01092     0.78169
      H   17    0.19871      0.00000     0.78082    0.02047     0.80129
      H   18    0.16758      0.00000     0.78816    0.04426     0.83242
      H   19    0.23547      0.00000     0.73963    0.02490     0.76453
      H   20    0.21846      0.00000     0.77185    0.00969     0.78154
      H   21    0.21829      0.00000     0.77078    0.01093     0.78171
      H   22    0.19870      0.00000     0.78083    0.02047     0.80130
 =======================================================================
   * Total *   -0.00000     13.99553    43.56919    0.43528    58.00000

                                 Natural Population      
 --------------------------------------------------------
   Core                      13.99553 ( 99.9681% of  14)
   Valence                   43.56919 ( 99.0209% of  44)
   Natural Minimal Basis     57.56472 ( 99.2495% of  58)
   Natural Rydberg Basis      0.43528 (  0.7505% of  58)
 --------------------------------------------------------

    Atom  No          Natural Electron Configuration
 ----------------------------------------------------------------------------
      C    1      [core]2S( 1.11)2p( 3.58)3p( 0.01)
      C    2      [core]2S( 1.06)2p( 3.25)3p( 0.01)
      N    3      [core]2S( 1.30)2p( 3.73)
      C    4      [core]2S( 1.06)2p( 3.25)3p( 0.01)
      C    5      [core]2S( 1.11)2p( 3.58)3p( 0.01)
      C    6      [core]2S( 1.06)2p( 3.25)3p( 0.01)
      C    7      [core]2S( 1.11)2p( 3.58)3p( 0.01)
      H    8            1S( 0.77)2S( 0.01)
      H    9            1S( 0.78)2S( 0.02)
      H   10            1S( 0.77)2S( 0.01)
      H   11            1S( 0.74)2S( 0.02)
      H   12            1S( 0.79)2S( 0.04)
      H   13            1S( 0.79)2S( 0.04)
      H   14            1S( 0.74)2S( 0.02)
      H   15            1S( 0.77)2S( 0.01)
      H   16            1S( 0.77)2S( 0.01)
      H   17            1S( 0.78)2S( 0.02)
      H   18            1S( 0.79)2S( 0.04)
      H   19            1S( 0.74)2S( 0.02)
      H   20            1S( 0.77)2S( 0.01)
      H   21            1S( 0.77)2S( 0.01)
      H   22            1S( 0.78)2S( 0.02)


 NBO analysis skipped by request.
 1\1\GINC-DELLA-R1C3N7\SP\RB3LYP TD-FC\6-31G(d)\C6H15N1\BJS4\24-Aug-202
 0\0\\# TD(NStates=10, Root=1) B3LYP/6-31G* scf=qc volume pop=NPA densi
 ty=current Geom=AllCheck Guess=Read\\Title Card Required\\0,1\C,0,2.87
 81066161,-0.3700181673,-1.3736270655\C,0,2.7348634882,-0.0947488657,0.
 1246448496\N,0,3.0759348281,1.2857806982,0.4904707798\C,0,2.4041178989
 ,1.7069154852,1.7263278965\C,0,0.938834509,2.0910084543,1.510469764\C,
 0,4.5281470131,1.491643575,0.5587688697\C,0,4.9383209613,2.9471058135,
 0.3251190344\H,0,2.5808184542,-1.4003594196,-1.6021518753\H,0,3.908626
 3363,-0.2409078467,-1.7225127263\H,0,2.2424231448,0.3129269261,-1.9465
 30338\H,0,3.3348161674,-0.8241538809,0.7046720001\H,0,1.6915138687,-0.
 2699407093,0.4061390315\H,0,2.9331655843,2.582619347,2.1158963044\H,0,
 2.481747079,0.9283476909,2.5113140968\H,0,0.8635725245,2.9002992947,0.
 7769135197\H,0,0.4905135507,2.4288957593,2.4523033459\H,0,0.3390718872
 ,1.2502395837,1.1447367141\H,0,4.9925560622,0.8766601903,-0.218810584\
 H,0,4.9405182312,1.1299756682,1.5218725342\H,0,4.5807195699,3.28918264
 45,-0.6515194865\H,0,6.0300807831,3.0446531363,0.3524456438\H,0,4.5296
 514419,3.6206746223,1.0864676909\\Version=ES64L-G16RevA.03\State=1-A\H
 F=-292.4161361\RMSD=2.561e-09\Dipole=0.104135,-0.1786406,0.2230461\Qua
 drupole=-0.6900001,0.039899,0.6501011,-0.6453761,0.8039182,-1.379106\P
 G=C01 [X(C6H15N1)]\\@


 Children are likely to live up to what you believe of them.
 -- Lady Bird Johnson
 Job cpu time:       0 days  0 hours 12 minutes 27.6 seconds.
 Elapsed time:       0 days  0 hours  4 minutes 11.0 seconds.
 File lengths (MBytes):  RWF=    210 Int=      0 D2E=      0 Chk=     16 Scr=      1
 Normal termination of Gaussian 16 at Mon Aug 24 17:10:46 2020.
