 Entering Gaussian System, Link 0=g16
 Input=base_6_conf2123.com
 Output=base_6_conf2123.log
 Initial command:
 /opt/export//g16/l1.exe "/scratch/bjs4/job.9636/Gau-9639.inp" -scrdir="/scratch/bjs4/job.9636/"
 Entering Link 1 = /opt/export//g16/l1.exe PID=      9642.
  
 Copyright (c) 1988,1990,1992,1993,1995,1998,2003,2009,2016,
            Gaussian, Inc.  All Rights Reserved.
  
 This is part of the Gaussian(R) 16 program.  It is based on
 the Gaussian(R) 09 system (copyright 2009, Gaussian, Inc.),
 the Gaussian(R) 03 system (copyright 2003, Gaussian, Inc.),
 the Gaussian(R) 98 system (copyright 1998, Gaussian, Inc.),
 the Gaussian(R) 94 system (copyright 1995, Gaussian, Inc.),
 the Gaussian 92(TM) system (copyright 1992, Gaussian, Inc.),
 the Gaussian 90(TM) system (copyright 1990, Gaussian, Inc.),
 the Gaussian 88(TM) system (copyright 1988, Gaussian, Inc.),
 the Gaussian 86(TM) system (copyright 1986, Carnegie Mellon
 University), and the Gaussian 82(TM) system (copyright 1983,
 Carnegie Mellon University). Gaussian is a federally registered
 trademark of Gaussian, Inc.
  
 This software contains proprietary and confidential information,
 including trade secrets, belonging to Gaussian, Inc.
  
 This software is provided under written license and may be
 used, copied, transmitted, or stored only in accord with that
 written license.
  
 The following legend is applicable only to US Government
 contracts under FAR:
  
                    RESTRICTED RIGHTS LEGEND
  
 Use, reproduction and disclosure by the US Government is
 subject to restrictions as set forth in subparagraphs (a)
 and (c) of the Commercial Computer Software - Restricted
 Rights clause in FAR 52.227-19.
  
 Gaussian, Inc.
 340 Quinnipiac St., Bldg. 40, Wallingford CT 06492
  
  
 ---------------------------------------------------------------
 Warning -- This program may not be used in any manner that
 competes with the business of Gaussian, Inc. or will provide
 assistance to any competitor of Gaussian, Inc.  The licensee
 of this program is prohibited from giving any competitor of
 Gaussian, Inc. access to this program.  By using this program,
 the user acknowledges that Gaussian, Inc. is engaged in the
 business of creating and licensing software in the field of
 computational chemistry and represents and warrants to the
 licensee that it is not a competitor of Gaussian, Inc. and that
 it will not use this program in any manner prohibited above.
 ---------------------------------------------------------------
  

 Cite this work as:
 Gaussian 16, Revision A.03,
 M. J. Frisch, G. W. Trucks, H. B. Schlegel, G. E. Scuseria, 
 M. A. Robb, J. R. Cheeseman, G. Scalmani, V. Barone, 
 G. A. Petersson, H. Nakatsuji, X. Li, M. Caricato, A. V. Marenich, 
 J. Bloino, B. G. Janesko, R. Gomperts, B. Mennucci, H. P. Hratchian, 
 J. V. Ortiz, A. F. Izmaylov, J. L. Sonnenberg, D. Williams-Young, 
 F. Ding, F. Lipparini, F. Egidi, J. Goings, B. Peng, A. Petrone, 
 T. Henderson, D. Ranasinghe, V. G. Zakrzewski, J. Gao, N. Rega, 
 G. Zheng, W. Liang, M. Hada, M. Ehara, K. Toyota, R. Fukuda, 
 J. Hasegawa, M. Ishida, T. Nakajima, Y. Honda, O. Kitao, H. Nakai, 
 T. Vreven, K. Throssell, J. A. Montgomery, Jr., J. E. Peralta, 
 F. Ogliaro, M. J. Bearpark, J. J. Heyd, E. N. Brothers, K. N. Kudin, 
 V. N. Staroverov, T. A. Keith, R. Kobayashi, J. Normand, 
 K. Raghavachari, A. P. Rendell, J. C. Burant, S. S. Iyengar, 
 J. Tomasi, M. Cossi, J. M. Millam, M. Klene, C. Adamo, R. Cammi, 
 J. W. Ochterski, R. L. Martin, K. Morokuma, O. Farkas, 
 J. B. Foresman, and D. J. Fox, Gaussian, Inc., Wallingford CT, 2016.
 
 ******************************************
 Gaussian 16:  ES64L-G16RevA.03 25-Dec-2016
                24-Aug-2020 
 ******************************************
 %nprocshared=7
 Will use up to    7 processors via shared memory.
 %Mem=14GB
 %Chk=base_6_conf21.chk
 ---------------------------------
 # opt=CalcAll B3LYP/6-31G* scf=qc
 ---------------------------------
 1/10=4,18=20,19=15,26=3,38=1/1,3;
 2/9=110,12=2,17=6,18=5,40=1/2;
 3/5=1,6=6,7=1,11=2,25=1,30=1,71=2,74=-5,140=1/1,2,3;
 4//1;
 5/5=2,8=3,38=5/8;
 8/6=4,10=90,11=11/1;
 11/6=1,8=1,9=11,15=111,16=1/1,2,10;
 10/6=1/2;
 6/7=2,8=2,9=2,10=2,18=1,28=1/1;
 7/10=1,25=1/1,2,3,16;
 1/10=4,18=20,19=15,26=3/3(3);
 2/9=110/2;
 7/8=1,9=1,25=1,44=-1/16;
 99//99;
 2/9=110/2;
 3/5=1,6=6,7=1,11=2,25=1,30=1,71=2,74=-5,140=1/1,2,3;
 4/5=5,16=3,69=1/1;
 5/5=2,8=3,38=5/8;
 8/6=4,10=90,11=11/1;
 11/6=1,8=1,9=11,15=111,16=1/1,2,10;
 10/6=1/2;
 7/10=1,25=1/1,2,3,16;
 1/10=4,18=20,19=15,26=3/3(-8);
 2/9=110/2;
 6/7=2,8=2,9=2,10=2,18=1,19=2,28=1/1;
 7/8=1,9=1,25=1,44=-1/16;
 99//99;
 -------------------
 Title Card Required
 -------------------
 Symbolic Z-matrix:
 Charge =  0 Multiplicity = 1
 N                    -1.3325    0.0965    1.2627 
 C                    -1.3347   -0.677     0.0182 
 C                    -0.0666   -0.9542   -0.8227 
 N1                    1.1923   -1.3331   -0.1966 
 C                     2.2526   -0.3428   -0.3632 
 C                     2.1781    1.0394    0.3401 
 N                     0.8633    1.5949    0.6743 
 P                    -0.0423    0.9382    1.9236 
 N                     0.8413   -0.1292    2.8862 
 C                     1.5867   -1.2768    2.35 
 C                     1.0899   -2.0077    1.0914 
 C                     1.4522    0.2657    4.1847 
 C                     2.49489   1.38779   4.12579 
 C                     0.4205    0.51496   5.28916 
 C                     0.3903    2.6135   -0.2921 
 C                     0.22582   2.19595  -1.76767 
 C                    -0.95248   3.24283   0.13362 
 C                    -2.6256    0.0807    1.981 
 C                    -2.62626   0.90869   3.28051 
 C                    -3.77874   0.54557   1.08202 
 H                    -2.0236   -0.1957   -0.6861 
 H                    -1.7651   -1.6605    0.2217 
 H                     0.0784   -0.1219   -1.5231 
 H                    -0.3264   -1.7969   -1.4792 
 H                     2.3486   -0.1513   -1.4414 
 H                     3.212    -0.8052   -0.0938 
 H                     2.743     1.7228   -0.3027 
 H                     2.7948    1.0104    1.243 
 H                     1.589    -2.0553    3.1279 
 H                     2.6431   -1.0107    2.2176 
 H                     0.0892   -2.415     1.2778 
 H                     1.7144   -2.9071    1.0026 
 H                     2.01297  -0.59783   4.57038 
 H                     2.04987   2.36114   3.90016 
 H                     3.26862   1.17173   3.38358 
 H                     3.00974   1.46871   5.09227 
 H                    -0.15417   1.42991   5.11976 
 H                     0.93789   0.62979   6.25854 
 H                    -0.26571  -0.32564   5.39021 
 H                     1.13345   3.42232  -0.3042 
 H                    -0.49198   1.37739  -1.88649 
 H                     1.17902   1.90825  -2.21447 
 H                    -0.14443   3.03772  -2.36634 
 H                    -1.76004   2.50469   0.12457 
 H                    -1.22898   4.05033  -0.55681 
 H                    -0.91657   3.69667   1.12655 
 H                    -2.86594  -0.94719   2.29028 
 H                    -2.42767   1.97148   3.10447 
 H                    -1.88161   0.53178   3.98783 
 H                    -3.60448   0.85275   3.77252 
 H                    -3.70903   1.60895   0.83165 
 H                    -4.73895   0.39884   1.58917 
 H                    -3.80795  -0.02693   0.151 
 

 GradGradGradGradGradGradGradGradGradGradGradGradGradGradGradGradGradGrad
 Berny optimization.
 Initialization pass.
                           ----------------------------
                           !    Initial Parameters    !
                           ! (Angstroms and Degrees)  !
 --------------------------                            --------------------------
 ! Name  Definition              Value          Derivative Info.                !
 --------------------------------------------------------------------------------
 ! R1    R(1,2)                  1.4653         calculate D2E/DX2 analytically  !
 ! R2    R(1,8)                  1.6763         calculate D2E/DX2 analytically  !
 ! R3    R(1,18)                 1.4793         calculate D2E/DX2 analytically  !
 ! R4    R(2,3)                  1.5466         calculate D2E/DX2 analytically  !
 ! R5    R(2,21)                 1.0965         calculate D2E/DX2 analytically  !
 ! R6    R(2,22)                 1.0927         calculate D2E/DX2 analytically  !
 ! R7    R(3,4)                  1.4562         calculate D2E/DX2 analytically  !
 ! R8    R(3,23)                 1.0974         calculate D2E/DX2 analytically  !
 ! R9    R(3,24)                 1.0994         calculate D2E/DX2 analytically  !
 ! R10   R(4,5)                  1.4604         calculate D2E/DX2 analytically  !
 ! R11   R(4,11)                 1.4576         calculate D2E/DX2 analytically  !
 ! R12   R(5,6)                  1.5526         calculate D2E/DX2 analytically  !
 ! R13   R(5,25)                 1.0993         calculate D2E/DX2 analytically  !
 ! R14   R(5,26)                 1.0986         calculate D2E/DX2 analytically  !
 ! R15   R(6,7)                  1.4659         calculate D2E/DX2 analytically  !
 ! R16   R(6,27)                 1.0951         calculate D2E/DX2 analytically  !
 ! R17   R(6,28)                 1.0938         calculate D2E/DX2 analytically  !
 ! R18   R(7,8)                  1.6769         calculate D2E/DX2 analytically  !
 ! R19   R(7,15)                 1.4816         calculate D2E/DX2 analytically  !
 ! R20   R(8,9)                  1.6872         calculate D2E/DX2 analytically  !
 ! R21   R(9,10)                 1.4697         calculate D2E/DX2 analytically  !
 ! R22   R(9,12)                 1.4884         calculate D2E/DX2 analytically  !
 ! R23   R(10,11)                1.5379         calculate D2E/DX2 analytically  !
 ! R24   R(10,29)                1.1005         calculate D2E/DX2 analytically  !
 ! R25   R(10,30)                1.0974         calculate D2E/DX2 analytically  !
 ! R26   R(11,31)                1.0964         calculate D2E/DX2 analytically  !
 ! R27   R(11,32)                1.0985         calculate D2E/DX2 analytically  !
 ! R28   R(12,13)                1.5329         calculate D2E/DX2 analytically  !
 ! R29   R(12,14)                1.5318         calculate D2E/DX2 analytically  !
 ! R30   R(12,33)                1.0995         calculate D2E/DX2 analytically  !
 ! R31   R(13,34)                1.0938         calculate D2E/DX2 analytically  !
 ! R32   R(13,35)                1.0937         calculate D2E/DX2 analytically  !
 ! R33   R(13,36)                1.098          calculate D2E/DX2 analytically  !
 ! R34   R(14,37)                1.0937         calculate D2E/DX2 analytically  !
 ! R35   R(14,38)                1.1048         calculate D2E/DX2 analytically  !
 ! R36   R(14,39)                1.0898         calculate D2E/DX2 analytically  !
 ! R37   R(15,16)                1.5423         calculate D2E/DX2 analytically  !
 ! R38   R(15,17)                1.5428         calculate D2E/DX2 analytically  !
 ! R39   R(15,40)                1.0985         calculate D2E/DX2 analytically  !
 ! R40   R(16,41)                1.0952         calculate D2E/DX2 analytically  !
 ! R41   R(16,42)                1.0913         calculate D2E/DX2 analytically  !
 ! R42   R(16,43)                1.0973         calculate D2E/DX2 analytically  !
 ! R43   R(17,44)                1.0941         calculate D2E/DX2 analytically  !
 ! R44   R(17,45)                1.0978         calculate D2E/DX2 analytically  !
 ! R45   R(17,46)                1.0923         calculate D2E/DX2 analytically  !
 ! R46   R(18,19)                1.5409         calculate D2E/DX2 analytically  !
 ! R47   R(18,20)                1.5343         calculate D2E/DX2 analytically  !
 ! R48   R(18,47)                1.1            calculate D2E/DX2 analytically  !
 ! R49   R(19,48)                1.0954         calculate D2E/DX2 analytically  !
 ! R50   R(19,49)                1.094          calculate D2E/DX2 analytically  !
 ! R51   R(19,50)                1.0964         calculate D2E/DX2 analytically  !
 ! R52   R(20,51)                1.0947         calculate D2E/DX2 analytically  !
 ! R53   R(20,52)                1.0958         calculate D2E/DX2 analytically  !
 ! R54   R(20,53)                1.0933         calculate D2E/DX2 analytically  !
 ! A1    A(2,1,8)              126.9472         calculate D2E/DX2 analytically  !
 ! A2    A(2,1,18)             113.9194         calculate D2E/DX2 analytically  !
 ! A3    A(8,1,18)             119.1257         calculate D2E/DX2 analytically  !
 ! A4    A(1,2,3)              123.7215         calculate D2E/DX2 analytically  !
 ! A5    A(1,2,21)             108.3469         calculate D2E/DX2 analytically  !
 ! A6    A(1,2,22)             108.515          calculate D2E/DX2 analytically  !
 ! A7    A(3,2,21)             104.1569         calculate D2E/DX2 analytically  !
 ! A8    A(3,2,22)             105.2422         calculate D2E/DX2 analytically  !
 ! A9    A(21,2,22)            105.5002         calculate D2E/DX2 analytically  !
 ! A10   A(2,3,4)              121.447          calculate D2E/DX2 analytically  !
 ! A11   A(2,3,23)             108.6273         calculate D2E/DX2 analytically  !
 ! A12   A(2,3,24)             105.5631         calculate D2E/DX2 analytically  !
 ! A13   A(4,3,23)             110.9488         calculate D2E/DX2 analytically  !
 ! A14   A(4,3,24)             105.1654         calculate D2E/DX2 analytically  !
 ! A15   A(23,3,24)            103.3825         calculate D2E/DX2 analytically  !
 ! A16   A(3,4,5)              113.7154         calculate D2E/DX2 analytically  !
 ! A17   A(3,4,11)             116.0808         calculate D2E/DX2 analytically  !
 ! A18   A(5,4,11)             117.7532         calculate D2E/DX2 analytically  !
 ! A19   A(4,5,6)              121.1423         calculate D2E/DX2 analytically  !
 ! A20   A(4,5,25)             107.0635         calculate D2E/DX2 analytically  !
 ! A21   A(4,5,26)             108.7035         calculate D2E/DX2 analytically  !
 ! A22   A(6,5,25)             107.0614         calculate D2E/DX2 analytically  !
 ! A23   A(6,5,26)             107.7902         calculate D2E/DX2 analytically  !
 ! A24   A(25,5,26)            103.7441         calculate D2E/DX2 analytically  !
 ! A25   A(5,6,7)              118.9239         calculate D2E/DX2 analytically  !
 ! A26   A(5,6,27)             105.3612         calculate D2E/DX2 analytically  !
 ! A27   A(5,6,28)             108.8603         calculate D2E/DX2 analytically  !
 ! A28   A(7,6,27)             111.0993         calculate D2E/DX2 analytically  !
 ! A29   A(7,6,28)             109.1199         calculate D2E/DX2 analytically  !
 ! A30   A(27,6,28)            102.1359         calculate D2E/DX2 analytically  !
 ! A31   A(6,7,8)              120.3846         calculate D2E/DX2 analytically  !
 ! A32   A(6,7,15)             113.4624         calculate D2E/DX2 analytically  !
 ! A33   A(8,7,15)             125.6441         calculate D2E/DX2 analytically  !
 ! A34   A(1,8,7)              108.5763         calculate D2E/DX2 analytically  !
 ! A35   A(1,8,9)              108.0811         calculate D2E/DX2 analytically  !
 ! A36   A(7,8,9)              112.9524         calculate D2E/DX2 analytically  !
 ! A37   A(8,9,10)             123.4659         calculate D2E/DX2 analytically  !
 ! A38   A(8,9,12)             123.014          calculate D2E/DX2 analytically  !
 ! A39   A(10,9,12)            108.4992         calculate D2E/DX2 analytically  !
 ! A40   A(9,10,11)            120.3867         calculate D2E/DX2 analytically  !
 ! A41   A(9,10,29)            107.1889         calculate D2E/DX2 analytically  !
 ! A42   A(9,10,30)            110.0533         calculate D2E/DX2 analytically  !
 ! A43   A(11,10,29)           104.0609         calculate D2E/DX2 analytically  !
 ! A44   A(11,10,30)           109.1154         calculate D2E/DX2 analytically  !
 ! A45   A(29,10,30)           104.7611         calculate D2E/DX2 analytically  !
 ! A46   A(4,11,10)            118.7198         calculate D2E/DX2 analytically  !
 ! A47   A(4,11,31)            112.7243         calculate D2E/DX2 analytically  !
 ! A48   A(4,11,32)            105.5188         calculate D2E/DX2 analytically  !
 ! A49   A(10,11,31)           109.4066         calculate D2E/DX2 analytically  !
 ! A50   A(10,11,32)           105.7606         calculate D2E/DX2 analytically  !
 ! A51   A(31,11,32)           103.2065         calculate D2E/DX2 analytically  !
 ! A52   A(9,12,13)            116.0964         calculate D2E/DX2 analytically  !
 ! A53   A(9,12,14)            113.3142         calculate D2E/DX2 analytically  !
 ! A54   A(9,12,33)            107.8777         calculate D2E/DX2 analytically  !
 ! A55   A(13,12,14)           111.5143         calculate D2E/DX2 analytically  !
 ! A56   A(13,12,33)           103.9731         calculate D2E/DX2 analytically  !
 ! A57   A(14,12,33)           102.6148         calculate D2E/DX2 analytically  !
 ! A58   A(12,13,34)           112.4938         calculate D2E/DX2 analytically  !
 ! A59   A(12,13,35)           111.2647         calculate D2E/DX2 analytically  !
 ! A60   A(12,13,36)           109.8193         calculate D2E/DX2 analytically  !
 ! A61   A(34,13,35)           108.883          calculate D2E/DX2 analytically  !
 ! A62   A(34,13,36)           107.8639         calculate D2E/DX2 analytically  !
 ! A63   A(35,13,36)           106.2698         calculate D2E/DX2 analytically  !
 ! A64   A(12,14,37)           112.2324         calculate D2E/DX2 analytically  !
 ! A65   A(12,14,38)           109.5204         calculate D2E/DX2 analytically  !
 ! A66   A(12,14,39)           111.4342         calculate D2E/DX2 analytically  !
 ! A67   A(37,14,38)           107.1595         calculate D2E/DX2 analytically  !
 ! A68   A(37,14,39)           109.1954         calculate D2E/DX2 analytically  !
 ! A69   A(38,14,39)           107.0789         calculate D2E/DX2 analytically  !
 ! A70   A(7,15,16)            118.1613         calculate D2E/DX2 analytically  !
 ! A71   A(7,15,17)            112.2283         calculate D2E/DX2 analytically  !
 ! A72   A(7,15,40)            107.3026         calculate D2E/DX2 analytically  !
 ! A73   A(16,15,17)           106.3562         calculate D2E/DX2 analytically  !
 ! A74   A(16,15,40)           105.1268         calculate D2E/DX2 analytically  !
 ! A75   A(17,15,40)           106.948          calculate D2E/DX2 analytically  !
 ! A76   A(15,16,41)           112.0892         calculate D2E/DX2 analytically  !
 ! A77   A(15,16,42)           111.7106         calculate D2E/DX2 analytically  !
 ! A78   A(15,16,43)           110.5042         calculate D2E/DX2 analytically  !
 ! A79   A(41,16,42)           109.3301         calculate D2E/DX2 analytically  !
 ! A80   A(41,16,43)           107.0393         calculate D2E/DX2 analytically  !
 ! A81   A(42,16,43)           105.8773         calculate D2E/DX2 analytically  !
 ! A82   A(15,17,44)           111.4023         calculate D2E/DX2 analytically  !
 ! A83   A(15,17,45)           110.2246         calculate D2E/DX2 analytically  !
 ! A84   A(15,17,46)           113.0597         calculate D2E/DX2 analytically  !
 ! A85   A(44,17,45)           107.7663         calculate D2E/DX2 analytically  !
 ! A86   A(44,17,46)           108.185          calculate D2E/DX2 analytically  !
 ! A87   A(45,17,46)           105.9237         calculate D2E/DX2 analytically  !
 ! A88   A(1,18,19)            113.8375         calculate D2E/DX2 analytically  !
 ! A89   A(1,18,20)            111.6687         calculate D2E/DX2 analytically  !
 ! A90   A(1,18,47)            109.7245         calculate D2E/DX2 analytically  !
 ! A91   A(19,18,20)           109.3305         calculate D2E/DX2 analytically  !
 ! A92   A(19,18,47)           105.3617         calculate D2E/DX2 analytically  !
 ! A93   A(20,18,47)           106.4787         calculate D2E/DX2 analytically  !
 ! A94   A(18,19,48)           112.6893         calculate D2E/DX2 analytically  !
 ! A95   A(18,19,49)           111.0905         calculate D2E/DX2 analytically  !
 ! A96   A(18,19,50)           110.5742         calculate D2E/DX2 analytically  !
 ! A97   A(48,19,49)           108.3464         calculate D2E/DX2 analytically  !
 ! A98   A(48,19,50)           106.4611         calculate D2E/DX2 analytically  !
 ! A99   A(49,19,50)           107.4322         calculate D2E/DX2 analytically  !
 ! A100  A(18,20,51)           112.3632         calculate D2E/DX2 analytically  !
 ! A101  A(18,20,52)           110.2946         calculate D2E/DX2 analytically  !
 ! A102  A(18,20,53)           111.1227         calculate D2E/DX2 analytically  !
 ! A103  A(51,20,52)           106.9617         calculate D2E/DX2 analytically  !
 ! A104  A(51,20,53)           108.3966         calculate D2E/DX2 analytically  !
 ! A105  A(52,20,53)           107.4925         calculate D2E/DX2 analytically  !
 ! D1    D(8,1,2,3)              6.5288         calculate D2E/DX2 analytically  !
 ! D2    D(8,1,2,21)          -115.5544         calculate D2E/DX2 analytically  !
 ! D3    D(8,1,2,22)           130.3676         calculate D2E/DX2 analytically  !
 ! D4    D(18,1,2,3)          -172.4484         calculate D2E/DX2 analytically  !
 ! D5    D(18,1,2,21)           65.4684         calculate D2E/DX2 analytically  !
 ! D6    D(18,1,2,22)          -48.6096         calculate D2E/DX2 analytically  !
 ! D7    D(2,1,8,7)             35.5067         calculate D2E/DX2 analytically  !
 ! D8    D(2,1,8,9)            -87.3469         calculate D2E/DX2 analytically  !
 ! D9    D(18,1,8,7)          -145.5636         calculate D2E/DX2 analytically  !
 ! D10   D(18,1,8,9)            91.5828         calculate D2E/DX2 analytically  !
 ! D11   D(2,1,18,19)         -179.2942         calculate D2E/DX2 analytically  !
 ! D12   D(2,1,18,20)          -54.8952         calculate D2E/DX2 analytically  !
 ! D13   D(2,1,18,47)           62.9254         calculate D2E/DX2 analytically  !
 ! D14   D(8,1,18,19)            1.6415         calculate D2E/DX2 analytically  !
 ! D15   D(8,1,18,20)          126.0405         calculate D2E/DX2 analytically  !
 ! D16   D(8,1,18,47)         -116.1389         calculate D2E/DX2 analytically  !
 ! D17   D(1,2,3,4)             43.0242         calculate D2E/DX2 analytically  !
 ! D18   D(1,2,3,23)           -87.3954         calculate D2E/DX2 analytically  !
 ! D19   D(1,2,3,24)           162.2751         calculate D2E/DX2 analytically  !
 ! D20   D(21,2,3,4)           166.9873         calculate D2E/DX2 analytically  !
 ! D21   D(21,2,3,23)           36.5676         calculate D2E/DX2 analytically  !
 ! D22   D(21,2,3,24)          -73.7618         calculate D2E/DX2 analytically  !
 ! D23   D(22,2,3,4)           -82.2565         calculate D2E/DX2 analytically  !
 ! D24   D(22,2,3,23)          147.3239         calculate D2E/DX2 analytically  !
 ! D25   D(22,2,3,24)           36.9944         calculate D2E/DX2 analytically  !
 ! D26   D(2,3,4,5)           -114.6653         calculate D2E/DX2 analytically  !
 ! D27   D(2,3,4,11)            26.7144         calculate D2E/DX2 analytically  !
 ! D28   D(23,3,4,5)            14.756          calculate D2E/DX2 analytically  !
 ! D29   D(23,3,4,11)          156.1357         calculate D2E/DX2 analytically  !
 ! D30   D(24,3,4,5)           125.8894         calculate D2E/DX2 analytically  !
 ! D31   D(24,3,4,11)          -92.7309         calculate D2E/DX2 analytically  !
 ! D32   D(3,4,5,6)             68.5652         calculate D2E/DX2 analytically  !
 ! D33   D(3,4,5,25)           -54.3947         calculate D2E/DX2 analytically  !
 ! D34   D(3,4,5,26)          -165.8822         calculate D2E/DX2 analytically  !
 ! D35   D(11,4,5,6)           -72.1277         calculate D2E/DX2 analytically  !
 ! D36   D(11,4,5,25)          164.9123         calculate D2E/DX2 analytically  !
 ! D37   D(11,4,5,26)           53.4248         calculate D2E/DX2 analytically  !
 ! D38   D(3,4,11,10)         -112.0917         calculate D2E/DX2 analytically  !
 ! D39   D(3,4,11,31)           17.7182         calculate D2E/DX2 analytically  !
 ! D40   D(3,4,11,32)          129.6408         calculate D2E/DX2 analytically  !
 ! D41   D(5,4,11,10)           27.6876         calculate D2E/DX2 analytically  !
 ! D42   D(5,4,11,31)          157.4975         calculate D2E/DX2 analytically  !
 ! D43   D(5,4,11,32)          -90.5799         calculate D2E/DX2 analytically  !
 ! D44   D(4,5,6,7)            -26.5093         calculate D2E/DX2 analytically  !
 ! D45   D(4,5,6,27)          -151.8424         calculate D2E/DX2 analytically  !
 ! D46   D(4,5,6,28)            99.2384         calculate D2E/DX2 analytically  !
 ! D47   D(25,5,6,7)            96.4516         calculate D2E/DX2 analytically  !
 ! D48   D(25,5,6,27)          -28.8815         calculate D2E/DX2 analytically  !
 ! D49   D(25,5,6,28)         -137.8007         calculate D2E/DX2 analytically  !
 ! D50   D(26,5,6,7)          -152.48           calculate D2E/DX2 analytically  !
 ! D51   D(26,5,6,27)           82.187          calculate D2E/DX2 analytically  !
 ! D52   D(26,5,6,28)          -26.7322         calculate D2E/DX2 analytically  !
 ! D53   D(5,6,7,8)             72.2746         calculate D2E/DX2 analytically  !
 ! D54   D(5,6,7,15)           -99.993          calculate D2E/DX2 analytically  !
 ! D55   D(27,6,7,8)          -165.2037         calculate D2E/DX2 analytically  !
 ! D56   D(27,6,7,15)           22.5286         calculate D2E/DX2 analytically  !
 ! D57   D(28,6,7,8)           -53.3487         calculate D2E/DX2 analytically  !
 ! D58   D(28,6,7,15)          134.3837         calculate D2E/DX2 analytically  !
 ! D59   D(6,7,8,1)           -107.7318         calculate D2E/DX2 analytically  !
 ! D60   D(6,7,8,9)             12.1292         calculate D2E/DX2 analytically  !
 ! D61   D(15,7,8,1)            63.5326         calculate D2E/DX2 analytically  !
 ! D62   D(15,7,8,9)          -176.6064         calculate D2E/DX2 analytically  !
 ! D63   D(6,7,15,16)           59.2943         calculate D2E/DX2 analytically  !
 ! D64   D(6,7,15,17)         -176.3841         calculate D2E/DX2 analytically  !
 ! D65   D(6,7,15,40)          -59.1815         calculate D2E/DX2 analytically  !
 ! D66   D(8,7,15,16)         -112.4944         calculate D2E/DX2 analytically  !
 ! D67   D(8,7,15,17)           11.8272         calculate D2E/DX2 analytically  !
 ! D68   D(8,7,15,40)          129.0298         calculate D2E/DX2 analytically  !
 ! D69   D(1,8,9,10)            66.4619         calculate D2E/DX2 analytically  !
 ! D70   D(1,8,9,12)          -141.5205         calculate D2E/DX2 analytically  !
 ! D71   D(7,8,9,10)           -53.6833         calculate D2E/DX2 analytically  !
 ! D72   D(7,8,9,12)            98.3344         calculate D2E/DX2 analytically  !
 ! D73   D(8,9,10,11)          -31.3803         calculate D2E/DX2 analytically  !
 ! D74   D(8,9,10,29)         -149.818          calculate D2E/DX2 analytically  !
 ! D75   D(8,9,10,30)           96.8018         calculate D2E/DX2 analytically  !
 ! D76   D(12,9,10,11)         173.1314         calculate D2E/DX2 analytically  !
 ! D77   D(12,9,10,29)          54.6937         calculate D2E/DX2 analytically  !
 ! D78   D(12,9,10,30)         -58.6865         calculate D2E/DX2 analytically  !
 ! D79   D(8,9,12,13)          -60.706          calculate D2E/DX2 analytically  !
 ! D80   D(8,9,12,14)           70.2717         calculate D2E/DX2 analytically  !
 ! D81   D(8,9,12,33)         -176.8427         calculate D2E/DX2 analytically  !
 ! D82   D(10,9,12,13)          94.9169         calculate D2E/DX2 analytically  !
 ! D83   D(10,9,12,14)        -134.1054         calculate D2E/DX2 analytically  !
 ! D84   D(10,9,12,33)         -21.2198         calculate D2E/DX2 analytically  !
 ! D85   D(9,10,11,4)           70.9889         calculate D2E/DX2 analytically  !
 ! D86   D(9,10,11,31)         -60.3146         calculate D2E/DX2 analytically  !
 ! D87   D(9,10,11,32)        -170.8699         calculate D2E/DX2 analytically  !
 ! D88   D(29,10,11,4)        -169.0092         calculate D2E/DX2 analytically  !
 ! D89   D(29,10,11,31)         59.6874         calculate D2E/DX2 analytically  !
 ! D90   D(29,10,11,32)        -50.8679         calculate D2E/DX2 analytically  !
 ! D91   D(30,10,11,4)         -57.6144         calculate D2E/DX2 analytically  !
 ! D92   D(30,10,11,31)        171.0821         calculate D2E/DX2 analytically  !
 ! D93   D(30,10,11,32)         60.5268         calculate D2E/DX2 analytically  !
 ! D94   D(9,12,13,34)          70.3404         calculate D2E/DX2 analytically  !
 ! D95   D(9,12,13,35)         -52.1412         calculate D2E/DX2 analytically  !
 ! D96   D(9,12,13,36)        -169.5166         calculate D2E/DX2 analytically  !
 ! D97   D(14,12,13,34)        -61.4794         calculate D2E/DX2 analytically  !
 ! D98   D(14,12,13,35)        176.0389         calculate D2E/DX2 analytically  !
 ! D99   D(14,12,13,36)         58.6636         calculate D2E/DX2 analytically  !
 ! D100  D(33,12,13,34)       -171.3562         calculate D2E/DX2 analytically  !
 ! D101  D(33,12,13,35)         66.1621         calculate D2E/DX2 analytically  !
 ! D102  D(33,12,13,36)        -51.2132         calculate D2E/DX2 analytically  !
 ! D103  D(9,12,14,37)         -70.8697         calculate D2E/DX2 analytically  !
 ! D104  D(9,12,14,38)         170.2438         calculate D2E/DX2 analytically  !
 ! D105  D(9,12,14,39)          51.9542         calculate D2E/DX2 analytically  !
 ! D106  D(13,12,14,37)         62.3464         calculate D2E/DX2 analytically  !
 ! D107  D(13,12,14,38)        -56.5401         calculate D2E/DX2 analytically  !
 ! D108  D(13,12,14,39)       -174.8297         calculate D2E/DX2 analytically  !
 ! D109  D(33,12,14,37)        173.0903         calculate D2E/DX2 analytically  !
 ! D110  D(33,12,14,38)         54.2038         calculate D2E/DX2 analytically  !
 ! D111  D(33,12,14,39)        -64.0858         calculate D2E/DX2 analytically  !
 ! D112  D(7,15,16,41)          59.7677         calculate D2E/DX2 analytically  !
 ! D113  D(7,15,16,42)         -63.3319         calculate D2E/DX2 analytically  !
 ! D114  D(7,15,16,43)         179.0688         calculate D2E/DX2 analytically  !
 ! D115  D(17,15,16,41)        -67.4111         calculate D2E/DX2 analytically  !
 ! D116  D(17,15,16,42)        169.4894         calculate D2E/DX2 analytically  !
 ! D117  D(17,15,16,43)         51.8901         calculate D2E/DX2 analytically  !
 ! D118  D(40,15,16,41)        179.3829         calculate D2E/DX2 analytically  !
 ! D119  D(40,15,16,42)         56.2833         calculate D2E/DX2 analytically  !
 ! D120  D(40,15,16,43)        -61.3159         calculate D2E/DX2 analytically  !
 ! D121  D(7,15,17,44)         -65.2494         calculate D2E/DX2 analytically  !
 ! D122  D(7,15,17,45)         175.1688         calculate D2E/DX2 analytically  !
 ! D123  D(7,15,17,46)          56.8346         calculate D2E/DX2 analytically  !
 ! D124  D(16,15,17,44)         65.3895         calculate D2E/DX2 analytically  !
 ! D125  D(16,15,17,45)        -54.1924         calculate D2E/DX2 analytically  !
 ! D126  D(16,15,17,46)       -172.5265         calculate D2E/DX2 analytically  !
 ! D127  D(40,15,17,44)        177.3364         calculate D2E/DX2 analytically  !
 ! D128  D(40,15,17,45)         57.7545         calculate D2E/DX2 analytically  !
 ! D129  D(40,15,17,46)        -60.5796         calculate D2E/DX2 analytically  !
 ! D130  D(1,18,19,48)          61.4936         calculate D2E/DX2 analytically  !
 ! D131  D(1,18,19,49)         -60.303          calculate D2E/DX2 analytically  !
 ! D132  D(1,18,19,50)        -179.4944         calculate D2E/DX2 analytically  !
 ! D133  D(20,18,19,48)        -64.153          calculate D2E/DX2 analytically  !
 ! D134  D(20,18,19,49)        174.0504         calculate D2E/DX2 analytically  !
 ! D135  D(20,18,19,50)         54.859          calculate D2E/DX2 analytically  !
 ! D136  D(47,18,19,48)       -178.2395         calculate D2E/DX2 analytically  !
 ! D137  D(47,18,19,49)         59.9639         calculate D2E/DX2 analytically  !
 ! D138  D(47,18,19,50)        -59.2275         calculate D2E/DX2 analytically  !
 ! D139  D(1,18,20,51)         -68.3136         calculate D2E/DX2 analytically  !
 ! D140  D(1,18,20,52)         172.4456         calculate D2E/DX2 analytically  !
 ! D141  D(1,18,20,53)          53.3399         calculate D2E/DX2 analytically  !
 ! D142  D(19,18,20,51)         58.5729         calculate D2E/DX2 analytically  !
 ! D143  D(19,18,20,52)        -60.668          calculate D2E/DX2 analytically  !
 ! D144  D(19,18,20,53)       -179.7737         calculate D2E/DX2 analytically  !
 ! D145  D(47,18,20,51)        171.9344         calculate D2E/DX2 analytically  !
 ! D146  D(47,18,20,52)         52.6936         calculate D2E/DX2 analytically  !
 ! D147  D(47,18,20,53)        -66.4122         calculate D2E/DX2 analytically  !
 --------------------------------------------------------------------------------
 Trust Radius=3.00D-01 FncErr=1.00D-07 GrdErr=1.00D-06 EigMax=2.50D+02 EigMin=1.00D-04
 Number of steps in this run=    316 maximum allowed number of steps=    318.
 GradGradGradGradGradGradGradGradGradGradGradGradGradGradGradGradGradGrad

 Stoichiometry    C15H33N4P
 Framework group  C1[X(C15H33N4P)]
 Deg. of freedom   153
 Full point group                 C1      NOp   1
 Largest Abelian subgroup         C1      NOp   1
 Largest concise Abelian subgroup C1      NOp   1
                         Standard orientation:                         
 ---------------------------------------------------------------------
 Center     Atomic      Atomic             Coordinates (Angstroms)
 Number     Number       Type             X           Y           Z
 ---------------------------------------------------------------------
      1          7           0        0.564578    1.179699   -0.675044
      2          6           0        1.589168    0.593883   -1.543446
      3          6           0        1.868529   -0.924327   -1.638450
      4          7           0        0.783904   -1.893890   -1.701139
      5          6           0        0.716770   -2.776040   -0.539248
      6          6           0        0.314282   -2.233445    0.858698
      7          7           0        0.562278   -0.822557    1.169927
      8         15           0       -0.370048    0.378607    0.462756
      9          7           0       -1.740021   -0.224525   -0.315767
     10          6           0       -1.693054   -1.281146   -1.336288
     11          6           0       -0.472726   -1.414228   -2.262672
     12          6           0       -3.090882   -0.231141    0.309035
     13          6           0       -3.230077   -1.036573    1.605824
     14          6           0       -3.701540    1.166798    0.447709
     15          6           0        1.781910   -0.603165    1.982065
     16          6           0        3.133412   -1.074678    1.407758
     17          6           0        1.967255    0.879054    2.368102
     18          6           0        0.360658    2.630171   -0.882074
     19          6           0       -0.704957    3.247640    0.043935
     20          6           0        1.672587    3.412766   -0.739292
     21          1           0        2.559185    1.028749   -1.274691
     22          1           0        1.399235    0.915824   -2.570193
     23          1           0        2.593757   -1.196604   -0.861136
     24          1           0        2.432265   -1.062653   -2.572099
     25          1           0        1.705981   -3.243180   -0.431336
     26          1           0        0.054043   -3.619772   -0.775358
     27          1           0        0.813466   -2.889781    1.579376
     28          1           0       -0.741373   -2.459032    1.035025
     29          1           0       -2.533566   -1.105924   -2.024789
     30          1           0       -1.904922   -2.255878   -0.878763
     31          1           0       -0.352764   -0.491181   -2.842009
     32          1           0       -0.755525   -2.153623   -3.024333
     33          1           0       -3.782339   -0.727246   -0.387142
     34          1           0       -2.709841   -0.569013    2.446719
     35          1           0       -2.856009   -2.056753    1.481231
     36          1           0       -4.290650   -1.128517    1.874960
     37          1           0       -3.196200    1.765249    1.210967
     38          1           0       -4.760320    1.078742    0.750704
     39          1           0       -3.683462    1.705066   -0.499733
     40          1           0        1.656613   -1.164530    2.917895
     41          1           0        3.368729   -0.587510    0.455556
     42          1           0        3.160190   -2.157663    1.275774
     43          1           0        3.949799   -0.836491    2.101190
     44          1           0        2.146140    1.501874    1.486523
     45          1           0        2.829370    0.991719    3.038375
     46          1           0        1.111780    1.290661    2.908392
     47          1           0       -0.001363    2.811926   -1.904758
     48          1           0       -0.445274    3.159726    1.104494
     49          1           0       -1.681073    2.778734   -0.111602
     50          1           0       -0.818861    4.318826   -0.160278
     51          1           0        2.046687    3.414482    0.289479
     52          1           0        1.523959    4.459563   -1.027146
     53          1           0        2.449875    3.000612   -1.388414
 ---------------------------------------------------------------------
 Rotational constants (GHZ):           0.3649084           0.3263146           0.2663672
 Standard basis: 6-31G(d) (6D, 7F)
 There are   370 symmetry adapted cartesian basis functions of A   symmetry.
 There are   370 symmetry adapted basis functions of A   symmetry.
   370 basis functions,   716 primitive gaussians,   370 cartesian basis functions
    83 alpha electrons       83 beta electrons
       nuclear repulsion energy      2108.0705135067 Hartrees.
 NAtoms=   53 NActive=   53 NUniq=   53 SFac= 1.00D+00 NAtFMM=   60 NAOKFM=F Big=F
 Integral buffers will be    131072 words long.
 Raffenetti 2 integral format.
 Two-electron integral symmetry is turned on.
 One-electron integrals computed using PRISM.
 NBasis=   370 RedAO= T EigKep=  2.94D-03  NBF=   370
 NBsUse=   370 1.00D-06 EigRej= -1.00D+00 NBFU=   370
 ExpMin= 9.98D-02 ExpMax= 1.94D+04 ExpMxC= 2.91D+03 IAcc=3 IRadAn=         5 AccDes= 0.00D+00
 Harris functional with IExCor=  402 and IRadAn=       5 diagonalized for initial guess.
 HarFok:  IExCor=  402 AccDes= 0.00D+00 IRadAn=         5 IDoV= 1 UseB2=F ITyADJ=14
 ICtDFT=  3500011 ScaDFX=  1.000000  1.000000  1.000000  1.000000
 FoFCou: FMM=F IPFlag=           0 FMFlag=      100000 FMFlg1=           0
         NFxFlg=           0 DoJE=T BraDBF=F KetDBF=T FulRan=T
         wScrn=  0.000000 ICntrl=       500 IOpCl=  0 I1Cent=   200000004 NGrid=           0
         NMat0=    1 NMatS0=      1 NMatT0=    0 NMatD0=    1 NMtDS0=    0 NMtDT0=    0
 Petite list used in FoFCou.
 Gradient too large for Newton-Raphson -- use scaled steepest descent instead.
     Accept linear search using points  2 and  3.
 Gradient too large for Newton-Raphson -- use scaled steepest descent instead.
     Minimum is close to point  3 DX=  2.48D-02 DF= -4.07D-05 DXR=  3.43D-02 DFR=  1.18D-03 which will be used.
 Gradient too large for Newton-Raphson -- use scaled steepest descent instead.
     Minimum is close to point  2 DX=  3.94D-02 DF= -1.33D-05 DXR=  7.31D-02 DFR=  5.37D-03 which will be used.
 Gradient too large for Newton-Raphson -- use scaled steepest descent instead.
     Minimum is close to point  2 DX=  4.14D-02 DF= -1.76D-06 DXR=  6.45D-02 DFR=  4.18D-03 which will be used.
 Gradient too large for Newton-Raphson -- use scaled steepest descent instead.
     Accept linear search using points  1 and  2.
 LinEq1:  Iter=  0 NonCon=     1 RMS=2.65D-05 Max=1.25D-03 NDo=     1
 AX will form     1 AO Fock derivatives at one time.
 LinEq1:  Iter=  1 NonCon=     1 RMS=1.29D-05 Max=3.28D-04 NDo=     1
 LinEq1:  Iter=  2 NonCon=     1 RMS=5.26D-06 Max=2.43D-04 NDo=     1
 LinEq1:  Iter=  3 NonCon=     1 RMS=2.17D-06 Max=7.19D-05 NDo=     1
 LinEq1:  Iter=  4 NonCon=     1 RMS=1.10D-06 Max=5.53D-05 NDo=     1
 LinEq1:  Iter=  5 NonCon=     1 RMS=5.98D-07 Max=2.30D-05 NDo=     1
 LinEq1:  Iter=  6 NonCon=     1 RMS=2.49D-07 Max=5.43D-06 NDo=     1
 LinEq1:  Iter=  7 NonCon=     1 RMS=9.21D-08 Max=2.33D-06 NDo=     1
 LinEq1:  Iter=  8 NonCon=     1 RMS=6.53D-08 Max=1.61D-06 NDo=     1
 LinEq1:  Iter=  9 NonCon=     1 RMS=2.95D-08 Max=6.00D-07 NDo=     1
 LinEq1:  Iter= 10 NonCon=     1 RMS=1.38D-08 Max=2.67D-07 NDo=     1
 LinEq1:  Iter= 11 NonCon=     0 RMS=5.35D-09 Max=1.52D-07 NDo=     1
 Linear equations converged to 2.183D-08 2.183D-07 after    11 iterations.
     Accept linear search using points  1 and  2.
     Minimum is close to point  2 DX= -9.39D-05 DF= -2.27D-13 DXR=  9.39D-05 DFR=  7.56D-09 which will be used.
 LinEq1:  Iter=  0 NonCon=     1 RMS=2.28D-08 Max=6.93D-07 NDo=     1
 LinEq1:  Iter=  1 NonCon=     1 RMS=1.51D-08 Max=5.61D-07 NDo=     1
 LinEq1:  Iter=  2 NonCon=     1 RMS=8.25D-09 Max=2.54D-07 NDo=     1
 LinEq1:  Iter=  3 NonCon=     1 RMS=3.96D-09 Max=6.49D-08 NDo=     1
 LinEq1:  Iter=  4 NonCon=     1 RMS=1.83D-09 Max=6.21D-08 NDo=     1
 LinEq1:  Iter=  5 NonCon=     1 RMS=1.15D-09 Max=5.50D-08 NDo=     1
 LinEq1:  Iter=  6 NonCon=     1 RMS=4.96D-10 Max=2.26D-08 NDo=     1
 LinEq1:  Iter=  7 NonCon=     1 RMS=1.84D-10 Max=5.56D-09 NDo=     1
 LinEq1:  Iter=  8 NonCon=     1 RMS=1.04D-10 Max=3.63D-09 NDo=     1
 LinEq1:  Iter=  9 NonCon=     1 RMS=5.48D-11 Max=1.64D-09 NDo=     1
 LinEq1:  Iter= 10 NonCon=     1 RMS=3.37D-11 Max=1.06D-09 NDo=     1
 LinEq1:  Iter= 11 NonCon=     1 RMS=1.45D-11 Max=4.11D-10 NDo=     1
 LinEq1:  Iter= 12 NonCon=     0 RMS=7.26D-12 Max=1.67D-10 NDo=     1
 Linear equations converged to 2.990D-11 2.990D-10 after    12 iterations.
 SCF Done:  E(RB3LYP) =  -1151.73638831     a.u. after    8 cycles
            Convg  =    0.9393D-10                    38 Fock formations.
              S**2 =  0.0000                  -V/T =  2.0078
 DoSCS=F DFT=T ScalE2(SS,OS)=  1.000000  1.000000
 Range of M.O.s used for correlation:     1   370
 NBasis=   370 NAE=    83 NBE=    83 NFC=     0 NFV=     0
 NROrb=    370 NOA=    83 NOB=    83 NVA=   287 NVB=   287
 Symmetrizing basis deriv contribution to polar:
 IMax=3 JMax=2 DiffMx= 0.00D+00
 G2DrvN: will do    54 centers at a time, making    1 passes.
 Calling FoFCou, ICntrl=  3107 FMM=F I1Cent=   0 AccDes= 0.00D+00.
 End of G2Drv F.D. properties file   721 does not exist.
 End of G2Drv F.D. properties file   722 does not exist.
 End of G2Drv F.D. properties file   788 does not exist.
          IDoAtm=11111111111111111111111111111111111111111111111111
          IDoAtm=111
          Differentiating once with respect to electric field.
                with respect to dipole field.
          Differentiating once with respect to nuclear coordinates.
 CalDSu exits because no D1Ps are significant.
          There are   162 degrees of freedom in the 1st order CPHF.  IDoFFX=6 NUNeed=     3.
    159 vectors produced by pass  0 Test12= 2.38D-14 1.00D-09 XBig12= 1.45D+02 1.85D+00.
 AX will form   159 AO Fock derivatives at one time.
    159 vectors produced by pass  1 Test12= 2.38D-14 1.00D-09 XBig12= 1.07D+01 2.72D-01.
    159 vectors produced by pass  2 Test12= 2.38D-14 1.00D-09 XBig12= 1.09D-01 3.23D-02.
    159 vectors produced by pass  3 Test12= 2.38D-14 1.00D-09 XBig12= 2.44D-04 1.52D-03.
    159 vectors produced by pass  4 Test12= 2.38D-14 1.00D-09 XBig12= 2.11D-07 2.94D-05.
     68 vectors produced by pass  5 Test12= 2.38D-14 1.00D-09 XBig12= 1.49D-10 7.41D-07.
      3 vectors produced by pass  6 Test12= 2.38D-14 1.00D-09 XBig12= 9.58D-14 2.48D-08.
 InvSVY:  IOpt=1 It=  1 EMax= 8.88D-15
 Solved reduced A of dimension   866 with   162 vectors.
 Isotropic polarizability for W=    0.000000      201.68 Bohr**3.
 End of Minotr F.D. properties file   721 does not exist.
 End of Minotr F.D. properties file   722 does not exist.
 End of Minotr F.D. properties file   788 does not exist.

 **********************************************************************

            Population analysis using the SCF density.

 **********************************************************************

 Orbital symmetries:
       Occupied  (A) (A) (A) (A) (A) (A) (A) (A) (A) (A) (A) (A)
                 (A) (A) (A) (A) (A) (A) (A) (A) (A) (A) (A) (A)
                 (A) (A) (A) (A) (A) (A) (A) (A) (A) (A) (A) (A)
                 (A) (A) (A) (A) (A) (A) (A) (A) (A) (A) (A) (A)
                 (A) (A) (A) (A) (A) (A) (A) (A) (A) (A) (A) (A)
                 (A) (A) (A) (A) (A) (A) (A) (A) (A) (A) (A) (A)
                 (A) (A) (A) (A) (A) (A) (A) (A) (A) (A) (A)
       Virtual   (A) (A) (A) (A) (A) (A) (A) (A) (A) (A) (A) (A)
                 (A) (A) (A) (A) (A) (A) (A) (A) (A) (A) (A) (A)
                 (A) (A) (A) (A) (A) (A) (A) (A) (A) (A) (A) (A)
                 (A) (A) (A) (A) (A) (A) (A) (A) (A) (A) (A) (A)
                 (A) (A) (A) (A) (A) (A) (A) (A) (A) (A) (A) (A)
                 (A) (A) (A) (A) (A) (A) (A) (A) (A) (A) (A) (A)
                 (A) (A) (A) (A) (A) (A) (A) (A) (A) (A) (A) (A)
                 (A) (A) (A) (A) (A) (A) (A) (A) (A) (A) (A) (A)
                 (A) (A) (A) (A) (A) (A) (A) (A) (A) (A) (A) (A)
                 (A) (A) (A) (A) (A) (A) (A) (A) (A) (A) (A) (A)
                 (A) (A) (A) (A) (A) (A) (A) (A) (A) (A) (A) (A)
                 (A) (A) (A) (A) (A) (A) (A) (A) (A) (A) (A) (A)
                 (A) (A) (A) (A) (A) (A) (A) (A) (A) (A) (A) (A)
                 (A) (A) (A) (A) (A) (A) (A) (A) (A) (A) (A) (A)
                 (A) (A) (A) (A) (A) (A) (A) (A) (A) (A) (A) (A)
                 (A) (A) (A) (A) (A) (A) (A) (A) (A) (A) (A) (A)
                 (A) (A) (A) (A) (A) (A) (A) (A) (A) (A) (A) (A)
                 (A) (A) (A) (A) (A) (A) (A) (A) (A) (A) (A) (A)
                 (A) (A) (A) (A) (A) (A) (A) (A) (A) (A) (A) (A)
                 (A) (A) (A) (A) (A) (A) (A) (A) (A) (A) (A) (A)
                 (A) (A) (A) (A) (A) (A) (A) (A) (A) (A) (A) (A)
                 (A) (A) (A) (A) (A) (A) (A) (A) (A) (A) (A) (A)
                 (A) (A) (A) (A) (A) (A) (A) (A) (A) (A) (A) (A)
                 (A) (A) (A) (A) (A) (A) (A) (A) (A) (A) (A)
 The electronic state is 1-A.
 Alpha  occ. eigenvalues --  -77.09162 -14.31709 -14.31493 -14.31444 -14.30937
 Alpha  occ. eigenvalues --  -10.22013 -10.21490 -10.21203 -10.20465 -10.20344
 Alpha  occ. eigenvalues --  -10.20267 -10.20158 -10.20115 -10.19935 -10.17275
 Alpha  occ. eigenvalues --  -10.16783 -10.16479 -10.16439 -10.16438 -10.15807
 Alpha  occ. eigenvalues --   -6.55238  -4.71578  -4.71564  -4.70904  -0.93183
 Alpha  occ. eigenvalues --   -0.89898  -0.88866  -0.88593  -0.77303  -0.76938
 Alpha  occ. eigenvalues --   -0.76463  -0.72439  -0.72024  -0.70897  -0.67957
 Alpha  occ. eigenvalues --   -0.67719  -0.66995  -0.62519  -0.61645  -0.60874
 Alpha  occ. eigenvalues --   -0.57541  -0.56574  -0.56046  -0.50902  -0.49368
 Alpha  occ. eigenvalues --   -0.47907  -0.47463  -0.46713  -0.45752  -0.45029
 Alpha  occ. eigenvalues --   -0.44535  -0.44346  -0.44169  -0.42900  -0.42517
 Alpha  occ. eigenvalues --   -0.41859  -0.40896  -0.39754  -0.39438  -0.39077
 Alpha  occ. eigenvalues --   -0.38626  -0.38437  -0.37781  -0.37314  -0.37122
 Alpha  occ. eigenvalues --   -0.36533  -0.36294  -0.35805  -0.34802  -0.34522
 Alpha  occ. eigenvalues --   -0.34244  -0.33524  -0.33319  -0.32987  -0.32009
 Alpha  occ. eigenvalues --   -0.31827  -0.31570  -0.31263  -0.24022  -0.22944
 Alpha  occ. eigenvalues --   -0.21161  -0.19357  -0.14535
 Alpha virt. eigenvalues --    0.06710   0.07741   0.08646   0.08984   0.09645
 Alpha virt. eigenvalues --    0.10452   0.10941   0.11288   0.11932   0.13008
 Alpha virt. eigenvalues --    0.13452   0.14185   0.14515   0.14632   0.14868
 Alpha virt. eigenvalues --    0.15343   0.15454   0.16390   0.16830   0.16887
 Alpha virt. eigenvalues --    0.17413   0.17473   0.17987   0.18943   0.19217
 Alpha virt. eigenvalues --    0.19640   0.19805   0.20020   0.20201   0.20634
 Alpha virt. eigenvalues --    0.20952   0.21232   0.21999   0.22492   0.22753
 Alpha virt. eigenvalues --    0.23324   0.23452   0.23912   0.24310   0.24893
 Alpha virt. eigenvalues --    0.25546   0.26041   0.26876   0.27451   0.28095
 Alpha virt. eigenvalues --    0.28450   0.29240   0.29793   0.30630   0.31131
 Alpha virt. eigenvalues --    0.31413   0.33890   0.35534   0.36606   0.38951
 Alpha virt. eigenvalues --    0.44707   0.46917   0.47747   0.49314   0.51212
 Alpha virt. eigenvalues --    0.51455   0.52017   0.52664   0.52960   0.53752
 Alpha virt. eigenvalues --    0.55085   0.55896   0.56156   0.56704   0.57312
 Alpha virt. eigenvalues --    0.57981   0.59395   0.60524   0.60917   0.62580
 Alpha virt. eigenvalues --    0.63571   0.64245   0.65030   0.65759   0.66492
 Alpha virt. eigenvalues --    0.67505   0.67775   0.69165   0.69838   0.70416
 Alpha virt. eigenvalues --    0.71800   0.72379   0.72840   0.74488   0.74713
 Alpha virt. eigenvalues --    0.76272   0.76770   0.77377   0.78422   0.79633
 Alpha virt. eigenvalues --    0.80558   0.81417   0.82300   0.82783   0.83036
 Alpha virt. eigenvalues --    0.84148   0.84845   0.85706   0.86352   0.86958
 Alpha virt. eigenvalues --    0.87235   0.87515   0.88383   0.89157   0.89544
 Alpha virt. eigenvalues --    0.90038   0.90355   0.90540   0.90764   0.91456
 Alpha virt. eigenvalues --    0.91977   0.92057   0.92605   0.93077   0.94545
 Alpha virt. eigenvalues --    0.94610   0.95351   0.95985   0.96309   0.96881
 Alpha virt. eigenvalues --    0.97633   0.98014   0.98687   1.00191   1.00727
 Alpha virt. eigenvalues --    1.00808   1.01595   1.02752   1.03224   1.03546
 Alpha virt. eigenvalues --    1.04542   1.05436   1.05710   1.06661   1.08304
 Alpha virt. eigenvalues --    1.09132   1.10430   1.11142   1.12801   1.13064
 Alpha virt. eigenvalues --    1.14791   1.15920   1.16689   1.19264   1.19663
 Alpha virt. eigenvalues --    1.20190   1.23614   1.27675   1.28508   1.30751
 Alpha virt. eigenvalues --    1.31492   1.35431   1.36354   1.39050   1.40104
 Alpha virt. eigenvalues --    1.41465   1.42770   1.44316   1.45239   1.47798
 Alpha virt. eigenvalues --    1.49191   1.50338   1.53770   1.57743   1.58838
 Alpha virt. eigenvalues --    1.59934   1.61744   1.63827   1.65575   1.66377
 Alpha virt. eigenvalues --    1.68812   1.69924   1.72946   1.73261   1.74056
 Alpha virt. eigenvalues --    1.74888   1.76683   1.77269   1.78350   1.79842
 Alpha virt. eigenvalues --    1.80339   1.80851   1.83231   1.83946   1.84634
 Alpha virt. eigenvalues --    1.87191   1.89123   1.90008   1.91252   1.92849
 Alpha virt. eigenvalues --    1.94030   1.94463   1.97616   1.97985   1.99225
 Alpha virt. eigenvalues --    2.00515   2.01032   2.02303   2.03310   2.03414
 Alpha virt. eigenvalues --    2.04611   2.05723   2.07071   2.07960   2.08300
 Alpha virt. eigenvalues --    2.10361   2.11284   2.12768   2.13384   2.13806
 Alpha virt. eigenvalues --    2.14959   2.16549   2.17350   2.18694   2.20417
 Alpha virt. eigenvalues --    2.21586   2.23783   2.26066   2.26603   2.26918
 Alpha virt. eigenvalues --    2.27704   2.28238   2.29153   2.29854   2.30164
 Alpha virt. eigenvalues --    2.30902   2.31916   2.33075   2.33691   2.36268
 Alpha virt. eigenvalues --    2.36971   2.39765   2.40578   2.41540   2.42351
 Alpha virt. eigenvalues --    2.44618   2.47366   2.48230   2.48932   2.50149
 Alpha virt. eigenvalues --    2.51269   2.54077   2.54350   2.55880   2.58013
 Alpha virt. eigenvalues --    2.59827   2.60993   2.62827   2.67447   2.68504
 Alpha virt. eigenvalues --    2.71651   2.72609   2.73975   2.76915   2.78967
 Alpha virt. eigenvalues --    2.80916   2.83629   2.84134   2.86660   2.88863
 Alpha virt. eigenvalues --    2.91408   2.96558   3.65814   3.99309   4.05118
 Alpha virt. eigenvalues --    4.06996   4.18261   4.22164   4.23283   4.26132
 Alpha virt. eigenvalues --    4.27359   4.30110   4.32190   4.34794   4.37541
 Alpha virt. eigenvalues --    4.40173   4.51362   4.55098   4.56907   4.59940
 Alpha virt. eigenvalues --    4.61228   4.64853
          Condensed to atoms (all electrons):
 Mulliken charges:
               1
     1  N   -0.554894
     2  C   -0.125388
     3  C   -0.154016
     4  N   -0.379692
     5  C   -0.150490
     6  C   -0.164050
     7  N   -0.552135
     8  P    0.726583
     9  N   -0.538420
    10  C   -0.139694
    11  C   -0.157613
    12  C    0.060785
    13  C   -0.449716
    14  C   -0.442300
    15  C    0.075572
    16  C   -0.452949
    17  C   -0.484136
    18  C    0.085849
    19  C   -0.475310
    20  C   -0.454622
    21  H    0.134020
    22  H    0.126709
    23  H    0.140511
    24  H    0.131994
    25  H    0.138092
    26  H    0.133244
    27  H    0.135073
    28  H    0.145841
    29  H    0.133410
    30  H    0.128826
    31  H    0.157743
    32  H    0.135472
    33  H    0.130088
    34  H    0.166031
    35  H    0.144162
    36  H    0.135446
    37  H    0.166948
    38  H    0.129509
    39  H    0.148501
    40  H    0.131211
    41  H    0.159504
    42  H    0.140993
    43  H    0.141509
    44  H    0.171330
    45  H    0.132940
    46  H    0.169164
    47  H    0.117749
    48  H    0.167655
    49  H    0.173694
    50  H    0.125929
    51  H    0.150743
    52  H    0.138446
    53  H    0.144150
 Sum of Mulliken charges =   0.00000
 Mulliken charges with hydrogens summed into heavy atoms:
               1
     1  N   -0.554894
     2  C    0.135341
     3  C    0.118490
     4  N   -0.379692
     5  C    0.120845
     6  C    0.116863
     7  N   -0.552135
     8  P    0.726583
     9  N   -0.538420
    10  C    0.122542
    11  C    0.135603
    12  C    0.190873
    13  C   -0.004077
    14  C    0.002658
    15  C    0.206782
    16  C   -0.010943
    17  C   -0.010702
    18  C    0.203597
    19  C   -0.008033
    20  C   -0.021284
 APT charges:
               1
     1  N   -0.875735
     2  C    0.272843
     3  C    0.356526
     4  N   -0.586603
     5  C    0.311759
     6  C    0.267980
     7  N   -0.887357
     8  P    1.236479
     9  N   -0.825564
    10  C    0.271218
    11  C    0.357111
    12  C    0.456286
    13  C   -0.001181
    14  C    0.019270
    15  C    0.486449
    16  C   -0.014825
    17  C    0.023359
    18  C    0.477460
    19  C    0.030801
    20  C    0.004262
    21  H   -0.069172
    22  H   -0.094520
    23  H   -0.001473
    24  H   -0.102573
    25  H   -0.053293
    26  H   -0.055352
    27  H   -0.056384
    28  H   -0.060312
    29  H   -0.082366
    30  H   -0.072887
    31  H   -0.016005
    32  H   -0.095520
    33  H   -0.076995
    34  H    0.006239
    35  H   -0.018103
    36  H   -0.042712
    37  H    0.006973
    38  H   -0.049549
    39  H   -0.013630
    40  H   -0.111532
    41  H   -0.003461
    42  H   -0.019507
    43  H   -0.036495
    44  H    0.006623
    45  H   -0.040282
    46  H    0.003369
    47  H   -0.123384
    48  H    0.005640
    49  H    0.004031
    50  H   -0.055732
    51  H   -0.014730
    52  H   -0.037487
    53  H   -0.009959
 Sum of APT charges =   0.00000
 APT charges with hydrogens summed into heavy atoms:
               1
     1  N   -0.875735
     2  C    0.109151
     3  C    0.252479
     4  N   -0.586603
     5  C    0.203114
     6  C    0.151284
     7  N   -0.887357
     8  P    1.236479
     9  N   -0.825564
    10  C    0.115965
    11  C    0.245586
    12  C    0.379291
    13  C   -0.055757
    14  C   -0.036936
    15  C    0.374917
    16  C   -0.074287
    17  C   -0.006931
    18  C    0.354076
    19  C   -0.015259
    20  C   -0.057913
 Electronic spatial extent (au):  <R**2>=           5427.7026
 Charge=              0.0000 electrons
 Dipole moment (field-independent basis, Debye):
    X=              0.2389    Y=             -0.9003    Z=             -0.2485  Tot=              0.9640
 Quadrupole moment (field-independent basis, Debye-Ang):
   XX=           -128.6787   YY=           -133.1377   ZZ=           -134.9381
   XY=              2.0642   XZ=              2.9466   YZ=             -3.6452
 Traceless Quadrupole moment (field-independent basis, Debye-Ang):
   XX=              3.5728   YY=             -0.8862   ZZ=             -2.6867
   XY=              2.0642   XZ=              2.9466   YZ=             -3.6452
 Octapole moment (field-independent basis, Debye-Ang**2):
  XXX=             -9.7229  YYY=             -4.4781  ZZZ=             -1.5826  XYY=             -2.0573
  XXY=             -6.7085  XXZ=              3.0215  XZZ=              1.6864  YZZ=              3.9635
  YYZ=              5.3315  XYZ=             -5.6438
 Hexadecapole moment (field-independent basis, Debye-Ang**3):
 XXXX=          -3088.9882 YYYY=          -2632.8665 ZZZZ=          -1632.3801 XXXY=              5.5162
 XXXZ=              5.3936 YYYX=              0.0685 YYYZ=            -30.6961 ZZZX=             24.8955
 ZZZY=             -8.2067 XXYY=           -984.6688 XXZZ=           -787.9786 YYZZ=           -734.4191
 XXYZ=             -3.7924 YYXZ=             18.2037 ZZXY=              7.2939
 N-N= 2.108070513507D+03 E-N=-6.905632149066D+03  KE= 1.142829974561D+03
  Exact polarizability: 214.672   1.956 205.494   3.161  -3.164 184.866
 Approx polarizability: 293.778   4.865 285.640   7.296  -7.582 277.914
 Calling FoFJK, ICntrl=    100127 FMM=F ISym2X=0 I1Cent= 0 IOpClX= 0 NMat=1 NMatS=1 NMatT=0.
 ***** Axes restored to original set *****
 -------------------------------------------------------------------
 Center     Atomic                   Forces (Hartrees/Bohr)
 Number     Number              X              Y              Z
 -------------------------------------------------------------------
      1        7           0.000813761   -0.014821882   -0.022004406
      2        6          -0.006473971   -0.007518268   -0.001546866
      3        6          -0.000420464   -0.002380792   -0.009906661
      4        7          -0.005858668    0.024485764    0.007577831
      5        6           0.004597352   -0.007101607   -0.009861263
      6        6           0.007651995   -0.001671402    0.007107311
      7        7           0.036482997   -0.009038750   -0.046647653
      8       15          -0.036691866    0.054032072    0.059978798
      9        7           0.027620728   -0.026210807   -0.011820696
     10        6           0.003694602   -0.014219430    0.004874984
     11        6           0.009713169   -0.006763510    0.001401862
     12        6          -0.001749712    0.005117348    0.011684882
     13        6           0.001786674    0.002717993    0.000051843
     14        6           0.001648093    0.008473045    0.005749810
     15        6          -0.019435451    0.012635071    0.005209610
     16        6           0.002204906   -0.002582781   -0.001754706
     17        6          -0.000308293    0.005906202    0.003490459
     18        6          -0.005465731    0.008400025    0.004903747
     19        6           0.000852310    0.001445466    0.002631191
     20        6          -0.004884121   -0.001573632   -0.001897029
     21        1          -0.000940253   -0.001985173   -0.003320159
     22        1          -0.006106198   -0.005084893    0.004200826
     23        1           0.007803133   -0.009788912    0.009983778
     24        1          -0.009985084   -0.000771622   -0.000573697
     25        1          -0.003739075   -0.003326999   -0.000152451
     26        1          -0.000315821   -0.001022666    0.002037694
     27        1          -0.005335441    0.006045198   -0.001691524
     28        1          -0.002658298   -0.002046522    0.004932994
     29        1           0.000053944   -0.000337399    0.000214076
     30        1           0.002885014   -0.000709679   -0.002402510
     31        1          -0.002084718    0.006801829   -0.005119439
     32        1           0.004444266   -0.001985721    0.006615683
     33        1          -0.002428360   -0.004309118   -0.009996615
     34        1          -0.001167653    0.000256315   -0.001734262
     35        1           0.000028918    0.000539299   -0.002310495
     36        1          -0.001532219    0.000507869    0.000334389
     37        1          -0.001149969   -0.000318055   -0.001207514
     38        1          -0.001242069   -0.000090411   -0.004326121
     39        1          -0.002338310   -0.002354006   -0.001658175
     40        1           0.003054173    0.000259909    0.003346015
     41        1           0.000297833    0.006996544   -0.001491078
     42        1           0.002009364   -0.004760853   -0.001478335
     43        1           0.000634305    0.001858164    0.003553008
     44        1           0.001236300    0.000702051   -0.000047262
     45        1           0.002158923   -0.002175433   -0.001905855
     46        1           0.001823757   -0.002871380    0.002674522
     47        1           0.003558505   -0.005134386   -0.002788614
     48        1           0.001444139   -0.002679479   -0.000980052
     49        1          -0.002403714    0.002371068   -0.001650829
     50        1          -0.002770748   -0.004653849   -0.002860603
     51        1           0.002483840    0.000677979   -0.000122341
     52        1           0.000047790   -0.001157286    0.000766984
     53        1          -0.003544582    0.001217491   -0.000065087
 -------------------------------------------------------------------
 Cartesian Forces:  Max     0.059978798 RMS     0.010515592
 FormGI is forming the generalized inverse of G from B-inverse, IUseBI=4.

 GradGradGradGradGradGradGradGradGradGradGradGradGradGradGradGradGradGrad
 Berny optimization.
 Internal  Forces:  Max     0.037038341 RMS     0.005997899
 Search for a local minimum.
 Step number   1 out of a maximum of  316
 All quantities printed in internal units (Hartrees-Bohrs-Radians)
 Mixed Optimization -- RFO/linear search
 Second derivative matrix not updated -- analytic derivatives used.
 ITU=  0
     Eigenvalues ---   -0.00631  -0.00322  -0.00029  -0.00009   0.00128
     Eigenvalues ---    0.00251   0.00288   0.00326   0.00347   0.00421
     Eigenvalues ---    0.00459   0.00578   0.00633   0.00844   0.01086
     Eigenvalues ---    0.01114   0.01485   0.01841   0.01903   0.03244
     Eigenvalues ---    0.03357   0.03567   0.03811   0.04161   0.04336
     Eigenvalues ---    0.04431   0.04450   0.04496   0.04589   0.04600
     Eigenvalues ---    0.04617   0.04632   0.04641   0.04662   0.04698
     Eigenvalues ---    0.04745   0.04781   0.04782   0.04893   0.04952
     Eigenvalues ---    0.04968   0.05021   0.05076   0.05138   0.05192
     Eigenvalues ---    0.05282   0.05431   0.05497   0.05550   0.05584
     Eigenvalues ---    0.05815   0.07080   0.07622   0.08259   0.08988
     Eigenvalues ---    0.09156   0.09194   0.09659   0.09787   0.09961
     Eigenvalues ---    0.10272   0.11283   0.11746   0.11934   0.12145
     Eigenvalues ---    0.12218   0.12347   0.12426   0.12642   0.12684
     Eigenvalues ---    0.12742   0.12986   0.13188   0.13399   0.13711
     Eigenvalues ---    0.13826   0.14056   0.14236   0.14399   0.14530
     Eigenvalues ---    0.14743   0.15012   0.15216   0.15286   0.15486
     Eigenvalues ---    0.17270   0.17706   0.18270   0.18736   0.19048
     Eigenvalues ---    0.19497   0.19636   0.20424   0.20885   0.21510
     Eigenvalues ---    0.22038   0.23286   0.24430   0.25727   0.25846
     Eigenvalues ---    0.26027   0.26338   0.26765   0.27305   0.27849
     Eigenvalues ---    0.28373   0.28599   0.29310   0.29738   0.30157
     Eigenvalues ---    0.30439   0.30574   0.31162   0.31301   0.31799
     Eigenvalues ---    0.31932   0.32050   0.32203   0.32253   0.32461
     Eigenvalues ---    0.32691   0.32738   0.33151   0.33232   0.33340
     Eigenvalues ---    0.33393   0.33449   0.33575   0.33645   0.33828
     Eigenvalues ---    0.33871   0.33986   0.34047   0.34229   0.34284
     Eigenvalues ---    0.34391   0.34446   0.34622   0.34632   0.34669
     Eigenvalues ---    0.34903   0.34955   0.34996   0.35156   0.35315
     Eigenvalues ---    0.35531   0.35653   0.36874   0.37298   0.37933
     Eigenvalues ---    0.42667   0.57709   0.60702
 RFO step:  Lambda=-4.64950648D-02 EMin=-6.31347565D-03
 Linear search not attempted -- first point.
 Maximum step size (   0.300) exceeded in Quadratic search.
    -- Step size scaled by   0.799
 Iteration  1 RMS(Cart)=  0.18117464 RMS(Int)=  0.01391260
 Iteration  2 RMS(Cart)=  0.04505675 RMS(Int)=  0.00097275
 Iteration  3 RMS(Cart)=  0.00164122 RMS(Int)=  0.00048069
 Iteration  4 RMS(Cart)=  0.00000243 RMS(Int)=  0.00048069
 Iteration  5 RMS(Cart)=  0.00000000 RMS(Int)=  0.00048069
 Variable       Old X    -DE/DX   Delta X   Delta X   Delta X     New X
                                 (Linear)    (Quad)   (Total)
    R1        2.76900   0.00573   0.00000   0.00323   0.00349   2.77249
    R2        3.16768   0.03704   0.00000   0.07856   0.07873   3.24641
    R3        2.79546   0.00835   0.00000   0.01029   0.01029   2.80575
    R4        2.92269   0.00348   0.00000  -0.00744  -0.00734   2.91535
    R5        2.07205   0.00185   0.00000   0.00297   0.00297   2.07502
    R6        2.06485   0.00777   0.00000   0.01647   0.01647   2.08131
    R7        2.75174   0.00546   0.00000   0.00092   0.00055   2.75228
    R8        2.07380  -0.01277   0.00000  -0.01040  -0.01040   2.06341
    R9        2.07752   0.00329   0.00000   0.00804   0.00804   2.08556
   R10        2.75970   0.00148   0.00000  -0.01582  -0.01658   2.74313
   R11        2.75441   0.00487   0.00000   0.00341   0.00273   2.75714
   R12        2.93404   0.01120   0.00000   0.01260   0.01200   2.94604
   R13        2.07733  -0.00076   0.00000  -0.00146  -0.00146   2.07586
   R14        2.07598   0.00065   0.00000   0.00119   0.00119   2.07717
   R15        2.77022   0.00055   0.00000  -0.00193  -0.00177   2.76845
   R16        2.06952   0.00201   0.00000   0.00489   0.00489   2.07442
   R17        2.06697   0.00263   0.00000   0.00251   0.00251   2.06948
   R18        3.16895   0.03530   0.00000   0.06958   0.06997   3.23892
   R19        2.79986   0.00544   0.00000  -0.00836  -0.00836   2.79150
   R20        3.18837   0.02100   0.00000   0.05494   0.05545   3.24382
   R21        2.77739   0.00603   0.00000  -0.00037  -0.00001   2.77739
   R22        2.81261  -0.00352   0.00000  -0.00082  -0.00082   2.81179
   R23        2.90619  -0.00555   0.00000  -0.00626  -0.00597   2.90022
   R24        2.07973   0.00039   0.00000   0.00024   0.00024   2.07996
   R25        2.07381   0.00290   0.00000   0.00637   0.00637   2.08018
   R26        2.07185  -0.00150   0.00000  -0.00326  -0.00326   2.06859
   R27        2.07595   0.00362   0.00000   0.00813   0.00813   2.08408
   R28        2.89675   0.00249   0.00000   0.00772   0.00772   2.90446
   R29        2.89466   0.00197   0.00000   0.00419   0.00419   2.89884
   R30        2.07775  -0.00136   0.00000  -0.00199  -0.00199   2.07576
   R31        2.06695   0.00106   0.00000   0.00205   0.00205   2.06900
   R32        2.06682   0.00148   0.00000   0.00214   0.00214   2.06897
   R33        2.07500  -0.00039   0.00000  -0.00107  -0.00107   2.07393
   R34        2.06670   0.00053   0.00000   0.00040   0.00040   2.06710
   R35        2.08776  -0.00439   0.00000  -0.01011  -0.01011   2.07765
   R36        2.05946   0.00313   0.00000   0.00654   0.00654   2.06600
   R37        2.91454   0.00017   0.00000  -0.00923  -0.00923   2.90531
   R38        2.91554  -0.00247   0.00000  -0.00268  -0.00268   2.91287
   R39        2.07578   0.00222   0.00000   0.00178   0.00178   2.07757
   R40        2.06957  -0.00526   0.00000   0.00222   0.00222   2.07179
   R41        2.06231   0.00362   0.00000   0.00704   0.00704   2.06935
   R42        2.07360  -0.00073   0.00000  -0.00023  -0.00023   2.07337
   R43        2.06758  -0.00138   0.00000  -0.00008  -0.00008   2.06750
   R44        2.07457  -0.00094   0.00000  -0.00209  -0.00209   2.07248
   R45        2.06419   0.00130   0.00000   0.00164   0.00164   2.06583
   R46        2.91183  -0.00430   0.00000  -0.01109  -0.01109   2.90074
   R47        2.89936   0.00495   0.00000   0.01155   0.01155   2.91091
   R48        2.07868   0.00324   0.00000   0.00627   0.00627   2.08495
   R49        2.07005  -0.00218   0.00000  -0.00395  -0.00395   2.06610
   R50        2.06739  -0.00352   0.00000  -0.00207  -0.00207   2.06532
   R51        2.07192   0.00143   0.00000   0.00047   0.00047   2.07239
   R52        2.06864   0.00084   0.00000   0.00260   0.00260   2.07124
   R53        2.07072   0.00047   0.00000   0.00120   0.00120   2.07192
   R54        2.06613  -0.00049   0.00000  -0.00110  -0.00110   2.06502
    A1        2.21565   0.00638   0.00000   0.05561   0.05541   2.27105
    A2        1.98827  -0.01959   0.00000  -0.06078  -0.06069   1.92758
    A3        2.07914   0.01314   0.00000   0.00496   0.00500   2.08413
    A4        2.15935  -0.00408   0.00000  -0.00893  -0.00918   2.15017
    A5        1.89101   0.00330   0.00000   0.01415   0.01451   1.90552
    A6        1.89394  -0.00175   0.00000  -0.01406  -0.01421   1.87973
    A7        1.81788  -0.00001   0.00000  -0.00659  -0.00687   1.81101
    A8        1.83682   0.00417   0.00000   0.02397   0.02444   1.86126
    A9        1.84133  -0.00141   0.00000  -0.00906  -0.00901   1.83232
   A10        2.11965   0.00785   0.00000   0.00223   0.00187   2.12152
   A11        1.89590   0.00406   0.00000   0.02501   0.02511   1.92101
   A12        1.84242  -0.00928   0.00000  -0.03326  -0.03316   1.80926
   A13        1.93642  -0.01099   0.00000  -0.03887  -0.03891   1.89751
   A14        1.83548   0.00565   0.00000   0.03496   0.03548   1.87096
   A15        1.80436   0.00212   0.00000   0.01266   0.01312   1.81748
   A16        1.98471   0.00726   0.00000   0.00828   0.00783   1.99254
   A17        2.02599   0.00306   0.00000   0.02649   0.02635   2.05235
   A18        2.05518  -0.00721   0.00000  -0.00812  -0.00871   2.04647
   A19        2.11433   0.00102   0.00000  -0.01537  -0.01710   2.09723
   A20        1.86861  -0.00029   0.00000  -0.00069  -0.00007   1.86855
   A21        1.89723  -0.00430   0.00000  -0.00319  -0.00296   1.89427
   A22        1.86857   0.00285   0.00000   0.02408   0.02467   1.89325
   A23        1.88129  -0.00021   0.00000  -0.00974  -0.00953   1.87176
   A24        1.81068   0.00114   0.00000   0.00935   0.00920   1.81988
   A25        2.07561   0.00533   0.00000   0.03248   0.03247   2.10808
   A26        1.83890   0.00763   0.00000   0.01723   0.01778   1.85668
   A27        1.89997  -0.00600   0.00000  -0.01429  -0.01424   1.88573
   A28        1.93905  -0.01117   0.00000  -0.04580  -0.04595   1.89310
   A29        1.90450   0.00099   0.00000  -0.01336  -0.01333   1.89117
   A30        1.78261   0.00297   0.00000   0.02364   0.02339   1.80600
   A31        2.10111  -0.00095   0.00000   0.04134   0.04165   2.14275
   A32        1.98029   0.01086   0.00000   0.02570   0.02561   2.00590
   A33        2.19290  -0.00905   0.00000  -0.06478  -0.06511   2.12779
   A34        1.89501   0.00077   0.00000  -0.02293  -0.02538   1.86963
   A35        1.88637  -0.00377   0.00000  -0.00659  -0.01088   1.87549
   A36        1.97139  -0.01713   0.00000  -0.09158  -0.09242   1.87897
   A37        2.15489   0.01615   0.00000   0.06931   0.07016   2.22505
   A38        2.14700  -0.02452   0.00000  -0.10008  -0.10108   2.04592
   A39        1.89367   0.00858   0.00000   0.03528   0.03592   1.92958
   A40        2.10114  -0.00883   0.00000  -0.02208  -0.02261   2.07854
   A41        1.87080   0.00174   0.00000  -0.00139  -0.00108   1.86972
   A42        1.92079   0.00542   0.00000   0.01694   0.01686   1.93766
   A43        1.81621   0.00333   0.00000   0.01161   0.01123   1.82743
   A44        1.90442  -0.00006   0.00000  -0.00473  -0.00404   1.90038
   A45        1.82843  -0.00080   0.00000   0.00231   0.00224   1.83067
   A46        2.07205   0.00522   0.00000   0.00718   0.00703   2.07908
   A47        1.96741  -0.00787   0.00000  -0.03538  -0.03542   1.93199
   A48        1.84165   0.00505   0.00000   0.02868   0.02901   1.87066
   A49        1.90951   0.00214   0.00000   0.00724   0.00700   1.91651
   A50        1.84587  -0.00776   0.00000  -0.02276  -0.02270   1.82317
   A51        1.80129   0.00311   0.00000   0.01925   0.01951   1.82081
   A52        2.02626  -0.00213   0.00000  -0.01118  -0.01126   2.01500
   A53        1.97771   0.00149   0.00000  -0.00148  -0.00160   1.97610
   A54        1.88282  -0.00402   0.00000  -0.02427  -0.02416   1.85866
   A55        1.94629  -0.00170   0.00000  -0.00705  -0.00721   1.93909
   A56        1.81467   0.00349   0.00000   0.02144   0.02131   1.83598
   A57        1.79097   0.00370   0.00000   0.02914   0.02910   1.82007
   A58        1.96339  -0.00183   0.00000  -0.01172  -0.01174   1.95165
   A59        1.94193   0.00037   0.00000   0.00196   0.00192   1.94386
   A60        1.91671  -0.00013   0.00000   0.00258   0.00257   1.91928
   A61        1.90037  -0.00029   0.00000  -0.00431  -0.00435   1.89602
   A62        1.88258   0.00086   0.00000   0.00295   0.00295   1.88553
   A63        1.85476   0.00122   0.00000   0.00977   0.00974   1.86450
   A64        1.95883  -0.00027   0.00000  -0.00582  -0.00586   1.95296
   A65        1.91149  -0.00050   0.00000   0.00168   0.00169   1.91318
   A66        1.94489  -0.00168   0.00000  -0.00807  -0.00811   1.93678
   A67        1.87029   0.00092   0.00000   0.00854   0.00855   1.87883
   A68        1.90582   0.00007   0.00000  -0.00331  -0.00340   1.90242
   A69        1.86888   0.00165   0.00000   0.00833   0.00834   1.87722
   A70        2.06230   0.00642   0.00000  -0.02346  -0.02330   2.03900
   A71        1.95875  -0.00260   0.00000  -0.00591  -0.00584   1.95292
   A72        1.87278  -0.00492   0.00000  -0.01673  -0.01665   1.85613
   A73        1.85627   0.00169   0.00000   0.02372   0.02355   1.87982
   A74        1.83481  -0.00111   0.00000   0.03861   0.03860   1.87341
   A75        1.86659   0.00009   0.00000  -0.01369  -0.01441   1.85219
   A76        1.95633   0.00258   0.00000  -0.03033  -0.03045   1.92588
   A77        1.94972   0.00291   0.00000   0.00966   0.00967   1.95939
   A78        1.92866  -0.00680   0.00000  -0.00782  -0.00795   1.92071
   A79        1.90817  -0.00155   0.00000   0.00743   0.00746   1.91563
   A80        1.86819   0.00029   0.00000   0.01001   0.00974   1.87793
   A81        1.84791   0.00244   0.00000   0.01365   0.01365   1.86156
   A82        1.94434   0.00047   0.00000   0.00275   0.00273   1.94707
   A83        1.92378  -0.00350   0.00000  -0.01309  -0.01311   1.91067
   A84        1.97326  -0.00302   0.00000  -0.01557  -0.01560   1.95767
   A85        1.88088   0.00135   0.00000   0.00141   0.00141   1.88228
   A86        1.88818   0.00076   0.00000   0.00189   0.00187   1.89005
   A87        1.84872   0.00435   0.00000   0.02444   0.02441   1.87313
   A88        1.98684   0.00710   0.00000   0.01572   0.01568   2.00252
   A89        1.94899   0.00366   0.00000   0.02119   0.02118   1.97017
   A90        1.91505  -0.00603   0.00000  -0.03981  -0.03975   1.87531
   A91        1.90818  -0.00825   0.00000  -0.01245  -0.01269   1.89548
   A92        1.83891   0.00141   0.00000   0.00328   0.00337   1.84228
   A93        1.85840   0.00163   0.00000   0.01042   0.01058   1.86898
   A94        1.96680  -0.00103   0.00000  -0.00387  -0.00389   1.96291
   A95        1.93890   0.00325   0.00000   0.00437   0.00436   1.94326
   A96        1.92988  -0.00824   0.00000  -0.02419  -0.02423   1.90566
   A97        1.89100  -0.00067   0.00000   0.00039   0.00039   1.89140
   A98        1.85810   0.00489   0.00000   0.01843   0.01838   1.87648
   A99        1.87505   0.00210   0.00000   0.00622   0.00621   1.88125
   A100       1.96111  -0.00352   0.00000  -0.01955  -0.01952   1.94159
   A101       1.92500  -0.00193   0.00000  -0.00496  -0.00501   1.91999
   A102       1.93946   0.00575   0.00000   0.02542   0.02548   1.96494
   A103       1.86683   0.00235   0.00000   0.00984   0.00975   1.87658
   A104       1.89188  -0.00084   0.00000  -0.00509  -0.00496   1.88691
   A105       1.87610  -0.00188   0.00000  -0.00579  -0.00581   1.87028
    D1        0.11395  -0.00075   0.00000  -0.04211  -0.04287   0.07108
    D2       -2.01680  -0.00072   0.00000  -0.03940  -0.03983  -2.05664
    D3        2.27534   0.00012   0.00000  -0.02886  -0.02931   2.24603
    D4       -3.00979   0.00352   0.00000  -0.02809  -0.02870  -3.03849
    D5        1.14264   0.00354   0.00000  -0.02538  -0.02566   1.11698
    D6       -0.84840   0.00439   0.00000  -0.01484  -0.01514  -0.86353
    D7        0.61971  -0.00279   0.00000  -0.01301  -0.01329   0.60642
    D8       -1.52449   0.01989   0.00000   0.11631   0.11607  -1.40842
    D9       -2.54056  -0.00755   0.00000  -0.02824  -0.02906  -2.56963
   D10        1.59842   0.01512   0.00000   0.10108   0.10030   1.69872
   D11       -3.12927  -0.00064   0.00000  -0.17221  -0.17216   2.98175
   D12       -0.95810  -0.00322   0.00000  -0.15953  -0.15909  -1.11719
   D13        1.09826  -0.00281   0.00000  -0.15899  -0.15887   0.93939
   D14        0.02865   0.00330   0.00000  -0.16002  -0.16038  -0.13173
   D15        2.19982   0.00072   0.00000  -0.14733  -0.14731   2.05251
   D16       -2.02701   0.00114   0.00000  -0.14680  -0.14709  -2.17409
   D17        0.75091  -0.00334   0.00000   0.01721   0.01663   0.76754
   D18       -1.52534   0.00135   0.00000   0.04678   0.04660  -1.47874
   D19        2.83224   0.00151   0.00000   0.03724   0.03707   2.86931
   D20        2.91448  -0.00173   0.00000   0.02413   0.02362   2.93809
   D21        0.63823   0.00295   0.00000   0.05370   0.05359   0.69181
   D22       -1.28739   0.00312   0.00000   0.04415   0.04406  -1.24333
   D23       -1.43565  -0.00173   0.00000   0.02054   0.02004  -1.41561
   D24        2.57129   0.00295   0.00000   0.05011   0.05001   2.62130
   D25        0.64567   0.00312   0.00000   0.04056   0.04048   0.68616
   D26       -2.00129  -0.00008   0.00000  -0.02379  -0.02368  -2.02497
   D27        0.46625   0.00120   0.00000   0.00813   0.00818   0.47444
   D28        0.25754   0.00185   0.00000  -0.02606  -0.02601   0.23153
   D29        2.72508   0.00313   0.00000   0.00586   0.00585   2.73094
   D30        2.19719   0.00240   0.00000  -0.01046  -0.01070   2.18649
   D31       -1.61846   0.00368   0.00000   0.02146   0.02117  -1.59729
   D32        1.19669   0.00469   0.00000   0.05305   0.05280   1.24948
   D33       -0.94937   0.00021   0.00000   0.03179   0.03160  -0.91777
   D34       -2.89519   0.00102   0.00000   0.02282   0.02239  -2.87280
   D35       -1.25887  -0.00095   0.00000   0.00622   0.00667  -1.25220
   D36        2.87826  -0.00543   0.00000  -0.01504  -0.01453   2.86373
   D37        0.93244  -0.00462   0.00000  -0.02401  -0.02373   0.90870
   D38       -1.95637  -0.00492   0.00000  -0.01057  -0.00998  -1.96635
   D39        0.30924  -0.00479   0.00000  -0.02997  -0.02951   0.27973
   D40        2.26266  -0.00196   0.00000  -0.00765  -0.00755   2.25511
   D41        0.48324   0.00234   0.00000   0.02991   0.02998   0.51322
   D42        2.74885   0.00246   0.00000   0.01051   0.01045   2.75930
   D43       -1.58092   0.00530   0.00000   0.03283   0.03242  -1.54850
[...]
   171    C   12  S      Val( 2S)     0.95575
   172    C   12  S      Ryd( 3S)     0.00149
   173    C   12  S      Ryd( 4S)     0.00005
   174    C   12  px     Val( 2p)     1.05550
   175    C   12  px     Ryd( 3p)     0.00337
   176    C   12  py     Val( 2p)     0.94717
   177    C   12  py     Ryd( 3p)     0.00310
   178    C   12  pz     Val( 2p)     1.07654
   179    C   12  pz     Ryd( 3p)     0.00426
   180    C   12  dxy    Ryd( 3d)     0.00103
   181    C   12  dxz    Ryd( 3d)     0.00140
   182    C   12  dyz    Ryd( 3d)     0.00083
   183    C   12  dx2y2  Ryd( 3d)     0.00098
   184    C   12  dz2    Ryd( 3d)     0.00091
 
   185    C   13  S      Cor( 1S)     1.99939
   186    C   13  S      Val( 2S)     1.11429
   187    C   13  S      Ryd( 3S)     0.00073
   188    C   13  S      Ryd( 4S)     0.00002
   189    C   13  px     Val( 2p)     1.22921
   190    C   13  px     Ryd( 3p)     0.00126
   191    C   13  py     Val( 2p)     1.23637
   192    C   13  py     Ryd( 3p)     0.00214
   193    C   13  pz     Val( 2p)     1.10413
   194    C   13  pz     Ryd( 3p)     0.00252
   195    C   13  dxy    Ryd( 3d)     0.00084
   196    C   13  dxz    Ryd( 3d)     0.00083
   197    C   13  dyz    Ryd( 3d)     0.00031
   198    C   13  dx2y2  Ryd( 3d)     0.00052
   199    C   13  dz2    Ryd( 3d)     0.00075
 
   200    C   14  S      Cor( 1S)     1.99939
   201    C   14  S      Val( 2S)     1.10570
   202    C   14  S      Ryd( 3S)     0.00052
   203    C   14  S      Ryd( 4S)     0.00002
   204    C   14  px     Val( 2p)     1.22943
   205    C   14  px     Ryd( 3p)     0.00158
   206    C   14  py     Val( 2p)     1.10378
   207    C   14  py     Ryd( 3p)     0.00137
   208    C   14  pz     Val( 2p)     1.23680
   209    C   14  pz     Ryd( 3p)     0.00208
   210    C   14  dxy    Ryd( 3d)     0.00088
   211    C   14  dxz    Ryd( 3d)     0.00071
   212    C   14  dyz    Ryd( 3d)     0.00034
   213    C   14  dx2y2  Ryd( 3d)     0.00048
   214    C   14  dz2    Ryd( 3d)     0.00089
 
   215    C   15  S      Cor( 1S)     1.99922
   216    C   15  S      Val( 2S)     0.95320
   217    C   15  S      Ryd( 3S)     0.00170
   218    C   15  S      Ryd( 4S)     0.00004
   219    C   15  px     Val( 2p)     0.96642
   220    C   15  px     Ryd( 3p)     0.00355
   221    C   15  py     Val( 2p)     1.09363
   222    C   15  py     Ryd( 3p)     0.00489
   223    C   15  pz     Val( 2p)     1.02467
   224    C   15  pz     Ryd( 3p)     0.00237
   225    C   15  dxy    Ryd( 3d)     0.00082
   226    C   15  dxz    Ryd( 3d)     0.00142
   227    C   15  dyz    Ryd( 3d)     0.00088
   228    C   15  dx2y2  Ryd( 3d)     0.00099
   229    C   15  dz2    Ryd( 3d)     0.00101
 
   230    C   16  S      Cor( 1S)     1.99938
   231    C   16  S      Val( 2S)     1.11062
   232    C   16  S      Ryd( 3S)     0.00060
   233    C   16  S      Ryd( 4S)     0.00002
   234    C   16  px     Val( 2p)     1.12461
   235    C   16  px     Ryd( 3p)     0.00218
   236    C   16  py     Val( 2p)     1.20127
   237    C   16  py     Ryd( 3p)     0.00208
   238    C   16  pz     Val( 2p)     1.23662
   239    C   16  pz     Ryd( 3p)     0.00149
   240    C   16  dxy    Ryd( 3d)     0.00048
   241    C   16  dxz    Ryd( 3d)     0.00106
   242    C   16  dyz    Ryd( 3d)     0.00043
   243    C   16  dx2y2  Ryd( 3d)     0.00078
   244    C   16  dz2    Ryd( 3d)     0.00053
 
   245    C   17  S      Cor( 1S)     1.99940
   246    C   17  S      Val( 2S)     1.09769
   247    C   17  S      Ryd( 3S)     0.00042
   248    C   17  S      Ryd( 4S)     0.00002
   249    C   17  px     Val( 2p)     1.24726
   250    C   17  px     Ryd( 3p)     0.00227
   251    C   17  py     Val( 2p)     1.10328
   252    C   17  py     Ryd( 3p)     0.00180
   253    C   17  pz     Val( 2p)     1.22824
   254    C   17  pz     Ryd( 3p)     0.00131
   255    C   17  dxy    Ryd( 3d)     0.00081
   256    C   17  dxz    Ryd( 3d)     0.00102
   257    C   17  dyz    Ryd( 3d)     0.00064
   258    C   17  dx2y2  Ryd( 3d)     0.00042
   259    C   17  dz2    Ryd( 3d)     0.00040
 
   260    C   18  S      Cor( 1S)     1.99923
   261    C   18  S      Val( 2S)     0.95032
   262    C   18  S      Ryd( 3S)     0.00199
   263    C   18  S      Ryd( 4S)     0.00003
   264    C   18  px     Val( 2p)     0.96297
   265    C   18  px     Ryd( 3p)     0.00222
   266    C   18  py     Val( 2p)     0.93809
   267    C   18  py     Ryd( 3p)     0.00270
   268    C   18  pz     Val( 2p)     1.17679
   269    C   18  pz     Ryd( 3p)     0.00446
   270    C   18  dxy    Ryd( 3d)     0.00124
   271    C   18  dxz    Ryd( 3d)     0.00044
   272    C   18  dyz    Ryd( 3d)     0.00081
   273    C   18  dx2y2  Ryd( 3d)     0.00127
   274    C   18  dz2    Ryd( 3d)     0.00144
 
   275    C   19  S      Cor( 1S)     1.99940
   276    C   19  S      Val( 2S)     1.09548
   277    C   19  S      Ryd( 3S)     0.00043
   278    C   19  S      Ryd( 4S)     0.00002
   279    C   19  px     Val( 2p)     1.24964
   280    C   19  px     Ryd( 3p)     0.00197
   281    C   19  py     Val( 2p)     1.11858
   282    C   19  py     Ryd( 3p)     0.00151
   283    C   19  pz     Val( 2p)     1.21443
   284    C   19  pz     Ryd( 3p)     0.00110
   285    C   19  dxy    Ryd( 3d)     0.00087
   286    C   19  dxz    Ryd( 3d)     0.00031
   287    C   19  dyz    Ryd( 3d)     0.00042
   288    C   19  dx2y2  Ryd( 3d)     0.00058
   289    C   19  dz2    Ryd( 3d)     0.00116
 
   290    C   20  S      Cor( 1S)     1.99940
   291    C   20  S      Val( 2S)     1.10260
   292    C   20  S      Ryd( 3S)     0.00064
   293    C   20  S      Ryd( 4S)     0.00002
   294    C   20  px     Val( 2p)     1.09839
   295    C   20  px     Ryd( 3p)     0.00208
   296    C   20  py     Val( 2p)     1.23284
   297    C   20  py     Ryd( 3p)     0.00220
   298    C   20  pz     Val( 2p)     1.23581
   299    C   20  pz     Ryd( 3p)     0.00136
   300    C   20  dxy    Ryd( 3d)     0.00082
   301    C   20  dxz    Ryd( 3d)     0.00043
   302    C   20  dyz    Ryd( 3d)     0.00056
   303    C   20  dx2y2  Ryd( 3d)     0.00057
   304    C   20  dz2    Ryd( 3d)     0.00093
 
   305    H   21  S      Val( 1S)     0.77448
   306    H   21  S      Ryd( 2S)     0.00817
 
   307    H   22  S      Val( 1S)     0.78682
   308    H   22  S      Ryd( 2S)     0.01088
 
   309    H   23  S      Val( 1S)     0.76369
   310    H   23  S      Ryd( 2S)     0.01211
 
   311    H   24  S      Val( 1S)     0.76379
   312    H   24  S      Ryd( 2S)     0.00584
 
   313    H   25  S      Val( 1S)     0.76615
   314    H   25  S      Ryd( 2S)     0.01082
 
   315    H   26  S      Val( 1S)     0.75952
   316    H   26  S      Ryd( 2S)     0.01350
 
   317    H   27  S      Val( 1S)     0.77160
   318    H   27  S      Ryd( 2S)     0.00938
 
   319    H   28  S      Val( 1S)     0.77100
   320    H   28  S      Ryd( 2S)     0.02538
 
   321    H   29  S      Val( 1S)     0.76739
   322    H   29  S      Ryd( 2S)     0.00658
 
   323    H   30  S      Val( 1S)     0.81002
   324    H   30  S      Ryd( 2S)     0.02220
 
   325    H   31  S      Val( 1S)     0.76749
   326    H   31  S      Ryd( 2S)     0.00941
 
   327    H   32  S      Val( 1S)     0.76810
   328    H   32  S      Ryd( 2S)     0.00805
 
   329    H   33  S      Val( 1S)     0.77811
   330    H   33  S      Ryd( 2S)     0.01383
 
   331    H   34  S      Val( 1S)     0.78174
   332    H   34  S      Ryd( 2S)     0.01102
 
   333    H   35  S      Val( 1S)     0.79043
   334    H   35  S      Ryd( 2S)     0.01299
 
   335    H   36  S      Val( 1S)     0.78564
   336    H   36  S      Ryd( 2S)     0.00920
 
   337    H   37  S      Val( 1S)     0.77180
   338    H   37  S      Ryd( 2S)     0.00391
 
   339    H   38  S      Val( 1S)     0.77243
   340    H   38  S      Ryd( 2S)     0.00628
 
   341    H   39  S      Val( 1S)     0.77504
   342    H   39  S      Ryd( 2S)     0.00553
 
   343    H   40  S      Val( 1S)     0.76022
   344    H   40  S      Ryd( 2S)     0.00438
 
   345    H   41  S      Val( 1S)     0.76557
   346    H   41  S      Ryd( 2S)     0.00630
 
   347    H   42  S      Val( 1S)     0.78503
   348    H   42  S      Ryd( 2S)     0.01090
 
   349    H   43  S      Val( 1S)     0.76741
   350    H   43  S      Ryd( 2S)     0.00392
 
   351    H   44  S      Val( 1S)     0.76942
   352    H   44  S      Ryd( 2S)     0.00110
 
   353    H   45  S      Val( 1S)     0.76060
   354    H   45  S      Ryd( 2S)     0.00091
 
   355    H   46  S      Val( 1S)     0.76105
   356    H   46  S      Ryd( 2S)     0.00892
 
   357    H   47  S      Val( 1S)     0.76864
   358    H   47  S      Ryd( 2S)     0.00362
 
   359    H   48  S      Val( 1S)     0.76735
   360    H   48  S      Ryd( 2S)     0.00129
 
   361    H   49  S      Val( 1S)     0.75869
   362    H   49  S      Ryd( 2S)     0.00277
 
   363    H   50  S      Val( 1S)     0.76119
   364    H   50  S      Ryd( 2S)     0.00091
 
   365    H   51  S      Val( 1S)     0.77542
   366    H   51  S      Ryd( 2S)     0.00212
 
   367    H   52  S      Val( 1S)     0.77015
   368    H   52  S      Ryd( 2S)     0.00133
 
   369    H   53  S      Val( 1S)     0.77720
   370    H   53  S      Ryd( 2S)     0.00473

 WARNING:  1 low occupancy (<1.9990e) core orbital  found on  P    8


 Summary of Natural Population Analysis:                  
                                                          
                                       Natural Population 
                Natural  -----------------------------------------------
    Atom  No    Charge         Core      Valence    Rydberg      Total
 -----------------------------------------------------------------------
      N    1   -0.85376      1.99939     5.82903    0.02533     7.85376
      C    2   -0.26411      1.99929     4.24677    0.01805     6.26411
      C    3   -0.26147      1.99929     4.24469    0.01750     6.26147
      N    4   -0.39582      1.99940     5.38373    0.01269     7.39582
      C    5   -0.26832      1.99929     4.25061    0.01842     6.26832
      C    6   -0.28192      1.99926     4.26189    0.02077     6.28192
      N    7   -0.65289      1.99940     5.63430    0.01919     7.65289
      P    8    1.34414      9.99830     3.57555    0.08201    13.65586
      N    9   -0.83189      1.99941     5.81498    0.01750     7.83189
      C   10   -0.27142      1.99929     4.25369    0.01843     6.27142
      C   11   -0.27167      1.99931     4.25393    0.01843     6.27167
      C   12   -0.05163      1.99924     4.03496    0.01742     6.05163
      C   13   -0.69331      1.99939     4.68400    0.00991     6.69331
      C   14   -0.68396      1.99939     4.67571    0.00886     6.68396
      C   15   -0.05481      1.99922     4.03792    0.01766     6.05481
      C   16   -0.68215      1.99938     4.67312    0.00965     6.68215
      C   17   -0.68499      1.99940     4.67647    0.00912     6.68499
      C   18   -0.04400      1.99923     4.02817    0.01661     6.04400
      C   19   -0.68590      1.99940     4.67813    0.00837     6.68590
      C   20   -0.67866      1.99940     4.66965    0.00961     6.67866
      H   21    0.21735      0.00000     0.77448    0.00817     0.78265
      H   22    0.20230      0.00000     0.78682    0.01088     0.79770
      H   23    0.22420      0.00000     0.76369    0.01211     0.77580
      H   24    0.23038      0.00000     0.76379    0.00584     0.76962
      H   25    0.22303      0.00000     0.76615    0.01082     0.77697
      H   26    0.22697      0.00000     0.75952    0.01350     0.77303
      H   27    0.21902      0.00000     0.77160    0.00938     0.78098
      H   28    0.20362      0.00000     0.77100    0.02538     0.79638
      H   29    0.22603      0.00000     0.76739    0.00658     0.77397
      H   30    0.16778      0.00000     0.81002    0.02220     0.83222
      H   31    0.22310      0.00000     0.76749    0.00941     0.77690
      H   32    0.22385      0.00000     0.76810    0.00805     0.77615
      H   33    0.20806      0.00000     0.77811    0.01383     0.79194
      H   34    0.20724      0.00000     0.78174    0.01102     0.79276
      H   35    0.19658      0.00000     0.79043    0.01299     0.80342
      H   36    0.20517      0.00000     0.78564    0.00920     0.79483
      H   37    0.22429      0.00000     0.77180    0.00391     0.77571
      H   38    0.22129      0.00000     0.77243    0.00628     0.77871
      H   39    0.21943      0.00000     0.77504    0.00553     0.78057
      H   40    0.23540      0.00000     0.76022    0.00438     0.76460
      H   41    0.22813      0.00000     0.76557    0.00630     0.77187
      H   42    0.20407      0.00000     0.78503    0.01090     0.79593
      H   43    0.22866      0.00000     0.76741    0.00392     0.77134
      H   44    0.22948      0.00000     0.76942    0.00110     0.77052
      H   45    0.23849      0.00000     0.76060    0.00091     0.76151
      H   46    0.23002      0.00000     0.76105    0.00892     0.76998
      H   47    0.22774      0.00000     0.76864    0.00362     0.77226
      H   48    0.23136      0.00000     0.76735    0.00129     0.76864
      H   49    0.23854      0.00000     0.75869    0.00277     0.76146
      H   50    0.23790      0.00000     0.76119    0.00091     0.76210
      H   51    0.22246      0.00000     0.77542    0.00212     0.77754
      H   52    0.22852      0.00000     0.77015    0.00133     0.77148
      H   53    0.21807      0.00000     0.77720    0.00473     0.78193
 =======================================================================
   * Total *   -0.00000     47.98570   117.38049    0.63381   166.00000

                                 Natural Population      
 --------------------------------------------------------
   Core                      47.98570 ( 99.9702% of  48)
   Valence                  117.38049 ( 99.4750% of 118)
   Natural Minimal Basis    165.36619 ( 99.6182% of 166)
   Natural Rydberg Basis      0.63381 (  0.3818% of 166)
 --------------------------------------------------------

    Atom  No          Natural Electron Configuration
 ----------------------------------------------------------------------------
      N    1      [core]2S( 1.35)2p( 4.48)3S( 0.01)3p( 0.01)
      C    2      [core]2S( 1.02)2p( 3.23)3p( 0.01)3d( 0.01)
      C    3      [core]2S( 1.01)2p( 3.23)3p( 0.01)3d( 0.01)
      N    4      [core]2S( 1.19)2p( 4.20)3p( 0.01)
      C    5      [core]2S( 1.02)2p( 3.23)3p( 0.01)
      C    6      [core]2S( 1.04)2p( 3.23)3p( 0.01)
      N    7      [core]2S( 1.32)2p( 4.31)3S( 0.01)3p( 0.01)
      P    8      [core]3S( 1.29)3p( 2.28)4S( 0.01)3d( 0.05)4p( 0.03)
      N    9      [core]2S( 1.32)2p( 4.49)3p( 0.01)
      C   10      [core]2S( 1.01)2p( 3.24)3p( 0.01)3d( 0.01)
      C   11      [core]2S( 1.01)2p( 3.25)3p( 0.01)3d( 0.01)
      C   12      [core]2S( 0.96)2p( 3.08)3p( 0.01)3d( 0.01)
      C   13      [core]2S( 1.11)2p( 3.57)3p( 0.01)
      C   14      [core]2S( 1.11)2p( 3.57)3p( 0.01)
      C   15      [core]2S( 0.95)2p( 3.08)3p( 0.01)3d( 0.01)
      C   16      [core]2S( 1.11)2p( 3.56)3p( 0.01)
      C   17      [core]2S( 1.10)2p( 3.58)3p( 0.01)
      C   18      [core]2S( 0.95)2p( 3.08)3p( 0.01)3d( 0.01)
      C   19      [core]2S( 1.10)2p( 3.58)
      C   20      [core]2S( 1.10)2p( 3.57)3p( 0.01)
      H   21            1S( 0.77)2S( 0.01)
      H   22            1S( 0.79)2S( 0.01)
      H   23            1S( 0.76)2S( 0.01)
      H   24            1S( 0.76)2S( 0.01)
      H   25            1S( 0.77)2S( 0.01)
      H   26            1S( 0.76)2S( 0.01)
      H   27            1S( 0.77)2S( 0.01)
      H   28            1S( 0.77)2S( 0.03)
      H   29            1S( 0.77)2S( 0.01)
      H   30            1S( 0.81)2S( 0.02)
      H   31            1S( 0.77)2S( 0.01)
      H   32            1S( 0.77)2S( 0.01)
      H   33            1S( 0.78)2S( 0.01)
      H   34            1S( 0.78)2S( 0.01)
      H   35            1S( 0.79)2S( 0.01)
      H   36            1S( 0.79)2S( 0.01)
      H   37            1S( 0.77)
      H   38            1S( 0.77)2S( 0.01)
      H   39            1S( 0.78)2S( 0.01)
      H   40            1S( 0.76)
      H   41            1S( 0.77)2S( 0.01)
      H   42            1S( 0.79)2S( 0.01)
      H   43            1S( 0.77)
      H   44            1S( 0.77)
      H   45            1S( 0.76)
      H   46            1S( 0.76)2S( 0.01)
      H   47            1S( 0.77)
      H   48            1S( 0.77)
      H   49            1S( 0.76)
      H   50            1S( 0.76)
      H   51            1S( 0.78)
      H   52            1S( 0.77)
      H   53            1S( 0.78)


 NBO analysis skipped by request.
 1\1\GINC-DELLA-R2C3N8\SP\RB3LYP TD-FC\6-31G(d)\C15H33N4P1\BJS4\24-Aug-
 2020\0\\# TD(NStates=10, Root=1) B3LYP/6-31G* scf=qc volume pop=NPA de
 nsity=current Geom=AllCheck Guess=Read\\Title Card Required\\0,1\N,0,-
 1.3489364777,-0.1024665353,1.2070758394\C,0,-1.2719559329,-1.431980967
 3,0.5976997703\C,0,-0.2243576239,-1.5799673547,-0.501788726\N,0,1.1169
 525131,-1.2957747343,-0.0528563368\C,0,1.9510053294,-0.3352400744,-0.7
 243524667\C,0,2.152198724,0.9614382606,0.0894229479\N,0,0.9343259825,1
 .5379354839,0.6539982231\P,0,-0.0523699945,0.836298803,1.913868298\N,0
 ,1.0043103679,-0.2636953131,2.7743236315\C,0,2.0049653407,-1.237820844
 ,2.3031959809\C,0,1.6536761351,-2.0515303653,1.0463648318\C,0,1.389497
 1522,0.2423505733,4.129295907\C,0,2.3440579615,1.4485935208,4.08261192
 35\C,0,0.1912463632,0.5163849401,5.0466344529\C,0,0.4656376628,2.77316
 82267,-0.0172752529\C,0,-0.2757882534,2.498917901,-1.3398021675\C,0,-0
 .3616193832,3.7027120756,0.8813229886\C,0,-2.7483896802,0.1700138883,1
 .6564298086\C,0,-2.9237996129,1.0988862296,2.8635785849\C,0,-3.5992575
 804,0.6829330017,0.4799574227\H,0,-2.2423781993,-1.6664695778,0.142596
 5437\H,0,-1.1118111664,-2.2019609377,1.3729639785\H,0,-0.4650262631,-0
 .887484776,-1.3139047553\H,0,-0.3157483077,-2.60514565,-0.9127929901\H
 ,0,1.4886028003,-0.0944406231,-1.6874499672\H,0,2.9440746236,-0.767322
 0615,-0.9487936557\H,0,2.6214760888,1.7113798276,-0.5601726744\H,0,2.8
 737337923,0.7764032892,0.8923908292\H,0,2.1555320289,-1.9702210953,3.1
 102024792\H,0,2.9878803983,-0.7620480356,2.1575299746\H,0,0.9237567867
 ,-2.8212126616,1.3151955308\H,0,2.5758189702,-2.5875966407,0.750881133
 7\H,0,1.9391209963,-0.5884500107,4.5904174493\H,0,1.8384488539,2.32782
 16545,3.6685992036\H,0,3.2224341329,1.2392099593,3.4618260182\H,0,2.69
 8709053,1.7026127888,5.0893057699\H,0,-0.3707753466,1.3982909188,4.729
 1718346\H,0,0.5451665267,0.6902229686,6.0703471224\H,0,-0.4875633549,-
 0.3429360715,5.0591267607\H,0,1.3787910673,3.3339844956,-0.2663248039\
 H,0,-1.1829966198,1.9141327816,-1.1566657866\H,0,0.3537953576,1.937863
 0778,-2.0394963282\H,0,-0.5603472923,3.4384840063,-1.8308868154\H,0,-1
 .3550183957,3.3007601502,1.1002764079\H,0,-0.4978952557,4.660531564,0.
 3648528452\H,0,0.1444107587,3.8904802097,1.8327952273\H,0,-3.165149777
 2,-0.8004264728,1.9699536413\H,0,-2.5869478662,2.1195631116,2.66380250
 26\H,0,-2.3887142037,0.732422773,3.7423545231\H,0,-3.9927530758,1.1390
 262782,3.1077824805\H,0,-3.283958366,1.6925167649,0.1928263001\H,0,-4.
 6613798295,0.7217345095,0.7531004402\H,0,-3.5045079092,0.0394667688,-0
 .4015568809\\Version=ES64L-G16RevA.03\State=1-A\HF=-1151.7842929\RMSD=
 2.983e-13\Dipole=-0.256038,-0.402118,-1.2425707\Quadrupole=-0.2208187,
 2.9739426,-2.7531239,-1.2025134,-3.8694727,-0.6536208\PG=C01 [X(C15H33
 N4P1)]\\@


 LAW OF COMPENSATION:
      NO CALCULATION IS EVER A COMPLETE FAILURE; IT 
      CAN ALWAYS SERVE AS A BAD EXAMPLE.

                                           -- ANON
 Job cpu time:       0 days  2 hours 10 minutes 38.4 seconds.
 Elapsed time:       0 days  0 hours 18 minutes 43.4 seconds.
 File lengths (MBytes):  RWF=   1125 Int=      0 D2E=      0 Chk=    268 Scr=      1
 Normal termination of Gaussian 16 at Mon Aug 24 13:24:19 2020.
