 Entering Gaussian System, Link 0=g16
 Input=base_6_conf5123.com
 Output=base_6_conf5123.log
 Initial command:
 /opt/export//g16/l1.exe "/scratch/bjs4/job.1649/Gau-1651.inp" -scrdir="/scratch/bjs4/job.1649/"
 Entering Link 1 = /opt/export//g16/l1.exe PID=      1652.
  
 Copyright (c) 1988,1990,1992,1993,1995,1998,2003,2009,2016,
            Gaussian, Inc.  All Rights Reserved.
  
 This is part of the Gaussian(R) 16 program.  It is based on
 the Gaussian(R) 09 system (copyright 2009, Gaussian, Inc.),
 the Gaussian(R) 03 system (copyright 2003, Gaussian, Inc.),
 the Gaussian(R) 98 system (copyright 1998, Gaussian, Inc.),
 the Gaussian(R) 94 system (copyright 1995, Gaussian, Inc.),
 the Gaussian 92(TM) system (copyright 1992, Gaussian, Inc.),
 the Gaussian 90(TM) system (copyright 1990, Gaussian, Inc.),
 the Gaussian 88(TM) system (copyright 1988, Gaussian, Inc.),
 the Gaussian 86(TM) system (copyright 1986, Carnegie Mellon
 University), and the Gaussian 82(TM) system (copyright 1983,
 Carnegie Mellon University). Gaussian is a federally registered
 trademark of Gaussian, Inc.
  
 This software contains proprietary and confidential information,
 including trade secrets, belonging to Gaussian, Inc.
  
 This software is provided under written license and may be
 used, copied, transmitted, or stored only in accord with that
 written license.
  
 The following legend is applicable only to US Government
 contracts under FAR:
  
                    RESTRICTED RIGHTS LEGEND
  
 Use, reproduction and disclosure by the US Government is
 subject to restrictions as set forth in subparagraphs (a)
 and (c) of the Commercial Computer Software - Restricted
 Rights clause in FAR 52.227-19.
  
 Gaussian, Inc.
 340 Quinnipiac St., Bldg. 40, Wallingford CT 06492
  
  
 ---------------------------------------------------------------
 Warning -- This program may not be used in any manner that
 competes with the business of Gaussian, Inc. or will provide
 assistance to any competitor of Gaussian, Inc.  The licensee
 of this program is prohibited from giving any competitor of
 Gaussian, Inc. access to this program.  By using this program,
 the user acknowledges that Gaussian, Inc. is engaged in the
 business of creating and licensing software in the field of
 computational chemistry and represents and warrants to the
 licensee that it is not a competitor of Gaussian, Inc. and that
 it will not use this program in any manner prohibited above.
 ---------------------------------------------------------------
  

 Cite this work as:
 Gaussian 16, Revision A.03,
 M. J. Frisch, G. W. Trucks, H. B. Schlegel, G. E. Scuseria, 
 M. A. Robb, J. R. Cheeseman, G. Scalmani, V. Barone, 
 G. A. Petersson, H. Nakatsuji, X. Li, M. Caricato, A. V. Marenich, 
 J. Bloino, B. G. Janesko, R. Gomperts, B. Mennucci, H. P. Hratchian, 
 J. V. Ortiz, A. F. Izmaylov, J. L. Sonnenberg, D. Williams-Young, 
 F. Ding, F. Lipparini, F. Egidi, J. Goings, B. Peng, A. Petrone, 
 T. Henderson, D. Ranasinghe, V. G. Zakrzewski, J. Gao, N. Rega, 
 G. Zheng, W. Liang, M. Hada, M. Ehara, K. Toyota, R. Fukuda, 
 J. Hasegawa, M. Ishida, T. Nakajima, Y. Honda, O. Kitao, H. Nakai, 
 T. Vreven, K. Throssell, J. A. Montgomery, Jr., J. E. Peralta, 
 F. Ogliaro, M. J. Bearpark, J. J. Heyd, E. N. Brothers, K. N. Kudin, 
 V. N. Staroverov, T. A. Keith, R. Kobayashi, J. Normand, 
 K. Raghavachari, A. P. Rendell, J. C. Burant, S. S. Iyengar, 
 J. Tomasi, M. Cossi, J. M. Millam, M. Klene, C. Adamo, R. Cammi, 
 J. W. Ochterski, R. L. Martin, K. Morokuma, O. Farkas, 
 J. B. Foresman, and D. J. Fox, Gaussian, Inc., Wallingford CT, 2016.
 
 ******************************************
 Gaussian 16:  ES64L-G16RevA.03 25-Dec-2016
                24-Aug-2020 
 ******************************************
 %nprocshared=7
 Will use up to    7 processors via shared memory.
 %Mem=14GB
 %Chk=base_6_conf51.chk
 ---------------------------------
 # opt=CalcAll B3LYP/6-31G* scf=qc
 ---------------------------------
 1/10=4,18=20,19=15,26=3,38=1/1,3;
 2/9=110,12=2,17=6,18=5,40=1/2;
 3/5=1,6=6,7=1,11=2,25=1,30=1,71=2,74=-5,140=1/1,2,3;
 4//1;
 5/5=2,8=3,38=5/8;
 8/6=4,10=90,11=11/1;
 11/6=1,8=1,9=11,15=111,16=1/1,2,10;
 10/6=1/2;
 6/7=2,8=2,9=2,10=2,18=1,28=1/1;
 7/10=1,25=1/1,2,3,16;
 1/10=4,18=20,19=15,26=3/3(3);
 2/9=110/2;
 7/8=1,9=1,25=1,44=-1/16;
 99//99;
 2/9=110/2;
 3/5=1,6=6,7=1,11=2,25=1,30=1,71=2,74=-5,140=1/1,2,3;
 4/5=5,16=3,69=1/1;
 5/5=2,8=3,38=5/8;
 8/6=4,10=90,11=11/1;
 11/6=1,8=1,9=11,15=111,16=1/1,2,10;
 10/6=1/2;
 7/10=1,25=1/1,2,3,16;
 1/10=4,18=20,19=15,26=3/3(-8);
 2/9=110/2;
 6/7=2,8=2,9=2,10=2,18=1,19=2,28=1/1;
 7/8=1,9=1,25=1,44=-1/16;
 99//99;
 -------------------
 Title Card Required
 -------------------
 Symbolic Z-matrix:
 Charge =  0 Multiplicity = 1
 N                    -1.3325    0.0965    1.2627 
 C                    -1.3347   -0.677     0.0182 
 C                    -0.0666   -0.9542   -0.8227 
 N1                    1.1923   -1.3331   -0.1966 
 C                     2.2526   -0.3428   -0.3632 
 C                     2.1781    1.0394    0.3401 
 N                     0.8633    1.5949    0.6743 
 P                    -0.0423    0.9382    1.9236 
 N                     0.8413   -0.1292    2.8862 
 C                     1.5867   -1.2768    2.35 
 C                     1.0899   -2.0077    1.0914 
 C                     1.4522    0.2657    4.1847 
 C                     0.48466   0.78175   5.25584 
 C                     2.40675  -0.78974   4.75149 
 C                     0.3903    2.6135   -0.2921 
 C                     0.22582   2.19595  -1.76767 
 C                    -0.95248   3.24283   0.13362 
 C                    -2.6256    0.0807    1.981 
 C                    -2.62626   0.90869   3.28051 
 C                    -3.77874   0.54557   1.08202 
 H                    -2.0236   -0.1957   -0.6861 
 H                    -1.7651   -1.6605    0.2217 
 H                     0.0784   -0.1219   -1.5231 
 H                    -0.3264   -1.7969   -1.4792 
 H                     2.3486   -0.1513   -1.4414 
 H                     3.212    -0.8052   -0.0938 
 H                     2.743     1.7228   -0.3027 
 H                     2.7948    1.0104    1.243 
 H                     1.589    -2.0553    3.1279 
 H                     2.6431   -1.0107    2.2176 
 H                     0.0892   -2.415     1.2778 
 H                     1.7144   -2.9071    1.0026 
 H                     2.12068   1.11839   3.99777 
 H                    -0.15473  -0.00921   5.65822 
 H                    -0.14793   1.58406   4.86555 
 H                     1.05063   1.21496   6.09113 
 H                     1.87712  -1.67727   5.10907 
 H                     2.95423  -0.3676    5.61325 
 H                     3.15174  -1.0896    4.01475 
 H                     1.13345   3.42232  -0.3042 
 H                    -0.49198   1.37739  -1.88649 
 H                     1.17902   1.90825  -2.21447 
 H                    -0.14443   3.03772  -2.36634 
 H                    -1.76004   2.50469   0.12457 
 H                    -1.22898   4.05033  -0.55681 
 H                    -0.91657   3.69667   1.12655 
 H                    -2.86594  -0.94719   2.29028 
 H                    -2.42767   1.97148   3.10447 
 H                    -1.88161   0.53178   3.98783 
 H                    -3.60448   0.85275   3.77252 
 H                    -3.70903   1.60895   0.83165 
 H                    -4.73895   0.39884   1.58917 
 H                    -3.80795  -0.02693   0.151 
 

 GradGradGradGradGradGradGradGradGradGradGradGradGradGradGradGradGradGrad
 Berny optimization.
 Initialization pass.
                           ----------------------------
                           !    Initial Parameters    !
                           ! (Angstroms and Degrees)  !
 --------------------------                            --------------------------
 ! Name  Definition              Value          Derivative Info.                !
 --------------------------------------------------------------------------------
 ! R1    R(1,2)                  1.4653         calculate D2E/DX2 analytically  !
 ! R2    R(1,8)                  1.6763         calculate D2E/DX2 analytically  !
 ! R3    R(1,18)                 1.4793         calculate D2E/DX2 analytically  !
 ! R4    R(2,3)                  1.5466         calculate D2E/DX2 analytically  !
 ! R5    R(2,21)                 1.0965         calculate D2E/DX2 analytically  !
 ! R6    R(2,22)                 1.0927         calculate D2E/DX2 analytically  !
 ! R7    R(3,4)                  1.4562         calculate D2E/DX2 analytically  !
 ! R8    R(3,23)                 1.0974         calculate D2E/DX2 analytically  !
 ! R9    R(3,24)                 1.0994         calculate D2E/DX2 analytically  !
 ! R10   R(4,5)                  1.4604         calculate D2E/DX2 analytically  !
 ! R11   R(4,11)                 1.4576         calculate D2E/DX2 analytically  !
 ! R12   R(5,6)                  1.5526         calculate D2E/DX2 analytically  !
 ! R13   R(5,25)                 1.0993         calculate D2E/DX2 analytically  !
 ! R14   R(5,26)                 1.0986         calculate D2E/DX2 analytically  !
 ! R15   R(6,7)                  1.4659         calculate D2E/DX2 analytically  !
 ! R16   R(6,27)                 1.0951         calculate D2E/DX2 analytically  !
 ! R17   R(6,28)                 1.0938         calculate D2E/DX2 analytically  !
 ! R18   R(7,8)                  1.6769         calculate D2E/DX2 analytically  !
 ! R19   R(7,15)                 1.4816         calculate D2E/DX2 analytically  !
 ! R20   R(8,9)                  1.6872         calculate D2E/DX2 analytically  !
 ! R21   R(9,10)                 1.4697         calculate D2E/DX2 analytically  !
 ! R22   R(9,12)                 1.4884         calculate D2E/DX2 analytically  !
 ! R23   R(10,11)                1.5379         calculate D2E/DX2 analytically  !
 ! R24   R(10,29)                1.1005         calculate D2E/DX2 analytically  !
 ! R25   R(10,30)                1.0974         calculate D2E/DX2 analytically  !
 ! R26   R(11,31)                1.0964         calculate D2E/DX2 analytically  !
 ! R27   R(11,32)                1.0985         calculate D2E/DX2 analytically  !
 ! R28   R(12,13)                1.5329         calculate D2E/DX2 analytically  !
 ! R29   R(12,14)                1.5318         calculate D2E/DX2 analytically  !
 ! R30   R(12,33)                1.0995         calculate D2E/DX2 analytically  !
 ! R31   R(13,34)                1.0938         calculate D2E/DX2 analytically  !
 ! R32   R(13,35)                1.0937         calculate D2E/DX2 analytically  !
 ! R33   R(13,36)                1.098          calculate D2E/DX2 analytically  !
 ! R34   R(14,37)                1.0937         calculate D2E/DX2 analytically  !
 ! R35   R(14,38)                1.1048         calculate D2E/DX2 analytically  !
 ! R36   R(14,39)                1.0898         calculate D2E/DX2 analytically  !
 ! R37   R(15,16)                1.5423         calculate D2E/DX2 analytically  !
 ! R38   R(15,17)                1.5428         calculate D2E/DX2 analytically  !
 ! R39   R(15,40)                1.0985         calculate D2E/DX2 analytically  !
 ! R40   R(16,41)                1.0952         calculate D2E/DX2 analytically  !
 ! R41   R(16,42)                1.0913         calculate D2E/DX2 analytically  !
 ! R42   R(16,43)                1.0973         calculate D2E/DX2 analytically  !
 ! R43   R(17,44)                1.0941         calculate D2E/DX2 analytically  !
 ! R44   R(17,45)                1.0978         calculate D2E/DX2 analytically  !
 ! R45   R(17,46)                1.0923         calculate D2E/DX2 analytically  !
 ! R46   R(18,19)                1.5409         calculate D2E/DX2 analytically  !
 ! R47   R(18,20)                1.5343         calculate D2E/DX2 analytically  !
 ! R48   R(18,47)                1.1            calculate D2E/DX2 analytically  !
 ! R49   R(19,48)                1.0954         calculate D2E/DX2 analytically  !
 ! R50   R(19,49)                1.094          calculate D2E/DX2 analytically  !
 ! R51   R(19,50)                1.0964         calculate D2E/DX2 analytically  !
 ! R52   R(20,51)                1.0947         calculate D2E/DX2 analytically  !
 ! R53   R(20,52)                1.0958         calculate D2E/DX2 analytically  !
 ! R54   R(20,53)                1.0933         calculate D2E/DX2 analytically  !
 ! A1    A(2,1,8)              126.9472         calculate D2E/DX2 analytically  !
 ! A2    A(2,1,18)             113.9194         calculate D2E/DX2 analytically  !
 ! A3    A(8,1,18)             119.1257         calculate D2E/DX2 analytically  !
 ! A4    A(1,2,3)              123.7215         calculate D2E/DX2 analytically  !
 ! A5    A(1,2,21)             108.3469         calculate D2E/DX2 analytically  !
 ! A6    A(1,2,22)             108.515          calculate D2E/DX2 analytically  !
 ! A7    A(3,2,21)             104.1569         calculate D2E/DX2 analytically  !
 ! A8    A(3,2,22)             105.2422         calculate D2E/DX2 analytically  !
 ! A9    A(21,2,22)            105.5002         calculate D2E/DX2 analytically  !
 ! A10   A(2,3,4)              121.447          calculate D2E/DX2 analytically  !
 ! A11   A(2,3,23)             108.6273         calculate D2E/DX2 analytically  !
 ! A12   A(2,3,24)             105.5631         calculate D2E/DX2 analytically  !
 ! A13   A(4,3,23)             110.9488         calculate D2E/DX2 analytically  !
 ! A14   A(4,3,24)             105.1654         calculate D2E/DX2 analytically  !
 ! A15   A(23,3,24)            103.3825         calculate D2E/DX2 analytically  !
 ! A16   A(3,4,5)              113.7154         calculate D2E/DX2 analytically  !
 ! A17   A(3,4,11)             116.0808         calculate D2E/DX2 analytically  !
 ! A18   A(5,4,11)             117.7532         calculate D2E/DX2 analytically  !
 ! A19   A(4,5,6)              121.1423         calculate D2E/DX2 analytically  !
 ! A20   A(4,5,25)             107.0635         calculate D2E/DX2 analytically  !
 ! A21   A(4,5,26)             108.7035         calculate D2E/DX2 analytically  !
 ! A22   A(6,5,25)             107.0614         calculate D2E/DX2 analytically  !
 ! A23   A(6,5,26)             107.7902         calculate D2E/DX2 analytically  !
 ! A24   A(25,5,26)            103.7441         calculate D2E/DX2 analytically  !
 ! A25   A(5,6,7)              118.9239         calculate D2E/DX2 analytically  !
 ! A26   A(5,6,27)             105.3612         calculate D2E/DX2 analytically  !
 ! A27   A(5,6,28)             108.8603         calculate D2E/DX2 analytically  !
 ! A28   A(7,6,27)             111.0993         calculate D2E/DX2 analytically  !
 ! A29   A(7,6,28)             109.1199         calculate D2E/DX2 analytically  !
 ! A30   A(27,6,28)            102.1359         calculate D2E/DX2 analytically  !
 ! A31   A(6,7,8)              120.3846         calculate D2E/DX2 analytically  !
 ! A32   A(6,7,15)             113.4624         calculate D2E/DX2 analytically  !
 ! A33   A(8,7,15)             125.6441         calculate D2E/DX2 analytically  !
 ! A34   A(1,8,7)              108.5763         calculate D2E/DX2 analytically  !
 ! A35   A(1,8,9)              108.0811         calculate D2E/DX2 analytically  !
 ! A36   A(7,8,9)              112.9524         calculate D2E/DX2 analytically  !
 ! A37   A(8,9,10)             123.4659         calculate D2E/DX2 analytically  !
 ! A38   A(8,9,12)             123.014          calculate D2E/DX2 analytically  !
 ! A39   A(10,9,12)            108.4992         calculate D2E/DX2 analytically  !
 ! A40   A(9,10,11)            120.3867         calculate D2E/DX2 analytically  !
 ! A41   A(9,10,29)            107.1889         calculate D2E/DX2 analytically  !
 ! A42   A(9,10,30)            110.0533         calculate D2E/DX2 analytically  !
 ! A43   A(11,10,29)           104.0609         calculate D2E/DX2 analytically  !
 ! A44   A(11,10,30)           109.1154         calculate D2E/DX2 analytically  !
 ! A45   A(29,10,30)           104.7611         calculate D2E/DX2 analytically  !
 ! A46   A(4,11,10)            118.7198         calculate D2E/DX2 analytically  !
 ! A47   A(4,11,31)            112.7243         calculate D2E/DX2 analytically  !
 ! A48   A(4,11,32)            105.5188         calculate D2E/DX2 analytically  !
 ! A49   A(10,11,31)           109.4066         calculate D2E/DX2 analytically  !
 ! A50   A(10,11,32)           105.7606         calculate D2E/DX2 analytically  !
 ! A51   A(31,11,32)           103.2065         calculate D2E/DX2 analytically  !
 ! A52   A(9,12,13)            116.0961         calculate D2E/DX2 analytically  !
 ! A53   A(9,12,14)            113.3144         calculate D2E/DX2 analytically  !
 ! A54   A(9,12,33)            107.8778         calculate D2E/DX2 analytically  !
 ! A55   A(13,12,14)           111.5142         calculate D2E/DX2 analytically  !
 ! A56   A(13,12,33)           103.9734         calculate D2E/DX2 analytically  !
 ! A57   A(14,12,33)           102.6147         calculate D2E/DX2 analytically  !
 ! A58   A(12,13,34)           112.4941         calculate D2E/DX2 analytically  !
 ! A59   A(12,13,35)           111.2643         calculate D2E/DX2 analytically  !
 ! A60   A(12,13,36)           109.8185         calculate D2E/DX2 analytically  !
 ! A61   A(34,13,35)           108.8835         calculate D2E/DX2 analytically  !
 ! A62   A(34,13,36)           107.8641         calculate D2E/DX2 analytically  !
 ! A63   A(35,13,36)           106.2702         calculate D2E/DX2 analytically  !
 ! A64   A(12,14,37)           112.2322         calculate D2E/DX2 analytically  !
 ! A65   A(12,14,38)           109.5211         calculate D2E/DX2 analytically  !
 ! A66   A(12,14,39)           111.434          calculate D2E/DX2 analytically  !
 ! A67   A(37,14,38)           107.1594         calculate D2E/DX2 analytically  !
 ! A68   A(37,14,39)           109.1952         calculate D2E/DX2 analytically  !
 ! A69   A(38,14,39)           107.0789         calculate D2E/DX2 analytically  !
 ! A70   A(7,15,16)            118.1613         calculate D2E/DX2 analytically  !
 ! A71   A(7,15,17)            112.2283         calculate D2E/DX2 analytically  !
 ! A72   A(7,15,40)            107.3026         calculate D2E/DX2 analytically  !
 ! A73   A(16,15,17)           106.3562         calculate D2E/DX2 analytically  !
 ! A74   A(16,15,40)           105.1268         calculate D2E/DX2 analytically  !
 ! A75   A(17,15,40)           106.948          calculate D2E/DX2 analytically  !
 ! A76   A(15,16,41)           112.0892         calculate D2E/DX2 analytically  !
 ! A77   A(15,16,42)           111.7106         calculate D2E/DX2 analytically  !
 ! A78   A(15,16,43)           110.5042         calculate D2E/DX2 analytically  !
 ! A79   A(41,16,42)           109.3301         calculate D2E/DX2 analytically  !
 ! A80   A(41,16,43)           107.0393         calculate D2E/DX2 analytically  !
 ! A81   A(42,16,43)           105.8773         calculate D2E/DX2 analytically  !
 ! A82   A(15,17,44)           111.4023         calculate D2E/DX2 analytically  !
 ! A83   A(15,17,45)           110.2246         calculate D2E/DX2 analytically  !
 ! A84   A(15,17,46)           113.0597         calculate D2E/DX2 analytically  !
 ! A85   A(44,17,45)           107.7663         calculate D2E/DX2 analytically  !
 ! A86   A(44,17,46)           108.185          calculate D2E/DX2 analytically  !
 ! A87   A(45,17,46)           105.9237         calculate D2E/DX2 analytically  !
 ! A88   A(1,18,19)            113.8375         calculate D2E/DX2 analytically  !
 ! A89   A(1,18,20)            111.6687         calculate D2E/DX2 analytically  !
 ! A90   A(1,18,47)            109.7245         calculate D2E/DX2 analytically  !
 ! A91   A(19,18,20)           109.3305         calculate D2E/DX2 analytically  !
 ! A92   A(19,18,47)           105.3617         calculate D2E/DX2 analytically  !
 ! A93   A(20,18,47)           106.4787         calculate D2E/DX2 analytically  !
 ! A94   A(18,19,48)           112.6893         calculate D2E/DX2 analytically  !
 ! A95   A(18,19,49)           111.0905         calculate D2E/DX2 analytically  !
 ! A96   A(18,19,50)           110.5742         calculate D2E/DX2 analytically  !
 ! A97   A(48,19,49)           108.3464         calculate D2E/DX2 analytically  !
 ! A98   A(48,19,50)           106.4611         calculate D2E/DX2 analytically  !
 ! A99   A(49,19,50)           107.4322         calculate D2E/DX2 analytically  !
 ! A100  A(18,20,51)           112.3632         calculate D2E/DX2 analytically  !
 ! A101  A(18,20,52)           110.2946         calculate D2E/DX2 analytically  !
 ! A102  A(18,20,53)           111.1227         calculate D2E/DX2 analytically  !
 ! A103  A(51,20,52)           106.9617         calculate D2E/DX2 analytically  !
 ! A104  A(51,20,53)           108.3966         calculate D2E/DX2 analytically  !
 ! A105  A(52,20,53)           107.4925         calculate D2E/DX2 analytically  !
 ! D1    D(8,1,2,3)              6.5288         calculate D2E/DX2 analytically  !
 ! D2    D(8,1,2,21)          -115.5544         calculate D2E/DX2 analytically  !
 ! D3    D(8,1,2,22)           130.3676         calculate D2E/DX2 analytically  !
 ! D4    D(18,1,2,3)          -172.4484         calculate D2E/DX2 analytically  !
 ! D5    D(18,1,2,21)           65.4684         calculate D2E/DX2 analytically  !
 ! D6    D(18,1,2,22)          -48.6096         calculate D2E/DX2 analytically  !
 ! D7    D(2,1,8,7)             35.5067         calculate D2E/DX2 analytically  !
 ! D8    D(2,1,8,9)            -87.3469         calculate D2E/DX2 analytically  !
 ! D9    D(18,1,8,7)          -145.5636         calculate D2E/DX2 analytically  !
 ! D10   D(18,1,8,9)            91.5828         calculate D2E/DX2 analytically  !
 ! D11   D(2,1,18,19)         -179.2942         calculate D2E/DX2 analytically  !
 ! D12   D(2,1,18,20)          -54.8952         calculate D2E/DX2 analytically  !
 ! D13   D(2,1,18,47)           62.9254         calculate D2E/DX2 analytically  !
 ! D14   D(8,1,18,19)            1.6415         calculate D2E/DX2 analytically  !
 ! D15   D(8,1,18,20)          126.0405         calculate D2E/DX2 analytically  !
 ! D16   D(8,1,18,47)         -116.1389         calculate D2E/DX2 analytically  !
 ! D17   D(1,2,3,4)             43.0242         calculate D2E/DX2 analytically  !
 ! D18   D(1,2,3,23)           -87.3954         calculate D2E/DX2 analytically  !
 ! D19   D(1,2,3,24)           162.2751         calculate D2E/DX2 analytically  !
 ! D20   D(21,2,3,4)           166.9873         calculate D2E/DX2 analytically  !
 ! D21   D(21,2,3,23)           36.5676         calculate D2E/DX2 analytically  !
 ! D22   D(21,2,3,24)          -73.7618         calculate D2E/DX2 analytically  !
 ! D23   D(22,2,3,4)           -82.2565         calculate D2E/DX2 analytically  !
 ! D24   D(22,2,3,23)          147.3239         calculate D2E/DX2 analytically  !
 ! D25   D(22,2,3,24)           36.9944         calculate D2E/DX2 analytically  !
 ! D26   D(2,3,4,5)           -114.6653         calculate D2E/DX2 analytically  !
 ! D27   D(2,3,4,11)            26.7144         calculate D2E/DX2 analytically  !
 ! D28   D(23,3,4,5)            14.756          calculate D2E/DX2 analytically  !
 ! D29   D(23,3,4,11)          156.1357         calculate D2E/DX2 analytically  !
 ! D30   D(24,3,4,5)           125.8894         calculate D2E/DX2 analytically  !
 ! D31   D(24,3,4,11)          -92.7309         calculate D2E/DX2 analytically  !
 ! D32   D(3,4,5,6)             68.5652         calculate D2E/DX2 analytically  !
 ! D33   D(3,4,5,25)           -54.3947         calculate D2E/DX2 analytically  !
 ! D34   D(3,4,5,26)          -165.8822         calculate D2E/DX2 analytically  !
 ! D35   D(11,4,5,6)           -72.1277         calculate D2E/DX2 analytically  !
 ! D36   D(11,4,5,25)          164.9123         calculate D2E/DX2 analytically  !
 ! D37   D(11,4,5,26)           53.4248         calculate D2E/DX2 analytically  !
 ! D38   D(3,4,11,10)         -112.0917         calculate D2E/DX2 analytically  !
 ! D39   D(3,4,11,31)           17.7182         calculate D2E/DX2 analytically  !
 ! D40   D(3,4,11,32)          129.6408         calculate D2E/DX2 analytically  !
 ! D41   D(5,4,11,10)           27.6876         calculate D2E/DX2 analytically  !
 ! D42   D(5,4,11,31)          157.4975         calculate D2E/DX2 analytically  !
 ! D43   D(5,4,11,32)          -90.5799         calculate D2E/DX2 analytically  !
 ! D44   D(4,5,6,7)            -26.5093         calculate D2E/DX2 analytically  !
 ! D45   D(4,5,6,27)          -151.8424         calculate D2E/DX2 analytically  !
 ! D46   D(4,5,6,28)            99.2384         calculate D2E/DX2 analytically  !
 ! D47   D(25,5,6,7)            96.4516         calculate D2E/DX2 analytically  !
 ! D48   D(25,5,6,27)          -28.8815         calculate D2E/DX2 analytically  !
 ! D49   D(25,5,6,28)         -137.8007         calculate D2E/DX2 analytically  !
 ! D50   D(26,5,6,7)          -152.48           calculate D2E/DX2 analytically  !
 ! D51   D(26,5,6,27)           82.187          calculate D2E/DX2 analytically  !
 ! D52   D(26,5,6,28)          -26.7322         calculate D2E/DX2 analytically  !
 ! D53   D(5,6,7,8)             72.2746         calculate D2E/DX2 analytically  !
 ! D54   D(5,6,7,15)           -99.993          calculate D2E/DX2 analytically  !
 ! D55   D(27,6,7,8)          -165.2037         calculate D2E/DX2 analytically  !
 ! D56   D(27,6,7,15)           22.5286         calculate D2E/DX2 analytically  !
 ! D57   D(28,6,7,8)           -53.3487         calculate D2E/DX2 analytically  !
 ! D58   D(28,6,7,15)          134.3837         calculate D2E/DX2 analytically  !
 ! D59   D(6,7,8,1)           -107.7318         calculate D2E/DX2 analytically  !
 ! D60   D(6,7,8,9)             12.1292         calculate D2E/DX2 analytically  !
 ! D61   D(15,7,8,1)            63.5326         calculate D2E/DX2 analytically  !
 ! D62   D(15,7,8,9)          -176.6064         calculate D2E/DX2 analytically  !
 ! D63   D(6,7,15,16)           59.2943         calculate D2E/DX2 analytically  !
 ! D64   D(6,7,15,17)         -176.3841         calculate D2E/DX2 analytically  !
 ! D65   D(6,7,15,40)          -59.1815         calculate D2E/DX2 analytically  !
 ! D66   D(8,7,15,16)         -112.4944         calculate D2E/DX2 analytically  !
 ! D67   D(8,7,15,17)           11.8272         calculate D2E/DX2 analytically  !
 ! D68   D(8,7,15,40)          129.0298         calculate D2E/DX2 analytically  !
 ! D69   D(1,8,9,10)            66.4619         calculate D2E/DX2 analytically  !
 ! D70   D(1,8,9,12)          -141.5205         calculate D2E/DX2 analytically  !
 ! D71   D(7,8,9,10)           -53.6833         calculate D2E/DX2 analytically  !
 ! D72   D(7,8,9,12)            98.3344         calculate D2E/DX2 analytically  !
 ! D73   D(8,9,10,11)          -31.3803         calculate D2E/DX2 analytically  !
 ! D74   D(8,9,10,29)         -149.818          calculate D2E/DX2 analytically  !
 ! D75   D(8,9,10,30)           96.8018         calculate D2E/DX2 analytically  !
 ! D76   D(12,9,10,11)         173.1314         calculate D2E/DX2 analytically  !
 ! D77   D(12,9,10,29)          54.6937         calculate D2E/DX2 analytically  !
 ! D78   D(12,9,10,30)         -58.6865         calculate D2E/DX2 analytically  !
 ! D79   D(8,9,12,13)           59.2943         calculate D2E/DX2 analytically  !
 ! D80   D(8,9,12,14)         -169.7282         calculate D2E/DX2 analytically  !
 ! D81   D(8,9,12,33)          -56.8427         calculate D2E/DX2 analytically  !
 ! D82   D(10,9,12,13)        -145.0828         calculate D2E/DX2 analytically  !
 ! D83   D(10,9,12,14)         -14.1053         calculate D2E/DX2 analytically  !
 ! D84   D(10,9,12,33)          98.7802         calculate D2E/DX2 analytically  !
 ! D85   D(9,10,11,4)           70.9889         calculate D2E/DX2 analytically  !
 ! D86   D(9,10,11,31)         -60.3146         calculate D2E/DX2 analytically  !
 ! D87   D(9,10,11,32)        -170.8699         calculate D2E/DX2 analytically  !
 ! D88   D(29,10,11,4)        -169.0092         calculate D2E/DX2 analytically  !
 ! D89   D(29,10,11,31)         59.6874         calculate D2E/DX2 analytically  !
 ! D90   D(29,10,11,32)        -50.8679         calculate D2E/DX2 analytically  !
 ! D91   D(30,10,11,4)         -57.6144         calculate D2E/DX2 analytically  !
 ! D92   D(30,10,11,31)        171.0821         calculate D2E/DX2 analytically  !
 ! D93   D(30,10,11,32)         60.5268         calculate D2E/DX2 analytically  !
 ! D94   D(9,12,13,34)          70.3406         calculate D2E/DX2 analytically  !
 ! D95   D(9,12,13,35)         -52.1417         calculate D2E/DX2 analytically  !
 ! D96   D(9,12,13,36)        -169.5166         calculate D2E/DX2 analytically  !
 ! D97   D(14,12,13,34)        -61.4792         calculate D2E/DX2 analytically  !
 ! D98   D(14,12,13,35)        176.0385         calculate D2E/DX2 analytically  !
 ! D99   D(14,12,13,36)         58.6636         calculate D2E/DX2 analytically  !
 ! D100  D(33,12,13,34)       -171.3559         calculate D2E/DX2 analytically  !
 ! D101  D(33,12,13,35)         66.1618         calculate D2E/DX2 analytically  !
 ! D102  D(33,12,13,36)        -51.2131         calculate D2E/DX2 analytically  !
 ! D103  D(9,12,14,37)         -70.8696         calculate D2E/DX2 analytically  !
 ! D104  D(9,12,14,38)         170.2436         calculate D2E/DX2 analytically  !
 ! D105  D(9,12,14,39)          51.9537         calculate D2E/DX2 analytically  !
 ! D106  D(13,12,14,37)         62.3461         calculate D2E/DX2 analytically  !
 ! D107  D(13,12,14,38)        -56.5406         calculate D2E/DX2 analytically  !
 ! D108  D(13,12,14,39)       -174.8306         calculate D2E/DX2 analytically  !
 ! D109  D(33,12,14,37)        173.0902         calculate D2E/DX2 analytically  !
 ! D110  D(33,12,14,38)         54.2035         calculate D2E/DX2 analytically  !
 ! D111  D(33,12,14,39)        -64.0865         calculate D2E/DX2 analytically  !
 ! D112  D(7,15,16,41)          59.7677         calculate D2E/DX2 analytically  !
 ! D113  D(7,15,16,42)         -63.3319         calculate D2E/DX2 analytically  !
 ! D114  D(7,15,16,43)         179.0688         calculate D2E/DX2 analytically  !
 ! D115  D(17,15,16,41)        -67.4111         calculate D2E/DX2 analytically  !
 ! D116  D(17,15,16,42)        169.4894         calculate D2E/DX2 analytically  !
 ! D117  D(17,15,16,43)         51.8901         calculate D2E/DX2 analytically  !
 ! D118  D(40,15,16,41)        179.3829         calculate D2E/DX2 analytically  !
 ! D119  D(40,15,16,42)         56.2833         calculate D2E/DX2 analytically  !
 ! D120  D(40,15,16,43)        -61.3159         calculate D2E/DX2 analytically  !
 ! D121  D(7,15,17,44)         -65.2494         calculate D2E/DX2 analytically  !
 ! D122  D(7,15,17,45)         175.1688         calculate D2E/DX2 analytically  !
 ! D123  D(7,15,17,46)          56.8346         calculate D2E/DX2 analytically  !
 ! D124  D(16,15,17,44)         65.3895         calculate D2E/DX2 analytically  !
 ! D125  D(16,15,17,45)        -54.1924         calculate D2E/DX2 analytically  !
 ! D126  D(16,15,17,46)       -172.5265         calculate D2E/DX2 analytically  !
 ! D127  D(40,15,17,44)        177.3364         calculate D2E/DX2 analytically  !
 ! D128  D(40,15,17,45)         57.7545         calculate D2E/DX2 analytically  !
 ! D129  D(40,15,17,46)        -60.5796         calculate D2E/DX2 analytically  !
 ! D130  D(1,18,19,48)          61.4936         calculate D2E/DX2 analytically  !
 ! D131  D(1,18,19,49)         -60.303          calculate D2E/DX2 analytically  !
 ! D132  D(1,18,19,50)        -179.4944         calculate D2E/DX2 analytically  !
 ! D133  D(20,18,19,48)        -64.153          calculate D2E/DX2 analytically  !
 ! D134  D(20,18,19,49)        174.0504         calculate D2E/DX2 analytically  !
 ! D135  D(20,18,19,50)         54.859          calculate D2E/DX2 analytically  !
 ! D136  D(47,18,19,48)       -178.2395         calculate D2E/DX2 analytically  !
 ! D137  D(47,18,19,49)         59.9639         calculate D2E/DX2 analytically  !
 ! D138  D(47,18,19,50)        -59.2275         calculate D2E/DX2 analytically  !
 ! D139  D(1,18,20,51)         -68.3136         calculate D2E/DX2 analytically  !
 ! D140  D(1,18,20,52)         172.4456         calculate D2E/DX2 analytically  !
 ! D141  D(1,18,20,53)          53.3399         calculate D2E/DX2 analytically  !
 ! D142  D(19,18,20,51)         58.5729         calculate D2E/DX2 analytically  !
 ! D143  D(19,18,20,52)        -60.668          calculate D2E/DX2 analytically  !
 ! D144  D(19,18,20,53)       -179.7737         calculate D2E/DX2 analytically  !
 ! D145  D(47,18,20,51)        171.9344         calculate D2E/DX2 analytically  !
 ! D146  D(47,18,20,52)         52.6936         calculate D2E/DX2 analytically  !
 ! D147  D(47,18,20,53)        -66.4122         calculate D2E/DX2 analytically  !
 --------------------------------------------------------------------------------
 Trust Radius=3.00D-01 FncErr=1.00D-07 GrdErr=1.00D-06 EigMax=2.50D+02 EigMin=1.00D-04
 Number of steps in this run=    316 maximum allowed number of steps=    318.
 GradGradGradGradGradGradGradGradGradGradGradGradGradGradGradGradGradGrad

 Stoichiometry    C15H33N4P
 Framework group  C1[X(C15H33N4P)]
 Deg. of freedom   153
 Full point group                 C1      NOp   1
 Largest Abelian subgroup         C1      NOp   1
 Largest concise Abelian subgroup C1      NOp   1
                         Standard orientation:                         
 ---------------------------------------------------------------------
 Center     Atomic      Atomic             Coordinates (Angstroms)
 Number     Number       Type             X           Y           Z
 ---------------------------------------------------------------------
      1          7           0       -0.619027    1.068254    0.761214
      2          6           0       -1.455112    0.319073    1.702902
      3          6           0       -1.587120   -1.221886    1.695785
      4          7           0       -0.425741   -2.083060    1.522654
      5          6           0       -0.450097   -2.860587    0.286715
      6          6           0       -0.299393   -2.173364   -1.097363
      7          7           0       -0.709093   -0.773310   -1.242154
      8         15           0        0.208502    0.453790   -0.560713
      9          7           0        1.722179   -0.072182   -0.032674
     10          6           0        1.912077   -1.205139    0.884095
     11          6           0        0.852543   -1.528766    1.950749
     12          6           0        2.965467    0.101904   -0.832159
     13          6           0        3.342875    1.544778   -1.186364
     14          6           0        4.162380   -0.669330   -0.267387
     15          6           0       -2.046504   -0.610776   -1.858690
     16          6           0       -3.256736   -1.255337   -1.152581
     17          6           0       -2.411219    0.872023   -2.079238
     18          6           0       -0.512456    2.510960    1.070332
     19          6           0        0.353141    3.300063    0.069157
     20          6           0       -1.893415    3.170768    1.178072
     21          1           0       -2.487186    0.677082    1.608438
     22          1           0       -1.148666    0.576443    2.719652
     23          1           0       -2.389994   -1.501714    1.001957
     24          1           0       -1.997745   -1.487304    2.680453
     25          1           0       -1.400950   -3.411985    0.271202
     26          1           0        0.309290   -3.651634    0.353150
     27          1           0       -0.838433   -2.816650   -1.800896
     28          1           0        0.735623   -2.280478   -1.434491
     29          1           0        2.824238   -1.003403    1.465868
     30          1           0        2.138998   -2.115675    0.315104
     31          1           0        0.738070   -0.670109    2.622792
     32          1           0        1.303475   -2.294547    2.596539
     33          1           0        2.809036   -0.378916   -1.808494
     34          1           0        3.677811    2.115530   -0.315498
     35          1           0        2.505290    2.070610   -1.653428
     36          1           0        4.156697    1.546459   -1.923516
     37          1           0        4.532415   -0.234014    0.665165
     38          1           0        4.995046   -0.641647   -0.992968
     39          1           0        3.917660   -1.718189   -0.100895
     40          1           0       -2.008651   -1.082105   -2.850165
     41          1           0       -3.394386   -0.869627   -0.136866
     42          1           0       -3.171636   -2.342777   -1.117598
     43          1           0       -4.181180   -1.044173   -1.704741
     44          1           0       -2.514921    1.403358   -1.128442
     45          1           0       -3.366705    0.952377   -2.613832
     46          1           0       -1.680102    1.406144   -2.690265
     47          1           0       -0.024913    2.646335    2.047036
     48          1           0       -0.046933    3.270736   -0.950172
     49          1           0        1.377963    2.917756    0.047986
     50          1           0        0.402998    4.357913    0.353031
     51          1           0       -2.409434    3.216723    0.213741
     52          1           0       -1.795282    4.201242    1.537553
     53          1           0       -2.531839    2.635185    1.885866
 ---------------------------------------------------------------------
 Rotational constants (GHZ):           0.3781403           0.3151053           0.2520925
 Standard basis: 6-31G(d) (6D, 7F)
 There are   370 symmetry adapted cartesian basis functions of A   symmetry.
 There are   370 symmetry adapted basis functions of A   symmetry.
   370 basis functions,   716 primitive gaussians,   370 cartesian basis functions
    83 alpha electrons       83 beta electrons
       nuclear repulsion energy      2100.6141311063 Hartrees.
 NAtoms=   53 NActive=   53 NUniq=   53 SFac= 1.00D+00 NAtFMM=   60 NAOKFM=F Big=F
 Integral buffers will be    131072 words long.
 Raffenetti 2 integral format.
 Two-electron integral symmetry is turned on.
 One-electron integrals computed using PRISM.
 NBasis=   370 RedAO= T EigKep=  2.92D-03  NBF=   370
 NBsUse=   370 1.00D-06 EigRej= -1.00D+00 NBFU=   370
 ExpMin= 9.98D-02 ExpMax= 1.94D+04 ExpMxC= 2.91D+03 IAcc=3 IRadAn=         5 AccDes= 0.00D+00
 Harris functional with IExCor=  402 and IRadAn=       5 diagonalized for initial guess.
 HarFok:  IExCor=  402 AccDes= 0.00D+00 IRadAn=         5 IDoV= 1 UseB2=F ITyADJ=14
 ICtDFT=  3500011 ScaDFX=  1.000000  1.000000  1.000000  1.000000
 FoFCou: FMM=F IPFlag=           0 FMFlag=      100000 FMFlg1=           0
         NFxFlg=           0 DoJE=T BraDBF=F KetDBF=T FulRan=T
         wScrn=  0.000000 ICntrl=       500 IOpCl=  0 I1Cent=   200000004 NGrid=           0
         NMat0=    1 NMatS0=      1 NMatT0=    0 NMatD0=    1 NMtDS0=    0 NMtDT0=    0
 Petite list used in FoFCou.
 Gradient too large for Newton-Raphson -- use scaled steepest descent instead.
     Accept linear search using points  2 and  3.
 Gradient too large for Newton-Raphson -- use scaled steepest descent instead.
     Minimum is close to point  3 DX=  2.46D-02 DF= -4.04D-05 DXR=  3.40D-02 DFR=  1.16D-03 which will be used.
 Gradient too large for Newton-Raphson -- use scaled steepest descent instead.
     Minimum is close to point  2 DX=  3.98D-02 DF= -1.34D-05 DXR=  7.37D-02 DFR=  5.46D-03 which will be used.
 Gradient too large for Newton-Raphson -- use scaled steepest descent instead.
     Minimum is close to point  2 DX=  3.23D-02 DF= -1.11D-06 DXR=  5.11D-02 DFR=  2.61D-03 which will be used.
 Gradient too large for Newton-Raphson -- use scaled steepest descent instead.
     Accept linear search using points  1 and  2.
 LinEq1:  Iter=  0 NonCon=     1 RMS=2.68D-05 Max=1.28D-03 NDo=     1
 AX will form     1 AO Fock derivatives at one time.
 LinEq1:  Iter=  1 NonCon=     1 RMS=1.22D-05 Max=4.29D-04 NDo=     1
 LinEq1:  Iter=  2 NonCon=     1 RMS=5.28D-06 Max=2.55D-04 NDo=     1
 LinEq1:  Iter=  3 NonCon=     1 RMS=1.96D-06 Max=6.30D-05 NDo=     1
 LinEq1:  Iter=  4 NonCon=     1 RMS=1.05D-06 Max=3.48D-05 NDo=     1
 LinEq1:  Iter=  5 NonCon=     1 RMS=5.79D-07 Max=1.55D-05 NDo=     1
 LinEq1:  Iter=  6 NonCon=     1 RMS=2.43D-07 Max=3.80D-06 NDo=     1
 LinEq1:  Iter=  7 NonCon=     1 RMS=9.87D-08 Max=3.52D-06 NDo=     1
 LinEq1:  Iter=  8 NonCon=     1 RMS=6.32D-08 Max=1.34D-06 NDo=     1
 LinEq1:  Iter=  9 NonCon=     1 RMS=3.16D-08 Max=8.96D-07 NDo=     1
 LinEq1:  Iter= 10 NonCon=     1 RMS=1.54D-08 Max=3.60D-07 NDo=     1
 LinEq1:  Iter= 11 NonCon=     0 RMS=5.56D-09 Max=2.00D-07 NDo=     1
 Linear equations converged to 2.183D-08 2.183D-07 after    11 iterations.
     Accept linear search using points  1 and  2.
     Minimum is close to point  2 DX= -1.13D-04 DF= -4.55D-13 DXR=  1.13D-04 DFR=  1.48D-08 which will be used.
 LinEq1:  Iter=  0 NonCon=     1 RMS=2.29D-08 Max=9.32D-07 NDo=     1
 LinEq1:  Iter=  1 NonCon=     1 RMS=1.49D-08 Max=7.60D-07 NDo=     1
 LinEq1:  Iter=  2 NonCon=     1 RMS=7.68D-09 Max=2.60D-07 NDo=     1
 LinEq1:  Iter=  3 NonCon=     1 RMS=3.91D-09 Max=9.43D-08 NDo=     1
 LinEq1:  Iter=  4 NonCon=     1 RMS=1.87D-09 Max=5.24D-08 NDo=     1
 LinEq1:  Iter=  5 NonCon=     1 RMS=1.22D-09 Max=4.78D-08 NDo=     1
 LinEq1:  Iter=  6 NonCon=     1 RMS=5.04D-10 Max=1.33D-08 NDo=     1
 LinEq1:  Iter=  7 NonCon=     1 RMS=1.93D-10 Max=4.66D-09 NDo=     1
 LinEq1:  Iter=  8 NonCon=     1 RMS=1.09D-10 Max=5.13D-09 NDo=     1
 LinEq1:  Iter=  9 NonCon=     1 RMS=5.78D-11 Max=1.86D-09 NDo=     1
 LinEq1:  Iter= 10 NonCon=     1 RMS=3.49D-11 Max=1.44D-09 NDo=     1
 LinEq1:  Iter= 11 NonCon=     1 RMS=1.39D-11 Max=4.71D-10 NDo=     1
 LinEq1:  Iter= 12 NonCon=     0 RMS=7.47D-12 Max=2.29D-10 NDo=     1
 Linear equations converged to 2.990D-11 2.990D-10 after    12 iterations.
 QCLLim is confused:  Bigger=T Turned=T
 NLin=  4 IMin12=  1  3 I12=  0  2 IX=  1 XLMin= 0.000D+00 XLMax= 0.000D+00
 X = 0.000D+00 1.000D+00 2.000D+00 4.000D+00
 DE= 0.000D+00 1.000D-11 5.457D-12 7.140D-11
 QCLLim is confused:  Bigger=T Turned=T
 NLin=  5 IMin12=  1  3 I12=  0  2 IX=  1 XLMin= 0.000D+00 XLMax= 0.000D+00
 X = 0.000D+00 1.000D+00 2.000D+00 4.000D+00 8.000D+00
 DE= 0.000D+00 1.000D-11 5.457D-12 7.140D-11 3.693D-10
 QCLLim is confused:  Bigger=T Turned=T
 NLin=  6 IMin12=  1  3 I12=  0  2 IX=  1 XLMin= 0.000D+00 XLMax= 0.000D+00
 X = 0.000D+00 1.000D+00 2.000D+00 4.000D+00 8.000D+00 1.600D+01
 DE= 0.000D+00 1.000D-11 5.457D-12 7.140D-11 3.693D-10 1.738D-09
 QCLLim is confused:  Bigger=T Turned=T
 NLin=  7 IMin12=  1  3 I12=  0  2 IX=  1 XLMin= 0.000D+00 XLMax= 0.000D+00
 X = 0.000D+00 1.000D+00 2.000D+00 4.000D+00 8.000D+00 1.600D+01 3.200D+01
 DE= 0.000D+00 1.000D-11 5.457D-12 7.140D-11 3.693D-10 1.738D-09 7.507D-09
 Restarting incremental Fock formation.
 Search did not lower the energy significantly.
 No lower point found -- using Newton-Raphson step.
 SCF Done:  E(RB3LYP) =  -1151.72222983     a.u. after    8 cycles
            Convg  =    0.2739D-09                    53 Fock formations.
              S**2 =  0.0000                  -V/T =  2.0077
 DoSCS=F DFT=T ScalE2(SS,OS)=  1.000000  1.000000
 Range of M.O.s used for correlation:     1   370
 NBasis=   370 NAE=    83 NBE=    83 NFC=     0 NFV=     0
 NROrb=    370 NOA=    83 NOB=    83 NVA=   287 NVB=   287
 Symmetrizing basis deriv contribution to polar:
 IMax=3 JMax=2 DiffMx= 0.00D+00
 G2DrvN: will do    54 centers at a time, making    1 passes.
 Calling FoFCou, ICntrl=  3107 FMM=F I1Cent=   0 AccDes= 0.00D+00.
 End of G2Drv F.D. properties file   721 does not exist.
 End of G2Drv F.D. properties file   722 does not exist.
 End of G2Drv F.D. properties file   788 does not exist.
          IDoAtm=11111111111111111111111111111111111111111111111111
          IDoAtm=111
          Differentiating once with respect to electric field.
                with respect to dipole field.
          Differentiating once with respect to nuclear coordinates.
 CalDSu exits because no D1Ps are significant.
          There are   162 degrees of freedom in the 1st order CPHF.  IDoFFX=6 NUNeed=     3.
    159 vectors produced by pass  0 Test12= 2.38D-14 1.00D-09 XBig12= 1.47D+02 2.03D+00.
 AX will form   159 AO Fock derivatives at one time.
    159 vectors produced by pass  1 Test12= 2.38D-14 1.00D-09 XBig12= 1.01D+01 2.71D-01.
    159 vectors produced by pass  2 Test12= 2.38D-14 1.00D-09 XBig12= 1.03D-01 4.74D-02.
    159 vectors produced by pass  3 Test12= 2.38D-14 1.00D-09 XBig12= 2.26D-04 1.73D-03.
    159 vectors produced by pass  4 Test12= 2.38D-14 1.00D-09 XBig12= 2.19D-07 3.66D-05.
     72 vectors produced by pass  5 Test12= 2.38D-14 1.00D-09 XBig12= 1.55D-10 8.67D-07.
      3 vectors produced by pass  6 Test12= 2.38D-14 1.00D-09 XBig12= 1.04D-13 2.58D-08.
 InvSVY:  IOpt=1 It=  1 EMax= 1.24D-14
 Solved reduced A of dimension   870 with   162 vectors.
 Isotropic polarizability for W=    0.000000      202.37 Bohr**3.
 End of Minotr F.D. properties file   721 does not exist.
 End of Minotr F.D. properties file   722 does not exist.
 End of Minotr F.D. properties file   788 does not exist.

 **********************************************************************

            Population analysis using the SCF density.

 **********************************************************************

 Orbital symmetries:
       Occupied  (A) (A) (A) (A) (A) (A) (A) (A) (A) (A) (A) (A)
                 (A) (A) (A) (A) (A) (A) (A) (A) (A) (A) (A) (A)
                 (A) (A) (A) (A) (A) (A) (A) (A) (A) (A) (A) (A)
                 (A) (A) (A) (A) (A) (A) (A) (A) (A) (A) (A) (A)
                 (A) (A) (A) (A) (A) (A) (A) (A) (A) (A) (A) (A)
                 (A) (A) (A) (A) (A) (A) (A) (A) (A) (A) (A) (A)
                 (A) (A) (A) (A) (A) (A) (A) (A) (A) (A) (A)
       Virtual   (A) (A) (A) (A) (A) (A) (A) (A) (A) (A) (A) (A)
                 (A) (A) (A) (A) (A) (A) (A) (A) (A) (A) (A) (A)
                 (A) (A) (A) (A) (A) (A) (A) (A) (A) (A) (A) (A)
                 (A) (A) (A) (A) (A) (A) (A) (A) (A) (A) (A) (A)
                 (A) (A) (A) (A) (A) (A) (A) (A) (A) (A) (A) (A)
                 (A) (A) (A) (A) (A) (A) (A) (A) (A) (A) (A) (A)
                 (A) (A) (A) (A) (A) (A) (A) (A) (A) (A) (A) (A)
                 (A) (A) (A) (A) (A) (A) (A) (A) (A) (A) (A) (A)
                 (A) (A) (A) (A) (A) (A) (A) (A) (A) (A) (A) (A)
                 (A) (A) (A) (A) (A) (A) (A) (A) (A) (A) (A) (A)
                 (A) (A) (A) (A) (A) (A) (A) (A) (A) (A) (A) (A)
                 (A) (A) (A) (A) (A) (A) (A) (A) (A) (A) (A) (A)
                 (A) (A) (A) (A) (A) (A) (A) (A) (A) (A) (A) (A)
                 (A) (A) (A) (A) (A) (A) (A) (A) (A) (A) (A) (A)
                 (A) (A) (A) (A) (A) (A) (A) (A) (A) (A) (A) (A)
                 (A) (A) (A) (A) (A) (A) (A) (A) (A) (A) (A) (A)
                 (A) (A) (A) (A) (A) (A) (A) (A) (A) (A) (A) (A)
                 (A) (A) (A) (A) (A) (A) (A) (A) (A) (A) (A) (A)
                 (A) (A) (A) (A) (A) (A) (A) (A) (A) (A) (A) (A)
                 (A) (A) (A) (A) (A) (A) (A) (A) (A) (A) (A) (A)
                 (A) (A) (A) (A) (A) (A) (A) (A) (A) (A) (A) (A)
                 (A) (A) (A) (A) (A) (A) (A) (A) (A) (A) (A) (A)
                 (A) (A) (A) (A) (A) (A) (A) (A) (A) (A) (A) (A)
                 (A) (A) (A) (A) (A) (A) (A) (A) (A) (A) (A)
 The electronic state is 1-A.
 Alpha  occ. eigenvalues --  -77.09173 -14.31673 -14.31462 -14.31435 -14.30938
 Alpha  occ. eigenvalues --  -10.22021 -10.21511 -10.21216 -10.20323 -10.20253
 Alpha  occ. eigenvalues --  -10.20246 -10.20115 -10.20023 -10.19910 -10.17429
 Alpha  occ. eigenvalues --  -10.17279 -10.16489 -10.16440 -10.16379 -10.15866
 Alpha  occ. eigenvalues --   -6.55254  -4.71595  -4.71577  -4.70921  -0.93186
 Alpha  occ. eigenvalues --   -0.89882  -0.88998  -0.88604  -0.77344  -0.76731
 Alpha  occ. eigenvalues --   -0.76482  -0.72698  -0.72057  -0.71237  -0.68247
 Alpha  occ. eigenvalues --   -0.67810  -0.66999  -0.62100  -0.61942  -0.60839
 Alpha  occ. eigenvalues --   -0.57061  -0.56489  -0.55919  -0.51454  -0.49043
 Alpha  occ. eigenvalues --   -0.48419  -0.47603  -0.46629  -0.46053  -0.45793
 Alpha  occ. eigenvalues --   -0.44869  -0.44385  -0.44152  -0.42825  -0.42680
 Alpha  occ. eigenvalues --   -0.41875  -0.40358  -0.39820  -0.39212  -0.38949
 Alpha  occ. eigenvalues --   -0.38550  -0.38130  -0.37676  -0.37330  -0.37250
 Alpha  occ. eigenvalues --   -0.36470  -0.36411  -0.35738  -0.34884  -0.34259
 Alpha  occ. eigenvalues --   -0.34150  -0.33547  -0.33421  -0.33198  -0.32441
 Alpha  occ. eigenvalues --   -0.31980  -0.31723  -0.31131  -0.24070  -0.22710
 Alpha  occ. eigenvalues --   -0.20886  -0.19281  -0.14545
 Alpha virt. eigenvalues --    0.06592   0.07418   0.08685   0.09094   0.09758
 Alpha virt. eigenvalues --    0.10134   0.10848   0.11506   0.12026   0.13102
 Alpha virt. eigenvalues --    0.13730   0.13858   0.14206   0.14462   0.14686
 Alpha virt. eigenvalues --    0.15099   0.15399   0.15980   0.16692   0.16904
 Alpha virt. eigenvalues --    0.17458   0.17665   0.18026   0.18311   0.19248
 Alpha virt. eigenvalues --    0.19688   0.19940   0.20046   0.20324   0.20713
 Alpha virt. eigenvalues --    0.21222   0.21599   0.21696   0.22316   0.22744
 Alpha virt. eigenvalues --    0.23077   0.24055   0.24316   0.24887   0.24998
 Alpha virt. eigenvalues --    0.25310   0.25997   0.26662   0.27000   0.28035
 Alpha virt. eigenvalues --    0.28596   0.29005   0.29457   0.30552   0.31121
 Alpha virt. eigenvalues --    0.31573   0.33689   0.35957   0.36882   0.39788
 Alpha virt. eigenvalues --    0.44122   0.47159   0.47573   0.49500   0.51107
 Alpha virt. eigenvalues --    0.51409   0.51993   0.52397   0.53237   0.54048
 Alpha virt. eigenvalues --    0.55278   0.55693   0.56146   0.57262   0.58077
 Alpha virt. eigenvalues --    0.58843   0.59783   0.60378   0.61358   0.62203
 Alpha virt. eigenvalues --    0.64032   0.64448   0.64745   0.65547   0.65966
 Alpha virt. eigenvalues --    0.67054   0.68078   0.68975   0.69987   0.70206
 Alpha virt. eigenvalues --    0.71289   0.71898   0.72513   0.73346   0.75468
 Alpha virt. eigenvalues --    0.76296   0.76672   0.76797   0.79060   0.80665
 Alpha virt. eigenvalues --    0.80903   0.81741   0.81787   0.82893   0.83854
 Alpha virt. eigenvalues --    0.84080   0.84701   0.85596   0.86178   0.87038
 Alpha virt. eigenvalues --    0.87265   0.87695   0.88416   0.89409   0.89917
 Alpha virt. eigenvalues --    0.89934   0.90638   0.91101   0.91396   0.91659
 Alpha virt. eigenvalues --    0.92063   0.92278   0.92527   0.93059   0.93984
 Alpha virt. eigenvalues --    0.94340   0.94913   0.95637   0.96091   0.96634
 Alpha virt. eigenvalues --    0.97764   0.98022   0.98455   0.99632   1.00364
 Alpha virt. eigenvalues --    1.00681   1.02229   1.03000   1.03126   1.03790
 Alpha virt. eigenvalues --    1.04568   1.05321   1.06089   1.06919   1.08249
 Alpha virt. eigenvalues --    1.09748   1.10900   1.12226   1.12764   1.13520
 Alpha virt. eigenvalues --    1.15224   1.16758   1.17448   1.19040   1.20114
 Alpha virt. eigenvalues --    1.22267   1.22838   1.26993   1.28733   1.30690
 Alpha virt. eigenvalues --    1.33368   1.34377   1.35780   1.38990   1.39593
 Alpha virt. eigenvalues --    1.41711   1.42394   1.43880   1.47432   1.48430
 Alpha virt. eigenvalues --    1.49455   1.50364   1.55087   1.58211   1.58992
 Alpha virt. eigenvalues --    1.60062   1.61579   1.62114   1.64158   1.65836
 Alpha virt. eigenvalues --    1.66872   1.69148   1.70603   1.72797   1.74169
 Alpha virt. eigenvalues --    1.76122   1.76853   1.77655   1.78866   1.79528
 Alpha virt. eigenvalues --    1.80449   1.81133   1.82503   1.83867   1.84862
 Alpha virt. eigenvalues --    1.87292   1.88985   1.90567   1.91363   1.93344
 Alpha virt. eigenvalues --    1.93901   1.94740   1.97879   1.98361   2.00483
 Alpha virt. eigenvalues --    2.01007   2.01946   2.02240   2.03200   2.03866
 Alpha virt. eigenvalues --    2.05136   2.05210   2.06405   2.07666   2.09381
 Alpha virt. eigenvalues --    2.10700   2.12454   2.12680   2.13829   2.13969
 Alpha virt. eigenvalues --    2.14608   2.16900   2.17859   2.18287   2.20288
 Alpha virt. eigenvalues --    2.21760   2.23753   2.25925   2.26558   2.27144
 Alpha virt. eigenvalues --    2.27490   2.28405   2.29071   2.29187   2.29970
 Alpha virt. eigenvalues --    2.31599   2.32048   2.32861   2.33873   2.35728
 Alpha virt. eigenvalues --    2.37130   2.38695   2.40132   2.41113   2.42121
 Alpha virt. eigenvalues --    2.43845   2.47361   2.48757   2.49569   2.50425
 Alpha virt. eigenvalues --    2.50841   2.54417   2.55667   2.57540   2.58365
 Alpha virt. eigenvalues --    2.59868   2.60838   2.64206   2.67088   2.68066
 Alpha virt. eigenvalues --    2.69714   2.72251   2.74418   2.76975   2.80553
 Alpha virt. eigenvalues --    2.81675   2.83761   2.84893   2.86645   2.88643
 Alpha virt. eigenvalues --    2.91880   2.96774   3.65720   4.00122   4.04752
 Alpha virt. eigenvalues --    4.07026   4.18346   4.21486   4.23324   4.26021
 Alpha virt. eigenvalues --    4.27714   4.30752   4.32384   4.33906   4.36263
 Alpha virt. eigenvalues --    4.40479   4.49857   4.54718   4.56974   4.60159
 Alpha virt. eigenvalues --    4.62463   4.64517
          Condensed to atoms (all electrons):
 Mulliken charges:
               1
     1  N   -0.551945
     2  C   -0.124713
     3  C   -0.154113
     4  N   -0.381195
     5  C   -0.149534
     6  C   -0.159069
     7  N   -0.548253
     8  P    0.715090
     9  N   -0.542868
    10  C   -0.146852
    11  C   -0.155638
    12  C    0.085066
    13  C   -0.451245
    14  C   -0.471807
    15  C    0.076015
    16  C   -0.453056
    17  C   -0.484216
    18  C    0.086448
    19  C   -0.474647
    20  C   -0.454833
    21  H    0.133840
    22  H    0.126824
    23  H    0.140152
    24  H    0.131876
    25  H    0.138045
    26  H    0.133313
    27  H    0.135488
    28  H    0.141053
    29  H    0.146800
    30  H    0.131334
    31  H    0.156234
    32  H    0.133419
    33  H    0.127508
    34  H    0.138605
    35  H    0.178427
    36  H    0.133786
    37  H    0.151366
    38  H    0.142106
    39  H    0.154937
    40  H    0.131295
    41  H    0.159673
    42  H    0.140925
    43  H    0.141595
    44  H    0.171295
    45  H    0.133045
    46  H    0.169565
    47  H    0.118204
    48  H    0.167719
    49  H    0.172891
    50  H    0.126511
    51  H    0.150759
    52  H    0.138446
    53  H    0.144328
 Sum of Mulliken charges =   0.00000
 Mulliken charges with hydrogens summed into heavy atoms:
               1
     1  N   -0.551945
     2  C    0.135952
     3  C    0.117915
     4  N   -0.381195
     5  C    0.121824
     6  C    0.117472
     7  N   -0.548253
     8  P    0.715090
     9  N   -0.542868
    10  C    0.131282
    11  C    0.134015
    12  C    0.212574
    13  C   -0.000427
    14  C   -0.023398
    15  C    0.207310
    16  C   -0.010862
    17  C   -0.010311
    18  C    0.204652
    19  C   -0.007525
    20  C   -0.021300
 APT charges:
               1
     1  N   -0.879478
     2  C    0.272438
     3  C    0.357305
     4  N   -0.592218
     5  C    0.312550
     6  C    0.267343
     7  N   -0.894844
     8  P    1.260372
     9  N   -0.830765
    10  C    0.232210
    11  C    0.366168
    12  C    0.459383
    13  C    0.012954
    14  C    0.034913
    15  C    0.488422
    16  C   -0.015728
    17  C    0.023527
    18  C    0.475380
    19  C    0.031204
    20  C    0.004622
    21  H   -0.069433
    22  H   -0.093794
    23  H   -0.002221
    24  H   -0.102631
    25  H   -0.052644
    26  H   -0.054771
    27  H   -0.056186
    28  H   -0.063475
    29  H   -0.057529
    30  H   -0.079353
    31  H   -0.018691
    32  H   -0.096455
    33  H   -0.111205
    34  H   -0.020782
    35  H    0.022026
    36  H   -0.043403
    37  H   -0.020169
    38  H   -0.031777
    39  H    0.002385
    40  H   -0.112909
    41  H   -0.003108
    42  H   -0.019646
    43  H   -0.036414
    44  H    0.006731
    45  H   -0.040766
    46  H    0.003542
    47  H   -0.122868
    48  H    0.006552
    49  H    0.000482
    50  H   -0.055061
    51  H   -0.014834
    52  H   -0.037621
    53  H   -0.009730
 Sum of APT charges =   0.00000
 APT charges with hydrogens summed into heavy atoms:
               1
     1  N   -0.879478
     2  C    0.109211
     3  C    0.252453
     4  N   -0.592218
     5  C    0.205135
     6  C    0.147682
     7  N   -0.894844
     8  P    1.260372
     9  N   -0.830765
    10  C    0.095328
    11  C    0.251022
    12  C    0.348178
    13  C   -0.029205
    14  C   -0.014648
    15  C    0.375513
    16  C   -0.074897
    17  C   -0.006966
    18  C    0.352512
    19  C   -0.016823
    20  C   -0.057562
 Electronic spatial extent (au):  <R**2>=           5549.5590
 Charge=              0.0000 electrons
 Dipole moment (field-independent basis, Debye):
    X=             -0.1265    Y=             -0.9630    Z=              0.1944  Tot=              0.9906
 Quadrupole moment (field-independent basis, Debye-Ang):
   XX=           -127.9398   YY=           -133.8616   ZZ=           -134.9116
   XY=             -1.2964   XZ=              1.4758   YZ=              4.4033
 Traceless Quadrupole moment (field-independent basis, Debye-Ang):
   XX=              4.2979   YY=             -1.6239   ZZ=             -2.6739
   XY=             -1.2964   XZ=              1.4758   YZ=              4.4033
 Octapole moment (field-independent basis, Debye-Ang**2):
  XXX=              5.2526  YYY=             -2.1707  ZZZ=              2.1058  XYY=              1.3810
  XXY=             -6.9243  XXZ=             -6.1048  XZZ=             -0.5208  YZZ=              2.6978
  YYZ=             -7.9948  XYZ=             -3.5271
 Hexadecapole moment (field-independent basis, Debye-Ang**3):
 XXXX=          -3431.8241 YYYY=          -2645.7350 ZZZZ=          -1492.6754 XXXY=              8.3047
 XXXZ=             -0.8579 YYYX=             -5.4943 YYYZ=             42.4769 ZZZX=             12.5852
 ZZZY=              9.8656 XXYY=          -1030.8064 XXZZ=           -800.6694 YYZZ=           -708.9004
 XXYZ=             -0.2470 YYXZ=             14.3195 ZZXY=             -2.4593
 N-N= 2.100614131106D+03 E-N=-6.890706436276D+03  KE= 1.142887882731D+03
  Exact polarizability: 219.716  -1.593 205.067   0.962   3.003 182.337
 Approx polarizability: 295.472  -2.589 284.307   3.309   9.521 278.410
 Calling FoFJK, ICntrl=    100127 FMM=F ISym2X=0 I1Cent= 0 IOpClX= 0 NMat=1 NMatS=1 NMatT=0.
 ***** Axes restored to original set *****
 -------------------------------------------------------------------
 Center     Atomic                   Forces (Hartrees/Bohr)
 Number     Number              X              Y              Z
 -------------------------------------------------------------------
      1        7           0.000775634   -0.014636609   -0.022064440
      2        6          -0.006462148   -0.007552738   -0.001590027
      3        6          -0.000303865   -0.002388973   -0.009896550
      4        7          -0.005963367    0.024473225    0.007109706
      5        6           0.004524825   -0.007256186   -0.009656400
      6        6           0.007432853   -0.001632017    0.007459977
      7        7           0.036454855   -0.009129145   -0.046716284
      8       15          -0.036517699    0.053614076    0.059524008
      9        7           0.020432953   -0.037229296   -0.010049585
     10        6          -0.003267204   -0.017652406   -0.003433899
     11        6           0.008841354   -0.005731678    0.001557288
     12        6           0.011970598    0.027879918    0.001684471
     13        6          -0.004027744    0.000976699   -0.000748642
     14        6           0.003953223    0.001094046    0.015111636
     15        6          -0.019553786    0.012713155    0.005199987
     16        6           0.002187519   -0.002631252   -0.001763319
     17        6          -0.000319808    0.005911008    0.003506191
     18        6          -0.005405710    0.008314251    0.004865995
     19        6           0.000809528    0.001359978    0.002504973
     20        6          -0.004896208   -0.001538647   -0.001885621
     21        1          -0.000948516   -0.001979032   -0.003309866
     22        1          -0.006088532   -0.005073179    0.004217939
     23        1           0.007734829   -0.009793695    0.009947901
     24        1          -0.010016785   -0.000785326   -0.000575569
     25        1          -0.003724456   -0.003239810   -0.000148164
     26        1          -0.000329765   -0.001004307    0.002057605
     27        1          -0.005286345    0.006048576   -0.001573709
     28        1          -0.002113683   -0.002004478    0.006312665
     29        1          -0.001750650    0.000434807   -0.008431847
     30        1           0.000655028   -0.001416052   -0.007087637
     31        1          -0.002165985    0.006699975   -0.005187475
     32        1           0.004528913   -0.001910907    0.006545397
     33        1           0.001161763    0.004021163   -0.003629603
     34        1          -0.001605080   -0.002122784   -0.000323433
     35        1          -0.000149523   -0.002111341   -0.001793579
     36        1           0.001482162   -0.002820202   -0.000744962
     37        1           0.000242530   -0.002327270    0.001470997
     38        1          -0.005427263    0.000294846   -0.003693806
     39        1           0.002704996   -0.000176946    0.007845727
     40        1           0.003067701    0.000255476    0.003380059
     41        1           0.000299468    0.006997276   -0.001491858
     42        1           0.002015060   -0.004748250   -0.001490531
     43        1           0.000641267    0.001864056    0.003564581
     44        1           0.001216585    0.000683990   -0.000040080
     45        1           0.002163405   -0.002177844   -0.001909865
     46        1           0.001835612   -0.002854986    0.002658230
     47        1           0.003586352   -0.005097194   -0.002763811
     48        1           0.001391861   -0.002643547   -0.001018835
     49        1          -0.002108275    0.001919013   -0.001267137
     50        1          -0.002686079   -0.004641833   -0.002815262
     51        1           0.002490117    0.000695832   -0.000145417
     52        1           0.000043886   -0.001158963    0.000770021
     53        1          -0.003526401    0.001215529   -0.000048146
 -------------------------------------------------------------------
 Cartesian Forces:  Max     0.059524008 RMS     0.010894119
 FormGI is forming the generalized inverse of G from B-inverse, IUseBI=4.

 GradGradGradGradGradGradGradGradGradGradGradGradGradGradGradGradGradGrad
 Berny optimization.
 Internal  Forces:  Max     0.056785432 RMS     0.008129777
 Search for a local minimum.
 Step number   1 out of a maximum of  316
 All quantities printed in internal units (Hartrees-Bohrs-Radians)
 Mixed Optimization -- RFO/linear search
 Second derivative matrix not updated -- analytic derivatives used.
 ITU=  0
     Eigenvalues ---   -0.00799  -0.00600  -0.00289  -0.00040   0.00139
     Eigenvalues ---    0.00252   0.00290   0.00347   0.00381   0.00511
     Eigenvalues ---    0.00587   0.00646   0.00785   0.00893   0.01071
     Eigenvalues ---    0.01263   0.01502   0.01880   0.02184   0.03254
     Eigenvalues ---    0.03354   0.03631   0.04165   0.04319   0.04372
     Eigenvalues ---    0.04448   0.04454   0.04511   0.04587   0.04598
     Eigenvalues ---    0.04619   0.04636   0.04648   0.04671   0.04748
     Eigenvalues ---    0.04758   0.04803   0.04881   0.04909   0.04956
     Eigenvalues ---    0.04995   0.05018   0.05074   0.05134   0.05193
     Eigenvalues ---    0.05248   0.05288   0.05433   0.05544   0.05616
     Eigenvalues ---    0.06125   0.06914   0.07628   0.08383   0.09041
     Eigenvalues ---    0.09163   0.09203   0.09665   0.09736   0.09970
     Eigenvalues ---    0.10196   0.11259   0.11654   0.11965   0.12109
     Eigenvalues ---    0.12227   0.12385   0.12443   0.12652   0.12685
     Eigenvalues ---    0.12836   0.12862   0.13179   0.13622   0.13734
     Eigenvalues ---    0.13980   0.14099   0.14265   0.14389   0.14451
     Eigenvalues ---    0.14750   0.14888   0.15255   0.15285   0.15410
     Eigenvalues ---    0.16893   0.17666   0.18304   0.18543   0.19394
     Eigenvalues ---    0.19558   0.19761   0.20314   0.20737   0.21231
     Eigenvalues ---    0.21798   0.23905   0.24654   0.25727   0.26038
     Eigenvalues ---    0.26255   0.26718   0.26844   0.27638   0.27921
     Eigenvalues ---    0.28320   0.28891   0.29330   0.29669   0.29809
     Eigenvalues ---    0.30462   0.30653   0.31137   0.31342   0.31900
     Eigenvalues ---    0.31948   0.32013   0.32195   0.32206   0.32445
     Eigenvalues ---    0.32640   0.32682   0.33070   0.33210   0.33353
     Eigenvalues ---    0.33414   0.33478   0.33569   0.33756   0.33822
     Eigenvalues ---    0.33872   0.33977   0.34038   0.34247   0.34270
     Eigenvalues ---    0.34366   0.34371   0.34519   0.34624   0.34645
     Eigenvalues ---    0.34879   0.34976   0.34990   0.35155   0.35289
     Eigenvalues ---    0.35426   0.35522   0.37272   0.37700   0.42525
     Eigenvalues ---    0.57406   0.60197   0.92290
 RFO step:  Lambda=-5.54295134D-02 EMin=-7.99149982D-03
 Linear search not attempted -- first point.
 Maximum step size (   0.300) exceeded in Quadratic search.
    -- Step size scaled by   0.826
 Iteration  1 RMS(Cart)=  0.18020168 RMS(Int)=  0.01139724
 Iteration  2 RMS(Cart)=  0.03385956 RMS(Int)=  0.00075046
 Iteration  3 RMS(Cart)=  0.00102058 RMS(Int)=  0.00053593
 Iteration  4 RMS(Cart)=  0.00000132 RMS(Int)=  0.00053593
 Iteration  5 RMS(Cart)=  0.00000000 RMS(Int)=  0.00053593
 Variable       Old X    -DE/DX   Delta X   Delta X   Delta X     New X
                                 (Linear)    (Quad)   (Total)
    R1        2.76900   0.00449   0.00000   0.00054   0.00060   2.76960
    R2        3.16768   0.03754   0.00000   0.07251   0.07294   3.24063
    R3        2.79546   0.00815   0.00000   0.00923   0.00923   2.80469
    R4        2.92269   0.00114   0.00000  -0.00514  -0.00557   2.91712
    R5        2.07205   0.00185   0.00000   0.00343   0.00343   2.07548
    R6        2.06485   0.00775   0.00000   0.01644   0.01644   2.08129
    R7        2.75174   0.00353   0.00000   0.00236   0.00176   2.75350
    R8        2.07380  -0.01275   0.00000  -0.01252  -0.01252   2.06128
    R9        2.07752   0.00331   0.00000   0.00787   0.00787   2.08540
   R10        2.75970   0.00250   0.00000  -0.01410  -0.01435   2.74535
   R11        2.75441   0.00405   0.00000   0.00098   0.00060   2.75501
   R12        2.93404   0.01151   0.00000   0.01172   0.01155   2.94559
   R13        2.07733  -0.00074   0.00000  -0.00142  -0.00142   2.07591
   R14        2.07598   0.00064   0.00000   0.00122   0.00122   2.07720
   R15        2.77022  -0.00110   0.00000  -0.00682  -0.00682   2.76340
   R16        2.06952   0.00197   0.00000   0.00467   0.00467   2.07419
   R17        2.06697   0.00407   0.00000   0.00606   0.00606   2.07303
   R18        3.16895   0.03407   0.00000   0.06953   0.06976   3.23871
   R19        2.79986   0.00549   0.00000  -0.00512  -0.00512   2.79474
   R20        3.18837   0.02280   0.00000   0.06646   0.06711   3.25548
   R21        2.77739   0.01289   0.00000   0.00267   0.00312   2.78052
   R22        2.81261   0.02402   0.00000   0.00809   0.00809   2.82070
   R23        2.90619  -0.00653   0.00000  -0.00642  -0.00662   2.89957
   R24        2.07973  -0.00627   0.00000  -0.00784  -0.00784   2.07188
   R25        2.07381   0.00114   0.00000   0.01204   0.01204   2.08586
   R26        2.07185  -0.00139   0.00000  -0.00314  -0.00314   2.06871
   R27        2.07595   0.00361   0.00000   0.00831   0.00831   2.08426
   R28        2.89676  -0.00186   0.00000   0.00188   0.00188   2.89864
   R29        2.89466   0.00936   0.00000   0.00512   0.00512   2.89978
   R30        2.07774   0.00444   0.00000   0.01237   0.01237   2.09012
   R31        2.06694   0.00236   0.00000   0.00345   0.00345   2.07038
   R32        2.06681  -0.00082   0.00000  -0.00236  -0.00236   2.06445
   R33        2.07500  -0.00092   0.00000  -0.00229  -0.00229   2.07272
   R34        2.06671   0.00225   0.00000   0.00711   0.00711   2.07381
   R35        2.08776  -0.00546   0.00000  -0.01309  -0.01309   2.07466
   R36        2.05947  -0.00341   0.00000   0.00190   0.00190   2.06136
   R37        2.91454   0.00018   0.00000  -0.00631  -0.00631   2.90823
   R38        2.91554  -0.00246   0.00000  -0.00452  -0.00452   2.91103
   R39        2.07578   0.00223   0.00000   0.00400   0.00400   2.07978
   R40        2.06957  -0.00527   0.00000  -0.00014  -0.00014   2.06943
   R41        2.06231   0.00362   0.00000   0.00670   0.00670   2.06901
   R42        2.07360  -0.00073   0.00000  -0.00053  -0.00053   2.07307
   R43        2.06758  -0.00136   0.00000   0.00081   0.00081   2.06839
   R44        2.07457  -0.00095   0.00000  -0.00225  -0.00225   2.07233
   R45        2.06419   0.00129   0.00000   0.00151   0.00151   2.06571
   R46        2.91183  -0.00434   0.00000  -0.00791  -0.00791   2.90392
   R47        2.89936   0.00495   0.00000   0.01068   0.01068   2.91004
   R48        2.07868   0.00320   0.00000   0.00686   0.00686   2.08554
   R49        2.07005  -0.00215   0.00000  -0.00302  -0.00302   2.06703
   R50        2.06739  -0.00292   0.00000  -0.00125  -0.00125   2.06614
   R51        2.07192   0.00137   0.00000   0.00083   0.00083   2.07275
   R52        2.06864   0.00087   0.00000   0.00318   0.00318   2.07182
   R53        2.07072   0.00047   0.00000   0.00090   0.00090   2.07162
   R54        2.06613  -0.00050   0.00000  -0.00104  -0.00104   2.06509
    A1        2.21565   0.00866   0.00000   0.05126   0.05178   2.26743
    A2        1.98827  -0.02036   0.00000  -0.04562  -0.04604   1.94223
    A3        2.07914   0.01164   0.00000  -0.00610  -0.00657   2.07256
    A4        2.15935  -0.00535   0.00000  -0.01590  -0.01612   2.14322
    A5        1.89101   0.00364   0.00000   0.01426   0.01438   1.90539
    A6        1.89394  -0.00137   0.00000  -0.01016  -0.01005   1.88390
    A7        1.81788   0.00012   0.00000  -0.00332  -0.00343   1.81445
    A8        1.83682   0.00484   0.00000   0.02273   0.02301   1.85983
    A9        1.84133  -0.00153   0.00000  -0.00696  -0.00696   1.83437
   A10        2.11965   0.00628   0.00000   0.00472   0.00436   2.12402
   A11        1.89590   0.00448   0.00000   0.02238   0.02234   1.91825
   A12        1.84242  -0.00881   0.00000  -0.03320  -0.03292   1.80950
   A13        1.93642  -0.01036   0.00000  -0.03592  -0.03574   1.90068
   A14        1.83548   0.00607   0.00000   0.03182   0.03209   1.86757
   A15        1.80436   0.00194   0.00000   0.01229   0.01268   1.81704
   A16        1.98471   0.00876   0.00000   0.02255   0.02238   2.00709
   A17        2.02599   0.00413   0.00000   0.02197   0.02220   2.04819
   A18        2.05518  -0.00945   0.00000  -0.01575  -0.01694   2.03824
   A19        2.11433   0.00252   0.00000  -0.01590  -0.01675   2.09758
   A20        1.86861  -0.00088   0.00000   0.00154   0.00185   1.87046
   A21        1.89723  -0.00459   0.00000  -0.00713  -0.00712   1.89011
   A22        1.86857   0.00242   0.00000   0.02244   0.02288   1.89145
   A23        1.88129  -0.00074   0.00000  -0.00609  -0.00632   1.87498
   A24        1.81068   0.00133   0.00000   0.00975   0.00967   1.82035
   A25        2.07561   0.00285   0.00000   0.01607   0.01611   2.09172
   A26        1.83890   0.00762   0.00000   0.02064   0.02089   1.85979
   A27        1.89997  -0.00423   0.00000  -0.00747  -0.00753   1.89244
   A28        1.93905  -0.01013   0.00000  -0.04111  -0.04113   1.89792
   A29        1.90450   0.00127   0.00000  -0.00769  -0.00774   1.89676
   A30        1.78261   0.00271   0.00000   0.02139   0.02120   1.80381
   A31        2.10111  -0.00203   0.00000   0.03358   0.03355   2.13466
   A32        1.98029   0.01131   0.00000   0.03033   0.03015   2.01044
   A33        2.19290  -0.00843   0.00000  -0.05918  -0.05959   2.13331
   A34        1.89501   0.00025   0.00000  -0.01268  -0.01519   1.87982
   A35        1.88637  -0.00014   0.00000  -0.01672  -0.01887   1.86750
   A36        1.97139  -0.01557   0.00000  -0.07693  -0.07757   1.89382
   A37        2.15489   0.00518   0.00000   0.05034   0.04993   2.20481
   A38        2.14700  -0.05679   0.00000  -0.12252  -0.12241   2.02458
   A39        1.89367   0.05225   0.00000   0.04094   0.03917   1.93284
   A40        2.10114  -0.00279   0.00000  -0.01704  -0.01642   2.08472
   A41        1.87080   0.00221   0.00000   0.00558   0.00501   1.87581
   A42        1.92079   0.00711   0.00000   0.01069   0.01073   1.93152
   A43        1.81621  -0.00080   0.00000  -0.00575  -0.00571   1.81049
   A44        1.90442  -0.00713   0.00000   0.00417   0.00378   1.90820
   A45        1.82843   0.00188   0.00000   0.00404   0.00407   1.83250
   A46        2.07205   0.00349   0.00000   0.01598   0.01500   2.08705
   A47        1.96741  -0.00560   0.00000  -0.03481  -0.03411   1.93330
   A48        1.84165   0.00357   0.00000   0.02750   0.02766   1.86931
   A49        1.90951   0.00277   0.00000   0.00325   0.00335   1.91286
   A50        1.84587  -0.00737   0.00000  -0.02643  -0.02617   1.81970
   A51        1.80129   0.00298   0.00000   0.01698   0.01710   1.81840
   A52        2.02626  -0.02128   0.00000  -0.03809  -0.03904   1.98722
   A53        1.97771   0.03682   0.00000   0.00259   0.00012   1.97783
   A54        1.88282  -0.00356   0.00000   0.02085   0.02081   1.90364
   A55        1.94629  -0.01831   0.00000  -0.03581  -0.03686   1.90943
   A56        1.81468   0.00969   0.00000   0.02369   0.02466   1.83934
   A57        1.79096  -0.00291   0.00000   0.04377   0.04393   1.83490
   A58        1.96339  -0.00085   0.00000  -0.01917  -0.01928   1.94412
   A59        1.94193  -0.00158   0.00000   0.00437   0.00433   1.94626
   A60        1.91669  -0.00231   0.00000  -0.00617  -0.00626   1.91043
   A61        1.90038   0.00060   0.00000  -0.00275  -0.00280   1.89758
   A62        1.88258   0.00129   0.00000   0.00338   0.00323   1.88581
   A63        1.85476   0.00318   0.00000   0.02273   0.02271   1.87747
   A64        1.95882   0.00166   0.00000  -0.01775  -0.01779   1.94104
   A65        1.91150  -0.00760   0.00000  -0.01600  -0.01607   1.89544
   A66        1.94489   0.01018   0.00000   0.03009   0.03020   1.97509
   A67        1.87029   0.00074   0.00000   0.01064   0.01041   1.88070
   A68        1.90582  -0.00347   0.00000  -0.00608  -0.00596   1.89985
   A69        1.86888  -0.00207   0.00000  -0.00093  -0.00083   1.86805
   A70        2.06230   0.00643   0.00000  -0.02309  -0.02306   2.03924
   A71        1.95875  -0.00260   0.00000  -0.00088  -0.00073   1.95802
   A72        1.87278  -0.00493   0.00000  -0.01475  -0.01469   1.85809
   A73        1.85627   0.00170   0.00000   0.02673   0.02667   1.88294
   A74        1.83481  -0.00110   0.00000   0.02388   0.02377   1.85858
   A75        1.86659   0.00008   0.00000  -0.01031  -0.01076   1.85583
   A76        1.95633   0.00259   0.00000  -0.01460  -0.01467   1.94165
   A77        1.94972   0.00292   0.00000   0.00874   0.00877   1.95849
   A78        1.92866  -0.00683   0.00000  -0.01314  -0.01321   1.91545
   A79        1.90817  -0.00155   0.00000   0.00114   0.00116   1.90933
   A80        1.86819   0.00030   0.00000   0.00701   0.00684   1.87503
   A81        1.84791   0.00244   0.00000   0.01234   0.01238   1.86029
   A82        1.94434   0.00048   0.00000   0.00214   0.00212   1.94646
   A83        1.92378  -0.00351   0.00000  -0.01368  -0.01371   1.91007
   A84        1.97326  -0.00303   0.00000  -0.01460  -0.01463   1.95864
   A85        1.88088   0.00136   0.00000   0.00317   0.00317   1.88404
   A86        1.88818   0.00077   0.00000   0.00182   0.00180   1.88999
   A87        1.84872   0.00435   0.00000   0.02302   0.02298   1.87170
   A88        1.98684   0.00681   0.00000   0.01332   0.01334   2.00018
   A89        1.94899   0.00368   0.00000   0.01609   0.01611   1.96510
   A90        1.91505  -0.00596   0.00000  -0.03165  -0.03163   1.88343
   A91        1.90818  -0.00782   0.00000  -0.01408  -0.01419   1.89399
   A92        1.83891   0.00118   0.00000   0.00517   0.00525   1.84416
   A93        1.85840   0.00162   0.00000   0.01013   0.01023   1.86864
   A94        1.96680  -0.00100   0.00000  -0.00592  -0.00597   1.96083
   A95        1.93890   0.00303   0.00000   0.01134   0.01139   1.95028
   A96        1.92988  -0.00814   0.00000  -0.02659  -0.02661   1.90327
   A97        1.89100  -0.00050   0.00000  -0.00229  -0.00228   1.88873
   A98        1.85810   0.00485   0.00000   0.01694   0.01683   1.87493
   A99        1.87505   0.00207   0.00000   0.00764   0.00772   1.88276
   A100       1.96111  -0.00351   0.00000  -0.01975  -0.01973   1.94138
   A101       1.92500  -0.00192   0.00000  -0.00578  -0.00583   1.91917
   A102       1.93946   0.00572   0.00000   0.02391   0.02397   1.96343
   A103       1.86683   0.00235   0.00000   0.01127   0.01118   1.87801
   A104       1.89188  -0.00084   0.00000  -0.00420  -0.00408   1.88780
   A105       1.87610  -0.00187   0.00000  -0.00541  -0.00542   1.87068
    D1        0.11395  -0.00118   0.00000  -0.02492  -0.02551   0.08844
    D2       -2.01680  -0.00065   0.00000  -0.02144  -0.02166  -2.03847
    D3        2.27534  -0.00002   0.00000  -0.01541  -0.01564   2.25970
    D4       -3.00979   0.00280   0.00000   0.00569   0.00531  -3.00448
    D5        1.14264   0.00334   0.00000   0.00918   0.00916   1.15180
    D6       -0.84840   0.00396   0.00000   0.01521   0.01518  -0.83322
    D7        0.61971  -0.00308   0.00000  -0.03169  -0.03164   0.58806
    D8       -1.52449   0.01580   0.00000   0.07978   0.07942  -1.44507
    D9       -2.54056  -0.00753   0.00000  -0.06404  -0.06469  -2.60526
   D10        1.59842   0.01134   0.00000   0.04743   0.04637   1.64479
   D11       -3.12927  -0.00110   0.00000  -0.09314  -0.09271   3.06121
   D12       -0.95810  -0.00331   0.00000  -0.08865  -0.08797  -1.04607
   D13        1.09826  -0.00284   0.00000  -0.08640  -0.08590   1.01235
   D14        0.02865   0.00254   0.00000  -0.06582  -0.06646  -0.03781
   D15        2.19982   0.00033   0.00000  -0.06133  -0.06173   2.13810
   D16       -2.02701   0.00080   0.00000  -0.05908  -0.05966  -2.08666
   D17        0.75091  -0.00314   0.00000   0.00884   0.00871   0.75962
   D18       -1.52534   0.00164   0.00000   0.03439   0.03446  -1.49088
   D19        2.83224   0.00163   0.00000   0.02634   0.02642   2.85865
   D20        2.91448  -0.00190   0.00000   0.01386   0.01364   2.92812
   D21        0.63823   0.00289   0.00000   0.03942   0.03939   0.67762
   D22       -1.28739   0.00288   0.00000   0.03136   0.03135  -1.25604
   D23       -1.43565  -0.00174   0.00000   0.01338   0.01322  -1.42243
   D24        2.57129   0.00305   0.00000   0.03894   0.03897   2.61026
   D25        0.64567   0.00304   0.00000   0.03089   0.03093   0.67660
   D26       -2.00129   0.00030   0.00000  -0.02273  -0.02252  -2.02380
   D27        0.46625   0.00114   0.00000   0.00912   0.00963   0.47588
   D28        0.25754   0.00200   0.00000  -0.02330  -0.02325   0.23429
[...]
   172    C   12  S      Ryd( 3S)     0.00169
   173    C   12  S      Ryd( 4S)     0.00004
   174    C   12  px     Val( 2p)     0.95825
   175    C   12  px     Ryd( 3p)     0.00253
   176    C   12  py     Val( 2p)     1.09813
   177    C   12  py     Ryd( 3p)     0.00437
   178    C   12  pz     Val( 2p)     1.02008
   179    C   12  pz     Ryd( 3p)     0.00269
   180    C   12  dxy    Ryd( 3d)     0.00160
   181    C   12  dxz    Ryd( 3d)     0.00113
   182    C   12  dyz    Ryd( 3d)     0.00088
   183    C   12  dx2y2  Ryd( 3d)     0.00050
   184    C   12  dz2    Ryd( 3d)     0.00098
 
   185    C   13  S      Cor( 1S)     1.99940
   186    C   13  S      Val( 2S)     1.10978
   187    C   13  S      Ryd( 3S)     0.00067
   188    C   13  S      Ryd( 4S)     0.00002
   189    C   13  px     Val( 2p)     1.24452
   190    C   13  px     Ryd( 3p)     0.00148
   191    C   13  py     Val( 2p)     1.21193
   192    C   13  py     Ryd( 3p)     0.00170
   193    C   13  pz     Val( 2p)     1.12083
   194    C   13  pz     Ryd( 3p)     0.00170
   195    C   13  dxy    Ryd( 3d)     0.00091
   196    C   13  dxz    Ryd( 3d)     0.00064
   197    C   13  dyz    Ryd( 3d)     0.00073
   198    C   13  dx2y2  Ryd( 3d)     0.00045
   199    C   13  dz2    Ryd( 3d)     0.00057
 
   200    C   14  S      Cor( 1S)     1.99939
   201    C   14  S      Val( 2S)     1.10869
   202    C   14  S      Ryd( 3S)     0.00061
   203    C   14  S      Ryd( 4S)     0.00002
   204    C   14  px     Val( 2p)     1.20548
   205    C   14  px     Ryd( 3p)     0.00188
   206    C   14  py     Val( 2p)     1.18256
   207    C   14  py     Ryd( 3p)     0.00288
   208    C   14  pz     Val( 2p)     1.17774
   209    C   14  pz     Ryd( 3p)     0.00234
   210    C   14  dxy    Ryd( 3d)     0.00088
   211    C   14  dxz    Ryd( 3d)     0.00058
   212    C   14  dyz    Ryd( 3d)     0.00081
   213    C   14  dx2y2  Ryd( 3d)     0.00039
   214    C   14  dz2    Ryd( 3d)     0.00059
 
   215    C   15  S      Cor( 1S)     1.99922
   216    C   15  S      Val( 2S)     0.95634
   217    C   15  S      Ryd( 3S)     0.00187
   218    C   15  S      Ryd( 4S)     0.00004
   219    C   15  px     Val( 2p)     0.89151
   220    C   15  px     Ryd( 3p)     0.00247
   221    C   15  py     Val( 2p)     1.12123
   222    C   15  py     Ryd( 3p)     0.00569
   223    C   15  pz     Val( 2p)     1.07463
   224    C   15  pz     Ryd( 3p)     0.00248
   225    C   15  dxy    Ryd( 3d)     0.00057
   226    C   15  dxz    Ryd( 3d)     0.00118
   227    C   15  dyz    Ryd( 3d)     0.00122
   228    C   15  dx2y2  Ryd( 3d)     0.00126
   229    C   15  dz2    Ryd( 3d)     0.00075
 
   230    C   16  S      Cor( 1S)     1.99938
   231    C   16  S      Val( 2S)     1.11453
   232    C   16  S      Ryd( 3S)     0.00063
   233    C   16  S      Ryd( 4S)     0.00002
   234    C   16  px     Val( 2p)     1.11762
   235    C   16  px     Ryd( 3p)     0.00263
   236    C   16  py     Val( 2p)     1.24174
   237    C   16  py     Ryd( 3p)     0.00218
   238    C   16  pz     Val( 2p)     1.20201
   239    C   16  pz     Ryd( 3p)     0.00115
   240    C   16  dxy    Ryd( 3d)     0.00020
   241    C   16  dxz    Ryd( 3d)     0.00082
   242    C   16  dyz    Ryd( 3d)     0.00086
   243    C   16  dx2y2  Ryd( 3d)     0.00099
   244    C   16  dz2    Ryd( 3d)     0.00037
 
   245    C   17  S      Cor( 1S)     1.99940
   246    C   17  S      Val( 2S)     1.10613
   247    C   17  S      Ryd( 3S)     0.00057
   248    C   17  S      Ryd( 4S)     0.00002
   249    C   17  px     Val( 2p)     1.25596
   250    C   17  px     Ryd( 3p)     0.00224
   251    C   17  py     Val( 2p)     1.09765
   252    C   17  py     Ryd( 3p)     0.00160
   253    C   17  pz     Val( 2p)     1.22072
   254    C   17  pz     Ryd( 3p)     0.00154
   255    C   17  dxy    Ryd( 3d)     0.00018
   256    C   17  dxz    Ryd( 3d)     0.00106
   257    C   17  dyz    Ryd( 3d)     0.00095
   258    C   17  dx2y2  Ryd( 3d)     0.00095
   259    C   17  dz2    Ryd( 3d)     0.00013
 
   260    C   18  S      Cor( 1S)     1.99923
   261    C   18  S      Val( 2S)     0.95463
   262    C   18  S      Ryd( 3S)     0.00185
   263    C   18  S      Ryd( 4S)     0.00004
   264    C   18  px     Val( 2p)     1.05655
   265    C   18  px     Ryd( 3p)     0.00247
   266    C   18  py     Val( 2p)     0.86076
   267    C   18  py     Ryd( 3p)     0.00256
   268    C   18  pz     Val( 2p)     1.16128
   269    C   18  pz     Ryd( 3p)     0.00464
   270    C   18  dxy    Ryd( 3d)     0.00115
   271    C   18  dxz    Ryd( 3d)     0.00078
   272    C   18  dyz    Ryd( 3d)     0.00076
   273    C   18  dx2y2  Ryd( 3d)     0.00128
   274    C   18  dz2    Ryd( 3d)     0.00111
 
   275    C   19  S      Cor( 1S)     1.99939
   276    C   19  S      Val( 2S)     1.10869
   277    C   19  S      Ryd( 3S)     0.00079
   278    C   19  S      Ryd( 4S)     0.00002
   279    C   19  px     Val( 2p)     1.21819
   280    C   19  px     Ryd( 3p)     0.00212
   281    C   19  py     Val( 2p)     1.16418
   282    C   19  py     Ryd( 3p)     0.00141
   283    C   19  pz     Val( 2p)     1.19425
   284    C   19  pz     Ryd( 3p)     0.00114
   285    C   19  dxy    Ryd( 3d)     0.00033
   286    C   19  dxz    Ryd( 3d)     0.00041
   287    C   19  dyz    Ryd( 3d)     0.00057
   288    C   19  dx2y2  Ryd( 3d)     0.00105
   289    C   19  dz2    Ryd( 3d)     0.00095
 
   290    C   20  S      Cor( 1S)     1.99940
   291    C   20  S      Val( 2S)     1.10556
   292    C   20  S      Ryd( 3S)     0.00065
   293    C   20  S      Ryd( 4S)     0.00002
   294    C   20  px     Val( 2p)     1.09687
   295    C   20  px     Ryd( 3p)     0.00309
   296    C   20  py     Val( 2p)     1.23189
   297    C   20  py     Ryd( 3p)     0.00254
   298    C   20  pz     Val( 2p)     1.23894
   299    C   20  pz     Ryd( 3p)     0.00161
   300    C   20  dxy    Ryd( 3d)     0.00049
   301    C   20  dxz    Ryd( 3d)     0.00071
   302    C   20  dyz    Ryd( 3d)     0.00065
   303    C   20  dx2y2  Ryd( 3d)     0.00078
   304    C   20  dz2    Ryd( 3d)     0.00063
 
   305    H   21  S      Val( 1S)     0.77419
   306    H   21  S      Ryd( 2S)     0.01213
 
   307    H   22  S      Val( 1S)     0.78900
   308    H   22  S      Ryd( 2S)     0.01298
 
   309    H   23  S      Val( 1S)     0.76661
   310    H   23  S      Ryd( 2S)     0.01400
 
   311    H   24  S      Val( 1S)     0.77199
   312    H   24  S      Ryd( 2S)     0.00503
 
   313    H   25  S      Val( 1S)     0.76783
   314    H   25  S      Ryd( 2S)     0.01191
 
   315    H   26  S      Val( 1S)     0.76177
   316    H   26  S      Ryd( 2S)     0.00812
 
   317    H   27  S      Val( 1S)     0.77130
   318    H   27  S      Ryd( 2S)     0.01170
 
   319    H   28  S      Val( 1S)     0.75412
   320    H   28  S      Ryd( 2S)     0.01300
 
   321    H   29  S      Val( 1S)     0.77065
   322    H   29  S      Ryd( 2S)     0.01213
 
   323    H   30  S      Val( 1S)     0.79595
   324    H   30  S      Ryd( 2S)     0.01239
 
   325    H   31  S      Val( 1S)     0.76984
   326    H   31  S      Ryd( 2S)     0.01177
 
   327    H   32  S      Val( 1S)     0.77317
   328    H   32  S      Ryd( 2S)     0.00587
 
   329    H   33  S      Val( 1S)     0.77343
   330    H   33  S      Ryd( 2S)     0.01148
 
   331    H   34  S      Val( 1S)     0.76891
   332    H   34  S      Ryd( 2S)     0.00626
 
   333    H   35  S      Val( 1S)     0.77787
   334    H   35  S      Ryd( 2S)     0.01026
 
   335    H   36  S      Val( 1S)     0.76439
   336    H   36  S      Ryd( 2S)     0.00591
 
   337    H   37  S      Val( 1S)     0.78542
   338    H   37  S      Ryd( 2S)     0.01166
 
   339    H   38  S      Val( 1S)     0.77468
   340    H   38  S      Ryd( 2S)     0.00564
 
   341    H   39  S      Val( 1S)     0.78449
   342    H   39  S      Ryd( 2S)     0.00972
 
   343    H   40  S      Val( 1S)     0.76644
   344    H   40  S      Ryd( 2S)     0.01183
 
   345    H   41  S      Val( 1S)     0.76840
   346    H   41  S      Ryd( 2S)     0.01394
 
   347    H   42  S      Val( 1S)     0.79181
   348    H   42  S      Ryd( 2S)     0.01462
 
   349    H   43  S      Val( 1S)     0.76554
   350    H   43  S      Ryd( 2S)     0.00500
 
   351    H   44  S      Val( 1S)     0.77077
   352    H   44  S      Ryd( 2S)     0.00734
 
   353    H   45  S      Val( 1S)     0.75741
   354    H   45  S      Ryd( 2S)     0.00298
 
   355    H   46  S      Val( 1S)     0.76687
   356    H   46  S      Ryd( 2S)     0.00823
 
   357    H   47  S      Val( 1S)     0.77106
   358    H   47  S      Ryd( 2S)     0.00910
 
   359    H   48  S      Val( 1S)     0.77489
   360    H   48  S      Ryd( 2S)     0.00530
 
   361    H   49  S      Val( 1S)     0.78219
   362    H   49  S      Ryd( 2S)     0.01356
 
   363    H   50  S      Val( 1S)     0.75975
   364    H   50  S      Ryd( 2S)     0.00370
 
   365    H   51  S      Val( 1S)     0.78336
   366    H   51  S      Ryd( 2S)     0.00868
 
   367    H   52  S      Val( 1S)     0.77171
   368    H   52  S      Ryd( 2S)     0.00367
 
   369    H   53  S      Val( 1S)     0.78744
   370    H   53  S      Ryd( 2S)     0.01023

 WARNING:  1 low occupancy (<1.9990e) core orbital  found on  P    8


 Summary of Natural Population Analysis:                  
                                                          
                                       Natural Population 
                Natural  -----------------------------------------------
    Atom  No    Charge         Core      Valence    Rydberg      Total
 -----------------------------------------------------------------------
      N    1   -0.82833      1.99938     5.80785    0.02110     7.82833
      C    2   -0.26288      1.99928     4.24534    0.01826     6.26288
      C    3   -0.25683      1.99929     4.24043    0.01711     6.25683
      N    4   -0.45683      1.99939     5.44430    0.01314     7.45683
      C    5   -0.26226      1.99930     4.24451    0.01845     6.26226
      C    6   -0.27757      1.99927     4.25875    0.01955     6.27757
      N    7   -0.64124      1.99942     5.62259    0.01923     7.64124
      P    8    1.45723      9.99824     3.47067    0.07385    13.54277
      N    9   -0.82523      1.99939     5.80936    0.01648     7.82523
      C   10   -0.26718      1.99929     4.24974    0.01814     6.26718
      C   11   -0.26528      1.99931     4.24818    0.01779     6.26528
      C   12   -0.04896      1.99924     4.03332    0.01641     6.04896
      C   13   -0.69532      1.99940     4.68706    0.00886     6.69532
      C   14   -0.68483      1.99939     4.67447    0.01097     6.68483
      C   15   -0.06049      1.99922     4.04372    0.01755     6.06049
      C   16   -0.68513      1.99938     4.67590    0.00985     6.68513
      C   17   -0.68910      1.99940     4.68046    0.00924     6.68910
      C   18   -0.04908      1.99923     4.03322    0.01663     6.04908
      C   19   -0.69350      1.99939     4.68532    0.00879     6.69350
      C   20   -0.68382      1.99940     4.67326    0.01117     6.68382
      H   21    0.21368      0.00000     0.77419    0.01213     0.78632
      H   22    0.19802      0.00000     0.78900    0.01298     0.80198
      H   23    0.21939      0.00000     0.76661    0.01400     0.78061
      H   24    0.22298      0.00000     0.77199    0.00503     0.77702
      H   25    0.22027      0.00000     0.76783    0.01191     0.77973
      H   26    0.23011      0.00000     0.76177    0.00812     0.76989
      H   27    0.21700      0.00000     0.77130    0.01170     0.78300
      H   28    0.23288      0.00000     0.75412    0.01300     0.76712
      H   29    0.21722      0.00000     0.77065    0.01213     0.78278
      H   30    0.19166      0.00000     0.79595    0.01239     0.80834
      H   31    0.21839      0.00000     0.76984    0.01177     0.78161
      H   32    0.22096      0.00000     0.77317    0.00587     0.77904
      H   33    0.21508      0.00000     0.77343    0.01148     0.78492
      H   34    0.22483      0.00000     0.76891    0.00626     0.77517
      H   35    0.21187      0.00000     0.77787    0.01026     0.78813
      H   36    0.22970      0.00000     0.76439    0.00591     0.77030
      H   37    0.20292      0.00000     0.78542    0.01166     0.79708
      H   38    0.21968      0.00000     0.77468    0.00564     0.78032
      H   39    0.20579      0.00000     0.78449    0.00972     0.79421
      H   40    0.22174      0.00000     0.76644    0.01183     0.77826
      H   41    0.21766      0.00000     0.76840    0.01394     0.78234
      H   42    0.19357      0.00000     0.79181    0.01462     0.80643
      H   43    0.22946      0.00000     0.76554    0.00500     0.77054
      H   44    0.22189      0.00000     0.77077    0.00734     0.77811
      H   45    0.23962      0.00000     0.75741    0.00298     0.76038
      H   46    0.22490      0.00000     0.76687    0.00823     0.77510
      H   47    0.21984      0.00000     0.77106    0.00910     0.78016
      H   48    0.21980      0.00000     0.77489    0.00530     0.78020
      H   49    0.20425      0.00000     0.78219    0.01356     0.79575
      H   50    0.23655      0.00000     0.75975    0.00370     0.76345
      H   51    0.20796      0.00000     0.78336    0.00868     0.79204
      H   52    0.22462      0.00000     0.77171    0.00367     0.77538
      H   53    0.20233      0.00000     0.78744    0.01023     0.79767
 =======================================================================
   * Total *   -0.00000     47.98562   117.34171    0.67268   166.00000

                                 Natural Population      
 --------------------------------------------------------
   Core                      47.98562 ( 99.9700% of  48)
   Valence                  117.34171 ( 99.4421% of 118)
   Natural Minimal Basis    165.32732 ( 99.5948% of 166)
   Natural Rydberg Basis      0.67268 (  0.4052% of 166)
 --------------------------------------------------------

    Atom  No          Natural Electron Configuration
 ----------------------------------------------------------------------------
      N    1      [core]2S( 1.33)2p( 4.48)3S( 0.01)3p( 0.01)
      C    2      [core]2S( 1.02)2p( 3.23)3p( 0.01)3d( 0.01)
      C    3      [core]2S( 1.01)2p( 3.23)3p( 0.01)3d( 0.01)
      N    4      [core]2S( 1.18)2p( 4.27)3p( 0.01)
      C    5      [core]2S( 1.02)2p( 3.23)3p( 0.01)3d( 0.01)
      C    6      [core]2S( 1.03)2p( 3.23)3p( 0.01)
      N    7      [core]2S( 1.33)2p( 4.29)3S( 0.01)3p( 0.01)
      P    8      [core]3S( 1.32)3p( 2.15)4S( 0.01)3d( 0.05)4p( 0.02)
      N    9      [core]2S( 1.30)2p( 4.50)3p( 0.01)
      C   10      [core]2S( 1.02)2p( 3.23)3p( 0.01)3d( 0.01)
      C   11      [core]2S( 1.01)2p( 3.24)3p( 0.01)3d( 0.01)
      C   12      [core]2S( 0.96)2p( 3.08)3p( 0.01)3d( 0.01)
      C   13      [core]2S( 1.11)2p( 3.58)
      C   14      [core]2S( 1.11)2p( 3.57)3p( 0.01)
      C   15      [core]2S( 0.96)2p( 3.09)3p( 0.01)
      C   16      [core]2S( 1.11)2p( 3.56)3p( 0.01)
      C   17      [core]2S( 1.11)2p( 3.57)3p( 0.01)
      C   18      [core]2S( 0.95)2p( 3.08)3p( 0.01)3d( 0.01)
      C   19      [core]2S( 1.11)2p( 3.58)
      C   20      [core]2S( 1.11)2p( 3.57)3p( 0.01)
      H   21            1S( 0.77)2S( 0.01)
      H   22            1S( 0.79)2S( 0.01)
      H   23            1S( 0.77)2S( 0.01)
      H   24            1S( 0.77)2S( 0.01)
      H   25            1S( 0.77)2S( 0.01)
      H   26            1S( 0.76)2S( 0.01)
      H   27            1S( 0.77)2S( 0.01)
      H   28            1S( 0.75)2S( 0.01)
      H   29            1S( 0.77)2S( 0.01)
      H   30            1S( 0.80)2S( 0.01)
      H   31            1S( 0.77)2S( 0.01)
      H   32            1S( 0.77)2S( 0.01)
      H   33            1S( 0.77)2S( 0.01)
      H   34            1S( 0.77)2S( 0.01)
      H   35            1S( 0.78)2S( 0.01)
      H   36            1S( 0.76)2S( 0.01)
      H   37            1S( 0.79)2S( 0.01)
      H   38            1S( 0.77)2S( 0.01)
      H   39            1S( 0.78)2S( 0.01)
      H   40            1S( 0.77)2S( 0.01)
      H   41            1S( 0.77)2S( 0.01)
      H   42            1S( 0.79)2S( 0.01)
      H   43            1S( 0.77)2S( 0.01)
      H   44            1S( 0.77)2S( 0.01)
      H   45            1S( 0.76)
      H   46            1S( 0.77)2S( 0.01)
      H   47            1S( 0.77)2S( 0.01)
      H   48            1S( 0.77)2S( 0.01)
      H   49            1S( 0.78)2S( 0.01)
      H   50            1S( 0.76)
      H   51            1S( 0.78)2S( 0.01)
      H   52            1S( 0.77)
      H   53            1S( 0.79)2S( 0.01)


 NBO analysis skipped by request.
 1\1\GINC-DELLA-R1C4N5\SP\RB3LYP TD-FC\6-31G(d)\C15H33N4P1\BJS4\24-Aug-
 2020\0\\# TD(NStates=10, Root=1) B3LYP/6-31G* scf=qc volume pop=NPA de
 nsity=current Geom=AllCheck Guess=Read\\Title Card Required\\0,1\N,0,-
 1.2538577616,-0.1782490677,1.222402677\C,0,-1.1571695274,-1.4151472106
 ,0.4449694982\C,0,-0.1050046618,-1.4260380099,-0.6616460535\N,0,1.2407
 678432,-1.1831925999,-0.1994736256\C,0,2.0616554178,-0.1589610347,-0.7
 915963707\C,0,2.1616100959,1.1148981041,0.0800953496\N,0,0.8925461055,
 1.580726895,0.6251367771\P,0,0.0234224066,0.7946018841,1.9193224856\N,
 0,1.2245243181,-0.2210153089,2.6561305584\C,0,2.1648889206,-1.23068098
 37,2.1413266394\C,0,1.7738619614,-1.9909237285,0.8635019843\C,0,1.5274
 044887,0.0545419755,4.0932627956\C,0,1.3605797608,1.5141133124,4.53879
 60659\C,0,0.7553453708,-0.8961614145,5.0230522153\C,0,0.3045992332,2.7
 710470824,-0.025855558\C,0,-0.4964132288,2.443114052,-1.3009970273\C,0
 ,-0.5277963716,3.6470779887,0.922511067\C,0,-2.6192771652,-0.066329825
 1,1.8178303785\C,0,-2.7367032989,0.6971522996,3.1434633714\C,0,-3.6089
 845557,0.5241018983,0.7961509642\H,0,-2.1222082932,-1.5982367141,-0.04
 56357712\H,0,-1.0020353327,-2.2790904885,1.1164741374\H,0,-0.35527855,
 -0.6532131945,-1.3935690222\H,0,-0.1949327113,-2.401105641,-1.18112430
 12\H,0,1.6384157952,0.0983197306,-1.7689846542\H,0,3.0798951069,-0.542
 9740716,-0.9819858847\H,0,2.6018510847,1.9218650847,-0.5202697755\H,0,
 2.8621329816,0.9371443735,0.9032069346\H,0,2.3056279631,-1.9950642142,
 2.9194315853\H,0,3.1594209461,-0.7767954902,1.9965329475\H,0,1.0306332
 31,-2.7533223107,1.1146393229\H,0,2.679522023,-2.5382424089,0.53823003
 33\H,0,2.5982778629,-0.1672636236,4.2093755735\H,0,0.312266659,1.81807
 34196,4.5878884785\H,0,1.8799977503,2.1963876828,3.8577663473\H,0,1.79
 61787661,1.6304839218,5.5389975392\H,0,-0.3175347582,-0.6762734882,4.9
 924845995\H,0,1.0940494317,-0.7934768253,6.0618051408\H,0,0.8920484671
 ,-1.9419816618,4.7258547484\H,0,1.1617210345,3.3889278558,-0.331732499
 1\H,0,-1.3552357744,1.8077871265,-1.0620294847\H,0,0.1240638325,1.9161
 385874,-2.0345412165\H,0,-0.8653743989,3.3608959224,-1.7769975328\H,0,
 -1.4708601441,3.1729320041,1.2107756699\H,0,-0.7715027924,4.5880584224
 ,0.4148352996\H,0,0.0274244115,3.8786554915,1.836286258\H,0,-2.9436072
 604,-1.0962151351,2.0386873853\H,0,-2.4971860464,1.7586025597,3.039562
 5948\H,0,-2.0853430985,0.2794827008,3.9160646877\H,0,-3.7736063576,0.6
 159030284,3.4930899861\H,0,-3.3835491769,1.5811316646,0.6147559277\H,0
 ,-4.6401530398,0.4532325066,1.1646014339\H,0,-3.5623889639,0.002086876
 1,-0.1656806815\\Version=ES64L-G16RevA.03\State=1-A\HF=-1151.7833959\R
 MSD=6.929e-09\Dipole=0.7163314,-0.1043733,-0.8378808\Quadrupole=0.7957
 559,1.8257451,-2.621501,-0.2379315,-2.2056941,0.5076412\PG=C01 [X(C15H
 33N4P1)]\\@


 "I COULD HAVE DONE IT IN A MUCH MORE COMPLICATED WAY"
 SAID THE RED QUEEN, IMMENSELY PROUD.

                                      -- LEWIS CARROLL
 Job cpu time:       0 days  2 hours 16 minutes 39.0 seconds.
 Elapsed time:       0 days  0 hours 19 minutes 32.4 seconds.
 File lengths (MBytes):  RWF=   1125 Int=      0 D2E=      0 Chk=    268 Scr=      1
 Normal termination of Gaussian 16 at Mon Aug 24 16:04:18 2020.
