 Entering Gaussian System, Link 0=g16
 Input=base_3_conf18123.com
 Output=base_3_conf18123.log
 Initial command:
 /opt/export//g16/l1.exe "/scratch/bjs4/job.19858/Gau-19860.inp" -scrdir="/scratch/bjs4/job.19858/"
 Entering Link 1 = /opt/export//g16/l1.exe PID=     19861.
  
 Copyright (c) 1988,1990,1992,1993,1995,1998,2003,2009,2016,
            Gaussian, Inc.  All Rights Reserved.
  
 This is part of the Gaussian(R) 16 program.  It is based on
 the Gaussian(R) 09 system (copyright 2009, Gaussian, Inc.),
 the Gaussian(R) 03 system (copyright 2003, Gaussian, Inc.),
 the Gaussian(R) 98 system (copyright 1998, Gaussian, Inc.),
 the Gaussian(R) 94 system (copyright 1995, Gaussian, Inc.),
 the Gaussian 92(TM) system (copyright 1992, Gaussian, Inc.),
 the Gaussian 90(TM) system (copyright 1990, Gaussian, Inc.),
 the Gaussian 88(TM) system (copyright 1988, Gaussian, Inc.),
 the Gaussian 86(TM) system (copyright 1986, Carnegie Mellon
 University), and the Gaussian 82(TM) system (copyright 1983,
 Carnegie Mellon University). Gaussian is a federally registered
 trademark of Gaussian, Inc.
  
 This software contains proprietary and confidential information,
 including trade secrets, belonging to Gaussian, Inc.
  
 This software is provided under written license and may be
 used, copied, transmitted, or stored only in accord with that
 written license.
  
 The following legend is applicable only to US Government
 contracts under FAR:
  
                    RESTRICTED RIGHTS LEGEND
  
 Use, reproduction and disclosure by the US Government is
 subject to restrictions as set forth in subparagraphs (a)
 and (c) of the Commercial Computer Software - Restricted
 Rights clause in FAR 52.227-19.
  
 Gaussian, Inc.
 340 Quinnipiac St., Bldg. 40, Wallingford CT 06492
  
  
 ---------------------------------------------------------------
 Warning -- This program may not be used in any manner that
 competes with the business of Gaussian, Inc. or will provide
 assistance to any competitor of Gaussian, Inc.  The licensee
 of this program is prohibited from giving any competitor of
 Gaussian, Inc. access to this program.  By using this program,
 the user acknowledges that Gaussian, Inc. is engaged in the
 business of creating and licensing software in the field of
 computational chemistry and represents and warrants to the
 licensee that it is not a competitor of Gaussian, Inc. and that
 it will not use this program in any manner prohibited above.
 ---------------------------------------------------------------
  

 Cite this work as:
 Gaussian 16, Revision A.03,
 M. J. Frisch, G. W. Trucks, H. B. Schlegel, G. E. Scuseria, 
 M. A. Robb, J. R. Cheeseman, G. Scalmani, V. Barone, 
 G. A. Petersson, H. Nakatsuji, X. Li, M. Caricato, A. V. Marenich, 
 J. Bloino, B. G. Janesko, R. Gomperts, B. Mennucci, H. P. Hratchian, 
 J. V. Ortiz, A. F. Izmaylov, J. L. Sonnenberg, D. Williams-Young, 
 F. Ding, F. Lipparini, F. Egidi, J. Goings, B. Peng, A. Petrone, 
 T. Henderson, D. Ranasinghe, V. G. Zakrzewski, J. Gao, N. Rega, 
 G. Zheng, W. Liang, M. Hada, M. Ehara, K. Toyota, R. Fukuda, 
 J. Hasegawa, M. Ishida, T. Nakajima, Y. Honda, O. Kitao, H. Nakai, 
 T. Vreven, K. Throssell, J. A. Montgomery, Jr., J. E. Peralta, 
 F. Ogliaro, M. J. Bearpark, J. J. Heyd, E. N. Brothers, K. N. Kudin, 
 V. N. Staroverov, T. A. Keith, R. Kobayashi, J. Normand, 
 K. Raghavachari, A. P. Rendell, J. C. Burant, S. S. Iyengar, 
 J. Tomasi, M. Cossi, J. M. Millam, M. Klene, C. Adamo, R. Cammi, 
 J. W. Ochterski, R. L. Martin, K. Morokuma, O. Farkas, 
 J. B. Foresman, and D. J. Fox, Gaussian, Inc., Wallingford CT, 2016.
 
 ******************************************
 Gaussian 16:  ES64L-G16RevA.03 25-Dec-2016
                24-Aug-2020 
 ******************************************
 %nprocshared=5
 Will use up to    5 processors via shared memory.
 %Mem=10GB
 %Chk=base_3_conf181.chk
 ---------------------------------
 # opt=CalcAll B3LYP/6-31G* scf=qc
 ---------------------------------
 1/10=4,18=20,19=15,26=3,38=1/1,3;
 2/9=110,12=2,17=6,18=5,40=1/2;
 3/5=1,6=6,7=1,11=2,25=1,30=1,71=2,74=-5,140=1/1,2,3;
 4//1;
 5/5=2,8=3,38=5/8;
 8/6=4,10=90,11=11/1;
 11/6=1,8=1,9=11,15=111,16=1/1,2,10;
 10/6=1/2;
 6/7=2,8=2,9=2,10=2,18=1,28=1/1;
 7/10=1,25=1/1,2,3,16;
 1/10=4,18=20,19=15,26=3/3(3);
 2/9=110/2;
 7/8=1,9=1,25=1,44=-1/16;
 99//99;
 2/9=110/2;
 3/5=1,6=6,7=1,11=2,25=1,30=1,71=2,74=-5,140=1/1,2,3;
 4/5=5,16=3,69=1/1;
 5/5=2,8=3,38=5/8;
 8/6=4,10=90,11=11/1;
 11/6=1,8=1,9=11,15=111,16=1/1,2,10;
 10/6=1/2;
 7/10=1,25=1/1,2,3,16;
 1/10=4,18=20,19=15,26=3/3(-8);
 2/9=110/2;
 6/7=2,8=2,9=2,10=2,18=1,19=2,28=1/1;
 7/8=1,9=1,25=1,44=-1/16;
 99//99;
 -------------------
 Title Card Required
 -------------------
 Symbolic Z-matrix:
 Charge =  0 Multiplicity = 1
 N                     1.4187    0.1287    0.123 
 C                     0.481    -0.8828   -0.0433 
 N1                   -0.7977   -0.8604   -0.0093 
 C                    -1.8463    0.1303    0.1023 
 C                    -1.45145   1.48473  -0.49125 
 C                    -3.01245  -0.42319  -0.76167 
 C                    -2.39015   0.22448   1.53339 
 N                     1.052    -2.1118   -0.3736 
 C                     0.46892  -3.39508   0.00411 
 C                     1.9417   -2.21621  -1.53445 
 C                     2.86292  -0.11382   0.02866 
 C                     1.12272   1.54921   0.10915 
 H                    -0.74539   1.3702   -1.32116 
 H                    -1.00638   2.14486   0.2541 
 H                    -2.32053   2.03162  -0.87635 
 H                    -2.65929  -0.74435  -1.74885 
 H                    -3.79834   0.32907  -0.91114 
 H                    -3.48231  -1.29146  -0.28907 
 H                    -1.63281   0.4719    2.27324 
 H                    -2.81865  -0.73161   1.8565 
 H                    -3.17842   0.98305   1.60385 
 H                    -0.30557  -3.31188   0.77424 
 H                     1.25451  -4.05446   0.39116 
 H                     0.01364  -3.88494  -0.86174 
 H                     2.36681  -1.25346  -1.83808 
 H                     1.41193  -2.64483  -2.39275 
 H                     2.78888  -2.86624  -1.29163 
 H                     3.13397  -1.1757    0.00893 
 H                     3.36604   0.33775   0.89206 
 H                     3.26195   0.33576  -0.87888 
 H                     0.07226   1.77074   0.26011 
 H                     1.46504   2.00535  -0.8235 
 H                     1.65239   2.05398   0.92652 
 

 GradGradGradGradGradGradGradGradGradGradGradGradGradGradGradGradGradGrad
 Berny optimization.
 Initialization pass.
                           ----------------------------
                           !    Initial Parameters    !
                           ! (Angstroms and Degrees)  !
 --------------------------                            --------------------------
 ! Name  Definition              Value          Derivative Info.                !
 --------------------------------------------------------------------------------
 ! R1    R(1,2)                  1.3893         calculate D2E/DX2 analytically  !
 ! R2    R(1,11)                 1.4675         calculate D2E/DX2 analytically  !
 ! R3    R(1,12)                 1.4511         calculate D2E/DX2 analytically  !
 ! R4    R(2,3)                  1.2793         calculate D2E/DX2 analytically  !
 ! R5    R(2,8)                  1.3948         calculate D2E/DX2 analytically  !
 ! R6    R(3,4)                  1.4469         calculate D2E/DX2 analytically  !
 ! R7    R(4,5)                  1.5306         calculate D2E/DX2 analytically  !
 ! R8    R(4,6)                  1.5533         calculate D2E/DX2 analytically  !
 ! R9    R(4,7)                  1.5338         calculate D2E/DX2 analytically  !
 ! R10   R(5,13)                 1.0956         calculate D2E/DX2 analytically  !
 ! R11   R(5,14)                 1.0906         calculate D2E/DX2 analytically  !
 ! R12   R(5,15)                 1.0967         calculate D2E/DX2 analytically  !
 ! R13   R(6,16)                 1.0965         calculate D2E/DX2 analytically  !
 ! R14   R(6,17)                 1.0981         calculate D2E/DX2 analytically  !
 ! R15   R(6,18)                 1.0945         calculate D2E/DX2 analytically  !
 ! R16   R(7,19)                 1.0873         calculate D2E/DX2 analytically  !
 ! R17   R(7,20)                 1.0964         calculate D2E/DX2 analytically  !
 ! R18   R(7,21)                 1.0962         calculate D2E/DX2 analytically  !
 ! R19   R(8,9)                  1.4593         calculate D2E/DX2 analytically  !
 ! R20   R(8,10)                 1.4663         calculate D2E/DX2 analytically  !
 ! R21   R(9,22)                 1.0954         calculate D2E/DX2 analytically  !
 ! R22   R(9,23)                 1.0962         calculate D2E/DX2 analytically  !
 ! R23   R(9,24)                 1.094          calculate D2E/DX2 analytically  !
 ! R24   R(10,25)                1.0954         calculate D2E/DX2 analytically  !
 ! R25   R(10,26)                1.0959         calculate D2E/DX2 analytically  !
 ! R26   R(10,27)                1.0951         calculate D2E/DX2 analytically  !
 ! R27   R(11,28)                1.0961         calculate D2E/DX2 analytically  !
 ! R28   R(11,29)                1.0966         calculate D2E/DX2 analytically  !
 ! R29   R(11,30)                1.0886         calculate D2E/DX2 analytically  !
 ! R30   R(12,31)                1.0841         calculate D2E/DX2 analytically  !
 ! R31   R(12,32)                1.0932         calculate D2E/DX2 analytically  !
 ! R32   R(12,33)                1.097          calculate D2E/DX2 analytically  !
 ! A1    A(2,1,11)             122.4282         calculate D2E/DX2 analytically  !
 ! A2    A(2,1,12)             125.0244         calculate D2E/DX2 analytically  !
 ! A3    A(11,1,12)            111.2173         calculate D2E/DX2 analytically  !
 ! A4    A(1,2,3)              131.1999         calculate D2E/DX2 analytically  !
 ! A5    A(1,2,8)              113.1759         calculate D2E/DX2 analytically  !
 ! A6    A(3,2,8)              115.5233         calculate D2E/DX2 analytically  !
 ! A7    A(2,3,4)              137.595          calculate D2E/DX2 analytically  !
 ! A8    A(3,4,5)              112.8945         calculate D2E/DX2 analytically  !
 ! A9    A(3,4,6)              104.9045         calculate D2E/DX2 analytically  !
 ! A10   A(3,4,7)              111.7755         calculate D2E/DX2 analytically  !
 ! A11   A(5,4,6)              107.0558         calculate D2E/DX2 analytically  !
 ! A12   A(5,4,7)              113.5125         calculate D2E/DX2 analytically  !
 ! A13   A(6,4,7)              105.9408         calculate D2E/DX2 analytically  !
 ! A14   A(4,5,13)             111.5608         calculate D2E/DX2 analytically  !
 ! A15   A(4,5,14)             112.0785         calculate D2E/DX2 analytically  !
 ! A16   A(4,5,15)             111.9024         calculate D2E/DX2 analytically  !
 ! A17   A(13,5,14)            108.5399         calculate D2E/DX2 analytically  !
 ! A18   A(13,5,15)            107.2676         calculate D2E/DX2 analytically  !
 ! A19   A(14,5,15)            105.1618         calculate D2E/DX2 analytically  !
 ! A20   A(4,6,16)             111.3041         calculate D2E/DX2 analytically  !
 ! A21   A(4,6,17)             111.648          calculate D2E/DX2 analytically  !
 ! A22   A(4,6,18)             111.3948         calculate D2E/DX2 analytically  !
 ! A23   A(16,6,17)            107.9746         calculate D2E/DX2 analytically  !
 ! A24   A(16,6,18)            107.1358         calculate D2E/DX2 analytically  !
 ! A25   A(17,6,18)            107.1564         calculate D2E/DX2 analytically  !
 ! A26   A(4,7,19)             113.6958         calculate D2E/DX2 analytically  !
 ! A27   A(4,7,20)             111.0993         calculate D2E/DX2 analytically  !
 ! A28   A(4,7,21)             110.9413         calculate D2E/DX2 analytically  !
 ! A29   A(19,7,20)            105.6721         calculate D2E/DX2 analytically  !
 ! A30   A(19,7,21)            107.4373         calculate D2E/DX2 analytically  !
 ! A31   A(20,7,21)            107.6645         calculate D2E/DX2 analytically  !
 ! A32   A(2,8,9)              123.3657         calculate D2E/DX2 analytically  !
 ! A33   A(2,8,10)             119.9075         calculate D2E/DX2 analytically  !
 ! A34   A(9,8,10)             112.6278         calculate D2E/DX2 analytically  !
 ! A35   A(8,9,22)             113.4346         calculate D2E/DX2 analytically  !
 ! A36   A(8,9,23)             109.5117         calculate D2E/DX2 analytically  !
 ! A37   A(8,9,24)             110.8047         calculate D2E/DX2 analytically  !
 ! A38   A(22,9,23)            107.7065         calculate D2E/DX2 analytically  !
 ! A39   A(22,9,24)            107.2294         calculate D2E/DX2 analytically  !
 ! A40   A(23,9,24)            107.9584         calculate D2E/DX2 analytically  !
 ! A41   A(8,10,25)            113.1011         calculate D2E/DX2 analytically  !
 ! A42   A(8,10,26)            110.7669         calculate D2E/DX2 analytically  !
 ! A43   A(8,10,27)            109.6411         calculate D2E/DX2 analytically  !
 ! A44   A(25,10,26)           108.3168         calculate D2E/DX2 analytically  !
 ! A45   A(25,10,27)           106.4363         calculate D2E/DX2 analytically  !
 ! A46   A(26,10,27)           108.3893         calculate D2E/DX2 analytically  !
 ! A47   A(1,11,28)            113.8677         calculate D2E/DX2 analytically  !
 ! A48   A(1,11,29)            109.4426         calculate D2E/DX2 analytically  !
 ! A49   A(1,11,30)            110.2488         calculate D2E/DX2 analytically  !
 ! A50   A(28,11,29)           107.4369         calculate D2E/DX2 analytically  !
 ! A51   A(28,11,30)           107.1248         calculate D2E/DX2 analytically  !
 ! A52   A(29,11,30)           108.5518         calculate D2E/DX2 analytically  !
 ! A53   A(1,12,31)            113.3497         calculate D2E/DX2 analytically  !
 ! A54   A(1,12,32)            110.6546         calculate D2E/DX2 analytically  !
 ! A55   A(1,12,33)            110.1721         calculate D2E/DX2 analytically  !
 ! A56   A(31,12,32)           109.691          calculate D2E/DX2 analytically  !
 ! A57   A(31,12,33)           105.668          calculate D2E/DX2 analytically  !
 ! A58   A(32,12,33)           107.0065         calculate D2E/DX2 analytically  !
 ! D1    D(11,1,2,3)          -179.294          calculate D2E/DX2 analytically  !
 ! D2    D(11,1,2,8)            -3.1766         calculate D2E/DX2 analytically  !
 ! D3    D(12,1,2,3)           -13.6358         calculate D2E/DX2 analytically  !
 ! D4    D(12,1,2,8)           162.4816         calculate D2E/DX2 analytically  !
 ! D5    D(2,1,11,28)          -11.0498         calculate D2E/DX2 analytically  !
 ! D6    D(2,1,11,29)         -131.2935         calculate D2E/DX2 analytically  !
 ! D7    D(2,1,11,30)          109.376          calculate D2E/DX2 analytically  !
 ! D8    D(12,1,11,28)        -178.4818         calculate D2E/DX2 analytically  !
 ! D9    D(12,1,11,29)          61.2745         calculate D2E/DX2 analytically  !
 ! D10   D(12,1,11,30)         -58.056          calculate D2E/DX2 analytically  !
 ! D11   D(2,1,12,31)           17.7562         calculate D2E/DX2 analytically  !
 ! D12   D(2,1,12,32)         -105.9509         calculate D2E/DX2 analytically  !
 ! D13   D(2,1,12,33)          135.9184         calculate D2E/DX2 analytically  !
 ! D14   D(11,1,12,31)        -175.2045         calculate D2E/DX2 analytically  !
 ! D15   D(11,1,12,32)          61.0884         calculate D2E/DX2 analytically  !
 ! D16   D(11,1,12,33)         -57.0423         calculate D2E/DX2 analytically  !
 ! D17   D(1,2,3,4)              5.6172         calculate D2E/DX2 analytically  !
 ! D18   D(8,2,3,4)           -170.4274         calculate D2E/DX2 analytically  !
 ! D19   D(1,2,8,9)            149.6469         calculate D2E/DX2 analytically  !
 ! D20   D(1,2,8,10)           -54.8167         calculate D2E/DX2 analytically  !
 ! D21   D(3,2,8,9)            -33.5896         calculate D2E/DX2 analytically  !
 ! D22   D(3,2,8,10)           121.9469         calculate D2E/DX2 analytically  !
 ! D23   D(2,3,4,5)             29.6468         calculate D2E/DX2 analytically  !
 ! D24   D(2,3,4,6)            145.8701         calculate D2E/DX2 analytically  !
 ! D25   D(2,3,4,7)            -99.7761         calculate D2E/DX2 analytically  !
 ! D26   D(3,4,5,13)            30.2628         calculate D2E/DX2 analytically  !
 ! D27   D(3,4,5,14)           -91.6899         calculate D2E/DX2 analytically  !
 ! D28   D(3,4,5,15)           150.4523         calculate D2E/DX2 analytically  !
 ! D29   D(6,4,5,13)           -84.6734         calculate D2E/DX2 analytically  !
 ! D30   D(6,4,5,14)           153.3739         calculate D2E/DX2 analytically  !
 ! D31   D(6,4,5,15)            35.5161         calculate D2E/DX2 analytically  !
 ! D32   D(7,4,5,13)           158.7901         calculate D2E/DX2 analytically  !
 ! D33   D(7,4,5,14)            36.8374         calculate D2E/DX2 analytically  !
 ! D34   D(7,4,5,15)           -81.0204         calculate D2E/DX2 analytically  !
 ! D35   D(3,4,6,16)           -48.4771         calculate D2E/DX2 analytically  !
 ! D36   D(3,4,6,17)          -169.217          calculate D2E/DX2 analytically  !
 ! D37   D(3,4,6,18)            71.0239         calculate D2E/DX2 analytically  !
 ! D38   D(5,4,6,16)            71.7055         calculate D2E/DX2 analytically  !
 ! D39   D(5,4,6,17)           -49.0344         calculate D2E/DX2 analytically  !
 ! D40   D(5,4,6,18)          -168.7935         calculate D2E/DX2 analytically  !
 ! D41   D(7,4,6,16)          -166.8534         calculate D2E/DX2 analytically  !
 ! D42   D(7,4,6,17)            72.4067         calculate D2E/DX2 analytically  !
 ! D43   D(7,4,6,18)           -47.3524         calculate D2E/DX2 analytically  !
 ! D44   D(3,4,7,19)            58.3982         calculate D2E/DX2 analytically  !
 ! D45   D(3,4,7,20)           -60.65           calculate D2E/DX2 analytically  !
 ! D46   D(3,4,7,21)           179.6199         calculate D2E/DX2 analytically  !
 ! D47   D(5,4,7,19)           -70.7006         calculate D2E/DX2 analytically  !
 ! D48   D(5,4,7,20)           170.2512         calculate D2E/DX2 analytically  !
 ! D49   D(5,4,7,21)            50.5211         calculate D2E/DX2 analytically  !
 ! D50   D(6,4,7,19)           172.1108         calculate D2E/DX2 analytically  !
 ! D51   D(6,4,7,20)            53.0627         calculate D2E/DX2 analytically  !
 ! D52   D(6,4,7,21)           -66.6674         calculate D2E/DX2 analytically  !
 ! D53   D(2,8,9,22)           -14.5879         calculate D2E/DX2 analytically  !
 ! D54   D(2,8,9,23)          -134.9375         calculate D2E/DX2 analytically  !
 ! D55   D(2,8,9,24)           106.0786         calculate D2E/DX2 analytically  !
 ! D56   D(10,8,9,22)         -171.7016         calculate D2E/DX2 analytically  !
 ! D57   D(10,8,9,23)           67.9489         calculate D2E/DX2 analytically  !
 ! D58   D(10,8,9,24)          -51.0351         calculate D2E/DX2 analytically  !
 ! D59   D(2,8,10,25)           20.7612         calculate D2E/DX2 analytically  !
 ! D60   D(2,8,10,26)         -101.0527         calculate D2E/DX2 analytically  !
 ! D61   D(2,8,10,27)          139.3719         calculate D2E/DX2 analytically  !
 ! D62   D(9,8,10,25)          178.7553         calculate D2E/DX2 analytically  !
 ! D63   D(9,8,10,26)           56.9414         calculate D2E/DX2 analytically  !
 ! D64   D(9,8,10,27)          -62.634          calculate D2E/DX2 analytically  !
 --------------------------------------------------------------------------------
 Trust Radius=3.00D-01 FncErr=1.00D-07 GrdErr=1.00D-06 EigMax=2.50D+02 EigMin=1.00D-04
 Number of steps in this run=    164 maximum allowed number of steps=    198.
 GradGradGradGradGradGradGradGradGradGradGradGradGradGradGradGradGradGrad

                          Input orientation:                          
 ---------------------------------------------------------------------
 Center     Atomic      Atomic             Coordinates (Angstroms)
 Number     Number       Type             X           Y           Z
 ---------------------------------------------------------------------
      1          7           0        1.418700    0.128700    0.123000
      2          6           0        0.481000   -0.882800   -0.043300
      3          7           0       -0.797700   -0.860400   -0.009300
      4          6           0       -1.846300    0.130300    0.102300
      5          6           0       -1.451450    1.484730   -0.491250
      6          6           0       -3.012450   -0.423190   -0.761670
      7          6           0       -2.390150    0.224480    1.533390
      8          7           0        1.052000   -2.111800   -0.373600
      9          6           0        0.468920   -3.395080    0.004110
     10          6           0        1.941700   -2.216210   -1.534450
     11          6           0        2.862920   -0.113820    0.028660
     12          6           0        1.122720    1.549210    0.109150
     13          1           0       -0.745390    1.370200   -1.321160
     14          1           0       -1.006380    2.144860    0.254100
     15          1           0       -2.320530    2.031620   -0.876350
     16          1           0       -2.659290   -0.744350   -1.748850
     17          1           0       -3.798340    0.329070   -0.911140
     18          1           0       -3.482310   -1.291460   -0.289070
     19          1           0       -1.632810    0.471900    2.273240
     20          1           0       -2.818650   -0.731610    1.856500
     21          1           0       -3.178420    0.983050    1.603850
     22          1           0       -0.305570   -3.311880    0.774240
     23          1           0        1.254510   -4.054460    0.391160
     24          1           0        0.013640   -3.884940   -0.861740
     25          1           0        2.366810   -1.253460   -1.838080
     26          1           0        1.411930   -2.644830   -2.392750
     27          1           0        2.788880   -2.866240   -1.291630
     28          1           0        3.133970   -1.175700    0.008930
     29          1           0        3.366040    0.337750    0.892060
     30          1           0        3.261950    0.335760   -0.878880
     31          1           0        0.072260    1.770740    0.260110
     32          1           0        1.465040    2.005350   -0.823500
     33          1           0        1.652390    2.053980    0.926520
 ---------------------------------------------------------------------
                    Distance matrix (angstroms):
                    1          2          3          4          5
     1  N    0.000000
     2  C    1.389269   0.000000
     3  N    2.430689   1.279348   0.000000
     4  C    3.265066   2.542419   1.446894   0.000000
     5  C    3.233246   3.088725   2.481794   1.530584   0.000000
     6  C    4.552177   3.596038   2.379565   1.553287   2.479921
     7  C    4.062722   3.457676   2.468350   1.533839   2.562919
     8  N    2.323988   1.394841   2.262765   3.695083   4.383621
     9  C    3.651471   2.512756   2.833568   4.218790   5.267423
    10  C    2.918779   2.476925   3.415936   4.746999   5.128225
    11  C    1.467477   2.504007   3.736169   4.716118   4.630276
    12  C    1.451084   2.519865   3.083547   3.290658   2.644048
    13  H    2.882743   2.865828   2.588299   2.185313   1.095622
    14  H    3.156438   3.386365   3.023990   2.187912   1.090599
    15  H    4.312963   4.127516   3.381504   2.190358   1.096673
    16  H    4.571219   3.576240   2.550494   2.202889   2.830059
    17  H    5.322321   4.531504   3.351417   2.208400   2.649481
    18  H    5.119234   3.991896   2.733352   2.202521   3.445649
    19  H    3.748737   3.416103   2.771718   2.207997   2.949766
    20  H    4.658357   3.810484   2.753550   2.183019   3.506184
    21  H    4.904727   4.425591   3.415902   2.180912   2.761078
    22  H    3.903180   2.680950   2.620283   3.830660   5.091363
    23  H    4.194961   3.293403   3.817585   5.216386   6.227639
    24  H    4.364999   3.146604   3.245423   4.528896   5.578271
    25  H    2.579751   2.629620   3.676011   4.840471   4.887816
    26  H    3.744531   3.080795   3.707761   4.954057   5.372887
    27  H    3.584444   3.289175   4.304802   5.692731   6.127964
    28  H    2.157921   2.669601   3.944335   5.149509   5.324861
    29  H    2.104112   3.269265   4.425465   5.275912   5.141723
    30  H    2.108129   3.149090   4.320616   5.205684   4.866881
    31  H    2.127909   2.701925   2.784297   2.529194   1.722799
    32  H    2.102338   3.149358   3.741048   3.916362   2.981166
    33  H    2.099276   3.307171   3.920754   4.076851   3.459471
                    6          7          8          9         10
     6  C    0.000000
     7  C    2.464556   0.000000
     8  N    4.418343   4.576375   0.000000
     9  C    4.640957   4.859444   1.459265   0.000000
    10  C    5.325008   5.842391   1.466302   2.434334   0.000000
    11  C    5.936354   5.474797   2.726384   4.061835   2.777049
    12  C    4.663509   4.015423   3.693378   4.988436   4.189336
    13  H    2.944289   3.488032   4.031477   5.093013   4.486455
    14  H    3.413354   2.690588   4.769705   5.738461   5.559588
    15  H    2.553037   3.012880   5.366064   6.164845   6.053409
    16  H    1.096535   3.432807   4.187470   4.459253   4.835437
    17  H    1.098116   2.823060   5.456427   5.737289   6.309915
    18  H    1.094537   2.610028   4.608695   4.485910   5.641455
    19  H    3.451850   1.087271   4.570500   4.951743   5.873803
    20  H    2.643387   1.096413   4.675489   4.618824   6.030217
    21  H    2.756944   1.096249   5.602219   5.918638   6.804397
    22  H    4.246263   4.174641   2.144930   1.095380   3.403052
    23  H    5.720322   5.735640   2.097569   1.096240   2.749430
    24  H    4.599016   5.329370   2.111989   1.094047   2.637160
    25  H    5.548373   6.014963   2.147132   3.403261   1.095353
    26  H    5.212604   6.172789   2.119112   2.682738   1.095924
    27  H    6.317023   6.660003   2.104450   2.709396   1.095087
    28  H    6.240078   5.899185   2.314565   3.468164   2.210473
    29  H    6.633173   5.792914   3.599579   4.807887   3.799922
    30  H    6.321221   6.146354   3.336126   4.743401   2.947097
    31  H    3.920816   3.174212   4.054084   5.187347   4.755105
    32  H    5.094070   4.856842   4.162203   5.553543   4.307461
    33  H    5.545006   4.478559   4.405054   5.651875   4.937064
                   11         12         13         14         15
    11  C    0.000000
    12  C    2.408411   0.000000
    13  H    4.128466   2.359590   0.000000
    14  H    4.485972   2.215598   1.774728   0.000000
    15  H    5.682439   3.613848   1.765332   1.737162   0.000000
    16  H    5.835402   4.797518   2.883965   3.884772   2.929509
    17  H    6.741792   5.171708   3.251549   3.528444   2.254730
    18  H    6.461403   5.425337   3.954791   4.270077   3.568962
    19  H    5.058932   3.665628   3.809747   2.695948   3.581285
    20  H    6.000242   4.877476   4.337457   3.758469   3.918167
    21  H    6.338938   4.588515   3.824291   2.808805   2.826104
    22  H    4.563201   5.110044   5.148399   5.526092   5.944536
    23  H    4.271655   5.612309   6.029807   6.600150   7.171322
    24  H    4.809631   5.630513   5.329511   6.216432   6.360365
    25  H    2.242682   3.632413   4.103241   5.225343   5.804122
    26  H    3.791386   4.892149   4.682179   5.982906   6.172513
    27  H    3.053598   4.922852   5.517188   6.473361   7.089962
    28  H    1.096105   3.388260   4.827026   5.313071   6.389225
    29  H    1.096588   2.667034   4.782066   4.773960   6.191409
    30  H    1.088566   2.650466   4.162265   4.772329   5.834383
    31  H    3.375340   1.084127   1.824664   1.141694   2.661775
    32  H    2.677896   1.093198   2.353100   2.699741   3.786030
    33  H    2.640245   1.097013   3.356929   2.743987   4.362904
                   16         17         18         19         20
    16  H    0.000000
    17  H    1.775225   0.000000
    18  H    1.762852   1.764359   0.000000
    19  H    4.325521   3.853595   3.618773   0.000000
    20  H    3.608893   3.121645   2.314594   1.740208   0.000000
    21  H    3.807099   2.671547   2.974709   1.760190   1.770120
    22  H    4.300952   5.319442   3.912084   4.280836   3.760938
    23  H    5.554665   6.814882   5.525789   5.689181   5.457031
    24  H    4.218391   5.682562   4.390416   5.614352   5.035294
    25  H    5.052607   6.432161   6.050874   5.989723   6.388368
    26  H    4.538862   6.179495   5.496423   6.384036   6.293993
    27  H    5.864642   7.331183   6.543155   6.588082   6.775822
    28  H    6.069408   7.153166   6.623999   5.528461   6.248553
    29  H    6.667079   7.387824   7.137877   5.187885   6.350123
    30  H    6.081494   7.060367   6.962813   5.823493   6.752428
    31  H    4.221725   4.293225   4.723731   2.940568   4.143378
    32  H    5.042541   5.524560   5.969158   4.640899   5.746595
    33  H    5.794725   6.005228   6.247781   3.887052   5.349259
                   21         22         23         24         25
    21  H    0.000000
    22  H    5.233349   0.000000
    23  H    6.818944   1.769753   0.000000
    24  H    6.321844   1.762590   1.771512   0.000000
    25  H    6.899162   4.266488   3.748643   3.662695   0.000000
    26  H    7.085594   3.663958   3.124419   2.416005   1.776335
    27  H    7.668736   3.747270   2.568646   2.987392   1.754369
    28  H    6.859318   4.120607   3.459151   4.223092   2.001506
    29  H    6.614606   5.178262   4.899078   5.669701   3.314223
    30  H    6.932626   5.363328   4.991678   5.325985   2.060815
    31  H    3.604582   5.122510   5.945405   5.766169   4.337412
    32  H    5.338431   5.827587   6.183932   6.066592   3.530213
    33  H    4.994236   5.713952   6.144750   6.415150   4.369504
                   26         27         28         29         30
    26  H    0.000000
    27  H    1.776930   0.000000
    28  H    3.300277   2.160664   0.000000
    29  H    4.848124   3.920098   1.767571   0.000000
    30  H    3.820771   3.262968   1.757583   1.773998   0.000000
    31  H    5.322560   5.593702   4.256603   3.647164   3.678395
    32  H    4.908110   5.069920   3.687458   3.055787   2.453464
    33  H    5.757968   5.515466   3.669862   2.425537   2.966889
                   31         32         33
    31  H    0.000000
    32  H    1.780193   0.000000
    33  H    1.738142   1.760692   0.000000
 Stoichiometry    C9H21N3
 Framework group  C1[X(C9H21N3)]
 Deg. of freedom    93
 Full point group                 C1      NOp   1
 Largest Abelian subgroup         C1      NOp   1
 Largest concise Abelian subgroup C1      NOp   1
                         Standard orientation:                         
 ---------------------------------------------------------------------
 Center     Atomic      Atomic             Coordinates (Angstroms)
 Number     Number       Type             X           Y           Z
 ---------------------------------------------------------------------
      1          7           0        0.960280    1.228828    0.272999
      2          6           0        0.575554   -0.102831    0.179515
      3          7           0       -0.581763   -0.641812    0.096749
      4          6           0       -1.955569   -0.207535   -0.035778
      5          6           0       -2.091128    1.117298   -0.790183
      6          6           0       -2.637443   -1.298944   -0.905592
      7          6           0       -2.689565   -0.222723    1.310952
      8          7           0        1.655388   -0.981258    0.090617
      9          6           0        1.623885   -2.346441    0.605144
     10          6           0        2.663569   -0.796702   -0.957978
     11          6           0        2.367704    1.638177    0.344262
     12          6           0        0.094998    2.365532    0.018369
     13          1           0       -1.290875    1.244413   -1.527630
     14          1           0       -2.081751    1.975227   -0.116926
     15          1           0       -3.043989    1.185739   -1.328758
     16          1           0       -2.042073   -1.526865   -1.797767
     17          1           0       -3.637333   -0.987537   -1.235901
     18          1           0       -2.757640   -2.234548   -0.350425
     19          1           0       -2.225167    0.403525    2.068782
     20          1           0       -2.713809   -1.233156    1.735873
     21          1           0       -3.726219    0.114768    1.196010
     22          1           0        0.784453   -2.537462    1.282434
     23          1           0        2.549573   -2.551835    1.155285
     24          1           0        1.550643   -3.068624   -0.213408
     25          1           0        2.679126    0.220090   -1.365027
     26          1           0        2.496667   -1.496229   -1.784934
     27          1           0        3.661296   -0.980763   -0.545816
     28          1           0        3.063408    0.807408    0.509383
     29          1           0        2.500307    2.346972    1.170416
     30          1           0        2.665456    2.126318   -0.582041
     31          1           0       -0.959814    2.116132    0.040778
     32          1           0        0.342929    2.832138   -0.938653
     33          1           0        0.235446    3.129000    0.793500
 ---------------------------------------------------------------------
 Rotational constants (GHZ):           1.2261530           0.6954648           0.5229843
 Standard basis: 6-31G(d) (6D, 7F)
 There are   222 symmetry adapted cartesian basis functions of A   symmetry.
 There are   222 symmetry adapted basis functions of A   symmetry.
   222 basis functions,   420 primitive gaussians,   222 cartesian basis functions
    48 alpha electrons       48 beta electrons
       nuclear repulsion energy       807.6734086036 Hartrees.
 NAtoms=   33 NActive=   33 NUniq=   33 SFac= 1.00D+00 NAtFMM=   60 NAOKFM=F Big=F
 Integral buffers will be    131072 words long.
 Raffenetti 2 integral format.
 Two-electron integral symmetry is turned on.
 One-electron integrals computed using PRISM.
 NBasis=   222 RedAO= T EigKep=  1.72D-03  NBF=   222
 NBsUse=   222 1.00D-06 EigRej= -1.00D+00 NBFU=   222
 ExpMin= 1.61D-01 ExpMax= 4.17D+03 ExpMxC= 6.27D+02 IAcc=3 IRadAn=         5 AccDes= 0.00D+00
 Harris functional with IExCor=  402 and IRadAn=       5 diagonalized for initial guess.
 HarFok:  IExCor=  402 AccDes= 0.00D+00 IRadAn=         5 IDoV= 1 UseB2=F ITyADJ=14
 ICtDFT=  3500011 ScaDFX=  1.000000  1.000000  1.000000  1.000000
 FoFCou: FMM=F IPFlag=           0 FMFlag=      100000 FMFlg1=           0
         NFxFlg=           0 DoJE=T BraDBF=F KetDBF=T FulRan=T
         wScrn=  0.000000 ICntrl=       500 IOpCl=  0 I1Cent=   200000004 NGrid=           0
         NMat0=    1 NMatS0=      1 NMatT0=    0 NMatD0=    1 NMtDS0=    0 NMtDT0=    0
 Petite list used in FoFCou.
 Gradient too large for Newton-Raphson -- use scaled steepest descent instead.
     Minimum is close to point  3 DX=  1.17D-02 DF= -3.19D-04 DXR=  2.83D-02 DFR=  8.07D-04 which will be used.
 Gradient too large for Newton-Raphson -- use scaled steepest descent instead.
 Gradient too large for Newton-Raphson -- use scaled steepest descent instead.
     Minimum is close to point  2 DX=  3.26D-02 DF= -2.67D-05 DXR=  7.53D-02 DFR=  5.70D-03 which will be used.
 Gradient too large for Newton-Raphson -- use scaled steepest descent instead.
 Gradient too large for Newton-Raphson -- use scaled steepest descent instead.
     Accept linear search using points  1 and  2.
 Gradient too large for Newton-Raphson -- use scaled steepest descent instead.
     Accept linear search using points  2 and  3.
 LinEq1:  Iter=  0 NonCon=     1 RMS=2.48D-05 Max=4.89D-04 NDo=     1
 AX will form     1 AO Fock derivatives at one time.
 LinEq1:  Iter=  1 NonCon=     1 RMS=3.66D-05 Max=2.29D-03 NDo=     1
 LinEq1:  Iter=  2 NonCon=     1 RMS=4.48D-06 Max=9.03D-05 NDo=     1
 LinEq1:  Iter=  3 NonCon=     1 RMS=2.20D-06 Max=4.61D-05 NDo=     1
 LinEq1:  Iter=  4 NonCon=     1 RMS=1.01D-06 Max=2.30D-05 NDo=     1
 LinEq1:  Iter=  5 NonCon=     1 RMS=3.68D-07 Max=1.12D-05 NDo=     1
 LinEq1:  Iter=  6 NonCon=     1 RMS=2.05D-07 Max=5.04D-06 NDo=     1
 LinEq1:  Iter=  7 NonCon=     1 RMS=1.19D-07 Max=3.94D-06 NDo=     1
 LinEq1:  Iter=  8 NonCon=     1 RMS=4.04D-08 Max=1.29D-06 NDo=     1
 LinEq1:  Iter=  9 NonCon=     1 RMS=1.74D-08 Max=4.15D-07 NDo=     1
 LinEq1:  Iter= 10 NonCon=     0 RMS=6.91D-09 Max=1.06D-07 NDo=     1
 Linear equations converged to 1.292D-08 1.292D-07 after    10 iterations.
     Minimum is close to point  2 DX=  4.26D-04 DF= -7.96D-13 DXR=  4.26D-04 DFR=  1.78D-07 which will be used.
 LinEq1:  Iter=  0 NonCon=     1 RMS=2.31D-08 Max=1.20D-06 NDo=     1
 LinEq1:  Iter=  1 NonCon=     1 RMS=2.60D-08 Max=1.72D-06 NDo=     1
 LinEq1:  Iter=  2 NonCon=     1 RMS=8.34D-09 Max=1.83D-07 NDo=     1
 LinEq1:  Iter=  3 NonCon=     1 RMS=4.34D-09 Max=1.23D-07 NDo=     1
 LinEq1:  Iter=  4 NonCon=     1 RMS=2.04D-09 Max=6.56D-08 NDo=     1
 LinEq1:  Iter=  5 NonCon=     1 RMS=1.03D-09 Max=3.06D-08 NDo=     1
 LinEq1:  Iter=  6 NonCon=     1 RMS=4.89D-10 Max=8.87D-09 NDo=     1
 LinEq1:  Iter=  7 NonCon=     1 RMS=2.37D-10 Max=4.38D-09 NDo=     1
 LinEq1:  Iter=  8 NonCon=     1 RMS=1.03D-10 Max=1.67D-09 NDo=     1
 LinEq1:  Iter=  9 NonCon=     1 RMS=3.99D-11 Max=5.63D-10 NDo=     1
 LinEq1:  Iter= 10 NonCon=     1 RMS=1.75D-11 Max=2.21D-10 NDo=     1
 LinEq1:  Iter= 11 NonCon=     0 RMS=6.05D-12 Max=7.56D-11 NDo=     1
 Linear equations converged to 1.428D-11 1.428D-10 after    11 iterations.
 Restarting incremental Fock formation.
 QCLLim is confused:  Bigger=T Turned=T
 NLin=  3 IMin12=  1  2 I12=  0  2 IX=  1 XLMin= 0.000D+00 XLMax= 0.000D+00
 X = 0.000D+00 1.000D+00 2.000D+00
 DE= 0.000D+00 1.364D-12 2.956D-12
 Search did not lower the energy significantly.
 No lower point found -- using Newton-Raphson step.
 SCF Done:  E(RB3LYP) =  -519.750411444     a.u. after    9 cycles
            Convg  =    0.8109D-10                    56 Fock formations.
              S**2 =  0.0000                  -V/T =  2.0091
 DoSCS=F DFT=T ScalE2(SS,OS)=  1.000000  1.000000
 Range of M.O.s used for correlation:     1   222
 NBasis=   222 NAE=    48 NBE=    48 NFC=     0 NFV=     0
 NROrb=    222 NOA=    48 NOB=    48 NVA=   174 NVB=   174
 Symmetrizing basis deriv contribution to polar:
 IMax=3 JMax=2 DiffMx= 0.00D+00
 G2DrvN: will do    34 centers at a time, making    1 passes.
 Calling FoFCou, ICntrl=  3107 FMM=F I1Cent=   0 AccDes= 0.00D+00.
 End of G2Drv F.D. properties file   721 does not exist.
 End of G2Drv F.D. properties file   722 does not exist.
 End of G2Drv F.D. properties file   788 does not exist.
          IDoAtm=111111111111111111111111111111111
          Differentiating once with respect to electric field.
                with respect to dipole field.
          Differentiating once with respect to nuclear coordinates.
 Keep R1 ints in memory in canonical form, NReq=311927557.
          There are   102 degrees of freedom in the 1st order CPHF.  IDoFFX=6 NUNeed=     3.
     99 vectors produced by pass  0 Test12= 8.35D-15 1.00D-09 XBig12= 1.06D+02 4.69D+00.
 AX will form    99 AO Fock derivatives at one time.
     99 vectors produced by pass  1 Test12= 8.35D-15 1.00D-09 XBig12= 1.30D+01 6.98D-01.
     99 vectors produced by pass  2 Test12= 8.35D-15 1.00D-09 XBig12= 6.47D-02 2.43D-02.
     99 vectors produced by pass  3 Test12= 8.35D-15 1.00D-09 XBig12= 1.37D-04 1.34D-03.
     99 vectors produced by pass  4 Test12= 8.35D-15 1.00D-09 XBig12= 1.16D-07 3.14D-05.
     43 vectors produced by pass  5 Test12= 8.35D-15 1.00D-09 XBig12= 8.07D-11 6.58D-07.
      5 vectors produced by pass  6 Test12= 8.35D-15 1.00D-09 XBig12= 5.27D-14 2.19D-08.
 InvSVY:  IOpt=1 It=  1 EMax= 1.78D-15
 Solved reduced A of dimension   543 with   102 vectors.
 Isotropic polarizability for W=    0.000000      121.46 Bohr**3.
 End of Minotr F.D. properties file   721 does not exist.
 End of Minotr F.D. properties file   722 does not exist.
 End of Minotr F.D. properties file   788 does not exist.

 **********************************************************************

            Population analysis using the SCF density.

 **********************************************************************

 Orbital symmetries:
       Occupied  (A) (A) (A) (A) (A) (A) (A) (A) (A) (A) (A) (A)
                 (A) (A) (A) (A) (A) (A) (A) (A) (A) (A) (A) (A)
                 (A) (A) (A) (A) (A) (A) (A) (A) (A) (A) (A) (A)
                 (A) (A) (A) (A) (A) (A) (A) (A) (A) (A) (A) (A)
       Virtual   (A) (A) (A) (A) (A) (A) (A) (A) (A) (A) (A) (A)
                 (A) (A) (A) (A) (A) (A) (A) (A) (A) (A) (A) (A)
                 (A) (A) (A) (A) (A) (A) (A) (A) (A) (A) (A) (A)
                 (A) (A) (A) (A) (A) (A) (A) (A) (A) (A) (A) (A)
                 (A) (A) (A) (A) (A) (A) (A) (A) (A) (A) (A) (A)
                 (A) (A) (A) (A) (A) (A) (A) (A) (A) (A) (A) (A)
                 (A) (A) (A) (A) (A) (A) (A) (A) (A) (A) (A) (A)
                 (A) (A) (A) (A) (A) (A) (A) (A) (A) (A) (A) (A)
                 (A) (A) (A) (A) (A) (A) (A) (A) (A) (A) (A) (A)
                 (A) (A) (A) (A) (A) (A) (A) (A) (A) (A) (A) (A)
                 (A) (A) (A) (A) (A) (A) (A) (A) (A) (A) (A) (A)
                 (A) (A) (A) (A) (A) (A) (A) (A) (A) (A) (A) (A)
                 (A) (A) (A) (A) (A) (A) (A) (A) (A) (A) (A) (A)
                 (A) (A) (A) (A) (A) (A) (A) (A) (A) (A) (A) (A)
                 (A) (A) (A) (A) (A) (A)
 The electronic state is 1-A.
 Alpha  occ. eigenvalues --  -14.34515 -14.32229 -14.26190 -10.26607 -10.21272
 Alpha  occ. eigenvalues --  -10.20748 -10.20580 -10.19446 -10.18735 -10.16540
 Alpha  occ. eigenvalues --  -10.16098 -10.15217  -0.96724  -0.89348  -0.86315
 Alpha  occ. eigenvalues --   -0.77826  -0.72666  -0.70002  -0.68899  -0.68119
 Alpha  occ. eigenvalues --   -0.66631  -0.63655  -0.57650  -0.53022  -0.50362
 Alpha  occ. eigenvalues --   -0.47631  -0.47111  -0.45517  -0.44661  -0.43712
 Alpha  occ. eigenvalues --   -0.42809  -0.42272  -0.40520  -0.40275  -0.39192
 Alpha  occ. eigenvalues --   -0.38524  -0.37881  -0.36969  -0.36397  -0.35703
 Alpha  occ. eigenvalues --   -0.35375  -0.33734  -0.33134  -0.31027  -0.28979
 Alpha  occ. eigenvalues --   -0.21615  -0.20381  -0.17845
 Alpha virt. eigenvalues --    0.05823   0.08484   0.10404   0.10521   0.11949
 Alpha virt. eigenvalues --    0.13115   0.14179   0.15002   0.15548   0.15991
 Alpha virt. eigenvalues --    0.16213   0.16374   0.17434   0.17751   0.18151
 Alpha virt. eigenvalues --    0.18503   0.18816   0.19454   0.19654   0.20538
 Alpha virt. eigenvalues --    0.21280   0.21873   0.22836   0.23299   0.24855
 Alpha virt. eigenvalues --    0.25325   0.27673   0.28484   0.29378   0.32832
 Alpha virt. eigenvalues --    0.36678   0.37563   0.46247   0.49150   0.49490
 Alpha virt. eigenvalues --    0.51338   0.51903   0.52599   0.54949   0.55443
 Alpha virt. eigenvalues --    0.56655   0.57270   0.58705   0.59555   0.60619
 Alpha virt. eigenvalues --    0.62373   0.65279   0.67676   0.68153   0.68653
 Alpha virt. eigenvalues --    0.71661   0.73525   0.74510   0.75233   0.77251
 Alpha virt. eigenvalues --    0.78730   0.80089   0.80875   0.81178   0.82678
 Alpha virt. eigenvalues --    0.82981   0.84612   0.86521   0.86833   0.87328
 Alpha virt. eigenvalues --    0.87754   0.88251   0.90248   0.90511   0.91828
 Alpha virt. eigenvalues --    0.92125   0.92931   0.93844   0.94341   0.94820
 Alpha virt. eigenvalues --    0.95623   0.96911   0.97320   0.98724   0.99428
 Alpha virt. eigenvalues --    1.00564   1.01581   1.02128   1.02926   1.04429
 Alpha virt. eigenvalues --    1.05683   1.07469   1.12071   1.13605   1.15130
 Alpha virt. eigenvalues --    1.19326   1.29223   1.31761   1.36415   1.38280
 Alpha virt. eigenvalues --    1.39860   1.41771   1.44398   1.44747   1.46099
 Alpha virt. eigenvalues --    1.48547   1.50846   1.56629   1.59234   1.63864
 Alpha virt. eigenvalues --    1.66337   1.69649   1.74634   1.77469   1.79127
 Alpha virt. eigenvalues --    1.81777   1.85526   1.87232   1.88380   1.89905
 Alpha virt. eigenvalues --    1.90120   1.92319   1.94822   1.95461   1.97041
 Alpha virt. eigenvalues --    1.99706   2.00756   2.05163   2.06068   2.07034
 Alpha virt. eigenvalues --    2.08050   2.09117   2.10722   2.11233   2.13846
 Alpha virt. eigenvalues --    2.15076   2.19128   2.21741   2.22647   2.22780
 Alpha virt. eigenvalues --    2.24718   2.27049   2.28146   2.28903   2.29808
 Alpha virt. eigenvalues --    2.31748   2.34071   2.36862   2.39941   2.43592
 Alpha virt. eigenvalues --    2.44125   2.47014   2.49641   2.51855   2.54131
 Alpha virt. eigenvalues --    2.57834   2.58542   2.65874   2.66538   2.73838
 Alpha virt. eigenvalues --    2.77009   2.79359   2.85140   2.85833   3.00429
 Alpha virt. eigenvalues --    3.22239   3.32887   4.00230   4.08638   4.13168
 Alpha virt. eigenvalues --    4.24172   4.25616   4.29633   4.32925   4.33777
 Alpha virt. eigenvalues --    4.37699   4.39447   4.53645   4.77322
          Condensed to atoms (all electrons):
               1          2          3          4          5          6
     1  N    6.992457   0.283796  -0.093721  -0.012012   0.006585  -0.000015
     2  C    0.283796   4.363387   0.610521  -0.050974  -0.004524   0.001445
     3  N   -0.093721   0.610521   6.985070   0.281989  -0.057323  -0.092832
     4  C   -0.012012  -0.050974   0.281989   4.682713   0.322406   0.410045
     5  C    0.006585  -0.004524  -0.057323   0.322406   5.381968  -0.075152
     6  C   -0.000015   0.001445  -0.092832   0.410045  -0.075152   5.203942
     7  C    0.000872  -0.000823  -0.058757   0.359148  -0.055665  -0.074456
     8  N   -0.114776   0.308692  -0.127180   0.009928  -0.000538   0.000094
     9  C    0.005079  -0.026669  -0.003751  -0.000448   0.000031  -0.000085
    10  C   -0.006361  -0.029728   0.001725  -0.000212   0.000038   0.000022
    11  C    0.296706  -0.025459   0.004728   0.000022  -0.000312   0.000003
    12  C    0.315570  -0.034827  -0.002743   0.001414  -0.085889  -0.000302
    13  H   -0.000686   0.002951  -0.003046  -0.029405   0.382654  -0.003509
    14  H    0.001797   0.000455   0.002197  -0.036272   0.374181   0.005573
    15  H   -0.000149   0.000152   0.004118  -0.016132   0.327059  -0.008743
    16  H    0.000003   0.001181   0.002771  -0.027342  -0.001763   0.358396
    17  H    0.000006  -0.000069   0.006684  -0.028882  -0.004051   0.338690
    18  H    0.000002  -0.000073   0.001559  -0.026397   0.006306   0.363196
    19  H   -0.000133   0.001789  -0.002659  -0.021673  -0.005213   0.006274
    20  H    0.000025   0.000193   0.001284  -0.025862   0.006038  -0.010813
    21  H   -0.000015  -0.000050   0.004379  -0.025706  -0.002960  -0.001564
    22  H    0.000329   0.001010   0.011753  -0.000651   0.000037   0.000010
    23  H    0.000174   0.002962   0.000671   0.000003   0.000001  -0.000001
    24  H   -0.000157   0.000155   0.002188  -0.000074   0.000000  -0.000007
    25  H   -0.000242  -0.000987  -0.000281  -0.000006   0.000001   0.000000
    26  H   -0.000014   0.002312   0.001357  -0.000021  -0.000002  -0.000011
    27  H    0.000749   0.001031  -0.000238   0.000007  -0.000000  -0.000000
    28  H   -0.025553  -0.005921   0.000045   0.000004   0.000005   0.000000
    29  H   -0.044286   0.000998  -0.000057  -0.000017   0.000011   0.000000
    30  H   -0.054092   0.000358  -0.000057   0.000006  -0.000015  -0.000001
    31  H   -0.028756  -0.005356   0.002524  -0.004995  -0.016403   0.000709
    32  H   -0.050406   0.001156   0.000499   0.000579   0.000604  -0.000016
    33  H   -0.044691   0.002358   0.000019  -0.000163   0.001955   0.000002
               7          8          9         10         11         12
     1  N    0.000872  -0.114776   0.005079  -0.006361   0.296706   0.315570
     2  C   -0.000823   0.308692  -0.026669  -0.029728  -0.025459  -0.034827
     3  N   -0.058757  -0.127180  -0.003751   0.001725   0.004728  -0.002743
     4  C    0.359148   0.009928  -0.000448  -0.000212   0.000022   0.001414
     5  C   -0.055665  -0.000538   0.000031   0.000038  -0.000312  -0.085889
     6  C   -0.074456   0.000094  -0.000085   0.000022   0.000003  -0.000302
     7  C    5.194590  -0.000400   0.000041  -0.000003  -0.000001   0.000365
     8  N   -0.000400   6.975772   0.315838   0.312223  -0.009969   0.004311
     9  C    0.000041   0.315838   4.932015  -0.054564   0.000302  -0.000102
    10  C   -0.000003   0.312223  -0.054564   4.998944  -0.009577  -0.000107
    11  C   -0.000001  -0.009969   0.000302  -0.009577   5.020932  -0.061846
    12  C    0.000365   0.004311  -0.000102  -0.000107  -0.061846   5.098414
    13  H    0.006046  -0.000510   0.000009   0.000014  -0.000084  -0.002685
    14  H   -0.004912  -0.000007  -0.000000  -0.000001  -0.000109  -0.077605
    15  H   -0.000211   0.000007  -0.000000  -0.000001   0.000006   0.005684
    16  H    0.006188  -0.000257   0.000038  -0.000004  -0.000000   0.000007
    17  H   -0.000019  -0.000005   0.000002  -0.000000  -0.000000   0.000002
    18  H   -0.008176  -0.000016   0.000009   0.000001  -0.000000   0.000013
    19  H    0.359798   0.000000  -0.000004   0.000001   0.000001  -0.000086
    20  H    0.370279  -0.000028  -0.000018   0.000000  -0.000001  -0.000018
    21  H    0.349987   0.000004  -0.000000   0.000000  -0.000000   0.000032
    22  H    0.000016  -0.028191   0.372610   0.004640  -0.000031  -0.000004
    23  H   -0.000001  -0.054124   0.375597  -0.000843   0.000033  -0.000001
    24  H    0.000008  -0.049583   0.369860  -0.004289  -0.000014   0.000007
    25  H    0.000000  -0.032585   0.004836   0.379448   0.000118  -0.000490
    26  H    0.000001  -0.049554  -0.005327   0.369540   0.000687   0.000050
    27  H   -0.000000  -0.053187   0.000613   0.376424  -0.001702  -0.000024
    28  H    0.000000   0.006843  -0.000210  -0.005374   0.376436   0.005066
    29  H    0.000000   0.000326   0.000037   0.001112   0.372899  -0.002443
    30  H    0.000001   0.000857  -0.000062  -0.004318   0.365964  -0.001904
    31  H   -0.001678   0.000049  -0.000004  -0.000000   0.005593   0.376448
    32  H    0.000031  -0.000122  -0.000002   0.000046  -0.003773   0.377327
    33  H   -0.000005  -0.000104   0.000005   0.000004  -0.004217   0.363717
              13         14         15         16         17         18
     1  N   -0.000686   0.001797  -0.000149   0.000003   0.000006   0.000002
     2  C    0.002951   0.000455   0.000152   0.001181  -0.000069  -0.000073
     3  N   -0.003046   0.002197   0.004118   0.002771   0.006684   0.001559
     4  C   -0.029405  -0.036272  -0.016132  -0.027342  -0.028882  -0.026397
     5  C    0.382654   0.374181   0.327059  -0.001763  -0.004051   0.006306
     6  C   -0.003509   0.005573  -0.008743   0.358396   0.338690   0.363196
     7  C    0.006046  -0.004912  -0.000211   0.006188  -0.000019  -0.008176
     8  N   -0.000510  -0.000007   0.000007  -0.000257  -0.000005  -0.000016
     9  C    0.000009  -0.000000  -0.000000   0.000038   0.000002   0.000009
    10  C    0.000014  -0.000001  -0.000001  -0.000004  -0.000000   0.000001
    11  C   -0.000084  -0.000109   0.000006  -0.000000  -0.000000  -0.000000
    12  C   -0.002685  -0.077605   0.005684   0.000007   0.000002   0.000013
    13  H    0.564683  -0.037268  -0.030934   0.001897   0.000566  -0.000133
    14  H   -0.037268   0.586968  -0.025577  -0.000091  -0.000058  -0.000231
    15  H   -0.030934  -0.025577   0.612660   0.000414   0.002784   0.000306
    16  H    0.001897  -0.000091   0.000414   0.574805  -0.028687  -0.027714
    17  H    0.000566  -0.000058   0.002784  -0.028687   0.623139  -0.031316
    18  H   -0.000133  -0.000231   0.000306  -0.027714  -0.031316   0.577735
    19  H   -0.000121   0.002916  -0.000066  -0.000225  -0.000178   0.000101
    20  H   -0.000158  -0.000044  -0.000167   0.000139   0.000396   0.006348
    21  H   -0.000086   0.000448   0.001192  -0.000133   0.001212   0.000046
    22  H   -0.000000  -0.000001  -0.000000  -0.000006   0.000001   0.000099
    23  H   -0.000000  -0.000000  -0.000000  -0.000000   0.000000   0.000001
    24  H    0.000002   0.000000   0.000000   0.000046   0.000000   0.000004
    25  H    0.000031  -0.000001  -0.000000   0.000000   0.000000   0.000000
    26  H    0.000017   0.000000   0.000000   0.000024   0.000000  -0.000000
    27  H   -0.000001  -0.000000   0.000000  -0.000000  -0.000000  -0.000000
    28  H    0.000006   0.000005  -0.000000   0.000000  -0.000000  -0.000000
    29  H    0.000002  -0.000002  -0.000000  -0.000000   0.000000   0.000000
    30  H    0.000028  -0.000002  -0.000000   0.000000   0.000000   0.000000
    31  H   -0.020040   0.006888   0.000195  -0.000041  -0.000020  -0.000004
    32  H    0.000421   0.001475  -0.000052   0.000002   0.000001  -0.000000
    33  H    0.001084   0.003452  -0.000164  -0.000000  -0.000000  -0.000000
              19         20         21         22         23         24
     1  N   -0.000133   0.000025  -0.000015   0.000329   0.000174  -0.000157
     2  C    0.001789   0.000193  -0.000050   0.001010   0.002962   0.000155
     3  N   -0.002659   0.001284   0.004379   0.011753   0.000671   0.002188
     4  C   -0.021673  -0.025862  -0.025706  -0.000651   0.000003  -0.000074
     5  C   -0.005213   0.006038  -0.002960   0.000037   0.000001   0.000000
     6  C    0.006274  -0.010813  -0.001564   0.000010  -0.000001  -0.000007
     7  C    0.359798   0.370279   0.349987   0.000016  -0.000001   0.000008
     8  N    0.000000  -0.000028   0.000004  -0.028191  -0.054124  -0.049583
     9  C   -0.000004  -0.000018  -0.000000   0.372610   0.375597   0.369860
    10  C    0.000001   0.000000   0.000000   0.004640  -0.000843  -0.004289
    11  C    0.000001  -0.000001  -0.000000  -0.000031   0.000033  -0.000014
    12  C   -0.000086  -0.000018   0.000032  -0.000004  -0.000001   0.000007
    13  H   -0.000121  -0.000158  -0.000086  -0.000000  -0.000000   0.000002
    14  H    0.002916  -0.000044   0.000448  -0.000001  -0.000000   0.000000
    15  H   -0.000066  -0.000167   0.001192  -0.000000  -0.000000   0.000000
    16  H   -0.000225   0.000139  -0.000133  -0.000006  -0.000000   0.000046
    17  H   -0.000178   0.000396   0.001212   0.000001   0.000000   0.000000
    18  H    0.000101   0.006348   0.000046   0.000099   0.000001   0.000004
    19  H    0.585575  -0.033232  -0.031010  -0.000000  -0.000000  -0.000000
    20  H   -0.033232   0.566312  -0.030182   0.000213   0.000001  -0.000000
    21  H   -0.031010  -0.030182   0.602104   0.000001   0.000000  -0.000000
    22  H   -0.000000   0.000213   0.000001   0.519948  -0.027843  -0.027569
    23  H   -0.000000   0.000001   0.000000  -0.027843   0.617591  -0.053097
    24  H   -0.000000  -0.000000  -0.000000  -0.027569  -0.053097   0.618355
    25  H    0.000000  -0.000000   0.000000  -0.000193   0.000046  -0.000064
    26  H   -0.000000  -0.000000  -0.000000  -0.000025  -0.002033   0.012515
    27  H   -0.000000  -0.000000   0.000000  -0.000055   0.006691  -0.003497
    28  H    0.000000  -0.000000  -0.000000  -0.000014  -0.000156   0.000064
    29  H   -0.000001   0.000000   0.000000   0.000003  -0.000005   0.000000
    30  H   -0.000000   0.000000  -0.000000  -0.000000   0.000000   0.000001
    31  H    0.000610   0.000001  -0.000011   0.000000   0.000000  -0.000000
    32  H    0.000003  -0.000000  -0.000003  -0.000000   0.000000  -0.000000
    33  H    0.000026   0.000000   0.000003   0.000001  -0.000000  -0.000000
              25         26         27         28         29         30
     1  N   -0.000242  -0.000014   0.000749  -0.025553  -0.044286  -0.054092
     2  C   -0.000987   0.002312   0.001031  -0.005921   0.000998   0.000358
     3  N   -0.000281   0.001357  -0.000238   0.000045  -0.000057  -0.000057
     4  C   -0.000006  -0.000021   0.000007   0.000004  -0.000017   0.000006
     5  C    0.000001  -0.000002  -0.000000   0.000005   0.000011  -0.000015
     6  C    0.000000  -0.000011  -0.000000   0.000000   0.000000  -0.000001
     7  C    0.000000   0.000001  -0.000000   0.000000   0.000000   0.000001
     8  N   -0.032585  -0.049554  -0.053187   0.006843   0.000326   0.000857
     9  C    0.004836  -0.005327   0.000613  -0.000210   0.000037  -0.000062
    10  C    0.379448   0.369540   0.376424  -0.005374   0.001112  -0.004318
    11  C    0.000118   0.000687  -0.001702   0.376436   0.372899   0.365964
    12  C   -0.000490   0.000050  -0.000024   0.005066  -0.002443  -0.001904
    13  H    0.000031   0.000017  -0.000001   0.000006   0.000002   0.000028
    14  H   -0.000001   0.000000  -0.000000   0.000005  -0.000002  -0.000002
    15  H   -0.000000   0.000000   0.000000  -0.000000  -0.000000  -0.000000
    16  H    0.000000   0.000024  -0.000000   0.000000  -0.000000   0.000000
    17  H    0.000000   0.000000  -0.000000  -0.000000   0.000000   0.000000
    18  H    0.000000  -0.000000  -0.000000  -0.000000   0.000000   0.000000
    19  H    0.000000  -0.000000  -0.000000   0.000000  -0.000001  -0.000000
    20  H   -0.000000  -0.000000  -0.000000  -0.000000   0.000000   0.000000
    21  H    0.000000  -0.000000   0.000000  -0.000000   0.000000  -0.000000
    22  H   -0.000193  -0.000025  -0.000055  -0.000014   0.000003  -0.000000
    23  H    0.000046  -0.002033   0.006691  -0.000156  -0.000005   0.000000
    24  H   -0.000064   0.012515  -0.003497   0.000064   0.000000   0.000001
    25  H    0.550241  -0.029761  -0.031442  -0.011748   0.000956   0.002331
    26  H   -0.029761   0.603623  -0.049554   0.001453  -0.000026   0.000098
    27  H   -0.031442  -0.049554   0.607646   0.000664  -0.000051  -0.000132
    28  H   -0.011748   0.001453   0.000664   0.527374  -0.026357  -0.034181
    29  H    0.000956  -0.000026  -0.000051  -0.026357   0.589886  -0.047031
    30  H    0.002331   0.000098  -0.000132  -0.034181  -0.047031   0.621692
    31  H    0.000006  -0.000002   0.000001  -0.000270   0.000128  -0.000123
    32  H    0.000086  -0.000015   0.000002  -0.000009  -0.002368   0.010813
    33  H    0.000018   0.000000  -0.000000   0.000152   0.008319  -0.003050
              31         32         33
     1  N   -0.028756  -0.050406  -0.044691
     2  C   -0.005356   0.001156   0.002358
     3  N    0.002524   0.000499   0.000019
     4  C   -0.004995   0.000579  -0.000163
     5  C   -0.016403   0.000604   0.001955
     6  C    0.000709  -0.000016   0.000002
     7  C   -0.001678   0.000031  -0.000005
     8  N    0.000049  -0.000122  -0.000104
     9  C   -0.000004  -0.000002   0.000005
    10  C   -0.000000   0.000046   0.000004
    11  C    0.005593  -0.003773  -0.004217
    12  C    0.376448   0.377327   0.363717
    13  H   -0.020040   0.000421   0.001084
    14  H    0.006888   0.001475   0.003452
    15  H    0.000195  -0.000052  -0.000164
    16  H   -0.000041   0.000002  -0.000000
    17  H   -0.000020   0.000001  -0.000000
    18  H   -0.000004  -0.000000  -0.000000
    19  H    0.000610   0.000003   0.000026
    20  H    0.000001  -0.000000   0.000000
    21  H   -0.000011  -0.000003   0.000003
    22  H    0.000000  -0.000000   0.000001
    23  H    0.000000   0.000000  -0.000000
    24  H   -0.000000  -0.000000  -0.000000
    25  H    0.000006   0.000086   0.000018
    26  H   -0.000002  -0.000015   0.000000
    27  H    0.000001   0.000002  -0.000000
    28  H   -0.000270  -0.000009   0.000152
    29  H    0.000128  -0.002368   0.008319
    30  H   -0.000123   0.010813  -0.003050
    31  H    0.643515  -0.040419  -0.026939
    32  H   -0.040419   0.620096  -0.050769
    33  H   -0.026939  -0.050769   0.617551
 Mulliken charges:
               1
     1  N   -0.428086
     2  C    0.598555
     3  N   -0.483436
     4  C    0.238980
     5  C   -0.500070
     6  C   -0.420897
     7  C   -0.442265
     8  N   -0.413812
     9  C   -0.285675
    10  C   -0.328800
    11  C   -0.327336
    12  C   -0.277353
    13  H    0.168256
    14  H    0.195826
    15  H    0.127617
    16  H    0.140351
    17  H    0.119800
    18  H    0.138336
    19  H    0.137508
    20  H    0.149293
    21  H    0.132313
    22  H    0.173913
    23  H    0.134332
    24  H    0.135145
    25  H    0.169681
    26  H    0.144667
    27  H    0.146054
    28  H    0.191675
    29  H    0.147966
    30  H    0.142816
    31  H    0.108394
    32  H    0.134813
    33  H    0.131436
 Sum of Mulliken charges =   0.00000
 Mulliken charges with hydrogens summed into heavy atoms:
               1
     1  N   -0.428086
     2  C    0.598555
     3  N   -0.483436
     4  C    0.238980
     5  C   -0.008371
     6  C   -0.022410
     7  C   -0.023150
     8  N   -0.413812
     9  C    0.157715
    10  C    0.131602
    11  C    0.155121
    12  C    0.097291
 APT charges:
               1
     1  N   -0.781760
     2  C    1.341023
     3  N   -0.981181
     4  C    0.534991
     5  C   -0.051358
     6  C    0.049134
     7  C    0.023593
     8  N   -0.831442
     9  C    0.375674
    10  C    0.379249
    11  C    0.369543
    12  C    0.235591
    13  H   -0.014190
    14  H   -0.034155
    15  H   -0.052617
    16  H   -0.017910
    17  H   -0.057997
    18  H   -0.028144
    19  H   -0.031811
    20  H   -0.013655
    21  H   -0.048484
    22  H    0.026878
    23  H   -0.078014
    24  H   -0.075089
    25  H    0.004609
    26  H   -0.079720
    27  H   -0.064643
    28  H    0.022742
    29  H   -0.066375
    30  H   -0.079494
    31  H    0.174147
    32  H   -0.081114
    33  H   -0.068022
 Sum of APT charges =   0.00000
 APT charges with hydrogens summed into heavy atoms:
               1
     1  N   -0.781760
     2  C    1.341023
     3  N   -0.981181
     4  C    0.534991
     5  C   -0.152320
     6  C   -0.054918
     7  C   -0.070357
     8  N   -0.831442
     9  C    0.249449
    10  C    0.239496
    11  C    0.246416
    12  C    0.260603
 Electronic spatial extent (au):  <R**2>=           2457.5084
 Charge=              0.0000 electrons
 Dipole moment (field-independent basis, Debye):
    X=              1.3456    Y=              1.5727    Z=             -0.3793  Tot=              2.1043
 Quadrupole moment (field-independent basis, Debye-Ang):
   XX=            -72.7307   YY=            -75.0419   ZZ=            -77.6726
   XY=             -1.3644   XZ=             -1.3286   YZ=             -0.8935
 Traceless Quadrupole moment (field-independent basis, Debye-Ang):
   XX=              2.4177   YY=              0.1065   ZZ=             -2.5242
   XY=             -1.3644   XZ=             -1.3286   YZ=             -0.8935
 Octapole moment (field-independent basis, Debye-Ang**2):
  XXX=             18.4652  YYY=              0.6782  ZZZ=              0.0006  XYY=              5.6258
  XXY=              2.4810  XXZ=             -0.8130  XZZ=              4.1857  YZZ=             -0.7493
  YYZ=              3.8552  XYZ=              0.5525
 Hexadecapole moment (field-independent basis, Debye-Ang**3):
 XXXX=          -1921.7039 YYYY=          -1037.7298 ZZZZ=           -359.8275 XXXY=             -3.7548
 XXXZ=             -0.5660 YYYX=             -6.9939 YYYZ=             -2.8390 ZZZX=             -2.2313
 ZZZY=             -0.8210 XXYY=           -495.3153 XXZZ=           -389.7228 YYZZ=           -228.8911
 XXYZ=             -2.9402 YYXZ=             -2.2802 ZZXY=              0.5047
 N-N= 8.076734086036D+02 E-N=-2.820210445973D+03  KE= 5.150849246910D+02
  Exact polarizability: 145.477   4.662 124.184   0.418   1.100  94.706
 Approx polarizability: 189.585  10.791 168.909   1.242   1.009 136.861
 Calling FoFJK, ICntrl=    100127 FMM=F ISym2X=0 I1Cent= 0 IOpClX= 0 NMat=1 NMatS=1 NMatT=0.
 ***** Axes restored to original set *****
 -------------------------------------------------------------------
 Center     Atomic                   Forces (Hartrees/Bohr)
 Number     Number              X              Y              Z
 -------------------------------------------------------------------
      1        7           0.015679667    0.000004967    0.000864021
      2        6          -0.017662012    0.006421508   -0.012304456
      3        7          -0.008654755   -0.009749462    0.004255187
      4        6           0.000313499   -0.008700437   -0.005441316
      5        6          -0.038641903    0.017227069   -0.010691799
      6        6          -0.004445592   -0.001518665   -0.005553462
      7        6          -0.002566642    0.002915677    0.006854944
      8        7           0.025471135   -0.016272370    0.002604402
      9        6          -0.003418590    0.007346048   -0.000022530
     10        6          -0.005973612   -0.000957671    0.002125604
     11        6          -0.000781796   -0.004089758    0.013996486
     12        6           0.022231811   -0.002116379    0.018603767
     13        1          -0.006765431    0.000217399    0.000328850
     14        1          -0.035920837    0.008005233   -0.005265057
     15        1          -0.004506897   -0.002750577   -0.000799073
     16        1           0.001457476    0.002091062    0.000927633
     17        1           0.000499492    0.000259233    0.001514816
     18        1           0.002920192   -0.001772691    0.000773071
     19        1           0.007551681    0.004187545    0.001305024
     20        1           0.000605502   -0.000161042   -0.003276837
     21        1          -0.001301690    0.000271921   -0.000626622
     22        1           0.003044721    0.007577710   -0.002892193
     23        1           0.002586593   -0.001547170   -0.000760215
     24        1          -0.002976705   -0.002857326   -0.003089419
     25        1          -0.008410384   -0.005541867   -0.001937645
     26        1          -0.001911598   -0.002054391   -0.003263487
     27        1           0.002281791   -0.004009994   -0.001959489
     28        1          -0.004528844    0.009039687    0.007748821
     29        1           0.000084619    0.003285719    0.000138628
     30        1           0.005105158    0.005751152   -0.004875297
     31        1           0.051997403   -0.012747268    0.005053298
     32        1          -0.000827838    0.004070127   -0.005634858
     33        1           0.007464385   -0.001824989    0.001299204
 -------------------------------------------------------------------
 Cartesian Forces:  Max     0.051997403 RMS     0.010167834
 FormGI is forming the generalized inverse of G from B-inverse, IUseBI=4.

 GradGradGradGradGradGradGradGradGradGradGradGradGradGradGradGradGradGrad
 Berny optimization.
 Internal  Forces:  Max     0.407372517 RMS     0.047223760
 Search for a local minimum.
 Step number   1 out of a maximum of  164
 All quantities printed in internal units (Hartrees-Bohrs-Radians)
 Mixed Optimization -- RFO/linear search
 Second derivative matrix not updated -- analytic derivatives used.
 ITU=  0
     Eigenvalues ---   -0.44982  -0.08520  -0.05862  -0.03413  -0.01101
     Eigenvalues ---   -0.00154   0.00113   0.00206   0.00334   0.00456
     Eigenvalues ---    0.00627   0.01226   0.03095   0.03554   0.04324
     Eigenvalues ---    0.04623   0.04669   0.04758   0.04894   0.04981
     Eigenvalues ---    0.05499   0.05598   0.06240   0.06288   0.06444
     Eigenvalues ---    0.06530   0.06612   0.06729   0.07121   0.07393
     Eigenvalues ---    0.08264   0.09723   0.10146   0.11284   0.12040
     Eigenvalues ---    0.12327   0.12394   0.12686   0.12843   0.13113
     Eigenvalues ---    0.13125   0.14301   0.14543   0.15363   0.15611
     Eigenvalues ---    0.15671   0.16028   0.16829   0.17497   0.17543
     Eigenvalues ---    0.17736   0.18113   0.18242   0.18416   0.20035
     Eigenvalues ---    0.20404   0.23215   0.23304   0.24411   0.26041
     Eigenvalues ---    0.28543   0.29814   0.30975   0.32333   0.32716
     Eigenvalues ---    0.32843   0.32956   0.33023   0.33135   0.33184
     Eigenvalues ---    0.33414   0.33570   0.33626   0.33815   0.33828
     Eigenvalues ---    0.34097   0.34158   0.34214   0.34481   0.34598
     Eigenvalues ---    0.35003   0.35355   0.35813   0.36027   0.36265
     Eigenvalues ---    0.36633   0.37286   0.38419   0.38908   0.41703
     Eigenvalues ---    0.72435   1.03011   7.57520
 RFO step:  Lambda=-4.49831426D-01 EMin=-4.49822273D-01
 I=     1 Eig=   -4.50D-01 Dot1=  1.15D-03
 I=     1 Stepn=  6.00D-01 RXN=   6.00D-01 EDone=F
 I=     2 Eig=   -8.52D-02 Dot1=  1.46D-03
 I=     2 Stepn=  3.00D-01 RXN=   6.71D-01 EDone=F
 I=     3 Eig=   -5.86D-02 Dot1=  1.13D-03
 I=     3 Stepn=  1.50D-01 RXN=   6.87D-01 EDone=F
 Mixed    3 eigenvectors in step.  Raw Step.Grad=  3.73D-03.
 RFO eigenvector is Hessian eigenvector with negative curvature.
 Taking step of  6.00D-01 in eigenvector direction(s).  Step.Grad=  1.75D-02.
 Linear search not attempted -- first point.
 Maximum step size (   0.300) exceeded in Quadratic search.
    -- Step size not scaled.
 Iteration  1 RMS(Cart)=  0.25968087 RMS(Int)=  0.02002392
 Iteration  2 RMS(Cart)=  0.08668634 RMS(Int)=  0.00192506
 Iteration  3 RMS(Cart)=  0.00315989 RMS(Int)=  0.00048228
 Iteration  4 RMS(Cart)=  0.00000734 RMS(Int)=  0.00048226
 Iteration  5 RMS(Cart)=  0.00000000 RMS(Int)=  0.00048226
 Variable       Old X    -DE/DX   Delta X   Delta X   Delta X     New X
                                 (Linear)    (Quad)   (Total)
    R1        2.62534   0.07054   0.00000  -0.04059  -0.04059   2.58474
    R2        2.77313  -0.00352   0.00000  -0.01132  -0.01132   2.76181
    R3        2.74215  -0.02903   0.00000  -0.09572  -0.09572   2.64643
    R4        2.41762   0.08918   0.00000  -0.00003  -0.00003   2.41759
    R5        2.63587   0.02269   0.00000  -0.00825  -0.00825   2.62762
    R6        2.73423   0.07090   0.00000   0.03824   0.03824   2.77247
    R7        2.89239   0.00431   0.00000   0.11013   0.11013   3.00252
    R8        2.93529   0.00131   0.00000  -0.00173  -0.00173   2.93355
    R9        2.89854   0.00289   0.00000  -0.00135  -0.00135   2.89718
   R10        2.07043  -0.00463   0.00000   0.01092   0.01092   2.08135
   R11        2.06093  -0.01341   0.00000  -0.00928  -0.00928   2.05165
   R12        2.07241   0.00248   0.00000   0.00069   0.00069   2.07310
   R13        2.07215  -0.00098   0.00000  -0.00080  -0.00080   2.07135
   R14        2.07514  -0.00039   0.00000  -0.00057  -0.00057   2.07457
   R15        2.06838   0.00049   0.00000   0.00033   0.00033   2.06871
   R16        2.05464   0.00710   0.00000   0.00012   0.00012   2.05476
   R17        2.07192  -0.00106   0.00000  -0.00028  -0.00028   2.07164
   R18        2.07161   0.00108   0.00000   0.00028   0.00028   2.07189
   R19        2.75761  -0.01070   0.00000   0.00021   0.00021   2.75782
   R20        2.77091  -0.00362   0.00000  -0.00141  -0.00141   2.76950
   R21        2.06997  -0.00361   0.00000   0.00015   0.00015   2.07012
   R22        2.07159   0.00252   0.00000  -0.00028  -0.00028   2.07132
   R23        2.06745   0.00496   0.00000   0.00000   0.00000   2.06745
   R24        2.06992  -0.00760   0.00000   0.00024   0.00024   2.07015
   R25        2.07100   0.00428   0.00000  -0.00015  -0.00015   2.07084
   R26        2.06941   0.00371   0.00000  -0.00017  -0.00017   2.06924
   R27        2.07134  -0.01002   0.00000   0.00336   0.00336   2.07470
   R28        2.07225   0.00150   0.00000   0.00016   0.00016   2.07241
   R29        2.05709   0.00831   0.00000   0.00126   0.00126   2.05835
   R30        2.04870  -0.05228   0.00000  -0.00847  -0.00847   2.04023
   R31        2.06585   0.00625   0.00000   0.00000   0.00000   2.06585
   R32        2.07305   0.00373   0.00000   0.00198   0.00198   2.07504
    A1        2.13677  -0.04307   0.00000   0.06216   0.06265   2.19942
    A2        2.18209   0.12701   0.00000  -0.19739  -0.19753   1.98456
    A3        1.94111  -0.08126   0.00000   0.13328   0.13336   2.07447
    A4        2.28987   0.24135   0.00000  -0.08541  -0.08558   2.20429
    A5        1.97529  -0.09498   0.00000   0.03720   0.03708   2.01238
    A6        2.01626  -0.14490   0.00000   0.04986   0.04976   2.06603
    A7        2.40148   0.40737   0.00000   0.03041   0.03041   2.43189
    A8        1.97038   0.08046   0.00000   0.03364   0.03229   2.00267
    A9        1.83093  -0.03233   0.00000  -0.02008  -0.01966   1.81127
   A10        1.95085  -0.02762   0.00000  -0.00288  -0.00382   1.94703
   A11        1.86848  -0.03916   0.00000  -0.06084  -0.06045   1.80803
   A12        1.98117  -0.02124   0.00000   0.03046   0.02992   2.01109
   A13        1.84902   0.03483   0.00000   0.00997   0.01045   1.85947
   A14        1.94710   0.00443   0.00000  -0.01578  -0.01693   1.93017
   A15        1.95614   0.00992   0.00000   0.15059   0.15050   2.10664
   A16        1.95307  -0.01371   0.00000  -0.04339  -0.04321   1.90985
   A17        1.89438   0.00691   0.00000  -0.05869  -0.05975   1.83463
   A18        1.87217   0.00097   0.00000   0.00568   0.00477   1.87695
   A19        1.83542  -0.00912   0.00000  -0.04619  -0.04519   1.79023
   A20        1.94262  -0.00249   0.00000  -0.00186  -0.00186   1.94077
   A21        1.94863  -0.00051   0.00000   0.00377   0.00377   1.95239
   A22        1.94421  -0.00254   0.00000  -0.00299  -0.00299   1.94121
   A23        1.88451   0.00164   0.00000   0.00054   0.00055   1.88506
   A24        1.86987   0.00201   0.00000   0.00101   0.00100   1.87087
   A25        1.87023   0.00227   0.00000  -0.00043  -0.00043   1.86981
   A26        1.98437  -0.00539   0.00000   0.00244   0.00244   1.98680
   A27        1.93905  -0.00307   0.00000  -0.00371  -0.00370   1.93535
   A28        1.93629   0.00080   0.00000   0.00218   0.00218   1.93847
   A29        1.84433   0.00482   0.00000  -0.00010  -0.00010   1.84423
   A30        1.87513   0.00211   0.00000  -0.00134  -0.00134   1.87379
   A31        1.87910   0.00132   0.00000   0.00040   0.00040   1.87950
   A32        2.15314  -0.01800   0.00000   0.00096   0.00095   2.15409
   A33        2.09278   0.02103   0.00000  -0.00206  -0.00208   2.09070
   A34        1.96573  -0.00571   0.00000   0.00460   0.00459   1.97032
   A35        1.97981  -0.01201   0.00000  -0.00118  -0.00118   1.97863
   A36        1.91134   0.00104   0.00000   0.00021   0.00021   1.91155
   A37        1.93391   0.00393   0.00000   0.00007   0.00007   1.93397
   A38        1.87983   0.00510   0.00000   0.00041   0.00041   1.88024
   A39        1.87151   0.00290   0.00000   0.00066   0.00066   1.87217
   A40        1.88423  -0.00046   0.00000  -0.00011  -0.00011   1.88411
   A41        1.97399  -0.00040   0.00000  -0.00128  -0.00128   1.97271
   A42        1.93325  -0.00213   0.00000   0.00176   0.00176   1.93501
   A43        1.91360   0.00446   0.00000  -0.00151  -0.00152   1.91208
   A44        1.89049  -0.00205   0.00000   0.00102   0.00102   1.89151
   A45        1.85766   0.00228   0.00000  -0.00055  -0.00055   1.85711
   A46        1.89175  -0.00214   0.00000   0.00055   0.00055   1.89230
   A47        1.98737  -0.00313   0.00000  -0.00580  -0.00580   1.98157
   A48        1.91013  -0.00319   0.00000   0.00167   0.00167   1.91181
   A49        1.92421   0.00439   0.00000   0.00116   0.00116   1.92536
   A50        1.87513   0.00029   0.00000   0.00344   0.00345   1.87857
   A51        1.86968   0.00404   0.00000  -0.00129  -0.00129   1.86839
   A52        1.89459  -0.00242   0.00000   0.00106   0.00105   1.89564
   A53        1.97833  -0.00281   0.00000  -0.16744  -0.16736   1.81097
   A54        1.93129   0.00665   0.00000   0.04984   0.04899   1.98028
   A55        1.92287  -0.00921   0.00000   0.03719   0.03582   1.95869
   A56        1.91447   0.00337   0.00000   0.05464   0.05526   1.96973
   A57        1.84425   0.00131   0.00000   0.03030   0.02978   1.87404
   A58        1.86762   0.00051   0.00000   0.00344   0.00142   1.86903
    D1       -3.12927  -0.01047   0.00000   0.02855   0.02911  -3.10016
    D2       -0.05544   0.00978   0.00000   0.06302   0.06242   0.00698
    D3       -0.23799  -0.00789   0.00000   0.03718   0.03778  -0.20021
    D4        2.83584   0.01237   0.00000   0.07164   0.07109   2.90693
    D5       -0.19286   0.00899   0.00000  -0.01163  -0.01096  -0.20382
    D6       -2.29150   0.01298   0.00000  -0.01338  -0.01270  -2.30421
    D7        1.90897   0.01525   0.00000  -0.01643  -0.01576   1.89321
    D8       -3.11510  -0.02014   0.00000   0.02322   0.02255  -3.09255
    D9        1.06944  -0.01615   0.00000   0.02148   0.02080   1.09025
   D10       -1.01327  -0.01388   0.00000   0.01842   0.01775  -0.99552
   D11        0.30990   0.00916   0.00000   0.01348   0.01379   0.32370
   D12       -1.84919   0.00168   0.00000   0.02718   0.02899  -1.82020
   D13        2.37222   0.00268   0.00000  -0.03107  -0.03083   2.34140
   D14       -3.05790   0.01245   0.00000   0.01842   0.01716  -3.04074
   D15        1.06619   0.00496   0.00000   0.03213   0.03235   1.09855
   D16       -0.99558   0.00597   0.00000  -0.02613  -0.02746  -1.02304
   D17        0.09804   0.06248   0.00000   0.19880   0.19833   0.29637
   D18       -2.97452   0.03988   0.00000   0.16423   0.16470  -2.80982
   D19        2.61183  -0.02331   0.00000   0.00493   0.00405   2.61588
   D20       -0.95673  -0.03191   0.00000   0.01594   0.01504  -0.94169
   D21       -0.58625   0.00943   0.00000   0.02808   0.02898  -0.55727
   D22        2.12837   0.00082   0.00000   0.03908   0.03997   2.16834
   D23        0.51743   0.05454   0.00000   0.21409   0.21427   0.73171
   D24        2.54591   0.02881   0.00000   0.14615   0.14581   2.69172
   D25       -1.74142   0.03864   0.00000   0.14528   0.14544  -1.59598
   D26        0.52819  -0.00971   0.00000  -0.01912  -0.01979   0.50840
   D27       -1.60029  -0.02901   0.00000  -0.03982  -0.04098  -1.64127
   D28        2.62589  -0.01486   0.00000  -0.05281  -0.05299   2.57290
   D29       -1.47783   0.01022   0.00000   0.02421   0.02429  -1.45354
   D30        2.67688  -0.00908   0.00000   0.00351   0.00310   2.67998
   D31        0.61987   0.00507   0.00000  -0.00948  -0.00891   0.61096
   D32        2.77141   0.00445   0.00000   0.03384   0.03443   2.80584
   D33        0.64293  -0.01485   0.00000   0.01314   0.01324   0.65617
   D34       -1.41407  -0.00070   0.00000   0.00015   0.00123  -1.41285
   D35       -0.84608  -0.03006   0.00000  -0.00151  -0.00206  -0.84815
   D36       -2.95339  -0.03007   0.00000  -0.00352  -0.00407  -2.95746
   D37        1.23960  -0.03088   0.00000  -0.00349  -0.00404   1.23557
   D38        1.25150   0.02723   0.00000  -0.00253  -0.00215   1.24935
   D39       -0.85581   0.02722   0.00000  -0.00454  -0.00415  -0.85996
   D40       -2.94600   0.02640   0.00000  -0.00451  -0.00412  -2.95012
   D41       -2.91214   0.00055   0.00000   0.00662   0.00678  -2.90536
   D42        1.26373   0.00054   0.00000   0.00461   0.00478   1.26851
   D43       -0.82646  -0.00027   0.00000   0.00464   0.00481  -0.82165
   D44        1.01924   0.03465   0.00000   0.02916   0.02891   1.04815
   D45       -1.05854   0.03431   0.00000   0.03028   0.03003  -1.02852
   D46        3.13496   0.03415   0.00000   0.03078   0.03053  -3.11769
   D47       -1.23396  -0.03462   0.00000  -0.04162  -0.04141  -1.27537
   D48        2.97144  -0.03495   0.00000  -0.04051  -0.04029   2.93115
   D49        0.88176  -0.03512   0.00000  -0.04000  -0.03979   0.84197
   D50        3.00390   0.00253   0.00000   0.00962   0.00966   3.01356
   D51        0.92612   0.00220   0.00000   0.01074   0.01078   0.93689
[...]
   XX=            -74.9262   YY=            -74.9279   ZZ=            -77.9266
   XY=              0.2946   XZ=             -0.3598   YZ=             -0.3641
 Traceless Quadrupole moment (field-independent basis, Debye-Ang):
   XX=              1.0007   YY=              0.9990   ZZ=             -1.9997
   XY=              0.2946   XZ=             -0.3598   YZ=             -0.3641
 Octapole moment (field-independent basis, Debye-Ang**2):
  XXX=              7.6256  YYY=              0.7733  ZZZ=              3.6713  XYY=              5.3647
  XXY=              2.4526  XXZ=              3.6730  XZZ=              1.3695  YZZ=              1.0986
  YYZ=              0.5910  XYZ=             -1.0841
 Hexadecapole moment (field-independent basis, Debye-Ang**3):
 XXXX=          -1823.6579 YYYY=          -1017.7285 ZZZZ=           -419.7586 XXXY=             -5.8570
 XXXZ=             -2.5468 YYYX=             -4.1785 YYYZ=             -2.4449 ZZZX=              3.4136
 ZZZY=             -0.3499 XXYY=           -473.5305 XXZZ=           -386.9356 YYZZ=           -239.5709
 XXYZ=              3.1645 YYXZ=              5.5461 ZZXY=              4.1245
 N-N= 8.082624644081D+02 E-N=-2.821120229524D+03  KE= 5.149012032072D+02
 Evaluate density.
 Using the total density.
 Monte-Carlo method of calculating molar volume:
 based on  0.001 e/bohr**3 density envelope.
 Number of points per bohr**3 =   20 CutOff= 1.00D-04
 Using the CI density.
 There are       417 points.  Will hold       417 in memory.
 LenV=  1342033532 MDV=  1342177280.
 Box volume = 9074.870 fraction occupied=0.201
 Integrated density= 3.6437852804329431D+01 error=-5.9562147195670569D+01
 Molar volume = 1828.031 bohr**3/mol (163.132 cm**3/mol)
 Recommended a0 for SCRF calculation =  4.92 angstrom (  9.29 bohr)
 ******************************Gaussian NBO Version 3.1******************************
             N A T U R A L   A T O M I C   O R B I T A L   A N D
          N A T U R A L   B O N D   O R B I T A L   A N A L Y S I S
 ******************************Gaussian NBO Version 3.1******************************
       /RESON  / : Allow strongly delocalized NBO set

 Analyzing the CI density

 Job title: Title Card Required                                             

 Storage needed:    151374 in NPA (1342171505 available)


 NATURAL POPULATIONS:  Natural atomic orbital occupancies 
                                                          
   NAO  Atom  No  lang   Type(AO)    Occupancy
 --------------------------------------------
     1    N    1  S      Cor( 1S)     1.99935
     2    N    1  S      Val( 2S)     1.18672
     3    N    1  S      Ryd( 3S)     0.00085
     4    N    1  S      Ryd( 4S)     0.00002
     5    N    1  px     Val( 2p)     1.55848
     6    N    1  px     Ryd( 3p)     0.00570
     7    N    1  py     Val( 2p)     1.30474
     8    N    1  py     Ryd( 3p)     0.00109
     9    N    1  pz     Val( 2p)     1.39465
    10    N    1  pz     Ryd( 3p)     0.00173
    11    N    1  dxy    Ryd( 3d)     0.00037
    12    N    1  dxz    Ryd( 3d)     0.00058
    13    N    1  dyz    Ryd( 3d)     0.00129
    14    N    1  dx2y2  Ryd( 3d)     0.00053
    15    N    1  dz2    Ryd( 3d)     0.00041
 
    16    C    2  S      Cor( 1S)     1.99913
    17    C    2  S      Val( 2S)     0.69983
    18    C    2  S      Ryd( 3S)     0.00224
    19    C    2  S      Ryd( 4S)     0.00022
    20    C    2  px     Val( 2p)     0.85258
    21    C    2  px     Ryd( 3p)     0.00600
    22    C    2  py     Val( 2p)     0.81677
    23    C    2  py     Ryd( 3p)     0.00573
    24    C    2  pz     Val( 2p)     1.21919
    25    C    2  pz     Ryd( 3p)     0.01204
    26    C    2  dxy    Ryd( 3d)     0.00245
    27    C    2  dxz    Ryd( 3d)     0.00238
    28    C    2  dyz    Ryd( 3d)     0.00102
    29    C    2  dx2y2  Ryd( 3d)     0.00160
    30    C    2  dz2    Ryd( 3d)     0.00060
 
    31    N    3  S      Cor( 1S)     1.99898
    32    N    3  S      Val( 2S)     1.27315
    33    N    3  S      Ryd( 3S)     0.00214
    34    N    3  S      Ryd( 4S)     0.00003
    35    N    3  px     Val( 2p)     1.23445
    36    N    3  px     Ryd( 3p)     0.00200
    37    N    3  py     Val( 2p)     1.13590
    38    N    3  py     Ryd( 3p)     0.00431
    39    N    3  pz     Val( 2p)     1.67178
    40    N    3  pz     Ryd( 3p)     0.00715
    41    N    3  dxy    Ryd( 3d)     0.00082
    42    N    3  dxz    Ryd( 3d)     0.00112
    43    N    3  dyz    Ryd( 3d)     0.00072
    44    N    3  dx2y2  Ryd( 3d)     0.00031
    45    N    3  dz2    Ryd( 3d)     0.00055
 
    46    C    4  S      Cor( 1S)     1.99908
    47    C    4  S      Val( 2S)     0.90539
    48    C    4  S      Ryd( 3S)     0.00068
    49    C    4  S      Ryd( 4S)     0.00003
    50    C    4  px     Val( 2p)     0.90370
    51    C    4  px     Ryd( 3p)     0.00291
    52    C    4  py     Val( 2p)     1.02532
    53    C    4  py     Ryd( 3p)     0.00462
    54    C    4  pz     Val( 2p)     1.04962
    55    C    4  pz     Ryd( 3p)     0.00487
    56    C    4  dxy    Ryd( 3d)     0.00125
    57    C    4  dxz    Ryd( 3d)     0.00169
    58    C    4  dyz    Ryd( 3d)     0.00103
    59    C    4  dx2y2  Ryd( 3d)     0.00101
    60    C    4  dz2    Ryd( 3d)     0.00093
 
    61    C    5  S      Cor( 1S)     1.99935
    62    C    5  S      Val( 2S)     1.10195
    63    C    5  S      Ryd( 3S)     0.00084
    64    C    5  S      Ryd( 4S)     0.00002
    65    C    5  px     Val( 2p)     1.20302
    66    C    5  px     Ryd( 3p)     0.00165
    67    C    5  py     Val( 2p)     1.23343
    68    C    5  py     Ryd( 3p)     0.00216
    69    C    5  pz     Val( 2p)     1.12819
    70    C    5  pz     Ryd( 3p)     0.00242
    71    C    5  dxy    Ryd( 3d)     0.00042
    72    C    5  dxz    Ryd( 3d)     0.00035
    73    C    5  dyz    Ryd( 3d)     0.00106
    74    C    5  dx2y2  Ryd( 3d)     0.00092
    75    C    5  dz2    Ryd( 3d)     0.00063
 
    76    C    6  S      Cor( 1S)     1.99935
    77    C    6  S      Val( 2S)     1.10074
    78    C    6  S      Ryd( 3S)     0.00078
    79    C    6  S      Ryd( 4S)     0.00001
    80    C    6  px     Val( 2p)     1.19102
    81    C    6  px     Ryd( 3p)     0.00181
    82    C    6  py     Val( 2p)     1.14011
    83    C    6  py     Ryd( 3p)     0.00216
    84    C    6  pz     Val( 2p)     1.22376
    85    C    6  pz     Ryd( 3p)     0.00212
    86    C    6  dxy    Ryd( 3d)     0.00041
    87    C    6  dxz    Ryd( 3d)     0.00040
    88    C    6  dyz    Ryd( 3d)     0.00100
    89    C    6  dx2y2  Ryd( 3d)     0.00096
    90    C    6  dz2    Ryd( 3d)     0.00066
 
    91    C    7  S      Cor( 1S)     1.99931
    92    C    7  S      Val( 2S)     1.09802
    93    C    7  S      Ryd( 3S)     0.00065
    94    C    7  S      Ryd( 4S)     0.00002
    95    C    7  px     Val( 2p)     1.24345
    96    C    7  px     Ryd( 3p)     0.00148
    97    C    7  py     Val( 2p)     1.14371
    98    C    7  py     Ryd( 3p)     0.00207
    99    C    7  pz     Val( 2p)     1.16717
   100    C    7  pz     Ryd( 3p)     0.00184
   101    C    7  dxy    Ryd( 3d)     0.00044
   102    C    7  dxz    Ryd( 3d)     0.00056
   103    C    7  dyz    Ryd( 3d)     0.00068
   104    C    7  dx2y2  Ryd( 3d)     0.00097
   105    C    7  dz2    Ryd( 3d)     0.00076
 
   106    N    8  S      Cor( 1S)     1.99939
   107    N    8  S      Val( 2S)     1.23289
   108    N    8  S      Ryd( 3S)     0.00145
   109    N    8  S      Ryd( 4S)     0.00003
   110    N    8  px     Val( 2p)     1.31489
   111    N    8  px     Ryd( 3p)     0.00214
   112    N    8  py     Val( 2p)     1.28293
   113    N    8  py     Ryd( 3p)     0.00207
   114    N    8  pz     Val( 2p)     1.65306
   115    N    8  pz     Ryd( 3p)     0.00431
   116    N    8  dxy    Ryd( 3d)     0.00058
   117    N    8  dxz    Ryd( 3d)     0.00118
   118    N    8  dyz    Ryd( 3d)     0.00076
   119    N    8  dx2y2  Ryd( 3d)     0.00059
   120    N    8  dz2    Ryd( 3d)     0.00077
 
   121    C    9  S      Cor( 1S)     1.99949
   122    C    9  S      Val( 2S)     1.07933
   123    C    9  S      Ryd( 3S)     0.00111
   124    C    9  S      Ryd( 4S)     0.00003
   125    C    9  px     Val( 2p)     1.23705
   126    C    9  px     Ryd( 3p)     0.00296
   127    C    9  py     Val( 2p)     0.90600
   128    C    9  py     Ryd( 3p)     0.00201
   129    C    9  pz     Val( 2p)     1.23289
   130    C    9  pz     Ryd( 3p)     0.00151
   131    C    9  dxy    Ryd( 3d)     0.00084
   132    C    9  dxz    Ryd( 3d)     0.00092
   133    C    9  dyz    Ryd( 3d)     0.00140
   134    C    9  dx2y2  Ryd( 3d)     0.00116
   135    C    9  dz2    Ryd( 3d)     0.00071
 
   136    C   10  S      Cor( 1S)     1.99946
   137    C   10  S      Val( 2S)     1.08354
   138    C   10  S      Ryd( 3S)     0.00103
   139    C   10  S      Ryd( 4S)     0.00003
   140    C   10  px     Val( 2p)     1.00860
   141    C   10  px     Ryd( 3p)     0.00141
   142    C   10  py     Val( 2p)     1.22746
   143    C   10  py     Ryd( 3p)     0.00296
   144    C   10  pz     Val( 2p)     1.12921
   145    C   10  pz     Ryd( 3p)     0.00178
   146    C   10  dxy    Ryd( 3d)     0.00060
   147    C   10  dxz    Ryd( 3d)     0.00122
   148    C   10  dyz    Ryd( 3d)     0.00052
   149    C   10  dx2y2  Ryd( 3d)     0.00127
   150    C   10  dz2    Ryd( 3d)     0.00140
 
   151    C   11  S      Cor( 1S)     1.99946
   152    C   11  S      Val( 2S)     1.08279
   153    C   11  S      Ryd( 3S)     0.00117
   154    C   11  S      Ryd( 4S)     0.00002
   155    C   11  px     Val( 2p)     1.09036
   156    C   11  px     Ryd( 3p)     0.00137
   157    C   11  py     Val( 2p)     1.21662
   158    C   11  py     Ryd( 3p)     0.00298
   159    C   11  pz     Val( 2p)     1.06768
   160    C   11  pz     Ryd( 3p)     0.00227
   161    C   11  dxy    Ryd( 3d)     0.00079
   162    C   11  dxz    Ryd( 3d)     0.00109
   163    C   11  dyz    Ryd( 3d)     0.00135
   164    C   11  dx2y2  Ryd( 3d)     0.00101
   165    C   11  dz2    Ryd( 3d)     0.00070
 
   166    C   12  S      Cor( 1S)     1.99946
   167    C   12  S      Val( 2S)     1.08113
   168    C   12  S      Ryd( 3S)     0.00112
   169    C   12  S      Ryd( 4S)     0.00002
   170    C   12  px     Val( 2p)     1.21649
   171    C   12  px     Ryd( 3p)     0.00147
   172    C   12  py     Val( 2p)     1.09131
   173    C   12  py     Ryd( 3p)     0.00218
   174    C   12  pz     Val( 2p)     1.06511
   175    C   12  pz     Ryd( 3p)     0.00254
   176    C   12  dxy    Ryd( 3d)     0.00140
   177    C   12  dxz    Ryd( 3d)     0.00107
   178    C   12  dyz    Ryd( 3d)     0.00131
   179    C   12  dx2y2  Ryd( 3d)     0.00047
   180    C   12  dz2    Ryd( 3d)     0.00072
 
   181    H   13  S      Val( 1S)     0.76112
   182    H   13  S      Ryd( 2S)     0.00143
 
   183    H   14  S      Val( 1S)     0.77712
   184    H   14  S      Ryd( 2S)     0.00092
 
   185    H   15  S      Val( 1S)     0.77709
   186    H   15  S      Ryd( 2S)     0.00177
 
   187    H   16  S      Val( 1S)     0.76368
   188    H   16  S      Ryd( 2S)     0.00121
 
   189    H   17  S      Val( 1S)     0.77654
   190    H   17  S      Ryd( 2S)     0.00158
 
   191    H   18  S      Val( 1S)     0.76517
   192    H   18  S      Ryd( 2S)     0.00120
 
   193    H   19  S      Val( 1S)     0.76319
   194    H   19  S      Ryd( 2S)     0.00107
 
   195    H   20  S      Val( 1S)     0.75709
   196    H   20  S      Ryd( 2S)     0.00105
 
   197    H   21  S      Val( 1S)     0.76152
   198    H   21  S      Ryd( 2S)     0.00137
 
   199    H   22  S      Val( 1S)     0.76446
   200    H   22  S      Ryd( 2S)     0.00088
 
   201    H   23  S      Val( 1S)     0.77751
   202    H   23  S      Ryd( 2S)     0.00097
 
   203    H   24  S      Val( 1S)     0.80292
   204    H   24  S      Ryd( 2S)     0.00469
 
   205    H   25  S      Val( 1S)     0.77625
   206    H   25  S      Ryd( 2S)     0.00090
 
   207    H   26  S      Val( 1S)     0.80648
   208    H   26  S      Ryd( 2S)     0.00651
 
   209    H   27  S      Val( 1S)     0.78373
   210    H   27  S      Ryd( 2S)     0.00226
 
   211    H   28  S      Val( 1S)     0.74820
   212    H   28  S      Ryd( 2S)     0.00102
 
   213    H   29  S      Val( 1S)     0.78808
   214    H   29  S      Ryd( 2S)     0.00255
 
   215    H   30  S      Val( 1S)     0.78734
   216    H   30  S      Ryd( 2S)     0.00203
 
   217    H   31  S      Val( 1S)     0.76342
   218    H   31  S      Ryd( 2S)     0.00090
 
   219    H   32  S      Val( 1S)     0.79017
   220    H   32  S      Ryd( 2S)     0.00378
 
   221    H   33  S      Val( 1S)     0.79192
   222    H   33  S      Ryd( 2S)     0.00186

 WARNING:  1 low occupancy (<1.9990e) core orbital  found on  N    3


 Summary of Natural Population Analysis:                  
                                                          
                                       Natural Population 
                Natural  -----------------------------------------------
    Atom  No    Charge         Core      Valence    Rydberg      Total
 -----------------------------------------------------------------------
      N    1   -0.45652      1.99935     5.44458    0.01258     7.45652
      C    2    0.37822      1.99913     3.58838    0.03428     5.62178
      N    3   -0.33341      1.99898     5.31528    0.01914     7.33341
      C    4    0.09788      1.99908     3.88404    0.01901     5.90212
      C    5   -0.67641      1.99935     4.66659    0.01047     6.67641
      C    6   -0.66529      1.99935     4.65562    0.01032     6.66529
      C    7   -0.66112      1.99931     4.65235    0.00947     6.66112
      N    8   -0.49703      1.99939     5.48377    0.01386     7.49703
      C    9   -0.46742      1.99949     4.45528    0.01265     6.46742
      C   10   -0.46049      1.99946     4.44880    0.01223     6.46049
      C   11   -0.46965      1.99946     4.45744    0.01275     6.46965
      C   12   -0.46580      1.99946     4.45404    0.01230     6.46580
      H   13    0.23745      0.00000     0.76112    0.00143     0.76255
      H   14    0.22196      0.00000     0.77712    0.00092     0.77804
      H   15    0.22115      0.00000     0.77709    0.00177     0.77885
      H   16    0.23511      0.00000     0.76368    0.00121     0.76489
      H   17    0.22188      0.00000     0.77654    0.00158     0.77812
      H   18    0.23363      0.00000     0.76517    0.00120     0.76637
      H   19    0.23573      0.00000     0.76319    0.00107     0.76427
      H   20    0.24186      0.00000     0.75709    0.00105     0.75814
      H   21    0.23710      0.00000     0.76152    0.00137     0.76290
      H   22    0.23466      0.00000     0.76446    0.00088     0.76534
      H   23    0.22152      0.00000     0.77751    0.00097     0.77848
      H   24    0.19239      0.00000     0.80292    0.00469     0.80761
      H   25    0.22286      0.00000     0.77625    0.00090     0.77714
      H   26    0.18700      0.00000     0.80648    0.00651     0.81300
      H   27    0.21401      0.00000     0.78373    0.00226     0.78599
      H   28    0.25078      0.00000     0.74820    0.00102     0.74922
      H   29    0.20937      0.00000     0.78808    0.00255     0.79063
      H   30    0.21063      0.00000     0.78734    0.00203     0.78937
      H   31    0.23568      0.00000     0.76342    0.00090     0.76432
      H   32    0.20605      0.00000     0.79017    0.00378     0.79395
      H   33    0.20622      0.00000     0.79192    0.00186     0.79378
 =======================================================================
   * Total *   -0.00000     23.99182    71.78919    0.21899    96.00000

                                 Natural Population      
 --------------------------------------------------------
   Core                      23.99182 ( 99.9659% of  24)
   Valence                   71.78919 ( 99.7072% of  72)
   Natural Minimal Basis     95.78101 ( 99.7719% of  96)
   Natural Rydberg Basis      0.21899 (  0.2281% of  96)
 --------------------------------------------------------

    Atom  No          Natural Electron Configuration
 ----------------------------------------------------------------------------
      N    1      [core]2S( 1.19)2p( 4.26)3p( 0.01)
      C    2      [core]2S( 0.70)2p( 2.89)3p( 0.02)3d( 0.01)
      N    3      [core]2S( 1.27)2p( 4.04)3p( 0.01)
      C    4      [core]2S( 0.91)2p( 2.98)3p( 0.01)3d( 0.01)
      C    5      [core]2S( 1.10)2p( 3.56)3p( 0.01)
      C    6      [core]2S( 1.10)2p( 3.55)3p( 0.01)
      C    7      [core]2S( 1.10)2p( 3.55)3p( 0.01)
      N    8      [core]2S( 1.23)2p( 4.25)3p( 0.01)
      C    9      [core]2S( 1.08)2p( 3.38)3p( 0.01)3d( 0.01)
      C   10      [core]2S( 1.08)2p( 3.37)3p( 0.01)3d( 0.01)
      C   11      [core]2S( 1.08)2p( 3.37)3p( 0.01)
      C   12      [core]2S( 1.08)2p( 3.37)3p( 0.01)
      H   13            1S( 0.76)
      H   14            1S( 0.78)
      H   15            1S( 0.78)
      H   16            1S( 0.76)
      H   17            1S( 0.78)
      H   18            1S( 0.77)
      H   19            1S( 0.76)
      H   20            1S( 0.76)
      H   21            1S( 0.76)
      H   22            1S( 0.76)
      H   23            1S( 0.78)
      H   24            1S( 0.80)
      H   25            1S( 0.78)
      H   26            1S( 0.81)2S( 0.01)
      H   27            1S( 0.78)
      H   28            1S( 0.75)
      H   29            1S( 0.79)
      H   30            1S( 0.79)
      H   31            1S( 0.76)
      H   32            1S( 0.79)
      H   33            1S( 0.79)


 NBO analysis skipped by request.
 1\1\GINC-DELLA-R4C3N1\SP\RB3LYP TD-FC\6-31G(d)\C9H21N3\BJS4\24-Aug-202
 0\0\\# TD(NStates=10, Root=1) B3LYP/6-31G* scf=qc volume pop=NPA densi
 ty=current Geom=AllCheck Guess=Read\\Title Card Required\\0,1\N,0,1.27
 63079817,0.0576843953,0.2773091462\C,0,0.4260109893,-0.8793218844,-0.3
 462148518\N,0,-0.8250942074,-0.7732915024,-0.603482141\C,0,-1.80996369
 13,0.1396910641,-0.0113825686\C,0,-2.1365498577,1.2681442728,-1.012717
 4969\C,0,-3.0814693714,-0.7257786101,0.1594687095\C,0,-1.4530132872,0.
 7312528338,1.3696735513\N,0,1.0729043873,-2.0837531664,-0.6795363992\C
 ,0,0.2271929109,-3.2076017942,-1.0548355177\C,0,2.3144578953,-2.021911
 7978,-1.4437584598\C,0,2.2542317108,-0.3416501631,1.2712135836\C,0,1.4
 407661622,1.3938271483,-0.2558818366\H,0,-2.3603852399,0.844297863,-1.
 9973410529\H,0,-1.3035539506,1.9695676736,-1.1246444938\H,0,-3.0095104
 79,1.8407655563,-0.6768397638\H,0,-3.3637232167,-1.17320121,-0.7987005
 007\H,0,-3.9221867971,-0.1279556291,0.5324701965\H,0,-2.8964410288,-1.
 5399049509,0.8696059626\H,0,-0.6446148203,1.4637078425,1.3267359354\H,
 0,-1.1574833243,-0.0620062015,2.0656129524\H,0,-2.3328295749,1.2341477
 588,1.7895293974\H,0,-0.6124052025,-3.2809219053,-0.363055523\H,0,0.82
 4175032,-4.126106463,-1.0072072219\H,0,-0.1841317466,-3.1040741382,-2.
 0704402802\H,0,2.8899289811,-1.1377630905,-1.1678798589\H,0,2.12256132
 43,-1.9815392927,-2.5294443455\H,0,2.9249601418,-2.9097495552,-1.24093
 57294\H,0,2.0612174896,-1.369051047,1.5827169781\H,0,2.1841783284,0.31
 33608114,2.1522587685\H,0,3.2909895462,-0.2820117991,0.8980232831\H,0,
 0.7588653804,1.5449253295,-1.0930816068\H,0,2.4708400304,1.5454961162,
 -0.6214168998\H,0,1.2434075041,2.1701955353,0.4987780839\\Version=ES64
 L-G16RevA.03\State=1-A\HF=-519.8294524\RMSD=5.032e-10\Dipole=0.1775847
 ,0.3186064,0.2985757\Quadrupole=0.9500928,0.3388222,-1.2889151,0.21607
 49,-0.1599043,0.6625263\PG=C01 [X(C9H21N3)]\\@


 TRUST EVERYONE, BUT CUT THE CARDS.
 Job cpu time:       0 days  0 hours 35 minutes 22.3 seconds.
 Elapsed time:       0 days  0 hours  7 minutes  5.9 seconds.
 File lengths (MBytes):  RWF=    456 Int=      0 D2E=      0 Chk=    268 Scr=      1
 Normal termination of Gaussian 16 at Mon Aug 24 14:30:27 2020.
