 Entering Gaussian System, Link 0=g16
 Input=base_6_conf24123.com
 Output=base_6_conf24123.log
 Initial command:
 /opt/export//g16/l1.exe "/scratch/bjs4/job.160067/Gau-160069.inp" -scrdir="/scratch/bjs4/job.160067/"
 Entering Link 1 = /opt/export//g16/l1.exe PID=    160070.
  
 Copyright (c) 1988,1990,1992,1993,1995,1998,2003,2009,2016,
            Gaussian, Inc.  All Rights Reserved.
  
 This is part of the Gaussian(R) 16 program.  It is based on
 the Gaussian(R) 09 system (copyright 2009, Gaussian, Inc.),
 the Gaussian(R) 03 system (copyright 2003, Gaussian, Inc.),
 the Gaussian(R) 98 system (copyright 1998, Gaussian, Inc.),
 the Gaussian(R) 94 system (copyright 1995, Gaussian, Inc.),
 the Gaussian 92(TM) system (copyright 1992, Gaussian, Inc.),
 the Gaussian 90(TM) system (copyright 1990, Gaussian, Inc.),
 the Gaussian 88(TM) system (copyright 1988, Gaussian, Inc.),
 the Gaussian 86(TM) system (copyright 1986, Carnegie Mellon
 University), and the Gaussian 82(TM) system (copyright 1983,
 Carnegie Mellon University). Gaussian is a federally registered
 trademark of Gaussian, Inc.
  
 This software contains proprietary and confidential information,
 including trade secrets, belonging to Gaussian, Inc.
  
 This software is provided under written license and may be
 used, copied, transmitted, or stored only in accord with that
 written license.
  
 The following legend is applicable only to US Government
 contracts under FAR:
  
                    RESTRICTED RIGHTS LEGEND
  
 Use, reproduction and disclosure by the US Government is
 subject to restrictions as set forth in subparagraphs (a)
 and (c) of the Commercial Computer Software - Restricted
 Rights clause in FAR 52.227-19.
  
 Gaussian, Inc.
 340 Quinnipiac St., Bldg. 40, Wallingford CT 06492
  
  
 ---------------------------------------------------------------
 Warning -- This program may not be used in any manner that
 competes with the business of Gaussian, Inc. or will provide
 assistance to any competitor of Gaussian, Inc.  The licensee
 of this program is prohibited from giving any competitor of
 Gaussian, Inc. access to this program.  By using this program,
 the user acknowledges that Gaussian, Inc. is engaged in the
 business of creating and licensing software in the field of
 computational chemistry and represents and warrants to the
 licensee that it is not a competitor of Gaussian, Inc. and that
 it will not use this program in any manner prohibited above.
 ---------------------------------------------------------------
  

 Cite this work as:
 Gaussian 16, Revision A.03,
 M. J. Frisch, G. W. Trucks, H. B. Schlegel, G. E. Scuseria, 
 M. A. Robb, J. R. Cheeseman, G. Scalmani, V. Barone, 
 G. A. Petersson, H. Nakatsuji, X. Li, M. Caricato, A. V. Marenich, 
 J. Bloino, B. G. Janesko, R. Gomperts, B. Mennucci, H. P. Hratchian, 
 J. V. Ortiz, A. F. Izmaylov, J. L. Sonnenberg, D. Williams-Young, 
 F. Ding, F. Lipparini, F. Egidi, J. Goings, B. Peng, A. Petrone, 
 T. Henderson, D. Ranasinghe, V. G. Zakrzewski, J. Gao, N. Rega, 
 G. Zheng, W. Liang, M. Hada, M. Ehara, K. Toyota, R. Fukuda, 
 J. Hasegawa, M. Ishida, T. Nakajima, Y. Honda, O. Kitao, H. Nakai, 
 T. Vreven, K. Throssell, J. A. Montgomery, Jr., J. E. Peralta, 
 F. Ogliaro, M. J. Bearpark, J. J. Heyd, E. N. Brothers, K. N. Kudin, 
 V. N. Staroverov, T. A. Keith, R. Kobayashi, J. Normand, 
 K. Raghavachari, A. P. Rendell, J. C. Burant, S. S. Iyengar, 
 J. Tomasi, M. Cossi, J. M. Millam, M. Klene, C. Adamo, R. Cammi, 
 J. W. Ochterski, R. L. Martin, K. Morokuma, O. Farkas, 
 J. B. Foresman, and D. J. Fox, Gaussian, Inc., Wallingford CT, 2016.
 
 ******************************************
 Gaussian 16:  ES64L-G16RevA.03 25-Dec-2016
                24-Aug-2020 
 ******************************************
 %nprocshared=7
 Will use up to    7 processors via shared memory.
 %Mem=14GB
 %Chk=base_6_conf241.chk
 ---------------------------------
 # opt=CalcAll B3LYP/6-31G* scf=qc
 ---------------------------------
 1/10=4,18=20,19=15,26=3,38=1/1,3;
 2/9=110,12=2,17=6,18=5,40=1/2;
 3/5=1,6=6,7=1,11=2,25=1,30=1,71=2,74=-5,140=1/1,2,3;
 4//1;
 5/5=2,8=3,38=5/8;
 8/6=4,10=90,11=11/1;
 11/6=1,8=1,9=11,15=111,16=1/1,2,10;
 10/6=1/2;
 6/7=2,8=2,9=2,10=2,18=1,28=1/1;
 7/10=1,25=1/1,2,3,16;
 1/10=4,18=20,19=15,26=3/3(3);
 2/9=110/2;
 7/8=1,9=1,25=1,44=-1/16;
 99//99;
 2/9=110/2;
 3/5=1,6=6,7=1,11=2,25=1,30=1,71=2,74=-5,140=1/1,2,3;
 4/5=5,16=3,69=1/1;
 5/5=2,8=3,38=5/8;
 8/6=4,10=90,11=11/1;
 11/6=1,8=1,9=11,15=111,16=1/1,2,10;
 10/6=1/2;
 7/10=1,25=1/1,2,3,16;
 1/10=4,18=20,19=15,26=3/3(-8);
 2/9=110/2;
 6/7=2,8=2,9=2,10=2,18=1,19=2,28=1/1;
 7/8=1,9=1,25=1,44=-1/16;
 99//99;
 -------------------
 Title Card Required
 -------------------
 Symbolic Z-matrix:
 Charge =  0 Multiplicity = 1
 N                    -1.3325    0.0965    1.2627 
 C                    -1.3347   -0.677     0.0182 
 C                    -0.0666   -0.9542   -0.8227 
 N1                    1.1923   -1.3331   -0.1966 
 C                     2.2526   -0.3428   -0.3632 
 C                     2.1781    1.0394    0.3401 
 N                     0.8633    1.5949    0.6743 
 P                    -0.0423    0.9382    1.9236 
 N                     0.8413   -0.1292    2.8862 
 C                     1.5867   -1.2768    2.35 
 C                     1.0899   -2.0077    1.0914 
 C                     1.4522    0.2657    4.1847 
 C                     2.23578  -0.82672   4.92117 
 C                     2.24742   1.57265   4.108 
 C                     0.3903    2.6135   -0.2921 
 C                    -0.97567   3.28189  -0.03501 
 C                     1.40681   3.75936  -0.4767 
 C                    -2.6256    0.0807    1.981 
 C                    -3.79533   0.67183   1.1707 
 C                    -2.99576  -1.33238   2.45026 
 H                    -2.0236   -0.1957   -0.6861 
 H                    -1.7651   -1.6605    0.2217 
 H                     0.0784   -0.1219   -1.5231 
 H                    -0.3264   -1.7969   -1.4792 
 H                     2.3486   -0.1513   -1.4414 
 H                     3.212    -0.8052   -0.0938 
 H                     2.743     1.7228   -0.3027 
 H                     2.7948    1.0104    1.243 
 H                     1.589    -2.0553    3.1279 
 H                     2.6431   -1.0107    2.2176 
 H                     0.0892   -2.415     1.2778 
 H                     1.7144   -2.9071    1.0026 
 H                     0.63732   0.52073   4.8774 
 H                     3.17335  -1.08045   4.41825 
 H                     1.63792  -1.73548   5.03491 
 H                     2.4792   -0.48943   5.93738 
 H                     3.17727   1.45874   3.54367 
 H                     2.52255   1.89774   5.1274 
 H                     1.65551   2.37359   3.66545 
 H                     0.28747   2.11663  -1.26635 
 H                    -1.00257   3.80788   0.92519 
 H                    -1.79246   2.55917  -0.07401 
 H                    -1.19345   4.02336  -0.81402 
 H                     1.52986   4.33623   0.44481 
 H                     1.06416   4.44815  -1.25986 
 H                     2.39187   3.41037  -0.79452 
 H                    -2.55503   0.70161   2.88624 
 H                    -3.99236   0.1171    0.24691 
 H                    -3.60541   1.71739   0.91068 
 H                    -4.72269   0.64188   1.75487 
 H                    -3.22961  -2.00061   1.61532 
 H                    -3.88356  -1.29947   3.0917 
 H                    -2.18559  -1.77886   3.03308 
 

 GradGradGradGradGradGradGradGradGradGradGradGradGradGradGradGradGradGrad
 Berny optimization.
 Initialization pass.
                           ----------------------------
                           !    Initial Parameters    !
                           ! (Angstroms and Degrees)  !
 --------------------------                            --------------------------
 ! Name  Definition              Value          Derivative Info.                !
 --------------------------------------------------------------------------------
 ! R1    R(1,2)                  1.4653         calculate D2E/DX2 analytically  !
 ! R2    R(1,8)                  1.6763         calculate D2E/DX2 analytically  !
 ! R3    R(1,18)                 1.4793         calculate D2E/DX2 analytically  !
 ! R4    R(2,3)                  1.5466         calculate D2E/DX2 analytically  !
 ! R5    R(2,21)                 1.0965         calculate D2E/DX2 analytically  !
 ! R6    R(2,22)                 1.0927         calculate D2E/DX2 analytically  !
 ! R7    R(3,4)                  1.4562         calculate D2E/DX2 analytically  !
 ! R8    R(3,23)                 1.0974         calculate D2E/DX2 analytically  !
 ! R9    R(3,24)                 1.0994         calculate D2E/DX2 analytically  !
 ! R10   R(4,5)                  1.4604         calculate D2E/DX2 analytically  !
 ! R11   R(4,11)                 1.4576         calculate D2E/DX2 analytically  !
 ! R12   R(5,6)                  1.5526         calculate D2E/DX2 analytically  !
 ! R13   R(5,25)                 1.0993         calculate D2E/DX2 analytically  !
 ! R14   R(5,26)                 1.0986         calculate D2E/DX2 analytically  !
 ! R15   R(6,7)                  1.4659         calculate D2E/DX2 analytically  !
 ! R16   R(6,27)                 1.0951         calculate D2E/DX2 analytically  !
 ! R17   R(6,28)                 1.0938         calculate D2E/DX2 analytically  !
 ! R18   R(7,8)                  1.6769         calculate D2E/DX2 analytically  !
 ! R19   R(7,15)                 1.4816         calculate D2E/DX2 analytically  !
 ! R20   R(8,9)                  1.6872         calculate D2E/DX2 analytically  !
 ! R21   R(9,10)                 1.4697         calculate D2E/DX2 analytically  !
 ! R22   R(9,12)                 1.4884         calculate D2E/DX2 analytically  !
 ! R23   R(10,11)                1.5379         calculate D2E/DX2 analytically  !
 ! R24   R(10,29)                1.1005         calculate D2E/DX2 analytically  !
 ! R25   R(10,30)                1.0974         calculate D2E/DX2 analytically  !
 ! R26   R(11,31)                1.0964         calculate D2E/DX2 analytically  !
 ! R27   R(11,32)                1.0985         calculate D2E/DX2 analytically  !
 ! R28   R(12,13)                1.5329         calculate D2E/DX2 analytically  !
 ! R29   R(12,14)                1.5318         calculate D2E/DX2 analytically  !
 ! R30   R(12,33)                1.0995         calculate D2E/DX2 analytically  !
 ! R31   R(13,34)                1.0938         calculate D2E/DX2 analytically  !
 ! R32   R(13,35)                1.0937         calculate D2E/DX2 analytically  !
 ! R33   R(13,36)                1.098          calculate D2E/DX2 analytically  !
 ! R34   R(14,37)                1.0936         calculate D2E/DX2 analytically  !
 ! R35   R(14,38)                1.1048         calculate D2E/DX2 analytically  !
 ! R36   R(14,39)                1.0898         calculate D2E/DX2 analytically  !
 ! R37   R(15,16)                1.5423         calculate D2E/DX2 analytically  !
 ! R38   R(15,17)                1.5428         calculate D2E/DX2 analytically  !
 ! R39   R(15,40)                1.0985         calculate D2E/DX2 analytically  !
 ! R40   R(16,41)                1.0952         calculate D2E/DX2 analytically  !
 ! R41   R(16,42)                1.0913         calculate D2E/DX2 analytically  !
 ! R42   R(16,43)                1.0973         calculate D2E/DX2 analytically  !
 ! R43   R(17,44)                1.0941         calculate D2E/DX2 analytically  !
 ! R44   R(17,45)                1.0978         calculate D2E/DX2 analytically  !
 ! R45   R(17,46)                1.0923         calculate D2E/DX2 analytically  !
 ! R46   R(18,19)                1.5409         calculate D2E/DX2 analytically  !
 ! R47   R(18,20)                1.5343         calculate D2E/DX2 analytically  !
 ! R48   R(18,47)                1.1            calculate D2E/DX2 analytically  !
 ! R49   R(19,48)                1.0954         calculate D2E/DX2 analytically  !
 ! R50   R(19,49)                1.094          calculate D2E/DX2 analytically  !
 ! R51   R(19,50)                1.0964         calculate D2E/DX2 analytically  !
 ! R52   R(20,51)                1.0947         calculate D2E/DX2 analytically  !
 ! R53   R(20,52)                1.0958         calculate D2E/DX2 analytically  !
 ! R54   R(20,53)                1.0933         calculate D2E/DX2 analytically  !
 ! A1    A(2,1,8)              126.9472         calculate D2E/DX2 analytically  !
 ! A2    A(2,1,18)             113.9194         calculate D2E/DX2 analytically  !
 ! A3    A(8,1,18)             119.1257         calculate D2E/DX2 analytically  !
 ! A4    A(1,2,3)              123.7215         calculate D2E/DX2 analytically  !
 ! A5    A(1,2,21)             108.3469         calculate D2E/DX2 analytically  !
 ! A6    A(1,2,22)             108.515          calculate D2E/DX2 analytically  !
 ! A7    A(3,2,21)             104.1569         calculate D2E/DX2 analytically  !
 ! A8    A(3,2,22)             105.2422         calculate D2E/DX2 analytically  !
 ! A9    A(21,2,22)            105.5002         calculate D2E/DX2 analytically  !
 ! A10   A(2,3,4)              121.447          calculate D2E/DX2 analytically  !
 ! A11   A(2,3,23)             108.6273         calculate D2E/DX2 analytically  !
 ! A12   A(2,3,24)             105.5631         calculate D2E/DX2 analytically  !
 ! A13   A(4,3,23)             110.9488         calculate D2E/DX2 analytically  !
 ! A14   A(4,3,24)             105.1654         calculate D2E/DX2 analytically  !
 ! A15   A(23,3,24)            103.3825         calculate D2E/DX2 analytically  !
 ! A16   A(3,4,5)              113.7154         calculate D2E/DX2 analytically  !
 ! A17   A(3,4,11)             116.0808         calculate D2E/DX2 analytically  !
 ! A18   A(5,4,11)             117.7532         calculate D2E/DX2 analytically  !
 ! A19   A(4,5,6)              121.1423         calculate D2E/DX2 analytically  !
 ! A20   A(4,5,25)             107.0635         calculate D2E/DX2 analytically  !
 ! A21   A(4,5,26)             108.7035         calculate D2E/DX2 analytically  !
 ! A22   A(6,5,25)             107.0614         calculate D2E/DX2 analytically  !
 ! A23   A(6,5,26)             107.7902         calculate D2E/DX2 analytically  !
 ! A24   A(25,5,26)            103.7441         calculate D2E/DX2 analytically  !
 ! A25   A(5,6,7)              118.9239         calculate D2E/DX2 analytically  !
 ! A26   A(5,6,27)             105.3612         calculate D2E/DX2 analytically  !
 ! A27   A(5,6,28)             108.8603         calculate D2E/DX2 analytically  !
 ! A28   A(7,6,27)             111.0993         calculate D2E/DX2 analytically  !
 ! A29   A(7,6,28)             109.1199         calculate D2E/DX2 analytically  !
 ! A30   A(27,6,28)            102.1359         calculate D2E/DX2 analytically  !
 ! A31   A(6,7,8)              120.3846         calculate D2E/DX2 analytically  !
 ! A32   A(6,7,15)             113.4624         calculate D2E/DX2 analytically  !
 ! A33   A(8,7,15)             125.6441         calculate D2E/DX2 analytically  !
 ! A34   A(1,8,7)              108.5763         calculate D2E/DX2 analytically  !
 ! A35   A(1,8,9)              108.0811         calculate D2E/DX2 analytically  !
 ! A36   A(7,8,9)              112.9524         calculate D2E/DX2 analytically  !
 ! A37   A(8,9,10)             123.4659         calculate D2E/DX2 analytically  !
 ! A38   A(8,9,12)             123.014          calculate D2E/DX2 analytically  !
 ! A39   A(10,9,12)            108.4992         calculate D2E/DX2 analytically  !
 ! A40   A(9,10,11)            120.3867         calculate D2E/DX2 analytically  !
 ! A41   A(9,10,29)            107.1889         calculate D2E/DX2 analytically  !
 ! A42   A(9,10,30)            110.0533         calculate D2E/DX2 analytically  !
 ! A43   A(11,10,29)           104.0609         calculate D2E/DX2 analytically  !
 ! A44   A(11,10,30)           109.1154         calculate D2E/DX2 analytically  !
 ! A45   A(29,10,30)           104.7611         calculate D2E/DX2 analytically  !
 ! A46   A(4,11,10)            118.7198         calculate D2E/DX2 analytically  !
 ! A47   A(4,11,31)            112.7243         calculate D2E/DX2 analytically  !
 ! A48   A(4,11,32)            105.5188         calculate D2E/DX2 analytically  !
 ! A49   A(10,11,31)           109.4066         calculate D2E/DX2 analytically  !
 ! A50   A(10,11,32)           105.7606         calculate D2E/DX2 analytically  !
 ! A51   A(31,11,32)           103.2065         calculate D2E/DX2 analytically  !
 ! A52   A(9,12,13)            116.0964         calculate D2E/DX2 analytically  !
 ! A53   A(9,12,14)            113.3144         calculate D2E/DX2 analytically  !
 ! A54   A(9,12,33)            107.8777         calculate D2E/DX2 analytically  !
 ! A55   A(13,12,14)           111.5141         calculate D2E/DX2 analytically  !
 ! A56   A(13,12,33)           103.9731         calculate D2E/DX2 analytically  !
 ! A57   A(14,12,33)           102.615          calculate D2E/DX2 analytically  !
 ! A58   A(12,13,34)           112.4938         calculate D2E/DX2 analytically  !
 ! A59   A(12,13,35)           111.2645         calculate D2E/DX2 analytically  !
 ! A60   A(12,13,36)           109.819          calculate D2E/DX2 analytically  !
 ! A61   A(34,13,35)           108.8829         calculate D2E/DX2 analytically  !
 ! A62   A(34,13,36)           107.8644         calculate D2E/DX2 analytically  !
 ! A63   A(35,13,36)           106.27           calculate D2E/DX2 analytically  !
 ! A64   A(12,14,37)           112.2322         calculate D2E/DX2 analytically  !
 ! A65   A(12,14,38)           109.5207         calculate D2E/DX2 analytically  !
 ! A66   A(12,14,39)           111.4338         calculate D2E/DX2 analytically  !
 ! A67   A(37,14,38)           107.1598         calculate D2E/DX2 analytically  !
 ! A68   A(37,14,39)           109.1953         calculate D2E/DX2 analytically  !
 ! A69   A(38,14,39)           107.079          calculate D2E/DX2 analytically  !
 ! A70   A(7,15,16)            118.1613         calculate D2E/DX2 analytically  !
 ! A71   A(7,15,17)            112.2285         calculate D2E/DX2 analytically  !
 ! A72   A(7,15,40)            107.3023         calculate D2E/DX2 analytically  !
 ! A73   A(16,15,17)           106.3563         calculate D2E/DX2 analytically  !
 ! A74   A(16,15,40)           105.1271         calculate D2E/DX2 analytically  !
 ! A75   A(17,15,40)           106.9479         calculate D2E/DX2 analytically  !
 ! A76   A(15,16,41)           112.089          calculate D2E/DX2 analytically  !
 ! A77   A(15,16,42)           111.7103         calculate D2E/DX2 analytically  !
 ! A78   A(15,16,43)           110.5042         calculate D2E/DX2 analytically  !
 ! A79   A(41,16,42)           109.3303         calculate D2E/DX2 analytically  !
 ! A80   A(41,16,43)           107.0396         calculate D2E/DX2 analytically  !
 ! A81   A(42,16,43)           105.8773         calculate D2E/DX2 analytically  !
 ! A82   A(15,17,44)           111.4018         calculate D2E/DX2 analytically  !
 ! A83   A(15,17,45)           110.2243         calculate D2E/DX2 analytically  !
 ! A84   A(15,17,46)           113.0596         calculate D2E/DX2 analytically  !
 ! A85   A(44,17,45)           107.7664         calculate D2E/DX2 analytically  !
 ! A86   A(44,17,46)           108.1852         calculate D2E/DX2 analytically  !
 ! A87   A(45,17,46)           105.9243         calculate D2E/DX2 analytically  !
 ! A88   A(1,18,19)            113.8373         calculate D2E/DX2 analytically  !
 ! A89   A(1,18,20)            111.6688         calculate D2E/DX2 analytically  !
 ! A90   A(1,18,47)            109.7242         calculate D2E/DX2 analytically  !
 ! A91   A(19,18,20)           109.3305         calculate D2E/DX2 analytically  !
 ! A92   A(19,18,47)           105.3623         calculate D2E/DX2 analytically  !
 ! A93   A(20,18,47)           106.4786         calculate D2E/DX2 analytically  !
 ! A94   A(18,19,48)           112.6902         calculate D2E/DX2 analytically  !
 ! A95   A(18,19,49)           111.0905         calculate D2E/DX2 analytically  !
 ! A96   A(18,19,50)           110.5741         calculate D2E/DX2 analytically  !
 ! A97   A(48,19,49)           108.3468         calculate D2E/DX2 analytically  !
 ! A98   A(48,19,50)           106.4604         calculate D2E/DX2 analytically  !
 ! A99   A(49,19,50)           107.4317         calculate D2E/DX2 analytically  !
 ! A100  A(18,20,51)           112.3627         calculate D2E/DX2 analytically  !
 ! A101  A(18,20,52)           110.2945         calculate D2E/DX2 analytically  !
 ! A102  A(18,20,53)           111.1227         calculate D2E/DX2 analytically  !
 ! A103  A(51,20,52)           106.9618         calculate D2E/DX2 analytically  !
 ! A104  A(51,20,53)           108.3968         calculate D2E/DX2 analytically  !
 ! A105  A(52,20,53)           107.4928         calculate D2E/DX2 analytically  !
 ! D1    D(8,1,2,3)              6.5288         calculate D2E/DX2 analytically  !
 ! D2    D(8,1,2,21)          -115.5544         calculate D2E/DX2 analytically  !
 ! D3    D(8,1,2,22)           130.3676         calculate D2E/DX2 analytically  !
 ! D4    D(18,1,2,3)          -172.4484         calculate D2E/DX2 analytically  !
 ! D5    D(18,1,2,21)           65.4684         calculate D2E/DX2 analytically  !
 ! D6    D(18,1,2,22)          -48.6096         calculate D2E/DX2 analytically  !
 ! D7    D(2,1,8,7)             35.5067         calculate D2E/DX2 analytically  !
 ! D8    D(2,1,8,9)            -87.3469         calculate D2E/DX2 analytically  !
 ! D9    D(18,1,8,7)          -145.5636         calculate D2E/DX2 analytically  !
 ! D10   D(18,1,8,9)            91.5828         calculate D2E/DX2 analytically  !
 ! D11   D(2,1,18,19)          -60.7058         calculate D2E/DX2 analytically  !
 ! D12   D(2,1,18,20)           63.6932         calculate D2E/DX2 analytically  !
 ! D13   D(2,1,18,47)         -178.4865         calculate D2E/DX2 analytically  !
 ! D14   D(8,1,18,19)          120.2299         calculate D2E/DX2 analytically  !
 ! D15   D(8,1,18,20)         -115.3711         calculate D2E/DX2 analytically  !
 ! D16   D(8,1,18,47)            2.4492         calculate D2E/DX2 analytically  !
 ! D17   D(1,2,3,4)             43.0242         calculate D2E/DX2 analytically  !
 ! D18   D(1,2,3,23)           -87.3954         calculate D2E/DX2 analytically  !
 ! D19   D(1,2,3,24)           162.2751         calculate D2E/DX2 analytically  !
 ! D20   D(21,2,3,4)           166.9873         calculate D2E/DX2 analytically  !
 ! D21   D(21,2,3,23)           36.5676         calculate D2E/DX2 analytically  !
 ! D22   D(21,2,3,24)          -73.7618         calculate D2E/DX2 analytically  !
 ! D23   D(22,2,3,4)           -82.2565         calculate D2E/DX2 analytically  !
 ! D24   D(22,2,3,23)          147.3239         calculate D2E/DX2 analytically  !
 ! D25   D(22,2,3,24)           36.9944         calculate D2E/DX2 analytically  !
 ! D26   D(2,3,4,5)           -114.6653         calculate D2E/DX2 analytically  !
 ! D27   D(2,3,4,11)            26.7144         calculate D2E/DX2 analytically  !
 ! D28   D(23,3,4,5)            14.756          calculate D2E/DX2 analytically  !
 ! D29   D(23,3,4,11)          156.1357         calculate D2E/DX2 analytically  !
 ! D30   D(24,3,4,5)           125.8894         calculate D2E/DX2 analytically  !
 ! D31   D(24,3,4,11)          -92.7309         calculate D2E/DX2 analytically  !
 ! D32   D(3,4,5,6)             68.5652         calculate D2E/DX2 analytically  !
 ! D33   D(3,4,5,25)           -54.3947         calculate D2E/DX2 analytically  !
 ! D34   D(3,4,5,26)          -165.8822         calculate D2E/DX2 analytically  !
 ! D35   D(11,4,5,6)           -72.1277         calculate D2E/DX2 analytically  !
 ! D36   D(11,4,5,25)          164.9123         calculate D2E/DX2 analytically  !
 ! D37   D(11,4,5,26)           53.4248         calculate D2E/DX2 analytically  !
 ! D38   D(3,4,11,10)         -112.0917         calculate D2E/DX2 analytically  !
 ! D39   D(3,4,11,31)           17.7182         calculate D2E/DX2 analytically  !
 ! D40   D(3,4,11,32)          129.6408         calculate D2E/DX2 analytically  !
 ! D41   D(5,4,11,10)           27.6876         calculate D2E/DX2 analytically  !
 ! D42   D(5,4,11,31)          157.4975         calculate D2E/DX2 analytically  !
 ! D43   D(5,4,11,32)          -90.5799         calculate D2E/DX2 analytically  !
 ! D44   D(4,5,6,7)            -26.5093         calculate D2E/DX2 analytically  !
 ! D45   D(4,5,6,27)          -151.8424         calculate D2E/DX2 analytically  !
 ! D46   D(4,5,6,28)            99.2384         calculate D2E/DX2 analytically  !
 ! D47   D(25,5,6,7)            96.4516         calculate D2E/DX2 analytically  !
 ! D48   D(25,5,6,27)          -28.8815         calculate D2E/DX2 analytically  !
 ! D49   D(25,5,6,28)         -137.8007         calculate D2E/DX2 analytically  !
 ! D50   D(26,5,6,7)          -152.48           calculate D2E/DX2 analytically  !
 ! D51   D(26,5,6,27)           82.187          calculate D2E/DX2 analytically  !
 ! D52   D(26,5,6,28)          -26.7322         calculate D2E/DX2 analytically  !
 ! D53   D(5,6,7,8)             72.2746         calculate D2E/DX2 analytically  !
 ! D54   D(5,6,7,15)           -99.993          calculate D2E/DX2 analytically  !
 ! D55   D(27,6,7,8)          -165.2037         calculate D2E/DX2 analytically  !
 ! D56   D(27,6,7,15)           22.5286         calculate D2E/DX2 analytically  !
 ! D57   D(28,6,7,8)           -53.3487         calculate D2E/DX2 analytically  !
 ! D58   D(28,6,7,15)          134.3837         calculate D2E/DX2 analytically  !
 ! D59   D(6,7,8,1)           -107.7318         calculate D2E/DX2 analytically  !
 ! D60   D(6,7,8,9)             12.1292         calculate D2E/DX2 analytically  !
 ! D61   D(15,7,8,1)            63.5326         calculate D2E/DX2 analytically  !
 ! D62   D(15,7,8,9)          -176.6064         calculate D2E/DX2 analytically  !
 ! D63   D(6,7,15,16)         -179.2939         calculate D2E/DX2 analytically  !
 ! D64   D(6,7,15,17)          -54.9722         calculate D2E/DX2 analytically  !
 ! D65   D(6,7,15,40)           62.2303         calculate D2E/DX2 analytically  !
 ! D66   D(8,7,15,16)            8.9174         calculate D2E/DX2 analytically  !
 ! D67   D(8,7,15,17)          133.2391         calculate D2E/DX2 analytically  !
 ! D68   D(8,7,15,40)         -109.5585         calculate D2E/DX2 analytically  !
 ! D69   D(1,8,9,10)            66.4619         calculate D2E/DX2 analytically  !
 ! D70   D(1,8,9,12)          -141.5205         calculate D2E/DX2 analytically  !
 ! D71   D(7,8,9,10)           -53.6833         calculate D2E/DX2 analytically  !
 ! D72   D(7,8,9,12)            98.3344         calculate D2E/DX2 analytically  !
 ! D73   D(8,9,10,11)          -31.3803         calculate D2E/DX2 analytically  !
 ! D74   D(8,9,10,29)         -149.818          calculate D2E/DX2 analytically  !
 ! D75   D(8,9,10,30)           96.8018         calculate D2E/DX2 analytically  !
 ! D76   D(12,9,10,11)         173.1314         calculate D2E/DX2 analytically  !
 ! D77   D(12,9,10,29)          54.6937         calculate D2E/DX2 analytically  !
 ! D78   D(12,9,10,30)         -58.6865         calculate D2E/DX2 analytically  !
 ! D79   D(8,9,12,13)         -179.2941         calculate D2E/DX2 analytically  !
 ! D80   D(8,9,12,14)          -48.3166         calculate D2E/DX2 analytically  !
 ! D81   D(8,9,12,33)           64.5693         calculate D2E/DX2 analytically  !
 ! D82   D(10,9,12,13)         -23.6712         calculate D2E/DX2 analytically  !
 ! D83   D(10,9,12,14)         107.3063         calculate D2E/DX2 analytically  !
 ! D84   D(10,9,12,33)        -139.8078         calculate D2E/DX2 analytically  !
 ! D85   D(9,10,11,4)           70.9889         calculate D2E/DX2 analytically  !
 ! D86   D(9,10,11,31)         -60.3146         calculate D2E/DX2 analytically  !
 ! D87   D(9,10,11,32)        -170.8699         calculate D2E/DX2 analytically  !
 ! D88   D(29,10,11,4)        -169.0092         calculate D2E/DX2 analytically  !
 ! D89   D(29,10,11,31)         59.6874         calculate D2E/DX2 analytically  !
 ! D90   D(29,10,11,32)        -50.8679         calculate D2E/DX2 analytically  !
 ! D91   D(30,10,11,4)         -57.6144         calculate D2E/DX2 analytically  !
 ! D92   D(30,10,11,31)        171.0821         calculate D2E/DX2 analytically  !
 ! D93   D(30,10,11,32)         60.5268         calculate D2E/DX2 analytically  !
 ! D94   D(9,12,13,34)          70.3399         calculate D2E/DX2 analytically  !
 ! D95   D(9,12,13,35)         -52.1414         calculate D2E/DX2 analytically  !
 ! D96   D(9,12,13,36)        -169.5167         calculate D2E/DX2 analytically  !
 ! D97   D(14,12,13,34)        -61.48           calculate D2E/DX2 analytically  !
 ! D98   D(14,12,13,35)        176.0387         calculate D2E/DX2 analytically  !
 ! D99   D(14,12,13,36)         58.6634         calculate D2E/DX2 analytically  !
 ! D100  D(33,12,13,34)       -171.3568         calculate D2E/DX2 analytically  !
 ! D101  D(33,12,13,35)         66.1618         calculate D2E/DX2 analytically  !
 ! D102  D(33,12,13,36)        -51.2134         calculate D2E/DX2 analytically  !
 ! D103  D(9,12,14,37)         -70.8695         calculate D2E/DX2 analytically  !
 ! D104  D(9,12,14,38)         170.2436         calculate D2E/DX2 analytically  !
 ! D105  D(9,12,14,39)          51.9538         calculate D2E/DX2 analytically  !
 ! D106  D(13,12,14,37)         62.3465         calculate D2E/DX2 analytically  !
 ! D107  D(13,12,14,38)        -56.5405         calculate D2E/DX2 analytically  !
 ! D108  D(13,12,14,39)       -174.8302         calculate D2E/DX2 analytically  !
 ! D109  D(33,12,14,37)        173.0903         calculate D2E/DX2 analytically  !
 ! D110  D(33,12,14,38)         54.2034         calculate D2E/DX2 analytically  !
 ! D111  D(33,12,14,39)        -64.0863         calculate D2E/DX2 analytically  !
 ! D112  D(7,15,16,41)          59.7676         calculate D2E/DX2 analytically  !
 ! D113  D(7,15,16,42)         -63.3319         calculate D2E/DX2 analytically  !
 ! D114  D(7,15,16,43)         179.069          calculate D2E/DX2 analytically  !
 ! D115  D(17,15,16,41)        -67.4113         calculate D2E/DX2 analytically  !
 ! D116  D(17,15,16,42)        169.4892         calculate D2E/DX2 analytically  !
 ! D117  D(17,15,16,43)         51.8901         calculate D2E/DX2 analytically  !
 ! D118  D(40,15,16,41)        179.3827         calculate D2E/DX2 analytically  !
 ! D119  D(40,15,16,42)         56.2831         calculate D2E/DX2 analytically  !
 ! D120  D(40,15,16,43)        -61.316          calculate D2E/DX2 analytically  !
 ! D121  D(7,15,17,44)         -65.2495         calculate D2E/DX2 analytically  !
 ! D122  D(7,15,17,45)         175.1689         calculate D2E/DX2 analytically  !
 ! D123  D(7,15,17,46)          56.8343         calculate D2E/DX2 analytically  !
 ! D124  D(16,15,17,44)         65.3894         calculate D2E/DX2 analytically  !
 ! D125  D(16,15,17,45)        -54.1922         calculate D2E/DX2 analytically  !
 ! D126  D(16,15,17,46)       -172.5268         calculate D2E/DX2 analytically  !
 ! D127  D(40,15,17,44)        177.3365         calculate D2E/DX2 analytically  !
 ! D128  D(40,15,17,45)         57.7549         calculate D2E/DX2 analytically  !
 ! D129  D(40,15,17,46)        -60.5797         calculate D2E/DX2 analytically  !
 ! D130  D(1,18,19,48)          61.4942         calculate D2E/DX2 analytically  !
 ! D131  D(1,18,19,49)         -60.3036         calculate D2E/DX2 analytically  !
 ! D132  D(1,18,19,50)        -179.4942         calculate D2E/DX2 analytically  !
 ! D133  D(20,18,19,48)        -64.1524         calculate D2E/DX2 analytically  !
 ! D134  D(20,18,19,49)        174.0498         calculate D2E/DX2 analytically  !
 ! D135  D(20,18,19,50)         54.8592         calculate D2E/DX2 analytically  !
 ! D136  D(47,18,19,48)       -178.2391         calculate D2E/DX2 analytically  !
 ! D137  D(47,18,19,49)         59.9631         calculate D2E/DX2 analytically  !
 ! D138  D(47,18,19,50)        -59.2275         calculate D2E/DX2 analytically  !
 ! D139  D(1,18,20,51)         -68.3138         calculate D2E/DX2 analytically  !
 ! D140  D(1,18,20,52)         172.4456         calculate D2E/DX2 analytically  !
 ! D141  D(1,18,20,53)          53.3396         calculate D2E/DX2 analytically  !
 ! D142  D(19,18,20,51)         58.5725         calculate D2E/DX2 analytically  !
 ! D143  D(19,18,20,52)        -60.6681         calculate D2E/DX2 analytically  !
 ! D144  D(19,18,20,53)       -179.7742         calculate D2E/DX2 analytically  !
 ! D145  D(47,18,20,51)        171.9346         calculate D2E/DX2 analytically  !
 ! D146  D(47,18,20,52)         52.694          calculate D2E/DX2 analytically  !
 ! D147  D(47,18,20,53)        -66.4121         calculate D2E/DX2 analytically  !
 --------------------------------------------------------------------------------
 Trust Radius=3.00D-01 FncErr=1.00D-07 GrdErr=1.00D-06 EigMax=2.50D+02 EigMin=1.00D-04
 Number of steps in this run=    316 maximum allowed number of steps=    318.
 GradGradGradGradGradGradGradGradGradGradGradGradGradGradGradGradGradGrad

 Stoichiometry    C15H33N4P
 Framework group  C1[X(C15H33N4P)]
 Deg. of freedom   153
 Full point group                 C1      NOp   1
 Largest Abelian subgroup         C1      NOp   1
 Largest concise Abelian subgroup C1      NOp   1
                         Standard orientation:                         
 ---------------------------------------------------------------------
 Center     Atomic      Atomic             Coordinates (Angstroms)
 Number     Number       Type             X           Y           Z
 ---------------------------------------------------------------------
      1          7           0        1.190358   -1.022388   -0.110405
      2          6           0        1.751611   -0.909987    1.238464
      3          6           0        1.213017    0.061871    2.314308
      4          7           0       -0.215975    0.238180    2.531776
      5          6           0       -0.698981    1.577130    2.205275
      6          6           0       -0.736160    2.081548    0.737338
      7          7           0        0.205369    1.512965   -0.231788
      8         15           0        0.003065   -0.054791   -0.791547
      9          7           0       -1.499555   -0.708278   -0.389332
     10          6           0       -2.022282   -0.753854    0.983547
     11          6           0       -1.062630   -0.894021    2.177079
     12          6           0       -2.649490   -0.739128   -1.333761
     13          6           0       -3.946475   -1.355219   -0.797080
     14          6           0       -2.908052    0.606577   -2.018306
     15          6           0        1.383332    2.375083   -0.485481
     16          6           0        2.436589    1.887964   -1.501393
     17          6           0        0.981198    3.798221   -0.925174
     18          6           0        1.752402   -2.137931   -0.902860
     19          6           0        3.272384   -2.034113   -1.133431
     20          6           0        1.425709   -3.499440   -0.275498
     21          1           0        2.813268   -0.650501    1.150025
     22          1           0        1.730282   -1.897101    1.706524
     23          1           0        1.714039    1.030768    2.193792
     24          1           0        1.605791   -0.310405    3.271268
     25          1           0       -0.085726    2.289231    2.775569
     26          1           0       -1.705047    1.701645    2.628555
     27          1           0       -0.626998    3.169346    0.801522
     28          1           0       -1.754459    1.974938    0.352513
     29          1           0       -2.670000   -1.640678    1.055668
     30          1           0       -2.692626    0.097047    1.159404
     31          1           0       -0.500378   -1.830676    2.084401
     32          1           0       -1.700644   -1.069990    3.053880
     33          1           0       -2.376059   -1.389071   -2.177391
     34          1           0       -4.426879   -0.726920   -0.041568
     35          1           0       -3.768150   -2.346830   -0.371491
     36          1           0       -4.659489   -1.497304   -1.619956
     37          1           0       -3.313139    1.351245   -1.327337
     38          1           0       -3.650192    0.473425   -2.825806
     39          1           0       -2.001766    1.000078   -2.478214
     40          1           0        1.925889    2.474737    0.464423
     41          1           0        2.008906    1.738793   -2.498493
     42          1           0        2.917740    0.965139   -1.172944
     43          1           0        3.241832    2.626274   -1.604073
     44          1           0        0.473288    3.788144   -1.894208
     45          1           0        1.872487    4.431986   -1.020703
     46          1           0        0.331724    4.301013   -0.205083
     47          1           0        1.304837   -2.141925   -1.907668
     48          1           0        3.843688   -2.051519   -0.198956
     49          1           0        3.526699   -1.118507   -1.675525
     50          1           0        3.629980   -2.880278   -1.731995
     51          1           0        1.945753   -3.655580    0.675037
     52          1           0        1.733559   -4.310219   -0.945261
     53          1           0        0.351392   -3.606002   -0.102619
 ---------------------------------------------------------------------
 Rotational constants (GHZ):           0.3399832           0.3091239           0.2560139
 Standard basis: 6-31G(d) (6D, 7F)
 There are   370 symmetry adapted cartesian basis functions of A   symmetry.
 There are   370 symmetry adapted basis functions of A   symmetry.
   370 basis functions,   716 primitive gaussians,   370 cartesian basis functions
    83 alpha electrons       83 beta electrons
       nuclear repulsion energy      2080.4698909463 Hartrees.
 NAtoms=   53 NActive=   53 NUniq=   53 SFac= 1.00D+00 NAtFMM=   60 NAOKFM=F Big=F
 Integral buffers will be    131072 words long.
 Raffenetti 2 integral format.
 Two-electron integral symmetry is turned on.
 One-electron integrals computed using PRISM.
 NBasis=   370 RedAO= T EigKep=  2.91D-03  NBF=   370
 NBsUse=   370 1.00D-06 EigRej= -1.00D+00 NBFU=   370
 ExpMin= 9.98D-02 ExpMax= 1.94D+04 ExpMxC= 2.91D+03 IAcc=3 IRadAn=         5 AccDes= 0.00D+00
 Harris functional with IExCor=  402 and IRadAn=       5 diagonalized for initial guess.
 HarFok:  IExCor=  402 AccDes= 0.00D+00 IRadAn=         5 IDoV= 1 UseB2=F ITyADJ=14
 ICtDFT=  3500011 ScaDFX=  1.000000  1.000000  1.000000  1.000000
 FoFCou: FMM=F IPFlag=           0 FMFlag=      100000 FMFlg1=           0
         NFxFlg=           0 DoJE=T BraDBF=F KetDBF=T FulRan=T
         wScrn=  0.000000 ICntrl=       500 IOpCl=  0 I1Cent=   200000004 NGrid=           0
         NMat0=    1 NMatS0=      1 NMatT0=    0 NMatD0=    1 NMtDS0=    0 NMtDT0=    0
 Petite list used in FoFCou.
 Gradient too large for Newton-Raphson -- use scaled steepest descent instead.
     Accept linear search using points  2 and  3.
 Gradient too large for Newton-Raphson -- use scaled steepest descent instead.
     Minimum is close to point  3 DX=  3.48D-02 DF= -7.83D-05 DXR=  4.74D-02 DFR=  2.26D-03 which will be used.
 Gradient too large for Newton-Raphson -- use scaled steepest descent instead.
 Gradient too large for Newton-Raphson -- use scaled steepest descent instead.
     Accept linear search using points  1 and  2.
 Gradient too large for Newton-Raphson -- use scaled steepest descent instead.
     Accept linear search using points  2 and  3.
 LinEq1:  Iter=  0 NonCon=     1 RMS=2.61D-05 Max=5.63D-04 NDo=     1
 AX will form     1 AO Fock derivatives at one time.
 LinEq1:  Iter=  1 NonCon=     1 RMS=2.13D-05 Max=1.03D-03 NDo=     1
 LinEq1:  Iter=  2 NonCon=     1 RMS=5.80D-06 Max=1.93D-04 NDo=     1
 LinEq1:  Iter=  3 NonCon=     1 RMS=3.88D-06 Max=2.29D-04 NDo=     1
 LinEq1:  Iter=  4 NonCon=     1 RMS=1.04D-06 Max=3.38D-05 NDo=     1
 LinEq1:  Iter=  5 NonCon=     1 RMS=5.28D-07 Max=2.39D-05 NDo=     1
 LinEq1:  Iter=  6 NonCon=     1 RMS=2.66D-07 Max=6.16D-06 NDo=     1
 LinEq1:  Iter=  7 NonCon=     1 RMS=1.62D-07 Max=4.73D-06 NDo=     1
 LinEq1:  Iter=  8 NonCon=     1 RMS=6.32D-08 Max=1.32D-06 NDo=     1
 LinEq1:  Iter=  9 NonCon=     1 RMS=3.49D-08 Max=1.15D-06 NDo=     1
 LinEq1:  Iter= 10 NonCon=     1 RMS=1.17D-08 Max=2.38D-07 NDo=     1
 LinEq1:  Iter= 11 NonCon=     0 RMS=7.26D-09 Max=1.92D-07 NDo=     1
 Linear equations converged to 2.183D-08 2.183D-07 after    11 iterations.
     Minimum is close to point  2 DX=  1.49D-04 DF= -4.55D-13 DXR=  1.49D-04 DFR=  3.47D-08 which will be used.
 SCF Done:  E(RB3LYP) =  -1151.73924953     a.u. after    7 cycles
            Convg  =    0.2040D-05                    28 Fock formations.
              S**2 =  0.0000                  -V/T =  2.0078
 DoSCS=F DFT=T ScalE2(SS,OS)=  1.000000  1.000000
 Range of M.O.s used for correlation:     1   370
 NBasis=   370 NAE=    83 NBE=    83 NFC=     0 NFV=     0
 NROrb=    370 NOA=    83 NOB=    83 NVA=   287 NVB=   287
 Symmetrizing basis deriv contribution to polar:
 IMax=3 JMax=2 DiffMx= 0.00D+00
 G2DrvN: will do    54 centers at a time, making    1 passes.
 Calling FoFCou, ICntrl=  3107 FMM=F I1Cent=   0 AccDes= 0.00D+00.
 End of G2Drv F.D. properties file   721 does not exist.
 End of G2Drv F.D. properties file   722 does not exist.
 End of G2Drv F.D. properties file   788 does not exist.
          IDoAtm=11111111111111111111111111111111111111111111111111
          IDoAtm=111
          Differentiating once with respect to electric field.
                with respect to dipole field.
          Differentiating once with respect to nuclear coordinates.
 CalDSu exits because no D1Ps are significant.
          There are   162 degrees of freedom in the 1st order CPHF.  IDoFFX=6 NUNeed=     3.
    159 vectors produced by pass  0 Test12= 2.38D-14 1.00D-09 XBig12= 1.47D+02 1.99D+00.
 AX will form   159 AO Fock derivatives at one time.
    159 vectors produced by pass  1 Test12= 2.38D-14 1.00D-09 XBig12= 1.15D+01 2.88D-01.
    159 vectors produced by pass  2 Test12= 2.38D-14 1.00D-09 XBig12= 1.06D-01 3.04D-02.
    159 vectors produced by pass  3 Test12= 2.38D-14 1.00D-09 XBig12= 2.52D-04 1.48D-03.
    159 vectors produced by pass  4 Test12= 2.38D-14 1.00D-09 XBig12= 2.72D-07 4.66D-05.
     70 vectors produced by pass  5 Test12= 2.38D-14 1.00D-09 XBig12= 1.82D-10 9.58D-07.
      3 vectors produced by pass  6 Test12= 2.38D-14 1.00D-09 XBig12= 1.15D-13 2.81D-08.
 InvSVY:  IOpt=1 It=  1 EMax= 1.60D-14
 Solved reduced A of dimension   868 with   162 vectors.
 Isotropic polarizability for W=    0.000000      202.51 Bohr**3.
 End of Minotr F.D. properties file   721 does not exist.
 End of Minotr F.D. properties file   722 does not exist.
 End of Minotr F.D. properties file   788 does not exist.

 **********************************************************************

            Population analysis using the SCF density.

 **********************************************************************

 Orbital symmetries:
       Occupied  (A) (A) (A) (A) (A) (A) (A) (A) (A) (A) (A) (A)
                 (A) (A) (A) (A) (A) (A) (A) (A) (A) (A) (A) (A)
                 (A) (A) (A) (A) (A) (A) (A) (A) (A) (A) (A) (A)
                 (A) (A) (A) (A) (A) (A) (A) (A) (A) (A) (A) (A)
                 (A) (A) (A) (A) (A) (A) (A) (A) (A) (A) (A) (A)
                 (A) (A) (A) (A) (A) (A) (A) (A) (A) (A) (A) (A)
                 (A) (A) (A) (A) (A) (A) (A) (A) (A) (A) (A)
       Virtual   (A) (A) (A) (A) (A) (A) (A) (A) (A) (A) (A) (A)
                 (A) (A) (A) (A) (A) (A) (A) (A) (A) (A) (A) (A)
                 (A) (A) (A) (A) (A) (A) (A) (A) (A) (A) (A) (A)
                 (A) (A) (A) (A) (A) (A) (A) (A) (A) (A) (A) (A)
                 (A) (A) (A) (A) (A) (A) (A) (A) (A) (A) (A) (A)
                 (A) (A) (A) (A) (A) (A) (A) (A) (A) (A) (A) (A)
                 (A) (A) (A) (A) (A) (A) (A) (A) (A) (A) (A) (A)
                 (A) (A) (A) (A) (A) (A) (A) (A) (A) (A) (A) (A)
                 (A) (A) (A) (A) (A) (A) (A) (A) (A) (A) (A) (A)
                 (A) (A) (A) (A) (A) (A) (A) (A) (A) (A) (A) (A)
                 (A) (A) (A) (A) (A) (A) (A) (A) (A) (A) (A) (A)
                 (A) (A) (A) (A) (A) (A) (A) (A) (A) (A) (A) (A)
                 (A) (A) (A) (A) (A) (A) (A) (A) (A) (A) (A) (A)
                 (A) (A) (A) (A) (A) (A) (A) (A) (A) (A) (A) (A)
                 (A) (A) (A) (A) (A) (A) (A) (A) (A) (A) (A) (A)
                 (A) (A) (A) (A) (A) (A) (A) (A) (A) (A) (A) (A)
                 (A) (A) (A) (A) (A) (A) (A) (A) (A) (A) (A) (A)
                 (A) (A) (A) (A) (A) (A) (A) (A) (A) (A) (A) (A)
                 (A) (A) (A) (A) (A) (A) (A) (A) (A) (A) (A) (A)
                 (A) (A) (A) (A) (A) (A) (A) (A) (A) (A) (A) (A)
                 (A) (A) (A) (A) (A) (A) (A) (A) (A) (A) (A) (A)
                 (A) (A) (A) (A) (A) (A) (A) (A) (A) (A) (A) (A)
                 (A) (A) (A) (A) (A) (A) (A) (A) (A) (A) (A) (A)
                 (A) (A) (A) (A) (A) (A) (A) (A) (A) (A) (A)
 The electronic state is 1-A.
 Alpha  occ. eigenvalues --  -77.09562 -14.31584 -14.31570 -14.31476 -14.30849
 Alpha  occ. eigenvalues --  -10.22069 -10.21329 -10.21025 -10.20368 -10.20367
 Alpha  occ. eigenvalues --  -10.20124 -10.20102 -10.20027 -10.19971 -10.17741
 Alpha  occ. eigenvalues --  -10.16980 -10.16903 -10.16607 -10.16353 -10.16278
 Alpha  occ. eigenvalues --   -6.55560  -4.71897  -4.71883  -4.71260  -0.93164
 Alpha  occ. eigenvalues --   -0.89901  -0.88899  -0.88601  -0.77138  -0.76758
 Alpha  occ. eigenvalues --   -0.76521  -0.72532  -0.72242  -0.70906  -0.68304
 Alpha  occ. eigenvalues --   -0.67726  -0.67446  -0.62293  -0.61814  -0.61092
 Alpha  occ. eigenvalues --   -0.57379  -0.56342  -0.55459  -0.50801  -0.49153
 Alpha  occ. eigenvalues --   -0.48294  -0.47522  -0.47353  -0.46086  -0.45453
 Alpha  occ. eigenvalues --   -0.44834  -0.44597  -0.43492  -0.43042  -0.42277
 Alpha  occ. eigenvalues --   -0.41543  -0.40322  -0.40014  -0.39324  -0.39121
 Alpha  occ. eigenvalues --   -0.38591  -0.38069  -0.37940  -0.37869  -0.36892
 Alpha  occ. eigenvalues --   -0.36813  -0.36345  -0.35972  -0.35026  -0.34465
 Alpha  occ. eigenvalues --   -0.34378  -0.33906  -0.33345  -0.32803  -0.32657
 Alpha  occ. eigenvalues --   -0.32619  -0.31531  -0.31110  -0.24004  -0.22549
 Alpha  occ. eigenvalues --   -0.20914  -0.19321  -0.14869
 Alpha virt. eigenvalues --    0.06341   0.07591   0.08738   0.08882   0.09561
 Alpha virt. eigenvalues --    0.10024   0.10847   0.11401   0.11806   0.12481
 Alpha virt. eigenvalues --    0.13560   0.14139   0.14361   0.14613   0.15212
 Alpha virt. eigenvalues --    0.15340   0.15797   0.15931   0.16028   0.16776
 Alpha virt. eigenvalues --    0.17072   0.17531   0.17782   0.18111   0.18915
 Alpha virt. eigenvalues --    0.19249   0.19486   0.19876   0.20550   0.20707
 Alpha virt. eigenvalues --    0.21014   0.21414   0.22013   0.22401   0.22697
 Alpha virt. eigenvalues --    0.23055   0.23292   0.24032   0.24288   0.24941
 Alpha virt. eigenvalues --    0.25458   0.26289   0.26754   0.27557   0.27887
 Alpha virt. eigenvalues --    0.28323   0.29231   0.29459   0.30380   0.31061
 Alpha virt. eigenvalues --    0.31949   0.32085   0.35669   0.36623   0.39667
 Alpha virt. eigenvalues --    0.43699   0.45726   0.47335   0.48662   0.49960
 Alpha virt. eigenvalues --    0.50764   0.51519   0.52308   0.52546   0.54168
 Alpha virt. eigenvalues --    0.54271   0.54983   0.55811   0.56478   0.57603
 Alpha virt. eigenvalues --    0.58428   0.59495   0.60354   0.60919   0.61838
 Alpha virt. eigenvalues --    0.62660   0.62892   0.64073   0.64998   0.65600
 Alpha virt. eigenvalues --    0.66424   0.67173   0.68312   0.69298   0.69839
 Alpha virt. eigenvalues --    0.71120   0.71998   0.72511   0.73064   0.73970
 Alpha virt. eigenvalues --    0.75172   0.75958   0.77213   0.77968   0.78489
 Alpha virt. eigenvalues --    0.80285   0.81146   0.81215   0.82088   0.83138
 Alpha virt. eigenvalues --    0.84090   0.85069   0.85986   0.86501   0.87151
 Alpha virt. eigenvalues --    0.87937   0.88267   0.88560   0.89072   0.89548
 Alpha virt. eigenvalues --    0.89696   0.90291   0.90577   0.91012   0.91391
 Alpha virt. eigenvalues --    0.92090   0.92739   0.93084   0.93228   0.93650
 Alpha virt. eigenvalues --    0.94136   0.94467   0.94988   0.96030   0.96227
 Alpha virt. eigenvalues --    0.96424   0.96769   0.97808   0.98582   0.99205
 Alpha virt. eigenvalues --    0.99416   1.00857   1.01805   1.02208   1.02879
 Alpha virt. eigenvalues --    1.03624   1.04889   1.05086   1.05200   1.06242
 Alpha virt. eigenvalues --    1.08901   1.08963   1.09428   1.10304   1.11061
 Alpha virt. eigenvalues --    1.13177   1.13473   1.16401   1.16945   1.18387
 Alpha virt. eigenvalues --    1.21043   1.22122   1.25055   1.26195   1.29863
 Alpha virt. eigenvalues --    1.32626   1.33990   1.34724   1.37308   1.38175
 Alpha virt. eigenvalues --    1.40628   1.42228   1.43335   1.45644   1.46370
 Alpha virt. eigenvalues --    1.47262   1.49651   1.52737   1.55045   1.58165
 Alpha virt. eigenvalues --    1.61563   1.61639   1.62649   1.64168   1.65175
 Alpha virt. eigenvalues --    1.67382   1.68051   1.71223   1.72345   1.74115
 Alpha virt. eigenvalues --    1.76171   1.77102   1.77725   1.78582   1.79278
 Alpha virt. eigenvalues --    1.79831   1.81961   1.83073   1.85815   1.86705
 Alpha virt. eigenvalues --    1.87713   1.88871   1.89740   1.90869   1.91709
 Alpha virt. eigenvalues --    1.93698   1.94438   1.94933   1.96689   1.98362
 Alpha virt. eigenvalues --    1.99314   2.00753   2.02481   2.03337   2.03696
 Alpha virt. eigenvalues --    2.04844   2.05655   2.07662   2.08425   2.09023
 Alpha virt. eigenvalues --    2.10042   2.10666   2.12658   2.12854   2.13992
 Alpha virt. eigenvalues --    2.15348   2.15693   2.16741   2.18064   2.19526
 Alpha virt. eigenvalues --    2.19905   2.22458   2.24248   2.25496   2.26300
 Alpha virt. eigenvalues --    2.26880   2.27265   2.27597   2.28407   2.29600
 Alpha virt. eigenvalues --    2.30127   2.31002   2.32166   2.33613   2.35816
 Alpha virt. eigenvalues --    2.37310   2.37858   2.40237   2.41393   2.43779
 Alpha virt. eigenvalues --    2.44408   2.47114   2.47902   2.49790   2.51144
 Alpha virt. eigenvalues --    2.52141   2.53425   2.54806   2.56011   2.57790
 Alpha virt. eigenvalues --    2.59602   2.62358   2.62804   2.65731   2.69753
 Alpha virt. eigenvalues --    2.72551   2.73576   2.75169   2.77389   2.78610
 Alpha virt. eigenvalues --    2.79905   2.82035   2.84250   2.85724   2.87321
 Alpha virt. eigenvalues --    2.90893   2.95848   3.65373   3.97831   4.04271
 Alpha virt. eigenvalues --    4.05931   4.18179   4.23088   4.23432   4.26068
 Alpha virt. eigenvalues --    4.27513   4.29473   4.29856   4.31295   4.37654
 Alpha virt. eigenvalues --    4.40446   4.50510   4.56087   4.57475   4.59707
 Alpha virt. eigenvalues --    4.60741   4.64611
          Condensed to atoms (all electrons):
 Mulliken charges:
               1
     1  N   -0.534877
     2  C   -0.126702
     3  C   -0.157398
     4  N   -0.379628
     5  C   -0.151665
     6  C   -0.161171
     7  N   -0.548792
     8  P    0.695438
     9  N   -0.542359
    10  C   -0.134542
    11  C   -0.158666
    12  C    0.076878
    13  C   -0.472933
    14  C   -0.453427
    15  C    0.073517
    16  C   -0.474915
    17  C   -0.446416
    18  C    0.053316
    19  C   -0.454373
    20  C   -0.447438
    21  H    0.132262
    22  H    0.130955
    23  H    0.144165
    24  H    0.135679
    25  H    0.136398
    26  H    0.134386
    27  H    0.137100
    28  H    0.146956
    29  H    0.138686
    30  H    0.127932
    31  H    0.158199
    32  H    0.133987
    33  H    0.137243
    34  H    0.149206
    35  H    0.159145
    36  H    0.148705
    37  H    0.134364
    38  H    0.129153
    39  H    0.182902
    40  H    0.120337
    41  H    0.166099
    42  H    0.167876
    43  H    0.139302
    44  H    0.153668
    45  H    0.139003
    46  H    0.144879
    47  H    0.152197
    48  H    0.140509
    49  H    0.155504
    50  H    0.139591
    51  H    0.140074
    52  H    0.136549
    53  H    0.153142
 Sum of Mulliken charges =   0.00000
 Mulliken charges with hydrogens summed into heavy atoms:
               1
     1  N   -0.534877
     2  C    0.136515
     3  C    0.122446
     4  N   -0.379628
     5  C    0.119119
     6  C    0.122885
     7  N   -0.548792
     8  P    0.695438
     9  N   -0.542359
    10  C    0.132076
    11  C    0.133521
    12  C    0.214121
    13  C   -0.015877
    14  C   -0.007007
    15  C    0.193854
    16  C   -0.001638
    17  C   -0.008867
    18  C    0.205513
    19  C   -0.018770
    20  C   -0.017673
 APT charges:
               1
     1  N   -0.918891
     2  C    0.249854
     3  C    0.390068
     4  N   -0.600801
     5  C    0.326030
     6  C    0.247511
     7  N   -0.903386
     8  P    1.278429
     9  N   -0.839506
    10  C    0.228904
    11  C    0.370117
    12  C    0.443974
    13  C    0.038694
    14  C   -0.000353
    15  C    0.469487
    16  C    0.034717
    17  C    0.015425
    18  C    0.450551
    19  C    0.008983
    20  C    0.002909
    21  H   -0.069411
    22  H   -0.076498
    23  H   -0.038321
    24  H   -0.099192
    25  H   -0.054944
    26  H   -0.054159
    27  H   -0.033186
    28  H   -0.061330
    29  H   -0.054029
    30  H   -0.067793
    31  H   -0.018628
    32  H   -0.096470
    33  H   -0.086455
    34  H   -0.013891
    35  H   -0.012689
    36  H   -0.023812
    37  H   -0.020692
    38  H   -0.048798
    39  H    0.014991
    40  H   -0.120762
    41  H    0.007416
    42  H   -0.006222
    43  H   -0.032553
    44  H   -0.010830
    45  H   -0.037202
    46  H   -0.017203
    47  H   -0.023859
    48  H   -0.014167
    49  H   -0.016910
    50  H   -0.038870
    51  H   -0.013861
    52  H   -0.038905
    53  H   -0.013482
 Sum of APT charges =   0.00000
 APT charges with hydrogens summed into heavy atoms:
               1
     1  N   -0.918891
     2  C    0.103945
     3  C    0.252555
     4  N   -0.600801
     5  C    0.216926
     6  C    0.152996
     7  N   -0.903386
     8  P    1.278429
     9  N   -0.839506
    10  C    0.107082
    11  C    0.255019
    12  C    0.357518
    13  C   -0.011699
    14  C   -0.054853
    15  C    0.348725
    16  C    0.003359
    17  C   -0.049810
    18  C    0.426692
    19  C   -0.060964
    20  C   -0.063339
 Electronic spatial extent (au):  <R**2>=           5710.8285
 Charge=              0.0000 electrons
 Dipole moment (field-independent basis, Debye):
    X=             -0.2398    Y=              0.3798    Z=              0.8597  Tot=              0.9699
 Quadrupole moment (field-independent basis, Debye-Ang):
   XX=           -127.4184   YY=           -129.3450   ZZ=           -138.8338
   XY=              1.3309   XZ=              0.4399   YZ=              0.8442
 Traceless Quadrupole moment (field-independent basis, Debye-Ang):
   XX=              4.4473   YY=              2.5208   ZZ=             -6.9681
   XY=              1.3309   XZ=              0.4399   YZ=              0.8442
 Octapole moment (field-independent basis, Debye-Ang**2):
  XXX=             -9.8546  YYY=              6.3505  ZZZ=            -10.7949  XYY=              4.2594
  XXY=             -2.7215  XXZ=             -0.8585  XZZ=             -0.0979  YZZ=             -3.8889
  YYZ=              2.9557  XYZ=             -2.4784
 Hexadecapole moment (field-independent basis, Debye-Ang**3):
 XXXX=          -3234.0537 YYYY=          -2804.2739 ZZZZ=          -1851.3021 XXXY=             28.2930
 XXXZ=             16.1617 YYYX=              9.7792 YYYZ=             25.2211 ZZZX=             13.2856
 ZZZY=             -3.2724 XXYY=           -988.5243 XXZZ=           -814.0708 YYZZ=           -746.1206
 XXYZ=             10.8604 YYXZ=            -17.1291 ZZXY=              2.8204
 N-N= 2.080469890946D+03 E-N=-6.850279544887D+03  KE= 1.142772523279D+03
  Exact polarizability: 215.197   1.597 207.215   0.007   0.853 185.130
 Approx polarizability: 293.897   1.852 288.303   1.348   3.515 271.973
 Calling FoFJK, ICntrl=    100127 FMM=F ISym2X=0 I1Cent= 0 IOpClX= 0 NMat=1 NMatS=1 NMatT=0.
 ***** Axes restored to original set *****
 -------------------------------------------------------------------
 Center     Atomic                   Forces (Hartrees/Bohr)
 Number     Number              X              Y              Z
 -------------------------------------------------------------------
      1        7          -0.001903145   -0.013737002   -0.025602815
      2        6          -0.008758249   -0.008255612   -0.002794681
      3        6          -0.001709957   -0.000025010   -0.008449028
      4        7          -0.005760196    0.024445695    0.006735301
      5        6           0.003188556   -0.007196009   -0.009875669
      6        6           0.009136664   -0.003291616    0.006531624
      7        7           0.032044336   -0.001973367   -0.029475203
      8       15          -0.045962843    0.055050972    0.063615751
      9        7           0.031303944   -0.036942567   -0.013313879
     10        6           0.002052548   -0.015608250   -0.000132063
     11        6           0.009462446   -0.006465695    0.001816473
     12        6          -0.016522024    0.028322031    0.014660550
     13        6           0.000325406   -0.002545697    0.001087788
     14        6           0.009930747    0.001081886    0.007325368
     15        6          -0.003984701    0.011194489   -0.007136128
     16        6          -0.003036403   -0.006415178    0.006190582
     17        6           0.002793532    0.001934251   -0.002375136
     18        6          -0.006726876   -0.003248659    0.002279338
     19        6           0.000043745    0.002520955   -0.003250661
     20        6          -0.001373573   -0.003161101    0.004869136
     21        1          -0.002258648   -0.001453283   -0.002917438
     22        1          -0.002928694   -0.003202182    0.001754703
     23        1           0.006776808    0.000895161    0.005093836
     24        1          -0.009756719    0.000215853   -0.001197028
     25        1          -0.003787458   -0.003355894   -0.000318691
     26        1          -0.000369405   -0.000669794    0.001933459
     27        1          -0.005517560   -0.000742162    0.001055757
     28        1          -0.002632134   -0.001869911    0.005075838
     29        1          -0.000545895    0.000669642   -0.007535588
     30        1           0.002244633   -0.001485953   -0.004067485
     31        1          -0.002038316    0.006747141   -0.005259120
     32        1           0.004430376   -0.001916500    0.006394447
     33        1          -0.006725552   -0.002537320   -0.004328409
     34        1           0.000953249   -0.001258209    0.001895718
     35        1           0.000904634   -0.000756145    0.001486124
     36        1          -0.000674276    0.003591054   -0.002981680
     37        1           0.002187073    0.000448180   -0.002747693
     38        1          -0.000094604   -0.001582666   -0.003815690
     39        1          -0.001536139    0.000024185   -0.002488944
     40        1           0.000930715   -0.001506036   -0.004099581
     41        1          -0.000151526   -0.002236111    0.001015104
     42        1          -0.000498341   -0.001471133    0.004159855
     43        1           0.005191309   -0.001569355   -0.000929422
     44        1          -0.000336264   -0.000659111    0.002059063
     45        1          -0.001723297   -0.001461382    0.001042830
     46        1           0.000547834    0.002128121    0.000710200
     47        1           0.010042985   -0.000154252   -0.004408451
     48        1           0.000666089   -0.000241807   -0.000367901
     49        1           0.000347777    0.000368991   -0.000753672
     50        1           0.001203975   -0.000376926    0.001766487
     51        1          -0.000386270   -0.000609180   -0.000014059
     52        1          -0.000859742    0.000449701    0.000013834
     53        1           0.001849420   -0.000107233    0.000066952
 -------------------------------------------------------------------
 Cartesian Forces:  Max     0.063615751 RMS     0.010872807
 FormGI is forming the generalized inverse of G from B-inverse, IUseBI=4.

 GradGradGradGradGradGradGradGradGradGradGradGradGradGradGradGradGradGrad
 Berny optimization.
 Internal  Forces:  Max     0.043144043 RMS     0.006181920
 Search for a local minimum.
 Step number   1 out of a maximum of  316
 All quantities printed in internal units (Hartrees-Bohrs-Radians)
 Mixed Optimization -- RFO/linear search
 Second derivative matrix not updated -- analytic derivatives used.
 ITU=  0
     Eigenvalues ---   -0.00519  -0.00399  -0.00092   0.00042   0.00103
     Eigenvalues ---    0.00216   0.00275   0.00300   0.00319   0.00363
     Eigenvalues ---    0.00475   0.00590   0.00600   0.00743   0.00822
     Eigenvalues ---    0.01095   0.01223   0.01505   0.01613   0.03108
     Eigenvalues ---    0.03346   0.03587   0.03892   0.04102   0.04305
     Eigenvalues ---    0.04378   0.04427   0.04515   0.04561   0.04568
     Eigenvalues ---    0.04615   0.04633   0.04657   0.04687   0.04729
     Eigenvalues ---    0.04742   0.04775   0.04847   0.04885   0.04895
     Eigenvalues ---    0.04926   0.04987   0.05006   0.05030   0.05175
     Eigenvalues ---    0.05222   0.05297   0.05374   0.05484   0.05598
     Eigenvalues ---    0.05726   0.05742   0.07332   0.08234   0.08886
     Eigenvalues ---    0.09157   0.09274   0.09666   0.09793   0.10105
     Eigenvalues ---    0.10246   0.11094   0.11801   0.11977   0.12129
     Eigenvalues ---    0.12229   0.12382   0.12462   0.12572   0.12594
     Eigenvalues ---    0.12783   0.12788   0.12994   0.13330   0.13506
     Eigenvalues ---    0.13747   0.13971   0.14081   0.14462   0.14728
     Eigenvalues ---    0.14870   0.14953   0.15123   0.15383   0.15492
     Eigenvalues ---    0.16546   0.16895   0.18117   0.18598   0.18739
     Eigenvalues ---    0.19460   0.19767   0.20238   0.20434   0.21067
     Eigenvalues ---    0.21746   0.23024   0.24518   0.25159   0.25564
     Eigenvalues ---    0.26003   0.26471   0.26651   0.27318   0.27413
     Eigenvalues ---    0.27788   0.28657   0.29207   0.29397   0.29711
     Eigenvalues ---    0.30200   0.30730   0.30925   0.31244   0.31549
     Eigenvalues ---    0.31707   0.31885   0.32171   0.32203   0.32529
     Eigenvalues ---    0.32666   0.32854   0.32937   0.33355   0.33409
     Eigenvalues ---    0.33420   0.33543   0.33633   0.33708   0.33782
     Eigenvalues ---    0.33848   0.33956   0.34012   0.34045   0.34166
     Eigenvalues ---    0.34186   0.34214   0.34334   0.34476   0.34643
     Eigenvalues ---    0.34753   0.34843   0.34907   0.34935   0.34998
     Eigenvalues ---    0.35009   0.35528   0.35679   0.36748   0.37685
     Eigenvalues ---    0.40812   0.52957   0.61969
 RFO step:  Lambda=-4.83917339D-02 EMin=-5.19046618D-03
 Linear search not attempted -- first point.
 Maximum step size (   0.300) exceeded in Quadratic search.
    -- Step size scaled by   0.782
 Iteration  1 RMS(Cart)=  0.14415958 RMS(Int)=  0.00823724
 Iteration  2 RMS(Cart)=  0.01691019 RMS(Int)=  0.00040977
 Iteration  3 RMS(Cart)=  0.00019832 RMS(Int)=  0.00040150
 Iteration  4 RMS(Cart)=  0.00000005 RMS(Int)=  0.00040150
 Variable       Old X    -DE/DX   Delta X   Delta X   Delta X     New X
                                 (Linear)    (Quad)   (Total)
    R1        2.76900   0.00129   0.00000  -0.01339  -0.01372   2.75529
    R2        3.16768   0.02499   0.00000   0.06199   0.06171   3.22939
    R3        2.79546  -0.00406   0.00000  -0.00155  -0.00155   2.79391
    R4        2.92269   0.00032   0.00000  -0.01017  -0.01027   2.91242
    R5        2.07205   0.00266   0.00000   0.00691   0.00691   2.07895
    R6        2.06485   0.00436   0.00000   0.01049   0.01049   2.07534
    R7        2.75174   0.01088   0.00000   0.00926   0.00937   2.76111
    R8        2.07380  -0.00168   0.00000  -0.00367  -0.00367   2.07013
    R9        2.07752   0.00285   0.00000   0.00709   0.00709   2.08461
   R10        2.75970  -0.00233   0.00000  -0.01701  -0.01750   2.74221
   R11        2.75441   0.00624   0.00000   0.00384   0.00327   2.75768
   R12        2.93404   0.00584   0.00000   0.01235   0.01212   2.94617
   R13        2.07733  -0.00060   0.00000  -0.00166  -0.00166   2.07566
   R14        2.07598   0.00043   0.00000   0.00105   0.00105   2.07703
   R15        2.77022  -0.00158   0.00000  -0.00743  -0.00740   2.76281
   R16        2.06952  -0.00393   0.00000  -0.00004  -0.00004   2.06948
   R17        2.06697   0.00276   0.00000   0.00190   0.00190   2.06887
   R18        3.16895   0.02808   0.00000   0.06752   0.06812   3.23707
   R19        2.79986  -0.00038   0.00000  -0.00143  -0.00143   2.79843
   R20        3.18837   0.01739   0.00000   0.05437   0.05487   3.24324
   R21        2.77739   0.01400   0.00000   0.00083   0.00121   2.77860
   R22        2.81261   0.01076   0.00000  -0.00144  -0.00144   2.81117
   R23        2.90619  -0.00269   0.00000  -0.00357  -0.00334   2.90285
   R24        2.07973  -0.00580   0.00000  -0.00558  -0.00558   2.07414
   R25        2.07381   0.00229   0.00000   0.00754   0.00754   2.08135
   R26        2.07185  -0.00154   0.00000  -0.00346  -0.00346   2.06839
   R27        2.07595   0.00357   0.00000   0.00780   0.00780   2.08375
   R28        2.89675   0.00218   0.00000  -0.00032  -0.00032   2.89644
   R29        2.89466   0.00550   0.00000   0.01141   0.01141   2.90607
   R30        2.07776   0.00167   0.00000  -0.00025  -0.00025   2.07751
   R31        2.06694   0.00024   0.00000   0.00230   0.00230   2.06923
   R32        2.06683   0.00029   0.00000   0.00369   0.00369   2.07052
   R33        2.07500  -0.00181   0.00000  -0.00371  -0.00371   2.07130
   R34        2.06669   0.00323   0.00000   0.00522   0.00522   2.07191
   R35        2.08775  -0.00401   0.00000  -0.00956  -0.00956   2.07819
   R36        2.05947   0.00186   0.00000   0.00455   0.00455   2.06401
   R37        2.91454  -0.00466   0.00000  -0.01331  -0.01331   2.90123
   R38        2.91555   0.00212   0.00000   0.00109   0.00109   2.91664
   R39        2.07579   0.00423   0.00000   0.00685   0.00685   2.08264
   R40        2.06955  -0.00018   0.00000  -0.00091  -0.00091   2.06864
   R41        2.06231   0.00120   0.00000   0.00087   0.00087   2.06318
   R42        2.07359  -0.00143   0.00000  -0.00205  -0.00205   2.07154
   R43        2.06759   0.00135   0.00000   0.00280   0.00280   2.07039
   R44        2.07455  -0.00112   0.00000  -0.00094  -0.00094   2.07362
   R45        2.06417  -0.00039   0.00000   0.00196   0.00196   2.06613
   R46        2.91183   0.00052   0.00000  -0.00011  -0.00011   2.91172
   R47        2.89937   0.00485   0.00000   0.00882   0.00882   2.90819
   R48        2.07867  -0.00307   0.00000  -0.00563  -0.00563   2.07304
   R49        2.07003   0.00031   0.00000   0.00106   0.00106   2.07109
   R50        2.06739   0.00059   0.00000   0.00022   0.00022   2.06761
   R51        2.07194  -0.00007   0.00000   0.00016   0.00016   2.07210
   R52        2.06866   0.00047   0.00000   0.00169   0.00169   2.07035
   R53        2.07071   0.00072   0.00000   0.00096   0.00096   2.07167
   R54        2.06612   0.00145   0.00000   0.00264   0.00264   2.06876
    A1        2.21565   0.01429   0.00000   0.06364   0.06273   2.27837
    A2        1.98827   0.00539   0.00000   0.01194   0.01218   2.00045
    A3        2.07914  -0.01968   0.00000  -0.07603  -0.07573   2.00340
    A4        2.15935  -0.01117   0.00000  -0.04126  -0.04187   2.11747
    A5        1.89101   0.00379   0.00000   0.01177   0.01194   1.90295
    A6        1.89394   0.00307   0.00000   0.01294   0.01313   1.90707
    A7        1.81788   0.00242   0.00000   0.00350   0.00359   1.82147
    A8        1.83682   0.00475   0.00000   0.02146   0.02180   1.85862
    A9        1.84133  -0.00205   0.00000  -0.00502  -0.00523   1.83610
   A10        2.11965   0.00479   0.00000  -0.00158  -0.00218   2.11747
   A11        1.89590   0.00386   0.00000   0.02012   0.02053   1.91643
   A12        1.84242  -0.01005   0.00000  -0.03357  -0.03355   1.80888
   A13        1.93642  -0.00761   0.00000  -0.02574  -0.02568   1.91074
   A14        1.83548   0.00634   0.00000   0.02977   0.03016   1.86565
   A15        1.80436   0.00233   0.00000   0.01356   0.01382   1.81819
   A16        1.98471   0.00750   0.00000   0.02863   0.02839   2.01310
   A17        2.02599   0.00484   0.00000   0.02736   0.02667   2.05266
   A18        2.05518  -0.00862   0.00000  -0.01653  -0.01774   2.03744
   A19        2.11433   0.00384   0.00000  -0.00832  -0.00913   2.10521
   A20        1.86861  -0.00364   0.00000  -0.00398  -0.00404   1.86457
   A21        1.89723  -0.00262   0.00000  -0.00516  -0.00465   1.89258
   A22        1.86857   0.00195   0.00000   0.01504   0.01554   1.88411
   A23        1.88129  -0.00116   0.00000  -0.00297  -0.00310   1.87820
   A24        1.81068   0.00147   0.00000   0.00846   0.00835   1.81903
   A25        2.07561  -0.00509   0.00000  -0.00947  -0.00980   2.06581
   A26        1.83890   0.00203   0.00000   0.00260   0.00186   1.84076
   A27        1.89997   0.00333   0.00000   0.01202   0.01229   1.91226
   A28        1.93905  -0.00187   0.00000  -0.03220  -0.03199   1.90706
   A29        1.90450   0.00098   0.00000   0.00717   0.00699   1.91149
   A30        1.78261   0.00168   0.00000   0.02536   0.02536   1.80796
   A31        2.10111   0.00420   0.00000   0.04555   0.04555   2.14666
   A32        1.98029   0.01900   0.00000  -0.00476  -0.00480   1.97549
   A33        2.19290  -0.02337   0.00000  -0.03901  -0.03902   2.15388
   A34        1.89501  -0.00350   0.00000   0.00046  -0.00147   1.89354
   A35        1.88637   0.00079   0.00000  -0.01713  -0.01960   1.86677
   A36        1.97139  -0.01492   0.00000  -0.08329  -0.08387   1.88752
   A37        2.15489   0.00549   0.00000   0.05682   0.05737   2.21226
   A38        2.14700  -0.04314   0.00000  -0.12843  -0.12891   2.01809
   A39        1.89367   0.03838   0.00000   0.06791   0.06848   1.96215
   A40        2.10114  -0.00653   0.00000  -0.03389  -0.03398   2.06717
   A41        1.87080   0.00338   0.00000   0.00960   0.00993   1.88073
   A42        1.92079   0.00669   0.00000   0.02115   0.02063   1.94143
   A43        1.81621   0.00039   0.00000   0.00854   0.00826   1.82446
   A44        1.90442  -0.00352   0.00000  -0.00276  -0.00229   1.90213
   A45        1.82843   0.00023   0.00000   0.00110   0.00096   1.82939
   A46        2.07205   0.00386   0.00000   0.00403   0.00331   2.07536
   A47        1.96741  -0.00631   0.00000  -0.03266  -0.03273   1.93468
   A48        1.84165   0.00398   0.00000   0.02772   0.02837   1.87002
   A49        1.90951   0.00234   0.00000   0.00620   0.00629   1.91580
   A50        1.84587  -0.00692   0.00000  -0.01898  -0.01896   1.82691
   A51        1.80129   0.00297   0.00000   0.01832   0.01850   1.81979
   A52        2.02626   0.00888   0.00000  -0.03599  -0.03603   1.99023
   A53        1.97771  -0.00167   0.00000   0.02607   0.02588   2.00359
   A54        1.88282  -0.00521   0.00000  -0.02421  -0.02474   1.85808
   A55        1.94629  -0.00781   0.00000  -0.00444  -0.00429   1.94200
   A56        1.81467  -0.00062   0.00000   0.01241   0.01190   1.82657
   A57        1.79097   0.00636   0.00000   0.03259   0.03262   1.82359
   A58        1.96339   0.00395   0.00000   0.00639   0.00640   1.96979
   A59        1.94193   0.00317   0.00000  -0.00322  -0.00322   1.93872
   A60        1.91670  -0.00719   0.00000  -0.01085  -0.01084   1.90586
   A61        1.90036  -0.00211   0.00000  -0.00386  -0.00385   1.89651
   A62        1.88259   0.00038   0.00000  -0.00148  -0.00147   1.88112
   A63        1.85476   0.00161   0.00000   0.01350   0.01350   1.86826
   A64        1.95882   0.00070   0.00000   0.00052   0.00051   1.95934
   A65        1.91150   0.00088   0.00000   0.00269   0.00269   1.91418
   A66        1.94489  -0.00238   0.00000  -0.00368  -0.00369   1.94120
   A67        1.87029  -0.00027   0.00000   0.00066   0.00066   1.87095
   A68        1.90582  -0.00023   0.00000  -0.00572  -0.00574   1.90008
   A69        1.86888   0.00142   0.00000   0.00599   0.00600   1.87488
   A70        2.06230  -0.01726   0.00000  -0.03268  -0.03257   2.02973
   A71        1.95876   0.00769   0.00000  -0.01591  -0.01577   1.94299
   A72        1.87278   0.00342   0.00000  -0.00124  -0.00104   1.87174
   A73        1.85627   0.00584   0.00000   0.02465   0.02414   1.88041
   A74        1.83481   0.00362   0.00000   0.01416   0.01369   1.84850
   A75        1.86659  -0.00269   0.00000   0.01727   0.01690   1.88350
   A76        1.95632  -0.00033   0.00000  -0.00375  -0.00379   1.95253
   A77        1.94971   0.00130   0.00000   0.00335   0.00337   1.95309
   A78        1.92866  -0.00682   0.00000  -0.02200  -0.02202   1.90664
   A79        1.90817  -0.00159   0.00000  -0.00634  -0.00634   1.90183
   A80        1.86819   0.00367   0.00000   0.01051   0.01042   1.87862
   A81        1.84791   0.00412   0.00000   0.01979   0.01984   1.86775
   A82        1.94433  -0.00262   0.00000  -0.02001  -0.02009   1.92424
   A83        1.92378  -0.00309   0.00000   0.00511   0.00508   1.92885
   A84        1.97326   0.00425   0.00000   0.00037   0.00025   1.97351
   A85        1.88088   0.00202   0.00000   0.00652   0.00654   1.88742
   A86        1.88819  -0.00077   0.00000  -0.00751  -0.00768   1.88051
   A87        1.84873   0.00033   0.00000   0.01754   0.01747   1.86620
   A88        1.98684  -0.00227   0.00000  -0.00494  -0.00514   1.98169
   A89        1.94899   0.00471   0.00000   0.01514   0.01515   1.96414
   A90        1.91505  -0.00604   0.00000  -0.03811  -0.03803   1.87702
   A91        1.90818   0.00070   0.00000   0.01109   0.01098   1.91916
   A92        1.83892   0.00335   0.00000   0.01546   0.01526   1.85418
   A93        1.85840  -0.00052   0.00000   0.00125   0.00119   1.85959
   A94        1.96681  -0.00034   0.00000  -0.00435  -0.00436   1.96245
   A95        1.93889   0.00063   0.00000   0.00002   0.00001   1.93891
   A96        1.92988  -0.00285   0.00000  -0.00746  -0.00746   1.92242
   A97        1.89101  -0.00012   0.00000   0.00074   0.00074   1.89175
   A98        1.85808   0.00172   0.00000   0.00663   0.00662   1.86470
   A99        1.87504   0.00109   0.00000   0.00523   0.00523   1.88027
   A100       1.96110   0.00099   0.00000   0.00158   0.00158   1.96268
   A101       1.92500  -0.00056   0.00000  -0.00376  -0.00377   1.92124
   A102       1.93946  -0.00129   0.00000  -0.00585  -0.00585   1.93361
   A103       1.86684  -0.00021   0.00000   0.00104   0.00104   1.86787
   A104       1.89188   0.00008   0.00000   0.00136   0.00136   1.89324
   A105       1.87610   0.00106   0.00000   0.00619   0.00618   1.88228
    D1        0.11395  -0.00094   0.00000  -0.07114  -0.07171   0.04224
    D2       -2.01680   0.00082   0.00000  -0.05452  -0.05518  -2.07198
    D3        2.27534  -0.00030   0.00000  -0.06133  -0.06221   2.21314
    D4       -3.00979  -0.00008   0.00000  -0.04016  -0.03933  -3.04912
    D5        1.14264   0.00168   0.00000  -0.02353  -0.02280   1.11984
    D6       -0.84840   0.00056   0.00000  -0.03034  -0.02983  -0.87822
    D7        0.61971  -0.00973   0.00000  -0.01997  -0.01976   0.59994
    D8       -1.52449   0.01006   0.00000   0.09153   0.09210  -1.43239
    D9       -2.54056  -0.01037   0.00000  -0.05150  -0.05138  -2.59195
   D10        1.59842   0.00941   0.00000   0.06000   0.06048   1.65890
   D11       -1.05952  -0.00064   0.00000  -0.04943  -0.04873  -1.10824
   D12        1.11166   0.00232   0.00000  -0.02615  -0.02553   1.08612
   D13       -3.11518   0.00072   0.00000  -0.03961  -0.03918   3.12883
   D14        2.09841  -0.00021   0.00000  -0.02255  -0.02302   2.07539
   D15       -2.01361   0.00275   0.00000   0.00073   0.00018  -2.01343
   D16        0.04275   0.00115   0.00000  -0.01274  -0.01347   0.02927
   D17        0.75091  -0.00026   0.00000   0.05970   0.05910   0.81001
   D18       -1.52534   0.00247   0.00000   0.07833   0.07787  -1.44747
   D19        2.83224   0.00284   0.00000   0.06997   0.06955   2.90179
   D20        2.91448  -0.00094   0.00000   0.04871   0.04851   2.96299
   D21        0.63823   0.00178   0.00000   0.06734   0.06729   0.70551
   D22       -1.28739   0.00215   0.00000   0.05898   0.05897  -1.22842
   D23       -1.43565  -0.00049   0.00000   0.05254   0.05246  -1.38319
   D24        2.57129   0.00223   0.00000   0.07117   0.07123   2.64251
   D25        0.64567   0.00260   0.00000   0.06281   0.06291   0.70858
   D26       -2.00129  -0.00409   0.00000  -0.05743  -0.05818  -2.05947
   D27        0.46625  -0.00258   0.00000  -0.01171  -0.01172   0.45453
   D28        0.25754  -0.00179   0.00000  -0.05650  -0.05706   0.20048
   D29        2.72508  -0.00028   0.00000  -0.01078  -0.01060   2.71448
   D30        2.19719   0.00084   0.00000  -0.03676  -0.03734   2.15985
   D31       -1.61846   0.00235   0.00000   0.00896   0.00912  -1.60934
   D32        1.19669   0.00396   0.00000   0.04969   0.04962   1.24631
   D33       -0.94937   0.00167   0.00000   0.03870   0.03864  -0.91073
   D34       -2.89519   0.00296   0.00000   0.03327   0.03311  -2.86208
   D35       -1.25887  -0.00324   0.00000  -0.01525  -0.01445  -1.27332
   D36        2.87826  -0.00553   0.00000  -0.02624  -0.02544   2.85283
   D37        0.93244  -0.00424   0.00000  -0.03167  -0.03096   0.90148
   D38       -1.95637  -0.00525   0.00000  -0.01193  -0.01157  -1.96794
   D39        0.30924  -0.00453   0.00000  -0.03319  -0.03288   0.27636
   D40        2.26266  -0.00173   0.00000  -0.01122  -0.01113   2.25153
   D41        0.48324   0.00297   0.00000   0.05446   0.05411   0.53735
   D42        2.74885   0.00369   0.00000   0.03321   0.03280   2.78165
   D43       -1.58092   0.00649   0.00000   0.05517   0.05455  -1.52637
   D44       -0.46268  -0.00330   0.00000  -0.02271  -0.02208  -0.48476
   D45       -2.65015   0.00117   0.00000   0.02556   0.02600  -2.62415
   D46        1.73204  -0.00301   0.00000  -0.00924  -0.00892   1.72311
   D47        1.68340  -0.00367   0.00000  -0.02073  -0.02043   1.66297
   D48       -0.50408   0.00080   0.00000   0.02753   0.02765  -0.47642
   D49       -2.40508  -0.00338   0.00000  -0.00727  -0.00727  -2.41234
   D50       -2.66128  -0.00161   0.00000  -0.00545  -0.00501  -2.66629
   D51        1.43443   0.00286   0.00000   0.04281   0.04307   1.47750
   D52       -0.46657  -0.00132   0.00000   0.00801   0.00815  -0.45842
   D53        1.26143   0.00130   0.00000  -0.00804  -0.00760   1.25383
   D54       -1.74521   0.00446   0.00000  -0.01803  -0.01814  -1.76334
   D55       -2.88335  -0.00166   0.00000  -0.04110  -0.04030  -2.92365
   D56        0.39320   0.00149   0.00000  -0.05108  -0.05084   0.34236
   D57       -0.93111  -0.00010   0.00000  -0.02383  -0.02330  -0.95441
   D58        2.34544   0.00306   0.00000  -0.03381  -0.03384   2.31160
   D59       -1.88027   0.00995   0.00000   0.07530   0.07504  -1.80523
   D60        0.21169  -0.00085   0.00000   0.00158   0.00199   0.21368
   D61        1.10885   0.01022   0.00000   0.09058   0.09043   1.19928
[...]
   165    C   11  dxy    Ryd( 3d)     0.00080
   166    C   11  dxz    Ryd( 3d)     0.00159
   167    C   11  dyz    Ryd( 3d)     0.00037
   168    C   11  dx2y2  Ryd( 3d)     0.00132
   169    C   11  dz2    Ryd( 3d)     0.00101
 
   170    C   12  S      Cor( 1S)     1.99924
   171    C   12  S      Val( 2S)     0.95990
   172    C   12  S      Ryd( 3S)     0.00187
   173    C   12  S      Ryd( 4S)     0.00004
   174    C   12  px     Val( 2p)     1.05872
   175    C   12  px     Ryd( 3p)     0.00473
   176    C   12  py     Val( 2p)     1.00876
   177    C   12  py     Ryd( 3p)     0.00267
   178    C   12  pz     Val( 2p)     1.01466
   179    C   12  pz     Ryd( 3p)     0.00367
   180    C   12  dxy    Ryd( 3d)     0.00075
   181    C   12  dxz    Ryd( 3d)     0.00155
   182    C   12  dyz    Ryd( 3d)     0.00089
   183    C   12  dx2y2  Ryd( 3d)     0.00106
   184    C   12  dz2    Ryd( 3d)     0.00080
 
   185    C   13  S      Cor( 1S)     1.99939
   186    C   13  S      Val( 2S)     1.10067
   187    C   13  S      Ryd( 3S)     0.00053
   188    C   13  S      Ryd( 4S)     0.00002
   189    C   13  px     Val( 2p)     1.23922
   190    C   13  px     Ryd( 3p)     0.00208
   191    C   13  py     Val( 2p)     1.09340
   192    C   13  py     Ryd( 3p)     0.00199
   193    C   13  pz     Val( 2p)     1.23916
   194    C   13  pz     Ryd( 3p)     0.00142
   195    C   13  dxy    Ryd( 3d)     0.00072
   196    C   13  dxz    Ryd( 3d)     0.00081
   197    C   13  dyz    Ryd( 3d)     0.00053
   198    C   13  dx2y2  Ryd( 3d)     0.00063
   199    C   13  dz2    Ryd( 3d)     0.00063
 
   200    C   14  S      Cor( 1S)     1.99939
   201    C   14  S      Val( 2S)     1.10498
   202    C   14  S      Ryd( 3S)     0.00052
   203    C   14  S      Ryd( 4S)     0.00002
   204    C   14  px     Val( 2p)     1.11114
   205    C   14  px     Ryd( 3p)     0.00155
   206    C   14  py     Val( 2p)     1.22745
   207    C   14  py     Ryd( 3p)     0.00217
   208    C   14  pz     Val( 2p)     1.23222
   209    C   14  pz     Ryd( 3p)     0.00120
   210    C   14  dxy    Ryd( 3d)     0.00040
   211    C   14  dxz    Ryd( 3d)     0.00101
   212    C   14  dyz    Ryd( 3d)     0.00037
   213    C   14  dx2y2  Ryd( 3d)     0.00091
   214    C   14  dz2    Ryd( 3d)     0.00057
 
   215    C   15  S      Cor( 1S)     1.99923
   216    C   15  S      Val( 2S)     0.94833
   217    C   15  S      Ryd( 3S)     0.00178
   218    C   15  S      Ryd( 4S)     0.00004
   219    C   15  px     Val( 2p)     1.02675
   220    C   15  px     Ryd( 3p)     0.00296
   221    C   15  py     Val( 2p)     0.92944
   222    C   15  py     Ryd( 3p)     0.00237
   223    C   15  pz     Val( 2p)     1.12387
   224    C   15  pz     Ryd( 3p)     0.00543
   225    C   15  dxy    Ryd( 3d)     0.00106
   226    C   15  dxz    Ryd( 3d)     0.00074
   227    C   15  dyz    Ryd( 3d)     0.00133
   228    C   15  dx2y2  Ryd( 3d)     0.00129
   229    C   15  dz2    Ryd( 3d)     0.00074
 
   230    C   16  S      Cor( 1S)     1.99941
   231    C   16  S      Val( 2S)     1.09898
   232    C   16  S      Ryd( 3S)     0.00043
   233    C   16  S      Ryd( 4S)     0.00002
   234    C   16  px     Val( 2p)     1.20423
   235    C   16  px     Ryd( 3p)     0.00236
   236    C   16  py     Val( 2p)     1.22129
   237    C   16  py     Ryd( 3p)     0.00247
   238    C   16  pz     Val( 2p)     1.14755
   239    C   16  pz     Ryd( 3p)     0.00122
   240    C   16  dxy    Ryd( 3d)     0.00031
   241    C   16  dxz    Ryd( 3d)     0.00041
   242    C   16  dyz    Ryd( 3d)     0.00073
   243    C   16  dx2y2  Ryd( 3d)     0.00108
   244    C   16  dz2    Ryd( 3d)     0.00082
 
   245    C   17  S      Cor( 1S)     1.99939
   246    C   17  S      Val( 2S)     1.10318
   247    C   17  S      Ryd( 3S)     0.00055
   248    C   17  S      Ryd( 4S)     0.00001
   249    C   17  px     Val( 2p)     1.09689
   250    C   17  px     Ryd( 3p)     0.00173
   251    C   17  py     Val( 2p)     1.23914
   252    C   17  py     Ryd( 3p)     0.00156
   253    C   17  pz     Val( 2p)     1.23889
   254    C   17  pz     Ryd( 3p)     0.00197
   255    C   17  dxy    Ryd( 3d)     0.00046
   256    C   17  dxz    Ryd( 3d)     0.00072
   257    C   17  dyz    Ryd( 3d)     0.00073
   258    C   17  dx2y2  Ryd( 3d)     0.00078
   259    C   17  dz2    Ryd( 3d)     0.00060
 
   260    C   18  S      Cor( 1S)     1.99922
   261    C   18  S      Val( 2S)     0.95126
   262    C   18  S      Ryd( 3S)     0.00195
   263    C   18  S      Ryd( 4S)     0.00003
   264    C   18  px     Val( 2p)     0.93989
   265    C   18  px     Ryd( 3p)     0.00352
   266    C   18  py     Val( 2p)     1.15833
   267    C   18  py     Ryd( 3p)     0.00473
   268    C   18  pz     Val( 2p)     0.99309
   269    C   18  pz     Ryd( 3p)     0.00290
   270    C   18  dxy    Ryd( 3d)     0.00095
   271    C   18  dxz    Ryd( 3d)     0.00138
   272    C   18  dyz    Ryd( 3d)     0.00090
   273    C   18  dx2y2  Ryd( 3d)     0.00099
   274    C   18  dz2    Ryd( 3d)     0.00088
 
   275    C   19  S      Cor( 1S)     1.99939
   276    C   19  S      Val( 2S)     1.10416
   277    C   19  S      Ryd( 3S)     0.00049
   278    C   19  S      Ryd( 4S)     0.00002
   279    C   19  px     Val( 2p)     1.13205
   280    C   19  px     Ryd( 3p)     0.00153
   281    C   19  py     Val( 2p)     1.23637
   282    C   19  py     Ryd( 3p)     0.00169
   283    C   19  pz     Val( 2p)     1.20030
   284    C   19  pz     Ryd( 3p)     0.00186
   285    C   19  dxy    Ryd( 3d)     0.00062
   286    C   19  dxz    Ryd( 3d)     0.00082
   287    C   19  dyz    Ryd( 3d)     0.00101
   288    C   19  dx2y2  Ryd( 3d)     0.00055
   289    C   19  dz2    Ryd( 3d)     0.00029
 
   290    C   20  S      Cor( 1S)     1.99940
   291    C   20  S      Val( 2S)     1.10630
   292    C   20  S      Ryd( 3S)     0.00048
   293    C   20  S      Ryd( 4S)     0.00002
   294    C   20  px     Val( 2p)     1.24408
   295    C   20  px     Ryd( 3p)     0.00198
   296    C   20  py     Val( 2p)     1.18789
   297    C   20  py     Ryd( 3p)     0.00101
   298    C   20  pz     Val( 2p)     1.13719
   299    C   20  pz     Ryd( 3p)     0.00172
   300    C   20  dxy    Ryd( 3d)     0.00052
   301    C   20  dxz    Ryd( 3d)     0.00106
   302    C   20  dyz    Ryd( 3d)     0.00058
   303    C   20  dx2y2  Ryd( 3d)     0.00075
   304    C   20  dz2    Ryd( 3d)     0.00038
 
   305    H   21  S      Val( 1S)     0.77457
   306    H   21  S      Ryd( 2S)     0.00706
 
   307    H   22  S      Val( 1S)     0.75746
   308    H   22  S      Ryd( 2S)     0.00844
 
   309    H   23  S      Val( 1S)     0.76268
   310    H   23  S      Ryd( 2S)     0.00260
 
   311    H   24  S      Val( 1S)     0.76115
   312    H   24  S      Ryd( 2S)     0.00319
 
   313    H   25  S      Val( 1S)     0.76434
   314    H   25  S      Ryd( 2S)     0.00469
 
   315    H   26  S      Val( 1S)     0.77222
   316    H   26  S      Ryd( 2S)     0.00625
 
   317    H   27  S      Val( 1S)     0.76970
   318    H   27  S      Ryd( 2S)     0.00358
 
   319    H   28  S      Val( 1S)     0.81724
   320    H   28  S      Ryd( 2S)     0.01977
 
   321    H   29  S      Val( 1S)     0.76315
   322    H   29  S      Ryd( 2S)     0.00139
 
   323    H   30  S      Val( 1S)     0.78114
   324    H   30  S      Ryd( 2S)     0.01250
 
   325    H   31  S      Val( 1S)     0.76534
   326    H   31  S      Ryd( 2S)     0.00362
 
   327    H   32  S      Val( 1S)     0.76815
   328    H   32  S      Ryd( 2S)     0.00627
 
   329    H   33  S      Val( 1S)     0.76184
   330    H   33  S      Ryd( 2S)     0.01340
 
   331    H   34  S      Val( 1S)     0.78086
   332    H   34  S      Ryd( 2S)     0.00123
 
   333    H   35  S      Val( 1S)     0.77884
   334    H   35  S      Ryd( 2S)     0.00613
 
   335    H   36  S      Val( 1S)     0.76837
   336    H   36  S      Ryd( 2S)     0.00411
 
   337    H   37  S      Val( 1S)     0.78001
   338    H   37  S      Ryd( 2S)     0.00135
 
   339    H   38  S      Val( 1S)     0.77132
   340    H   38  S      Ryd( 2S)     0.00363
 
   341    H   39  S      Val( 1S)     0.77140
   342    H   39  S      Ryd( 2S)     0.00742
 
   343    H   40  S      Val( 1S)     0.76751
   344    H   40  S      Ryd( 2S)     0.00311
 
   345    H   41  S      Val( 1S)     0.75910
   346    H   41  S      Ryd( 2S)     0.00113
 
   347    H   42  S      Val( 1S)     0.76508
   348    H   42  S      Ryd( 2S)     0.00111
 
   349    H   43  S      Val( 1S)     0.77366
   350    H   43  S      Ryd( 2S)     0.00153
 
   351    H   44  S      Val( 1S)     0.77585
   352    H   44  S      Ryd( 2S)     0.00675
 
   353    H   45  S      Val( 1S)     0.77306
   354    H   45  S      Ryd( 2S)     0.00165
 
   355    H   46  S      Val( 1S)     0.77743
   356    H   46  S      Ryd( 2S)     0.00610
 
   357    H   47  S      Val( 1S)     0.74268
   358    H   47  S      Ryd( 2S)     0.00553
 
   359    H   48  S      Val( 1S)     0.78316
   360    H   48  S      Ryd( 2S)     0.00403
 
   361    H   49  S      Val( 1S)     0.76247
   362    H   49  S      Ryd( 2S)     0.00201
 
   363    H   50  S      Val( 1S)     0.76084
   364    H   50  S      Ryd( 2S)     0.00131
 
   365    H   51  S      Val( 1S)     0.78239
   366    H   51  S      Ryd( 2S)     0.00365
 
   367    H   52  S      Val( 1S)     0.76422
   368    H   52  S      Ryd( 2S)     0.00114
 
   369    H   53  S      Val( 1S)     0.75780
   370    H   53  S      Ryd( 2S)     0.00354


 Summary of Natural Population Analysis:                  
                                                          
                                       Natural Population 
                Natural  -----------------------------------------------
    Atom  No    Charge         Core      Valence    Rydberg      Total
 -----------------------------------------------------------------------
      N    1   -0.68014      1.99945     5.65779    0.02291     7.68014
      C    2   -0.28608      1.99926     4.26817    0.01865     6.28608
      C    3   -0.25268      1.99930     4.23500    0.01838     6.25268
      N    4   -0.45581      1.99940     5.44353    0.01288     7.45581
      C    5   -0.25945      1.99931     4.24225    0.01789     6.25945
      C    6   -0.26647      1.99929     4.24964    0.01755     6.26647
      N    7   -0.81919      1.99942     5.79821    0.02157     7.81919
      P    8    1.16422      9.99839     3.74438    0.09302    13.83578
      N    9   -0.76130      1.99945     5.73839    0.02346     7.76130
      C   10   -0.28076      1.99930     4.26280    0.01866     6.28076
      C   11   -0.26586      1.99933     4.24806    0.01847     6.26586
      C   12   -0.05930      1.99924     4.04203    0.01802     6.05930
      C   13   -0.68119      1.99939     4.67244    0.00936     6.68119
      C   14   -0.68390      1.99939     4.67579    0.00872     6.68390
      C   15   -0.04536      1.99923     4.02839    0.01773     6.04536
      C   16   -0.68130      1.99941     4.67204    0.00985     6.68130
      C   17   -0.68661      1.99939     4.67810    0.00912     6.68661
      C   18   -0.06003      1.99922     4.04257    0.01824     6.06003
      C   19   -0.68116      1.99939     4.67288    0.00889     6.68116
      C   20   -0.68335      1.99940     4.67546    0.00849     6.68335
      H   21    0.21837      0.00000     0.77457    0.00706     0.78163
      H   22    0.23409      0.00000     0.75746    0.00844     0.76591
      H   23    0.23473      0.00000     0.76268    0.00260     0.76527
      H   24    0.23566      0.00000     0.76115    0.00319     0.76434
      H   25    0.23096      0.00000     0.76434    0.00469     0.76904
      H   26    0.22154      0.00000     0.77222    0.00625     0.77846
      H   27    0.22672      0.00000     0.76970    0.00358     0.77328
      H   28    0.16299      0.00000     0.81724    0.01977     0.83701
      H   29    0.23546      0.00000     0.76315    0.00139     0.76454
      H   30    0.20636      0.00000     0.78114    0.01250     0.79364
      H   31    0.23105      0.00000     0.76534    0.00362     0.76895
      H   32    0.22559      0.00000     0.76815    0.00627     0.77441
      H   33    0.22476      0.00000     0.76184    0.01340     0.77524
      H   34    0.21791      0.00000     0.78086    0.00123     0.78209
      H   35    0.21502      0.00000     0.77884    0.00613     0.78498
      H   36    0.22752      0.00000     0.76837    0.00411     0.77248
      H   37    0.21864      0.00000     0.78001    0.00135     0.78136
      H   38    0.22504      0.00000     0.77132    0.00363     0.77496
      H   39    0.22118      0.00000     0.77140    0.00742     0.77882
      H   40    0.22938      0.00000     0.76751    0.00311     0.77062
      H   41    0.23978      0.00000     0.75910    0.00113     0.76022
      H   42    0.23381      0.00000     0.76508    0.00111     0.76619
      H   43    0.22480      0.00000     0.77366    0.00153     0.77520
      H   44    0.21739      0.00000     0.77585    0.00675     0.78261
      H   45    0.22530      0.00000     0.77306    0.00165     0.77470
      H   46    0.21647      0.00000     0.77743    0.00610     0.78353
      H   47    0.25179      0.00000     0.74268    0.00553     0.74821
      H   48    0.21281      0.00000     0.78316    0.00403     0.78719
      H   49    0.23552      0.00000     0.76247    0.00201     0.76448
      H   50    0.23785      0.00000     0.76084    0.00131     0.76215
      H   51    0.21396      0.00000     0.78239    0.00365     0.78604
      H   52    0.23464      0.00000     0.76422    0.00114     0.76536
      H   53    0.23866      0.00000     0.75780    0.00354     0.76134
 =======================================================================
   * Total *   -0.00000     47.98594   117.46295    0.55111   166.00000

                                 Natural Population      
 --------------------------------------------------------
   Core                      47.98594 ( 99.9707% of  48)
   Valence                  117.46295 ( 99.5449% of 118)
   Natural Minimal Basis    165.44889 ( 99.6680% of 166)
   Natural Rydberg Basis      0.55111 (  0.3320% of 166)
 --------------------------------------------------------

    Atom  No          Natural Electron Configuration
 ----------------------------------------------------------------------------
      N    1      [core]2S( 1.34)2p( 4.32)3S( 0.01)3p( 0.01)
      C    2      [core]2S( 1.03)2p( 3.24)3p( 0.01)
      C    3      [core]2S( 1.01)2p( 3.22)3p( 0.01)3d( 0.01)
      N    4      [core]2S( 1.18)2p( 4.27)3p( 0.01)
      C    5      [core]2S( 1.01)2p( 3.24)3p( 0.01)3d( 0.01)
      C    6      [core]2S( 1.02)2p( 3.23)3p( 0.01)3d( 0.01)
      N    7      [core]2S( 1.33)2p( 4.47)3S( 0.01)3p( 0.01)
      P    8      [core]3S( 1.32)3p( 2.43)4S( 0.01)3d( 0.05)4p( 0.04)
      N    9      [core]2S( 1.35)2p( 4.39)3S( 0.01)3p( 0.01)
      C   10      [core]2S( 1.01)2p( 3.25)3p( 0.01)
      C   11      [core]2S( 1.01)2p( 3.24)3p( 0.01)3d( 0.01)
      C   12      [core]2S( 0.96)2p( 3.08)3p( 0.01)3d( 0.01)
      C   13      [core]2S( 1.10)2p( 3.57)3p( 0.01)
      C   14      [core]2S( 1.10)2p( 3.57)
      C   15      [core]2S( 0.95)2p( 3.08)3p( 0.01)3d( 0.01)
      C   16      [core]2S( 1.10)2p( 3.57)3p( 0.01)
      C   17      [core]2S( 1.10)2p( 3.57)3p( 0.01)
      C   18      [core]2S( 0.95)2p( 3.09)3p( 0.01)3d( 0.01)
      C   19      [core]2S( 1.10)2p( 3.57)3p( 0.01)
      C   20      [core]2S( 1.11)2p( 3.57)
      H   21            1S( 0.77)2S( 0.01)
      H   22            1S( 0.76)2S( 0.01)
      H   23            1S( 0.76)
      H   24            1S( 0.76)
      H   25            1S( 0.76)
      H   26            1S( 0.77)2S( 0.01)
      H   27            1S( 0.77)
      H   28            1S( 0.82)2S( 0.02)
      H   29            1S( 0.76)
      H   30            1S( 0.78)2S( 0.01)
      H   31            1S( 0.77)
      H   32            1S( 0.77)2S( 0.01)
      H   33            1S( 0.76)2S( 0.01)
      H   34            1S( 0.78)
      H   35            1S( 0.78)2S( 0.01)
      H   36            1S( 0.77)
      H   37            1S( 0.78)
      H   38            1S( 0.77)
      H   39            1S( 0.77)2S( 0.01)
      H   40            1S( 0.77)
      H   41            1S( 0.76)
      H   42            1S( 0.77)
      H   43            1S( 0.77)
      H   44            1S( 0.78)2S( 0.01)
      H   45            1S( 0.77)
      H   46            1S( 0.78)2S( 0.01)
      H   47            1S( 0.74)2S( 0.01)
      H   48            1S( 0.78)
      H   49            1S( 0.76)
      H   50            1S( 0.76)
      H   51            1S( 0.78)
      H   52            1S( 0.76)
      H   53            1S( 0.76)


 NBO analysis skipped by request.
 1\1\GINC-DELLA-R2C2N2\SP\RB3LYP TD-FC\6-31G(d)\C15H33N4P1\BJS4\24-Aug-
 2020\0\\# TD(NStates=10, Root=1) B3LYP/6-31G* scf=qc volume pop=NPA de
 nsity=current Geom=AllCheck Guess=Read\\Title Card Required\\0,1\N,0,-
 1.2871918396,-0.1474982398,1.289572757\C,0,-1.0894463071,-1.5849868972
 ,1.4064627679\C,0,-0.3057658321,-2.1665394007,0.2185456499\N,0,0.90091
 27848,-1.4390813823,-0.107394531\C,0,0.8915922794,-0.4758211882,-1.180
 617794\C,0,1.2889438234,0.9704256726,-0.8471862414\N,0,0.5545180463,1.
 6483454882,0.2310765361\P,0,-0.0750984707,1.0253318971,1.7278598047\N,
 0,1.1533749291,0.0199748565,2.453144034\C,0,2.3415927255,-0.4394427655
 ,1.7367254561\C,0,2.0660678014,-1.5865207175,0.7280242076\C,0,1.263930
 8692,0.1671353158,3.923197449\C,0,1.4243187804,-1.1902591342,4.6263250
 102\C,0,2.35767405,1.155453033,4.3659977438\C,0,0.7615010528,3.1251454
 401,0.1911636128\C,0,-0.486950052,3.9309513742,0.5778341605\C,0,1.9949
 78037,3.594412754,0.9819561522\C,0,-2.6627572816,0.3770372277,1.237426
 9378\C,0,-3.4009699957,-0.0672880306,-0.0353922514\C,0,-3.4807404158,0
 .071796723,2.5055959255\H,0,-2.0639878605,-2.0836428497,1.469278462\H,
 0,-0.5515149206,-1.8242990466,2.3333905584\H,0,-0.9480002668,-2.170473
 4908,-0.6699038457\H,0,-0.0595822105,-3.219696067,0.4356380779\H,0,-0.
 1147410435,-0.4685849785,-1.6075612748\H,0,1.5826335582,-0.7814574481,
 -1.9923452025\H,0,1.1177939579,1.5380623571,-1.7741547008\H,0,2.377368
 2629,1.0126045844,-0.6799601681\H,0,3.0676223043,-0.818741144,2.464839
 8915\H,0,2.8441999729,0.3940981076,1.2288492392\H,0,1.9471558361,-2.51
 9792529,1.292002953\H,0,2.9710964459,-1.7059567134,0.1046671538\H,0,0.
 3023885223,0.5843959018,4.2467256469\H,0,2.3689698646,-1.6800847534,4.
 3602618856\H,0,0.6056093482,-1.8669888896,4.3618840324\H,0,1.423699816
 2,-1.0571968168,5.7148301783\H,0,3.3576339062,0.8097112099,4.078345943
 1\H,0,2.3514403882,1.2753248508,5.4561343334\H,0,2.1955357279,2.139369
 3775,3.9144894162\H,0,0.9524200061,3.3507525251,-0.8664320267\H,0,-0.7
 237037122,3.8349738206,1.6406192622\H,0,-1.3550391007,3.5954609927,0.0
 003784729\H,0,-0.3194123782,4.9930325221,0.3602138216\H,0,1.8339124805
 ,3.4732430346,2.0588457829\H,0,2.2021267762,4.6548071595,0.790057506\H
 ,0,2.8877327351,3.022946849,0.70376879\H,0,-2.5588088165,1.4682590634,
 1.1798978803\H,0,-3.5503262485,-1.1538101078,-0.0586555444\H,0,-2.8322
 918501,0.2176944885,-0.9265620661\H,0,-4.3917897084,0.3999262269,-0.09
 18346277\H,0,-3.6418904957,-1.0048390136,2.6366569623\H,0,-4.467461490
 9,0.5485768856,2.4563649961\H,0,-2.961874791,0.4483518649,3.3937708235
 \\Version=ES64L-G16RevA.03\State=1-A\HF=-1151.7985613\RMSD=5.958e-10\D
 ipole=-0.1486806,-0.9462118,-0.6055521\Quadrupole=1.283519,0.0482274,-
 1.3317464,-0.6327436,0.5950214,-0.5080904\PG=C01 [X(C15H33N4P1)]\\@


 PICNIC:  A SNACK IN THE GRASS.
 Job cpu time:       0 days  1 hours 49 minutes  2.2 seconds.
 Elapsed time:       0 days  0 hours 15 minutes 37.4 seconds.
 File lengths (MBytes):  RWF=   1125 Int=      0 D2E=      0 Chk=    268 Scr=      1
 Normal termination of Gaussian 16 at Mon Aug 24 17:55:26 2020.
