 Entering Gaussian System, Link 0=g16
 Input=base_6_conf11123.com
 Output=base_6_conf11123.log
 Initial command:
 /opt/export//g16/l1.exe "/scratch/bjs4/job.1752/Gau-1754.inp" -scrdir="/scratch/bjs4/job.1752/"
 Entering Link 1 = /opt/export//g16/l1.exe PID=      1755.
  
 Copyright (c) 1988,1990,1992,1993,1995,1998,2003,2009,2016,
            Gaussian, Inc.  All Rights Reserved.
  
 This is part of the Gaussian(R) 16 program.  It is based on
 the Gaussian(R) 09 system (copyright 2009, Gaussian, Inc.),
 the Gaussian(R) 03 system (copyright 2003, Gaussian, Inc.),
 the Gaussian(R) 98 system (copyright 1998, Gaussian, Inc.),
 the Gaussian(R) 94 system (copyright 1995, Gaussian, Inc.),
 the Gaussian 92(TM) system (copyright 1992, Gaussian, Inc.),
 the Gaussian 90(TM) system (copyright 1990, Gaussian, Inc.),
 the Gaussian 88(TM) system (copyright 1988, Gaussian, Inc.),
 the Gaussian 86(TM) system (copyright 1986, Carnegie Mellon
 University), and the Gaussian 82(TM) system (copyright 1983,
 Carnegie Mellon University). Gaussian is a federally registered
 trademark of Gaussian, Inc.
  
 This software contains proprietary and confidential information,
 including trade secrets, belonging to Gaussian, Inc.
  
 This software is provided under written license and may be
 used, copied, transmitted, or stored only in accord with that
 written license.
  
 The following legend is applicable only to US Government
 contracts under FAR:
  
                    RESTRICTED RIGHTS LEGEND
  
 Use, reproduction and disclosure by the US Government is
 subject to restrictions as set forth in subparagraphs (a)
 and (c) of the Commercial Computer Software - Restricted
 Rights clause in FAR 52.227-19.
  
 Gaussian, Inc.
 340 Quinnipiac St., Bldg. 40, Wallingford CT 06492
  
  
 ---------------------------------------------------------------
 Warning -- This program may not be used in any manner that
 competes with the business of Gaussian, Inc. or will provide
 assistance to any competitor of Gaussian, Inc.  The licensee
 of this program is prohibited from giving any competitor of
 Gaussian, Inc. access to this program.  By using this program,
 the user acknowledges that Gaussian, Inc. is engaged in the
 business of creating and licensing software in the field of
 computational chemistry and represents and warrants to the
 licensee that it is not a competitor of Gaussian, Inc. and that
 it will not use this program in any manner prohibited above.
 ---------------------------------------------------------------
  

 Cite this work as:
 Gaussian 16, Revision A.03,
 M. J. Frisch, G. W. Trucks, H. B. Schlegel, G. E. Scuseria, 
 M. A. Robb, J. R. Cheeseman, G. Scalmani, V. Barone, 
 G. A. Petersson, H. Nakatsuji, X. Li, M. Caricato, A. V. Marenich, 
 J. Bloino, B. G. Janesko, R. Gomperts, B. Mennucci, H. P. Hratchian, 
 J. V. Ortiz, A. F. Izmaylov, J. L. Sonnenberg, D. Williams-Young, 
 F. Ding, F. Lipparini, F. Egidi, J. Goings, B. Peng, A. Petrone, 
 T. Henderson, D. Ranasinghe, V. G. Zakrzewski, J. Gao, N. Rega, 
 G. Zheng, W. Liang, M. Hada, M. Ehara, K. Toyota, R. Fukuda, 
 J. Hasegawa, M. Ishida, T. Nakajima, Y. Honda, O. Kitao, H. Nakai, 
 T. Vreven, K. Throssell, J. A. Montgomery, Jr., J. E. Peralta, 
 F. Ogliaro, M. J. Bearpark, J. J. Heyd, E. N. Brothers, K. N. Kudin, 
 V. N. Staroverov, T. A. Keith, R. Kobayashi, J. Normand, 
 K. Raghavachari, A. P. Rendell, J. C. Burant, S. S. Iyengar, 
 J. Tomasi, M. Cossi, J. M. Millam, M. Klene, C. Adamo, R. Cammi, 
 J. W. Ochterski, R. L. Martin, K. Morokuma, O. Farkas, 
 J. B. Foresman, and D. J. Fox, Gaussian, Inc., Wallingford CT, 2016.
 
 ******************************************
 Gaussian 16:  ES64L-G16RevA.03 25-Dec-2016
                24-Aug-2020 
 ******************************************
 %nprocshared=7
 Will use up to    7 processors via shared memory.
 %Mem=14GB
 %Chk=base_6_conf111.chk
 ---------------------------------
 # opt=CalcAll B3LYP/6-31G* scf=qc
 ---------------------------------
 1/10=4,18=20,19=15,26=3,38=1/1,3;
 2/9=110,12=2,17=6,18=5,40=1/2;
 3/5=1,6=6,7=1,11=2,25=1,30=1,71=2,74=-5,140=1/1,2,3;
 4//1;
 5/5=2,8=3,38=5/8;
 8/6=4,10=90,11=11/1;
 11/6=1,8=1,9=11,15=111,16=1/1,2,10;
 10/6=1/2;
 6/7=2,8=2,9=2,10=2,18=1,28=1/1;
 7/10=1,25=1/1,2,3,16;
 1/10=4,18=20,19=15,26=3/3(3);
 2/9=110/2;
 7/8=1,9=1,25=1,44=-1/16;
 99//99;
 2/9=110/2;
 3/5=1,6=6,7=1,11=2,25=1,30=1,71=2,74=-5,140=1/1,2,3;
 4/5=5,16=3,69=1/1;
 5/5=2,8=3,38=5/8;
 8/6=4,10=90,11=11/1;
 11/6=1,8=1,9=11,15=111,16=1/1,2,10;
 10/6=1/2;
 7/10=1,25=1/1,2,3,16;
 1/10=4,18=20,19=15,26=3/3(-8);
 2/9=110/2;
 6/7=2,8=2,9=2,10=2,18=1,19=2,28=1/1;
 7/8=1,9=1,25=1,44=-1/16;
 99//99;
 -------------------
 Title Card Required
 -------------------
 Symbolic Z-matrix:
 Charge =  0 Multiplicity = 1
 N                    -1.3325    0.0965    1.2627 
 C                    -1.3347   -0.677     0.0182 
 C                    -0.0666   -0.9542   -0.8227 
 N1                    1.1923   -1.3331   -0.1966 
 C                     2.2526   -0.3428   -0.3632 
 C                     2.1781    1.0394    0.3401 
 N                     0.8633    1.5949    0.6743 
 P                    -0.0423    0.9382    1.9236 
 N                     0.8413   -0.1292    2.8862 
 C                     1.5867   -1.2768    2.35 
 C                     1.0899   -2.0077    1.0914 
 C                     1.4522    0.2657    4.1847 
 C                     2.49489   1.38779   4.12579 
 C                     0.4205    0.51496   5.28916 
 C                     0.3903    2.6135   -0.2921 
 C                    -0.97567   3.28189  -0.03501 
 C                     1.40681   3.75936  -0.4767 
 C                    -2.6256    0.0807    1.981 
 C                    -3.09834  -1.33015   2.3814 
 C                    -2.59346   0.97774   3.2253 
 H                    -2.0236   -0.1957   -0.6861 
 H                    -1.7651   -1.6605    0.2217 
 H                     0.0784   -0.1219   -1.5231 
 H                    -0.3264   -1.7969   -1.4792 
 H                     2.3486   -0.1513   -1.4414 
 H                     3.212    -0.8052   -0.0938 
 H                     2.743     1.7228   -0.3027 
 H                     2.7948    1.0104    1.243 
 H                     1.589    -2.0553    3.1279 
 H                     2.6431   -1.0107    2.2176 
 H                     0.0892   -2.415     1.2778 
 H                     1.7144   -2.9071    1.0026 
 H                     2.01297  -0.59783   4.57038 
 H                     2.04987   2.36114   3.90016 
 H                     3.26862   1.17173   3.38358 
 H                     3.00974   1.46871   5.09227 
 H                    -0.15417   1.42991   5.11976 
 H                     0.93789   0.62979   6.25854 
 H                    -0.26571  -0.32564   5.39021 
 H                     0.28747   2.11663  -1.26635 
 H                    -1.00257   3.80788   0.92519 
 H                    -1.79246   2.55917  -0.07401 
 H                    -1.19345   4.02336  -0.81402 
 H                     1.52986   4.33623   0.44481 
 H                     1.06416   4.44815  -1.25986 
 H                     2.39187   3.41037  -0.79452 
 H                    -3.41713   0.47926   1.32939 
 H                    -2.40345  -1.83063   3.06446 
 H                    -3.2327   -1.96503   1.50064 
 H                    -4.06272  -1.28045   2.90067 
 H                    -1.93361   0.58457   4.00527 
 H                    -3.59483   1.05612   3.6633 
 H                    -2.26492   1.98962   2.97316 
 

 GradGradGradGradGradGradGradGradGradGradGradGradGradGradGradGradGradGrad
 Berny optimization.
 Initialization pass.
                           ----------------------------
                           !    Initial Parameters    !
                           ! (Angstroms and Degrees)  !
 --------------------------                            --------------------------
 ! Name  Definition              Value          Derivative Info.                !
 --------------------------------------------------------------------------------
 ! R1    R(1,2)                  1.4653         calculate D2E/DX2 analytically  !
 ! R2    R(1,8)                  1.6763         calculate D2E/DX2 analytically  !
 ! R3    R(1,18)                 1.4793         calculate D2E/DX2 analytically  !
 ! R4    R(2,3)                  1.5466         calculate D2E/DX2 analytically  !
 ! R5    R(2,21)                 1.0965         calculate D2E/DX2 analytically  !
 ! R6    R(2,22)                 1.0927         calculate D2E/DX2 analytically  !
 ! R7    R(3,4)                  1.4562         calculate D2E/DX2 analytically  !
 ! R8    R(3,23)                 1.0974         calculate D2E/DX2 analytically  !
 ! R9    R(3,24)                 1.0994         calculate D2E/DX2 analytically  !
 ! R10   R(4,5)                  1.4604         calculate D2E/DX2 analytically  !
 ! R11   R(4,11)                 1.4576         calculate D2E/DX2 analytically  !
 ! R12   R(5,6)                  1.5526         calculate D2E/DX2 analytically  !
 ! R13   R(5,25)                 1.0993         calculate D2E/DX2 analytically  !
 ! R14   R(5,26)                 1.0986         calculate D2E/DX2 analytically  !
 ! R15   R(6,7)                  1.4659         calculate D2E/DX2 analytically  !
 ! R16   R(6,27)                 1.0951         calculate D2E/DX2 analytically  !
 ! R17   R(6,28)                 1.0938         calculate D2E/DX2 analytically  !
 ! R18   R(7,8)                  1.6769         calculate D2E/DX2 analytically  !
 ! R19   R(7,15)                 1.4816         calculate D2E/DX2 analytically  !
 ! R20   R(8,9)                  1.6872         calculate D2E/DX2 analytically  !
 ! R21   R(9,10)                 1.4697         calculate D2E/DX2 analytically  !
 ! R22   R(9,12)                 1.4884         calculate D2E/DX2 analytically  !
 ! R23   R(10,11)                1.5379         calculate D2E/DX2 analytically  !
 ! R24   R(10,29)                1.1005         calculate D2E/DX2 analytically  !
 ! R25   R(10,30)                1.0974         calculate D2E/DX2 analytically  !
 ! R26   R(11,31)                1.0964         calculate D2E/DX2 analytically  !
 ! R27   R(11,32)                1.0985         calculate D2E/DX2 analytically  !
 ! R28   R(12,13)                1.5329         calculate D2E/DX2 analytically  !
 ! R29   R(12,14)                1.5318         calculate D2E/DX2 analytically  !
 ! R30   R(12,33)                1.0995         calculate D2E/DX2 analytically  !
 ! R31   R(13,34)                1.0938         calculate D2E/DX2 analytically  !
 ! R32   R(13,35)                1.0937         calculate D2E/DX2 analytically  !
 ! R33   R(13,36)                1.098          calculate D2E/DX2 analytically  !
 ! R34   R(14,37)                1.0937         calculate D2E/DX2 analytically  !
 ! R35   R(14,38)                1.1048         calculate D2E/DX2 analytically  !
 ! R36   R(14,39)                1.0898         calculate D2E/DX2 analytically  !
 ! R37   R(15,16)                1.5423         calculate D2E/DX2 analytically  !
 ! R38   R(15,17)                1.5428         calculate D2E/DX2 analytically  !
 ! R39   R(15,40)                1.0985         calculate D2E/DX2 analytically  !
 ! R40   R(16,41)                1.0952         calculate D2E/DX2 analytically  !
 ! R41   R(16,42)                1.0913         calculate D2E/DX2 analytically  !
 ! R42   R(16,43)                1.0973         calculate D2E/DX2 analytically  !
 ! R43   R(17,44)                1.0941         calculate D2E/DX2 analytically  !
 ! R44   R(17,45)                1.0978         calculate D2E/DX2 analytically  !
 ! R45   R(17,46)                1.0923         calculate D2E/DX2 analytically  !
 ! R46   R(18,19)                1.5409         calculate D2E/DX2 analytically  !
 ! R47   R(18,20)                1.5343         calculate D2E/DX2 analytically  !
 ! R48   R(18,47)                1.1            calculate D2E/DX2 analytically  !
 ! R49   R(19,48)                1.0954         calculate D2E/DX2 analytically  !
 ! R50   R(19,49)                1.094          calculate D2E/DX2 analytically  !
 ! R51   R(19,50)                1.0964         calculate D2E/DX2 analytically  !
 ! R52   R(20,51)                1.0947         calculate D2E/DX2 analytically  !
 ! R53   R(20,52)                1.0958         calculate D2E/DX2 analytically  !
 ! R54   R(20,53)                1.0934         calculate D2E/DX2 analytically  !
 ! A1    A(2,1,8)              126.9472         calculate D2E/DX2 analytically  !
 ! A2    A(2,1,18)             113.9194         calculate D2E/DX2 analytically  !
 ! A3    A(8,1,18)             119.1257         calculate D2E/DX2 analytically  !
 ! A4    A(1,2,3)              123.7215         calculate D2E/DX2 analytically  !
 ! A5    A(1,2,21)             108.3469         calculate D2E/DX2 analytically  !
 ! A6    A(1,2,22)             108.515          calculate D2E/DX2 analytically  !
 ! A7    A(3,2,21)             104.1569         calculate D2E/DX2 analytically  !
 ! A8    A(3,2,22)             105.2422         calculate D2E/DX2 analytically  !
 ! A9    A(21,2,22)            105.5002         calculate D2E/DX2 analytically  !
 ! A10   A(2,3,4)              121.447          calculate D2E/DX2 analytically  !
 ! A11   A(2,3,23)             108.6273         calculate D2E/DX2 analytically  !
 ! A12   A(2,3,24)             105.5631         calculate D2E/DX2 analytically  !
 ! A13   A(4,3,23)             110.9488         calculate D2E/DX2 analytically  !
 ! A14   A(4,3,24)             105.1654         calculate D2E/DX2 analytically  !
 ! A15   A(23,3,24)            103.3825         calculate D2E/DX2 analytically  !
 ! A16   A(3,4,5)              113.7154         calculate D2E/DX2 analytically  !
 ! A17   A(3,4,11)             116.0808         calculate D2E/DX2 analytically  !
 ! A18   A(5,4,11)             117.7532         calculate D2E/DX2 analytically  !
 ! A19   A(4,5,6)              121.1423         calculate D2E/DX2 analytically  !
 ! A20   A(4,5,25)             107.0635         calculate D2E/DX2 analytically  !
 ! A21   A(4,5,26)             108.7035         calculate D2E/DX2 analytically  !
 ! A22   A(6,5,25)             107.0614         calculate D2E/DX2 analytically  !
 ! A23   A(6,5,26)             107.7902         calculate D2E/DX2 analytically  !
 ! A24   A(25,5,26)            103.7441         calculate D2E/DX2 analytically  !
 ! A25   A(5,6,7)              118.9239         calculate D2E/DX2 analytically  !
 ! A26   A(5,6,27)             105.3612         calculate D2E/DX2 analytically  !
 ! A27   A(5,6,28)             108.8603         calculate D2E/DX2 analytically  !
 ! A28   A(7,6,27)             111.0993         calculate D2E/DX2 analytically  !
 ! A29   A(7,6,28)             109.1199         calculate D2E/DX2 analytically  !
 ! A30   A(27,6,28)            102.1359         calculate D2E/DX2 analytically  !
 ! A31   A(6,7,8)              120.3846         calculate D2E/DX2 analytically  !
 ! A32   A(6,7,15)             113.4624         calculate D2E/DX2 analytically  !
 ! A33   A(8,7,15)             125.6441         calculate D2E/DX2 analytically  !
 ! A34   A(1,8,7)              108.5763         calculate D2E/DX2 analytically  !
 ! A35   A(1,8,9)              108.0811         calculate D2E/DX2 analytically  !
 ! A36   A(7,8,9)              112.9524         calculate D2E/DX2 analytically  !
 ! A37   A(8,9,10)             123.4659         calculate D2E/DX2 analytically  !
 ! A38   A(8,9,12)             123.014          calculate D2E/DX2 analytically  !
 ! A39   A(10,9,12)            108.4992         calculate D2E/DX2 analytically  !
 ! A40   A(9,10,11)            120.3867         calculate D2E/DX2 analytically  !
 ! A41   A(9,10,29)            107.1889         calculate D2E/DX2 analytically  !
 ! A42   A(9,10,30)            110.0533         calculate D2E/DX2 analytically  !
 ! A43   A(11,10,29)           104.0609         calculate D2E/DX2 analytically  !
 ! A44   A(11,10,30)           109.1154         calculate D2E/DX2 analytically  !
 ! A45   A(29,10,30)           104.7611         calculate D2E/DX2 analytically  !
 ! A46   A(4,11,10)            118.7198         calculate D2E/DX2 analytically  !
 ! A47   A(4,11,31)            112.7243         calculate D2E/DX2 analytically  !
 ! A48   A(4,11,32)            105.5188         calculate D2E/DX2 analytically  !
 ! A49   A(10,11,31)           109.4066         calculate D2E/DX2 analytically  !
 ! A50   A(10,11,32)           105.7606         calculate D2E/DX2 analytically  !
 ! A51   A(31,11,32)           103.2065         calculate D2E/DX2 analytically  !
 ! A52   A(9,12,13)            116.0964         calculate D2E/DX2 analytically  !
 ! A53   A(9,12,14)            113.3142         calculate D2E/DX2 analytically  !
 ! A54   A(9,12,33)            107.8777         calculate D2E/DX2 analytically  !
 ! A55   A(13,12,14)           111.5143         calculate D2E/DX2 analytically  !
 ! A56   A(13,12,33)           103.9731         calculate D2E/DX2 analytically  !
 ! A57   A(14,12,33)           102.6148         calculate D2E/DX2 analytically  !
 ! A58   A(12,13,34)           112.4938         calculate D2E/DX2 analytically  !
 ! A59   A(12,13,35)           111.2647         calculate D2E/DX2 analytically  !
 ! A60   A(12,13,36)           109.8193         calculate D2E/DX2 analytically  !
 ! A61   A(34,13,35)           108.883          calculate D2E/DX2 analytically  !
 ! A62   A(34,13,36)           107.8639         calculate D2E/DX2 analytically  !
 ! A63   A(35,13,36)           106.2698         calculate D2E/DX2 analytically  !
 ! A64   A(12,14,37)           112.2324         calculate D2E/DX2 analytically  !
 ! A65   A(12,14,38)           109.5204         calculate D2E/DX2 analytically  !
 ! A66   A(12,14,39)           111.4342         calculate D2E/DX2 analytically  !
 ! A67   A(37,14,38)           107.1595         calculate D2E/DX2 analytically  !
 ! A68   A(37,14,39)           109.1954         calculate D2E/DX2 analytically  !
 ! A69   A(38,14,39)           107.0789         calculate D2E/DX2 analytically  !
 ! A70   A(7,15,16)            118.1613         calculate D2E/DX2 analytically  !
 ! A71   A(7,15,17)            112.2285         calculate D2E/DX2 analytically  !
 ! A72   A(7,15,40)            107.3023         calculate D2E/DX2 analytically  !
 ! A73   A(16,15,17)           106.3563         calculate D2E/DX2 analytically  !
 ! A74   A(16,15,40)           105.1271         calculate D2E/DX2 analytically  !
 ! A75   A(17,15,40)           106.9479         calculate D2E/DX2 analytically  !
 ! A76   A(15,16,41)           112.089          calculate D2E/DX2 analytically  !
 ! A77   A(15,16,42)           111.7103         calculate D2E/DX2 analytically  !
 ! A78   A(15,16,43)           110.5042         calculate D2E/DX2 analytically  !
 ! A79   A(41,16,42)           109.3303         calculate D2E/DX2 analytically  !
 ! A80   A(41,16,43)           107.0396         calculate D2E/DX2 analytically  !
 ! A81   A(42,16,43)           105.8773         calculate D2E/DX2 analytically  !
 ! A82   A(15,17,44)           111.4018         calculate D2E/DX2 analytically  !
 ! A83   A(15,17,45)           110.2243         calculate D2E/DX2 analytically  !
 ! A84   A(15,17,46)           113.0596         calculate D2E/DX2 analytically  !
 ! A85   A(44,17,45)           107.7664         calculate D2E/DX2 analytically  !
 ! A86   A(44,17,46)           108.1852         calculate D2E/DX2 analytically  !
 ! A87   A(45,17,46)           105.9243         calculate D2E/DX2 analytically  !
 ! A88   A(1,18,19)            113.8372         calculate D2E/DX2 analytically  !
 ! A89   A(1,18,20)            111.6689         calculate D2E/DX2 analytically  !
 ! A90   A(1,18,47)            109.7246         calculate D2E/DX2 analytically  !
 ! A91   A(19,18,20)           109.3305         calculate D2E/DX2 analytically  !
 ! A92   A(19,18,47)           105.3623         calculate D2E/DX2 analytically  !
 ! A93   A(20,18,47)           106.4783         calculate D2E/DX2 analytically  !
 ! A94   A(18,19,48)           112.69           calculate D2E/DX2 analytically  !
 ! A95   A(18,19,49)           111.0898         calculate D2E/DX2 analytically  !
 ! A96   A(18,19,50)           110.5739         calculate D2E/DX2 analytically  !
 ! A97   A(48,19,49)           108.3477         calculate D2E/DX2 analytically  !
 ! A98   A(48,19,50)           106.4606         calculate D2E/DX2 analytically  !
 ! A99   A(49,19,50)           107.4317         calculate D2E/DX2 analytically  !
 ! A100  A(18,20,51)           112.3634         calculate D2E/DX2 analytically  !
 ! A101  A(18,20,52)           110.2947         calculate D2E/DX2 analytically  !
 ! A102  A(18,20,53)           111.1229         calculate D2E/DX2 analytically  !
 ! A103  A(51,20,52)           106.9618         calculate D2E/DX2 analytically  !
 ! A104  A(51,20,53)           108.3961         calculate D2E/DX2 analytically  !
 ! A105  A(52,20,53)           107.4925         calculate D2E/DX2 analytically  !
 ! D1    D(8,1,2,3)              6.5288         calculate D2E/DX2 analytically  !
 ! D2    D(8,1,2,21)          -115.5544         calculate D2E/DX2 analytically  !
 ! D3    D(8,1,2,22)           130.3676         calculate D2E/DX2 analytically  !
 ! D4    D(18,1,2,3)          -172.4484         calculate D2E/DX2 analytically  !
 ! D5    D(18,1,2,21)           65.4684         calculate D2E/DX2 analytically  !
 ! D6    D(18,1,2,22)          -48.6096         calculate D2E/DX2 analytically  !
 ! D7    D(2,1,8,7)             35.5067         calculate D2E/DX2 analytically  !
 ! D8    D(2,1,8,9)            -87.3469         calculate D2E/DX2 analytically  !
 ! D9    D(18,1,8,7)          -145.5636         calculate D2E/DX2 analytically  !
 ! D10   D(18,1,8,9)            91.5828         calculate D2E/DX2 analytically  !
 ! D11   D(2,1,18,19)           59.2942         calculate D2E/DX2 analytically  !
 ! D12   D(2,1,18,20)         -176.3069         calculate D2E/DX2 analytically  !
 ! D13   D(2,1,18,47)          -58.4866         calculate D2E/DX2 analytically  !
 ! D14   D(8,1,18,19)         -119.7701         calculate D2E/DX2 analytically  !
 ! D15   D(8,1,18,20)            4.6288         calculate D2E/DX2 analytically  !
 ! D16   D(8,1,18,47)          122.4491         calculate D2E/DX2 analytically  !
 ! D17   D(1,2,3,4)             43.0242         calculate D2E/DX2 analytically  !
 ! D18   D(1,2,3,23)           -87.3954         calculate D2E/DX2 analytically  !
 ! D19   D(1,2,3,24)           162.2751         calculate D2E/DX2 analytically  !
 ! D20   D(21,2,3,4)           166.9873         calculate D2E/DX2 analytically  !
 ! D21   D(21,2,3,23)           36.5676         calculate D2E/DX2 analytically  !
 ! D22   D(21,2,3,24)          -73.7618         calculate D2E/DX2 analytically  !
 ! D23   D(22,2,3,4)           -82.2565         calculate D2E/DX2 analytically  !
 ! D24   D(22,2,3,23)          147.3239         calculate D2E/DX2 analytically  !
 ! D25   D(22,2,3,24)           36.9944         calculate D2E/DX2 analytically  !
 ! D26   D(2,3,4,5)           -114.6653         calculate D2E/DX2 analytically  !
 ! D27   D(2,3,4,11)            26.7144         calculate D2E/DX2 analytically  !
 ! D28   D(23,3,4,5)            14.756          calculate D2E/DX2 analytically  !
 ! D29   D(23,3,4,11)          156.1357         calculate D2E/DX2 analytically  !
 ! D30   D(24,3,4,5)           125.8894         calculate D2E/DX2 analytically  !
 ! D31   D(24,3,4,11)          -92.7309         calculate D2E/DX2 analytically  !
 ! D32   D(3,4,5,6)             68.5652         calculate D2E/DX2 analytically  !
 ! D33   D(3,4,5,25)           -54.3947         calculate D2E/DX2 analytically  !
 ! D34   D(3,4,5,26)          -165.8822         calculate D2E/DX2 analytically  !
 ! D35   D(11,4,5,6)           -72.1277         calculate D2E/DX2 analytically  !
 ! D36   D(11,4,5,25)          164.9123         calculate D2E/DX2 analytically  !
 ! D37   D(11,4,5,26)           53.4248         calculate D2E/DX2 analytically  !
 ! D38   D(3,4,11,10)         -112.0917         calculate D2E/DX2 analytically  !
 ! D39   D(3,4,11,31)           17.7182         calculate D2E/DX2 analytically  !
 ! D40   D(3,4,11,32)          129.6408         calculate D2E/DX2 analytically  !
 ! D41   D(5,4,11,10)           27.6876         calculate D2E/DX2 analytically  !
 ! D42   D(5,4,11,31)          157.4975         calculate D2E/DX2 analytically  !
 ! D43   D(5,4,11,32)          -90.5799         calculate D2E/DX2 analytically  !
 ! D44   D(4,5,6,7)            -26.5093         calculate D2E/DX2 analytically  !
 ! D45   D(4,5,6,27)          -151.8424         calculate D2E/DX2 analytically  !
 ! D46   D(4,5,6,28)            99.2384         calculate D2E/DX2 analytically  !
 ! D47   D(25,5,6,7)            96.4516         calculate D2E/DX2 analytically  !
 ! D48   D(25,5,6,27)          -28.8815         calculate D2E/DX2 analytically  !
 ! D49   D(25,5,6,28)         -137.8007         calculate D2E/DX2 analytically  !
 ! D50   D(26,5,6,7)          -152.48           calculate D2E/DX2 analytically  !
 ! D51   D(26,5,6,27)           82.187          calculate D2E/DX2 analytically  !
 ! D52   D(26,5,6,28)          -26.7322         calculate D2E/DX2 analytically  !
 ! D53   D(5,6,7,8)             72.2746         calculate D2E/DX2 analytically  !
 ! D54   D(5,6,7,15)           -99.993          calculate D2E/DX2 analytically  !
 ! D55   D(27,6,7,8)          -165.2037         calculate D2E/DX2 analytically  !
 ! D56   D(27,6,7,15)           22.5286         calculate D2E/DX2 analytically  !
 ! D57   D(28,6,7,8)           -53.3487         calculate D2E/DX2 analytically  !
 ! D58   D(28,6,7,15)          134.3837         calculate D2E/DX2 analytically  !
 ! D59   D(6,7,8,1)           -107.7318         calculate D2E/DX2 analytically  !
 ! D60   D(6,7,8,9)             12.1292         calculate D2E/DX2 analytically  !
 ! D61   D(15,7,8,1)            63.5326         calculate D2E/DX2 analytically  !
 ! D62   D(15,7,8,9)          -176.6064         calculate D2E/DX2 analytically  !
 ! D63   D(6,7,15,16)         -179.2939         calculate D2E/DX2 analytically  !
 ! D64   D(6,7,15,17)          -54.9722         calculate D2E/DX2 analytically  !
 ! D65   D(6,7,15,40)           62.2303         calculate D2E/DX2 analytically  !
 ! D66   D(8,7,15,16)            8.9174         calculate D2E/DX2 analytically  !
 ! D67   D(8,7,15,17)          133.2391         calculate D2E/DX2 analytically  !
 ! D68   D(8,7,15,40)         -109.5585         calculate D2E/DX2 analytically  !
 ! D69   D(1,8,9,10)            66.4619         calculate D2E/DX2 analytically  !
 ! D70   D(1,8,9,12)          -141.5205         calculate D2E/DX2 analytically  !
 ! D71   D(7,8,9,10)           -53.6833         calculate D2E/DX2 analytically  !
 ! D72   D(7,8,9,12)            98.3344         calculate D2E/DX2 analytically  !
 ! D73   D(8,9,10,11)          -31.3803         calculate D2E/DX2 analytically  !
 ! D74   D(8,9,10,29)         -149.818          calculate D2E/DX2 analytically  !
 ! D75   D(8,9,10,30)           96.8018         calculate D2E/DX2 analytically  !
 ! D76   D(12,9,10,11)         173.1314         calculate D2E/DX2 analytically  !
 ! D77   D(12,9,10,29)          54.6937         calculate D2E/DX2 analytically  !
 ! D78   D(12,9,10,30)         -58.6865         calculate D2E/DX2 analytically  !
 ! D79   D(8,9,12,13)          -60.706          calculate D2E/DX2 analytically  !
 ! D80   D(8,9,12,14)           70.2717         calculate D2E/DX2 analytically  !
 ! D81   D(8,9,12,33)         -176.8427         calculate D2E/DX2 analytically  !
 ! D82   D(10,9,12,13)          94.9169         calculate D2E/DX2 analytically  !
 ! D83   D(10,9,12,14)        -134.1054         calculate D2E/DX2 analytically  !
 ! D84   D(10,9,12,33)         -21.2198         calculate D2E/DX2 analytically  !
 ! D85   D(9,10,11,4)           70.9889         calculate D2E/DX2 analytically  !
 ! D86   D(9,10,11,31)         -60.3146         calculate D2E/DX2 analytically  !
 ! D87   D(9,10,11,32)        -170.8699         calculate D2E/DX2 analytically  !
 ! D88   D(29,10,11,4)        -169.0092         calculate D2E/DX2 analytically  !
 ! D89   D(29,10,11,31)         59.6874         calculate D2E/DX2 analytically  !
 ! D90   D(29,10,11,32)        -50.8679         calculate D2E/DX2 analytically  !
 ! D91   D(30,10,11,4)         -57.6144         calculate D2E/DX2 analytically  !
 ! D92   D(30,10,11,31)        171.0821         calculate D2E/DX2 analytically  !
 ! D93   D(30,10,11,32)         60.5268         calculate D2E/DX2 analytically  !
 ! D94   D(9,12,13,34)          70.3404         calculate D2E/DX2 analytically  !
 ! D95   D(9,12,13,35)         -52.1412         calculate D2E/DX2 analytically  !
 ! D96   D(9,12,13,36)        -169.5166         calculate D2E/DX2 analytically  !
 ! D97   D(14,12,13,34)        -61.4794         calculate D2E/DX2 analytically  !
 ! D98   D(14,12,13,35)        176.0389         calculate D2E/DX2 analytically  !
 ! D99   D(14,12,13,36)         58.6636         calculate D2E/DX2 analytically  !
 ! D100  D(33,12,13,34)       -171.3562         calculate D2E/DX2 analytically  !
 ! D101  D(33,12,13,35)         66.1621         calculate D2E/DX2 analytically  !
 ! D102  D(33,12,13,36)        -51.2132         calculate D2E/DX2 analytically  !
 ! D103  D(9,12,14,37)         -70.8697         calculate D2E/DX2 analytically  !
 ! D104  D(9,12,14,38)         170.2438         calculate D2E/DX2 analytically  !
 ! D105  D(9,12,14,39)          51.9542         calculate D2E/DX2 analytically  !
 ! D106  D(13,12,14,37)         62.3464         calculate D2E/DX2 analytically  !
 ! D107  D(13,12,14,38)        -56.5401         calculate D2E/DX2 analytically  !
 ! D108  D(13,12,14,39)       -174.8297         calculate D2E/DX2 analytically  !
 ! D109  D(33,12,14,37)        173.0903         calculate D2E/DX2 analytically  !
 ! D110  D(33,12,14,38)         54.2038         calculate D2E/DX2 analytically  !
 ! D111  D(33,12,14,39)        -64.0858         calculate D2E/DX2 analytically  !
 ! D112  D(7,15,16,41)          59.7676         calculate D2E/DX2 analytically  !
 ! D113  D(7,15,16,42)         -63.3319         calculate D2E/DX2 analytically  !
 ! D114  D(7,15,16,43)         179.069          calculate D2E/DX2 analytically  !
 ! D115  D(17,15,16,41)        -67.4113         calculate D2E/DX2 analytically  !
 ! D116  D(17,15,16,42)        169.4892         calculate D2E/DX2 analytically  !
 ! D117  D(17,15,16,43)         51.8901         calculate D2E/DX2 analytically  !
 ! D118  D(40,15,16,41)        179.3827         calculate D2E/DX2 analytically  !
 ! D119  D(40,15,16,42)         56.2831         calculate D2E/DX2 analytically  !
 ! D120  D(40,15,16,43)        -61.316          calculate D2E/DX2 analytically  !
 ! D121  D(7,15,17,44)         -65.2495         calculate D2E/DX2 analytically  !
 ! D122  D(7,15,17,45)         175.1689         calculate D2E/DX2 analytically  !
 ! D123  D(7,15,17,46)          56.8343         calculate D2E/DX2 analytically  !
 ! D124  D(16,15,17,44)         65.3894         calculate D2E/DX2 analytically  !
 ! D125  D(16,15,17,45)        -54.1922         calculate D2E/DX2 analytically  !
 ! D126  D(16,15,17,46)       -172.5268         calculate D2E/DX2 analytically  !
 ! D127  D(40,15,17,44)        177.3365         calculate D2E/DX2 analytically  !
 ! D128  D(40,15,17,45)         57.7549         calculate D2E/DX2 analytically  !
 ! D129  D(40,15,17,46)        -60.5797         calculate D2E/DX2 analytically  !
 ! D130  D(1,18,19,48)          61.4943         calculate D2E/DX2 analytically  !
 ! D131  D(1,18,19,49)         -60.304          calculate D2E/DX2 analytically  !
 ! D132  D(1,18,19,50)        -179.4941         calculate D2E/DX2 analytically  !
 ! D133  D(20,18,19,48)        -64.1522         calculate D2E/DX2 analytically  !
 ! D134  D(20,18,19,49)        174.0494         calculate D2E/DX2 analytically  !
 ! D135  D(20,18,19,50)         54.8593         calculate D2E/DX2 analytically  !
 ! D136  D(47,18,19,48)       -178.2386         calculate D2E/DX2 analytically  !
 ! D137  D(47,18,19,49)         59.9631         calculate D2E/DX2 analytically  !
 ! D138  D(47,18,19,50)        -59.227          calculate D2E/DX2 analytically  !
 ! D139  D(1,18,20,51)         -68.3133         calculate D2E/DX2 analytically  !
 ! D140  D(1,18,20,52)         172.4456         calculate D2E/DX2 analytically  !
 ! D141  D(1,18,20,53)          53.3397         calculate D2E/DX2 analytically  !
 ! D142  D(19,18,20,51)         58.5728         calculate D2E/DX2 analytically  !
 ! D143  D(19,18,20,52)        -60.6683         calculate D2E/DX2 analytically  !
 ! D144  D(19,18,20,53)       -179.7741         calculate D2E/DX2 analytically  !
 ! D145  D(47,18,20,51)        171.9348         calculate D2E/DX2 analytically  !
 ! D146  D(47,18,20,52)         52.6937         calculate D2E/DX2 analytically  !
 ! D147  D(47,18,20,53)        -66.4122         calculate D2E/DX2 analytically  !
 --------------------------------------------------------------------------------
 Trust Radius=3.00D-01 FncErr=1.00D-07 GrdErr=1.00D-06 EigMax=2.50D+02 EigMin=1.00D-04
 Number of steps in this run=    316 maximum allowed number of steps=    318.
 GradGradGradGradGradGradGradGradGradGradGradGradGradGradGradGradGradGrad

 Stoichiometry    C15H33N4P
 Framework group  C1[X(C15H33N4P)]
 Deg. of freedom   153
 Full point group                 C1      NOp   1
 Largest Abelian subgroup         C1      NOp   1
 Largest concise Abelian subgroup C1      NOp   1
                         Standard orientation:                         
 ---------------------------------------------------------------------
 Center     Atomic      Atomic             Coordinates (Angstroms)
 Number     Number       Type             X           Y           Z
 ---------------------------------------------------------------------
      1          7           0       -0.557292   -1.479934   -0.066819
      2          6           0        0.144898   -2.213424    0.989594
      3          6           0        1.236487   -1.587998    1.889209
      4          7           0        1.083418   -0.254590    2.454001
      5          6           0        2.054372    0.712250    1.948874
      6          6           0        2.010981    1.198670    0.475045
      7          7           0        1.427854    0.321227   -0.544280
      8         15           0       -0.229727    0.074080   -0.603108
      9          7           0       -1.090838    1.154601    0.365216
     10          6           0       -0.815317    1.358967    1.794356
     11          6           0       -0.285808    0.201714    2.657770
     12          6           0       -1.743109    2.380695   -0.170026
     13          6           0       -0.813798    3.405165   -0.830782
     14          6           0       -2.965245    2.084611   -1.044718
     15          6           0        2.439535   -0.417165   -1.335787
     16          6           0        1.944515   -1.360436   -2.451094
     17          6           0        3.470620    0.525765   -1.990089
     18          6           0       -1.677962   -2.230161   -0.674742
     19          6           0       -2.771690   -2.639000    0.330698
     20          6           0       -2.317554   -1.453305   -1.832937
     21          1           0        0.635806   -3.083595    0.537838
     22          1           0       -0.596800   -2.622316    1.679971
     23          1           0        2.206721   -1.692451    1.387171
     24          1           0        1.324772   -2.258933    2.755629
     25          1           0        3.052994    0.285091    2.118262
     26          1           0        2.036984    1.599865    2.595926
     27          1           0        3.044665    1.460399    0.225374
     28          1           0        1.512180    2.171416    0.438287
     29          1           0       -1.767026    1.635742    2.272730
     30          1           0       -0.168400    2.234776    1.931384
     31          1           0       -1.011600   -0.619998    2.650387
     32          1           0       -0.324459    0.561400    3.695044
     33          1           0       -2.181120    2.927364    0.677438
     34          1           0       -0.414838    3.053052   -1.786402
     35          1           0        0.020514    3.665874   -0.173386
     36          1           0       -1.361391    4.338384   -1.017724
     37          1           0       -2.688839    1.641198   -2.005479
     38          1           0       -3.500385    3.026349   -1.262272
     39          1           0       -3.669296    1.426636   -0.535715
     40          1           0        2.992228   -1.062111   -0.639230
     41          1           0        1.362291   -0.829200   -3.211473
     42          1           0        1.349708   -2.182759   -2.049869
     43          1           0        2.794272   -1.827363   -2.964859
     44          1           0        3.001822    1.173305   -2.737097
     45          1           0        4.251469   -0.057615   -2.495186
     46          1           0        3.989969    1.159289   -1.267544
     47          1           0       -1.305601   -3.173810   -1.099994
     48          1           0       -3.250588   -1.777059    0.807810
     49          1           0       -2.364410   -3.284307    1.114641
     50          1           0       -3.569037   -3.197803   -0.173403
     51          1           0       -2.846337   -0.557545   -1.491848
     52          1           0       -3.051857   -2.080059   -2.351306
     53          1           0       -1.566048   -1.151625   -2.567540
 ---------------------------------------------------------------------
 Rotational constants (GHZ):           0.3456530           0.3067792           0.2822242
 Standard basis: 6-31G(d) (6D, 7F)
 There are   370 symmetry adapted cartesian basis functions of A   symmetry.
 There are   370 symmetry adapted basis functions of A   symmetry.
   370 basis functions,   716 primitive gaussians,   370 cartesian basis functions
    83 alpha electrons       83 beta electrons
       nuclear repulsion energy      2096.1563327681 Hartrees.
 NAtoms=   53 NActive=   53 NUniq=   53 SFac= 1.00D+00 NAtFMM=   60 NAOKFM=F Big=F
 Integral buffers will be    131072 words long.
 Raffenetti 2 integral format.
 Two-electron integral symmetry is turned on.
 One-electron integrals computed using PRISM.
 NBasis=   370 RedAO= T EigKep=  2.90D-03  NBF=   370
 NBsUse=   370 1.00D-06 EigRej= -1.00D+00 NBFU=   370
 ExpMin= 9.98D-02 ExpMax= 1.94D+04 ExpMxC= 2.91D+03 IAcc=3 IRadAn=         5 AccDes= 0.00D+00
 Harris functional with IExCor=  402 and IRadAn=       5 diagonalized for initial guess.
 HarFok:  IExCor=  402 AccDes= 0.00D+00 IRadAn=         5 IDoV= 1 UseB2=F ITyADJ=14
 ICtDFT=  3500011 ScaDFX=  1.000000  1.000000  1.000000  1.000000
 FoFCou: FMM=F IPFlag=           0 FMFlag=      100000 FMFlg1=           0
         NFxFlg=           0 DoJE=T BraDBF=F KetDBF=T FulRan=T
         wScrn=  0.000000 ICntrl=       500 IOpCl=  0 I1Cent=   200000004 NGrid=           0
         NMat0=    1 NMatS0=      1 NMatT0=    0 NMatD0=    1 NMtDS0=    0 NMtDT0=    0
 Petite list used in FoFCou.
 Gradient too large for Newton-Raphson -- use scaled steepest descent instead.
     Accept linear search using points  2 and  3.
 Gradient too large for Newton-Raphson -- use scaled steepest descent instead.
     Minimum is close to point  3 DX=  2.90D-02 DF= -5.45D-05 DXR=  3.97D-02 DFR=  1.59D-03 which will be used.
 Gradient too large for Newton-Raphson -- use scaled steepest descent instead.
     Minimum is close to point  2 DX=  4.17D-02 DF= -1.47D-05 DXR=  7.70D-02 DFR=  5.96D-03 which will be used.
 Gradient too large for Newton-Raphson -- use scaled steepest descent instead.
     Minimum is close to point  2 DX=  5.48D-02 DF= -2.96D-06 DXR=  8.37D-02 DFR=  7.05D-03 which will be used.
 Gradient too large for Newton-Raphson -- use scaled steepest descent instead.
     Accept linear search using points  1 and  2.
 LinEq1:  Iter=  0 NonCon=     1 RMS=2.59D-05 Max=1.11D-03 NDo=     1
 AX will form     1 AO Fock derivatives at one time.
 LinEq1:  Iter=  1 NonCon=     1 RMS=1.37D-05 Max=3.43D-04 NDo=     1
 LinEq1:  Iter=  2 NonCon=     1 RMS=5.15D-06 Max=2.79D-04 NDo=     1
 LinEq1:  Iter=  3 NonCon=     1 RMS=2.74D-06 Max=8.94D-05 NDo=     1
 LinEq1:  Iter=  4 NonCon=     1 RMS=1.18D-06 Max=5.37D-05 NDo=     1
 LinEq1:  Iter=  5 NonCon=     1 RMS=6.78D-07 Max=2.56D-05 NDo=     1
 LinEq1:  Iter=  6 NonCon=     1 RMS=2.60D-07 Max=3.68D-06 NDo=     1
 LinEq1:  Iter=  7 NonCon=     1 RMS=1.32D-07 Max=4.12D-06 NDo=     1
 LinEq1:  Iter=  8 NonCon=     1 RMS=8.49D-08 Max=1.78D-06 NDo=     1
 LinEq1:  Iter=  9 NonCon=     1 RMS=3.05D-08 Max=8.09D-07 NDo=     1
 LinEq1:  Iter= 10 NonCon=     1 RMS=1.48D-08 Max=2.25D-07 NDo=     1
 LinEq1:  Iter= 11 NonCon=     0 RMS=5.45D-09 Max=1.13D-07 NDo=     1
 Linear equations converged to 2.183D-08 2.183D-07 after    11 iterations.
     Accept linear search using points  1 and  2.
     Minimum is close to point  2 DX= -1.00D-04 DF= -2.27D-13 DXR=  1.00D-04 DFR=  7.83D-09 which will be used.
 LinEq1:  Iter=  0 NonCon=     1 RMS=2.03D-08 Max=7.61D-07 NDo=     1
 LinEq1:  Iter=  1 NonCon=     1 RMS=1.27D-08 Max=5.61D-07 NDo=     1
 LinEq1:  Iter=  2 NonCon=     1 RMS=6.00D-09 Max=1.48D-07 NDo=     1
 LinEq1:  Iter=  3 NonCon=     1 RMS=3.17D-09 Max=7.34D-08 NDo=     1
 LinEq1:  Iter=  4 NonCon=     1 RMS=1.63D-09 Max=5.30D-08 NDo=     1
 LinEq1:  Iter=  5 NonCon=     1 RMS=1.06D-09 Max=4.90D-08 NDo=     1
 LinEq1:  Iter=  6 NonCon=     1 RMS=4.58D-10 Max=1.45D-08 NDo=     1
 LinEq1:  Iter=  7 NonCon=     1 RMS=1.77D-10 Max=4.21D-09 NDo=     1
 LinEq1:  Iter=  8 NonCon=     1 RMS=9.95D-11 Max=2.44D-09 NDo=     1
 LinEq1:  Iter=  9 NonCon=     1 RMS=5.13D-11 Max=1.23D-09 NDo=     1
 LinEq1:  Iter= 10 NonCon=     1 RMS=3.30D-11 Max=9.72D-10 NDo=     1
 LinEq1:  Iter= 11 NonCon=     1 RMS=1.37D-11 Max=3.68D-10 NDo=     1
 LinEq1:  Iter= 12 NonCon=     0 RMS=6.74D-12 Max=1.67D-10 NDo=     1
 Linear equations converged to 2.635D-11 2.635D-10 after    12 iterations.
 QCLLim is confused:  Bigger=T Turned=T
 NLin=  3 IMin12=  1  2 I12=  0  2 IX=  1 XLMin= 0.000D+00 XLMax= 0.000D+00
 X = 0.000D+00 1.000D+00 2.000D+00
 DE= 0.000D+00 3.183D-12 2.183D-11
 SCF Done:  E(RB3LYP) =  -1151.74012144     a.u. after    8 cycles
            Convg  =    0.1860D-05                    40 Fock formations.
              S**2 =  0.0000                  -V/T =  2.0078
 DoSCS=F DFT=T ScalE2(SS,OS)=  1.000000  1.000000
 Range of M.O.s used for correlation:     1   370
 NBasis=   370 NAE=    83 NBE=    83 NFC=     0 NFV=     0
 NROrb=    370 NOA=    83 NOB=    83 NVA=   287 NVB=   287
 Symmetrizing basis deriv contribution to polar:
 IMax=3 JMax=2 DiffMx= 0.00D+00
 G2DrvN: will do    54 centers at a time, making    1 passes.
 Calling FoFCou, ICntrl=  3107 FMM=F I1Cent=   0 AccDes= 0.00D+00.
 End of G2Drv F.D. properties file   721 does not exist.
 End of G2Drv F.D. properties file   722 does not exist.
 End of G2Drv F.D. properties file   788 does not exist.
          IDoAtm=11111111111111111111111111111111111111111111111111
          IDoAtm=111
          Differentiating once with respect to electric field.
                with respect to dipole field.
          Differentiating once with respect to nuclear coordinates.
 CalDSu exits because no D1Ps are significant.
          There are   162 degrees of freedom in the 1st order CPHF.  IDoFFX=6 NUNeed=     3.
    159 vectors produced by pass  0 Test12= 2.38D-14 1.00D-09 XBig12= 1.46D+02 2.43D+00.
 AX will form   159 AO Fock derivatives at one time.
    159 vectors produced by pass  1 Test12= 2.38D-14 1.00D-09 XBig12= 1.03D+01 3.37D-01.
    159 vectors produced by pass  2 Test12= 2.38D-14 1.00D-09 XBig12= 1.15D-01 2.36D-02.
    159 vectors produced by pass  3 Test12= 2.38D-14 1.00D-09 XBig12= 2.94D-04 1.19D-03.
    159 vectors produced by pass  4 Test12= 2.38D-14 1.00D-09 XBig12= 2.74D-07 3.32D-05.
     70 vectors produced by pass  5 Test12= 2.38D-14 1.00D-09 XBig12= 1.81D-10 8.61D-07.
      3 vectors produced by pass  6 Test12= 2.38D-14 1.00D-09 XBig12= 1.16D-13 2.57D-08.
 InvSVY:  IOpt=1 It=  1 EMax= 1.07D-14
 Solved reduced A of dimension   868 with   162 vectors.
 Isotropic polarizability for W=    0.000000      201.74 Bohr**3.
 End of Minotr F.D. properties file   721 does not exist.
 End of Minotr F.D. properties file   722 does not exist.
 End of Minotr F.D. properties file   788 does not exist.

 **********************************************************************

            Population analysis using the SCF density.

 **********************************************************************

 Orbital symmetries:
       Occupied  (A) (A) (A) (A) (A) (A) (A) (A) (A) (A) (A) (A)
                 (A) (A) (A) (A) (A) (A) (A) (A) (A) (A) (A) (A)
                 (A) (A) (A) (A) (A) (A) (A) (A) (A) (A) (A) (A)
                 (A) (A) (A) (A) (A) (A) (A) (A) (A) (A) (A) (A)
                 (A) (A) (A) (A) (A) (A) (A) (A) (A) (A) (A) (A)
                 (A) (A) (A) (A) (A) (A) (A) (A) (A) (A) (A) (A)
                 (A) (A) (A) (A) (A) (A) (A) (A) (A) (A) (A)
       Virtual   (A) (A) (A) (A) (A) (A) (A) (A) (A) (A) (A) (A)
                 (A) (A) (A) (A) (A) (A) (A) (A) (A) (A) (A) (A)
                 (A) (A) (A) (A) (A) (A) (A) (A) (A) (A) (A) (A)
                 (A) (A) (A) (A) (A) (A) (A) (A) (A) (A) (A) (A)
                 (A) (A) (A) (A) (A) (A) (A) (A) (A) (A) (A) (A)
                 (A) (A) (A) (A) (A) (A) (A) (A) (A) (A) (A) (A)
                 (A) (A) (A) (A) (A) (A) (A) (A) (A) (A) (A) (A)
                 (A) (A) (A) (A) (A) (A) (A) (A) (A) (A) (A) (A)
                 (A) (A) (A) (A) (A) (A) (A) (A) (A) (A) (A) (A)
                 (A) (A) (A) (A) (A) (A) (A) (A) (A) (A) (A) (A)
                 (A) (A) (A) (A) (A) (A) (A) (A) (A) (A) (A) (A)
                 (A) (A) (A) (A) (A) (A) (A) (A) (A) (A) (A) (A)
                 (A) (A) (A) (A) (A) (A) (A) (A) (A) (A) (A) (A)
                 (A) (A) (A) (A) (A) (A) (A) (A) (A) (A) (A) (A)
                 (A) (A) (A) (A) (A) (A) (A) (A) (A) (A) (A) (A)
                 (A) (A) (A) (A) (A) (A) (A) (A) (A) (A) (A) (A)
                 (A) (A) (A) (A) (A) (A) (A) (A) (A) (A) (A) (A)
                 (A) (A) (A) (A) (A) (A) (A) (A) (A) (A) (A) (A)
                 (A) (A) (A) (A) (A) (A) (A) (A) (A) (A) (A) (A)
                 (A) (A) (A) (A) (A) (A) (A) (A) (A) (A) (A) (A)
                 (A) (A) (A) (A) (A) (A) (A) (A) (A) (A) (A) (A)
                 (A) (A) (A) (A) (A) (A) (A) (A) (A) (A) (A) (A)
                 (A) (A) (A) (A) (A) (A) (A) (A) (A) (A) (A) (A)
                 (A) (A) (A) (A) (A) (A) (A) (A) (A) (A) (A)
 The electronic state is 1-A.
 Alpha  occ. eigenvalues --  -77.09073 -14.31648 -14.31539 -14.31373 -14.30938
 Alpha  occ. eigenvalues --  -10.22027 -10.21463 -10.21146 -10.20493 -10.20385
 Alpha  occ. eigenvalues --  -10.20334 -10.20178 -10.20119 -10.19963 -10.17003
 Alpha  occ. eigenvalues --  -10.16954 -10.16763 -10.16471 -10.16424 -10.15488
 Alpha  occ. eigenvalues --   -6.55158  -4.71495  -4.71483  -4.70829  -0.93156
 Alpha  occ. eigenvalues --   -0.89924  -0.88814  -0.88555  -0.77126  -0.76918
 Alpha  occ. eigenvalues --   -0.76469  -0.72293  -0.72096  -0.70818  -0.67857
 Alpha  occ. eigenvalues --   -0.67673  -0.67035  -0.62694  -0.61250  -0.60822
 Alpha  occ. eigenvalues --   -0.57542  -0.56633  -0.55864  -0.50615  -0.48948
 Alpha  occ. eigenvalues --   -0.48562  -0.47208  -0.46819  -0.45981  -0.45271
 Alpha  occ. eigenvalues --   -0.44643  -0.44156  -0.43575  -0.42976  -0.42109
 Alpha  occ. eigenvalues --   -0.41812  -0.40783  -0.39880  -0.39474  -0.38889
 Alpha  occ. eigenvalues --   -0.38503  -0.38095  -0.37575  -0.37338  -0.37043
 Alpha  occ. eigenvalues --   -0.36738  -0.36318  -0.35626  -0.34851  -0.34374
 Alpha  occ. eigenvalues --   -0.34218  -0.33810  -0.33117  -0.32827  -0.32578
 Alpha  occ. eigenvalues --   -0.32011  -0.31590  -0.31139  -0.23982  -0.22845
 Alpha  occ. eigenvalues --   -0.21095  -0.19381  -0.14426
 Alpha virt. eigenvalues --    0.06179   0.07401   0.08398   0.09172   0.09762
 Alpha virt. eigenvalues --    0.10384   0.10800   0.11220   0.12006   0.12682
 Alpha virt. eigenvalues --    0.13575   0.14370   0.14691   0.14880   0.15171
 Alpha virt. eigenvalues --    0.15355   0.15977   0.16044   0.16581   0.16968
 Alpha virt. eigenvalues --    0.17048   0.17359   0.18131   0.18342   0.19338
 Alpha virt. eigenvalues --    0.19662   0.19793   0.20054   0.20655   0.20750
 Alpha virt. eigenvalues --    0.21084   0.21121   0.21689   0.22414   0.22772
 Alpha virt. eigenvalues --    0.23167   0.23331   0.23813   0.24120   0.24662
 Alpha virt. eigenvalues --    0.25265   0.25924   0.26374   0.27426   0.28103
 Alpha virt. eigenvalues --    0.28784   0.29076   0.29632   0.30343   0.30882
 Alpha virt. eigenvalues --    0.31769   0.33330   0.35076   0.36719   0.38838
 Alpha virt. eigenvalues --    0.44372   0.46647   0.48547   0.49200   0.50109
 Alpha virt. eigenvalues --    0.51093   0.51670   0.52676   0.53029   0.53520
 Alpha virt. eigenvalues --    0.54272   0.55470   0.55717   0.56022   0.57987
 Alpha virt. eigenvalues --    0.59193   0.59411   0.60834   0.61185   0.61770
 Alpha virt. eigenvalues --    0.62196   0.62813   0.64474   0.65416   0.66401
 Alpha virt. eigenvalues --    0.66610   0.67677   0.68682   0.69396   0.70166
 Alpha virt. eigenvalues --    0.71025   0.71711   0.73090   0.73443   0.74927
 Alpha virt. eigenvalues --    0.75548   0.76592   0.77510   0.78136   0.79452
 Alpha virt. eigenvalues --    0.80296   0.81178   0.81917   0.82078   0.83156
 Alpha virt. eigenvalues --    0.83880   0.84470   0.85417   0.85949   0.86828
 Alpha virt. eigenvalues --    0.87160   0.87886   0.88401   0.88816   0.89410
 Alpha virt. eigenvalues --    0.89735   0.89917   0.90487   0.91094   0.91330
 Alpha virt. eigenvalues --    0.92002   0.92296   0.92429   0.93185   0.93483
 Alpha virt. eigenvalues --    0.94568   0.94926   0.95771   0.96570   0.96617
 Alpha virt. eigenvalues --    0.97585   0.97772   0.98037   0.98650   0.99401
 Alpha virt. eigenvalues --    1.00793   1.01385   1.01756   1.02671   1.03700
 Alpha virt. eigenvalues --    1.04363   1.04628   1.05399   1.05969   1.06526
 Alpha virt. eigenvalues --    1.07244   1.08861   1.09194   1.10839   1.12729
 Alpha virt. eigenvalues --    1.13732   1.14367   1.15334   1.17297   1.19509
 Alpha virt. eigenvalues --    1.20251   1.23140   1.24893   1.26450   1.30394
 Alpha virt. eigenvalues --    1.31787   1.34965   1.35909   1.36849   1.39233
 Alpha virt. eigenvalues --    1.41242   1.41356   1.43487   1.45263   1.46892
 Alpha virt. eigenvalues --    1.48226   1.49756   1.54487   1.56756   1.57962
 Alpha virt. eigenvalues --    1.61541   1.62574   1.63098   1.63477   1.66620
 Alpha virt. eigenvalues --    1.68002   1.69579   1.71534   1.73427   1.74618
 Alpha virt. eigenvalues --    1.75016   1.76134   1.77998   1.79302   1.80275
 Alpha virt. eigenvalues --    1.80983   1.81728   1.83075   1.83660   1.85089
 Alpha virt. eigenvalues --    1.87231   1.89033   1.89347   1.91359   1.92100
 Alpha virt. eigenvalues --    1.93797   1.95387   1.96238   1.98279   1.99019
 Alpha virt. eigenvalues --    1.99850   2.01523   2.02071   2.03719   2.03876
 Alpha virt. eigenvalues --    2.05515   2.05992   2.06784   2.07628   2.08192
 Alpha virt. eigenvalues --    2.09321   2.10893   2.11323   2.12161   2.13757
 Alpha virt. eigenvalues --    2.15401   2.16706   2.17162   2.18651   2.19336
 Alpha virt. eigenvalues --    2.20987   2.22966   2.23363   2.25755   2.26551
 Alpha virt. eigenvalues --    2.27014   2.27506   2.28182   2.28848   2.29927
 Alpha virt. eigenvalues --    2.30912   2.31704   2.32422   2.33799   2.36000
 Alpha virt. eigenvalues --    2.36727   2.38473   2.41161   2.41862   2.42629
 Alpha virt. eigenvalues --    2.45143   2.46134   2.48232   2.49029   2.50913
 Alpha virt. eigenvalues --    2.52112   2.53236   2.55478   2.55700   2.57316
 Alpha virt. eigenvalues --    2.59289   2.61255   2.62805   2.67936   2.68397
 Alpha virt. eigenvalues --    2.71348   2.72432   2.73573   2.77234   2.78897
 Alpha virt. eigenvalues --    2.80821   2.82033   2.84546   2.86788   2.88437
 Alpha virt. eigenvalues --    2.91647   2.96278   3.65655   3.99158   4.03678
 Alpha virt. eigenvalues --    4.07056   4.17855   4.23003   4.23422   4.25210
 Alpha virt. eigenvalues --    4.27131   4.29928   4.30911   4.33294   4.38141
 Alpha virt. eigenvalues --    4.40974   4.50704   4.56556   4.57360   4.59284
 Alpha virt. eigenvalues --    4.60637   4.65516
          Condensed to atoms (all electrons):
 Mulliken charges:
               1
     1  N   -0.557542
     2  C   -0.119171
     3  C   -0.157593
     4  N   -0.377998
     5  C   -0.152151
     6  C   -0.163433
     7  N   -0.549713
     8  P    0.725271
     9  N   -0.537346
    10  C   -0.138681
    11  C   -0.159841
    12  C    0.061111
    13  C   -0.449232
    14  C   -0.442166
    15  C    0.073812
    16  C   -0.470360
    17  C   -0.446487
    18  C    0.083708
    19  C   -0.450610
    20  C   -0.476848
    21  H    0.126068
    22  H    0.132483
    23  H    0.144707
    24  H    0.135641
    25  H    0.136495
    26  H    0.134024
    27  H    0.136180
    28  H    0.146274
    29  H    0.133101
    30  H    0.128598
    31  H    0.159527
    32  H    0.135602
    33  H    0.129829
    34  H    0.165463
    35  H    0.144106
    36  H    0.135260
    37  H    0.166739
    38  H    0.129315
    39  H    0.147723
    40  H    0.119603
    41  H    0.164956
    42  H    0.161759
    43  H    0.140375
    44  H    0.153414
    45  H    0.138428
    46  H    0.144811
    47  H    0.117894
    48  H    0.147925
    49  H    0.141765
    50  H    0.139024
    51  H    0.168843
    52  H    0.122497
    53  H    0.176839
 Sum of Mulliken charges =   0.00000
 Mulliken charges with hydrogens summed into heavy atoms:
               1
     1  N   -0.557542
     2  C    0.139380
     3  C    0.122755
     4  N   -0.377998
     5  C    0.118368
     6  C    0.119021
     7  N   -0.549713
     8  P    0.725271
     9  N   -0.537346
    10  C    0.123019
    11  C    0.135289
    12  C    0.190940
    13  C   -0.004404
    14  C    0.001611
    15  C    0.193415
    16  C   -0.003270
    17  C   -0.009834
    18  C    0.201602
    19  C   -0.021895
    20  C   -0.008669
 APT charges:
               1
     1  N   -0.885223
     2  C    0.278429
     3  C    0.378076
     4  N   -0.593065
     5  C    0.326636
     6  C    0.248750
     7  N   -0.899585
     8  P    1.242251
     9  N   -0.819389
    10  C    0.274502
    11  C    0.356622
    12  C    0.449993
    13  C    0.000186
    14  C    0.021686
    15  C    0.474996
    16  C    0.031723
    17  C    0.014743
    18  C    0.480338
    19  C   -0.001182
    20  C    0.028918
    21  H   -0.085251
    22  H   -0.075448
    23  H   -0.037754
    24  H   -0.099809
    25  H   -0.055296
    26  H   -0.054789
    27  H   -0.035040
    28  H   -0.062126
    29  H   -0.080833
    30  H   -0.073445
    31  H   -0.015773
    32  H   -0.094908
    33  H   -0.075611
    34  H    0.005858
    35  H   -0.018228
    36  H   -0.042570
    37  H    0.006018
    38  H   -0.048460
    39  H   -0.014547
    40  H   -0.122709
    41  H    0.006344
    42  H   -0.008632
    43  H   -0.030519
    44  H   -0.010865
    45  H   -0.038290
    46  H   -0.015910
    47  H   -0.121678
    48  H   -0.012837
    49  H   -0.016172
    50  H   -0.032684
    51  H    0.004768
    52  H   -0.064181
    53  H    0.011972
 Sum of APT charges =   0.00000
 APT charges with hydrogens summed into heavy atoms:
               1
     1  N   -0.885223
     2  C    0.117730
     3  C    0.240513
     4  N   -0.593065
     5  C    0.216552
     6  C    0.151584
     7  N   -0.899585
     8  P    1.242251
     9  N   -0.819389
    10  C    0.120224
    11  C    0.245940
    12  C    0.374382
    13  C   -0.054754
    14  C   -0.035303
    15  C    0.352287
    16  C   -0.001085
    17  C   -0.050323
    18  C    0.358661
    19  C   -0.062876
    20  C   -0.018523
 Electronic spatial extent (au):  <R**2>=           5501.8658
 Charge=              0.0000 electrons
 Dipole moment (field-independent basis, Debye):
    X=              0.6704    Y=              0.2599    Z=              0.6907  Tot=              0.9971
 Quadrupole moment (field-independent basis, Debye-Ang):
   XX=           -130.0374   YY=           -129.1267   ZZ=           -137.3214
   XY=             -1.2138   XZ=             -2.9345   YZ=              2.0010
 Traceless Quadrupole moment (field-independent basis, Debye-Ang):
   XX=              2.1244   YY=              3.0351   ZZ=             -5.1596
   XY=             -1.2138   XZ=             -2.9345   YZ=              2.0010
 Octapole moment (field-independent basis, Debye-Ang**2):
  XXX=             13.0534  YYY=              3.2268  ZZZ=             -6.9884  XYY=             -3.5796
  XXY=              2.2423  XXZ=             -1.0543  XZZ=             -3.9651  YZZ=              0.7024
  YYZ=              4.8292  XYZ=              2.5629
 Hexadecapole moment (field-independent basis, Debye-Ang**3):
 XXXX=          -2995.4122 YYYY=          -2472.3197 ZZZZ=          -2083.3118 XXXY=             -9.3688
 XXXZ=             -4.5766 YYYX=            -21.4614 YYYZ=              2.4300 ZZZX=            -43.7971
 ZZZY=              9.4783 XXYY=           -898.5175 XXZZ=           -849.4338 YYZZ=           -748.7598
 XXYZ=             18.3502 YYXZ=             10.0300 ZZXY=             -1.9960
 N-N= 2.096156332768D+03 E-N=-6.881829580080D+03  KE= 1.142784946127D+03
  Exact polarizability: 210.460   0.612 205.688  -0.728   3.021 189.062
 Approx polarizability: 289.730  -2.055 292.849  -4.405   6.384 272.121
 Calling FoFJK, ICntrl=    100127 FMM=F ISym2X=0 I1Cent= 0 IOpClX= 0 NMat=1 NMatS=1 NMatT=0.
 ***** Axes restored to original set *****
 -------------------------------------------------------------------
 Center     Atomic                   Forces (Hartrees/Bohr)
 Number     Number              X              Y              Z
 -------------------------------------------------------------------
      1        7          -0.000886107   -0.019434475   -0.024044551
      2        6          -0.008427954   -0.008777312   -0.001071759
      3        6          -0.001861731    0.000033968   -0.008830167
      4        7          -0.005729252    0.024280601    0.006985336
      5        6           0.003527585   -0.006902893   -0.009892928
      6        6           0.008337641   -0.003406386    0.005970410
      7        7           0.033033791   -0.001878156   -0.031998428
      8       15          -0.033721362    0.055779543    0.057802674
      9        7           0.027406047   -0.026378991   -0.011291831
     10        6           0.003717860   -0.013952642    0.004934197
     11        6           0.009388092   -0.006914526    0.001458151
     12        6          -0.001824606    0.005083604    0.011450473
     13        6           0.001812398    0.002721236    0.000091301
     14        6           0.001565336    0.008444434    0.005698639
     15        6          -0.003467549    0.010779473   -0.006580305
     16        6          -0.002934509   -0.006749245    0.006419986
     17        6           0.002715441    0.002018771   -0.002444285
     18        6          -0.001265616    0.000443726    0.011199551
     19        6           0.000622059   -0.003360046   -0.000682249
     20        6          -0.005762946    0.005987371    0.002784416
     21        1          -0.005057497    0.000024591   -0.002746783
     22        1          -0.002265516   -0.002529816    0.001297917
     23        1           0.006814947    0.000878789    0.005144555
     24        1          -0.009679304    0.000188754   -0.001253221
     25        1          -0.003799650   -0.003410678   -0.000316681
     26        1          -0.000319150   -0.000784480    0.001905385
     27        1          -0.005441230   -0.000798875    0.001020319
     28        1          -0.002703736   -0.001885639    0.004766072
     29        1           0.000082866   -0.000364598    0.000184159
     30        1           0.002909522   -0.000751831   -0.002452970
     31        1          -0.001926341    0.006844145   -0.005152422
     32        1           0.004453476   -0.001909370    0.006523742
     33        1          -0.002404900   -0.004311608   -0.009976830
     34        1          -0.001145900    0.000248609   -0.001750056
     35        1           0.000013358    0.000537816   -0.002318402
     36        1          -0.001525484    0.000516738    0.000348627
     37        1          -0.001199185   -0.000332936   -0.001196040
     38        1          -0.001240286   -0.000067874   -0.004321499
     39        1          -0.002429368   -0.002322664   -0.001746945
     40        1           0.000776180   -0.001381346   -0.004285724
     41        1          -0.000077781   -0.002020797    0.001005043
     42        1          -0.001544664   -0.002148752    0.004389602
     43        1           0.005028546   -0.001622715   -0.000821499
     44        1          -0.000330615   -0.000694745    0.002096793
     45        1          -0.001696653   -0.001408578    0.000993595
     46        1           0.000528500    0.002098050    0.000721750
     47        1           0.002073291    0.002169765   -0.006258803
     48        1           0.003493761    0.001488006   -0.000947665
     49        1          -0.001491294   -0.002198743    0.001814773
     50        1          -0.000771947    0.002350290   -0.001804296
     51        1          -0.000796039    0.001001729   -0.003148254
     52        1          -0.003744203   -0.003273849   -0.002145094
     53        1          -0.000828325   -0.001945439    0.002472222
 -------------------------------------------------------------------
 Cartesian Forces:  Max     0.057802674 RMS     0.009854120
 FormGI is forming the generalized inverse of G from B-inverse, IUseBI=4.

 GradGradGradGradGradGradGradGradGradGradGradGradGradGradGradGradGradGrad
 Berny optimization.
 Internal  Forces:  Max     0.034091686 RMS     0.005956866
 Search for a local minimum.
 Step number   1 out of a maximum of  316
 All quantities printed in internal units (Hartrees-Bohrs-Radians)
 Mixed Optimization -- RFO/linear search
 Second derivative matrix not updated -- analytic derivatives used.
 ITU=  0
     Eigenvalues ---   -0.00556  -0.00449  -0.00112  -0.00026   0.00086
     Eigenvalues ---    0.00215   0.00228   0.00306   0.00309   0.00356
     Eigenvalues ---    0.00467   0.00499   0.00559   0.00621   0.00907
     Eigenvalues ---    0.00985   0.01156   0.01591   0.01865   0.03086
     Eigenvalues ---    0.03263   0.03569   0.03826   0.03886   0.04223
     Eigenvalues ---    0.04371   0.04401   0.04417   0.04437   0.04498
     Eigenvalues ---    0.04555   0.04603   0.04635   0.04662   0.04671
     Eigenvalues ---    0.04739   0.04771   0.04774   0.04878   0.04890
     Eigenvalues ---    0.04914   0.04960   0.04996   0.05049   0.05202
     Eigenvalues ---    0.05235   0.05276   0.05509   0.05556   0.05570
     Eigenvalues ---    0.05735   0.05770   0.07310   0.08168   0.08939
     Eigenvalues ---    0.09155   0.09189   0.09671   0.09774   0.10065
     Eigenvalues ---    0.10289   0.11148   0.11659   0.11999   0.12131
     Eigenvalues ---    0.12189   0.12214   0.12427   0.12570   0.12626
     Eigenvalues ---    0.12680   0.12781   0.13120   0.13165   0.13432
     Eigenvalues ---    0.13600   0.14168   0.14323   0.14516   0.14629
     Eigenvalues ---    0.14738   0.14920   0.15214   0.15353   0.15664
     Eigenvalues ---    0.16681   0.16931   0.18160   0.18511   0.18823
     Eigenvalues ---    0.18990   0.19522   0.19962   0.20554   0.21023
     Eigenvalues ---    0.21720   0.23187   0.24393   0.25106   0.25664
     Eigenvalues ---    0.25909   0.26492   0.26607   0.27032   0.27774
     Eigenvalues ---    0.28148   0.28553   0.28935   0.29496   0.30075
     Eigenvalues ---    0.30163   0.30243   0.31026   0.31252   0.31562
     Eigenvalues ---    0.31746   0.31899   0.32096   0.32199   0.32229
     Eigenvalues ---    0.32630   0.32697   0.33171   0.33272   0.33397
     Eigenvalues ---    0.33420   0.33472   0.33553   0.33582   0.33734
     Eigenvalues ---    0.33805   0.33887   0.33922   0.34153   0.34190
     Eigenvalues ---    0.34324   0.34345   0.34533   0.34624   0.34705
     Eigenvalues ---    0.34809   0.34886   0.34948   0.34998   0.35267
     Eigenvalues ---    0.35339   0.35544   0.35860   0.36860   0.37365
     Eigenvalues ---    0.39674   0.51833   0.64207
 RFO step:  Lambda=-4.48814670D-02 EMin=-5.55969872D-03
 Linear search not attempted -- first point.
 Maximum step size (   0.300) exceeded in Quadratic search.
    -- Step size scaled by   0.813
 Iteration  1 RMS(Cart)=  0.14341111 RMS(Int)=  0.01333959
 Iteration  2 RMS(Cart)=  0.04221181 RMS(Int)=  0.00109753
 Iteration  3 RMS(Cart)=  0.00163035 RMS(Int)=  0.00063590
 Iteration  4 RMS(Cart)=  0.00000224 RMS(Int)=  0.00063590
 Iteration  5 RMS(Cart)=  0.00000000 RMS(Int)=  0.00063590
 Variable       Old X    -DE/DX   Delta X   Delta X   Delta X     New X
                                 (Linear)    (Quad)   (Total)
    R1        2.76900   0.00138   0.00000  -0.00549  -0.00535   2.76365
    R2        3.16768   0.03409   0.00000   0.06838   0.06857   3.23625
    R3        2.79546   0.00897   0.00000   0.00182   0.00182   2.79729
    R4        2.92269   0.00059   0.00000  -0.01206  -0.01211   2.91058
    R5        2.07205   0.00495   0.00000   0.01093   0.01093   2.08298
    R6        2.06485   0.00341   0.00000   0.00863   0.00863   2.07348
    R7        2.75174   0.01012   0.00000   0.00684   0.00647   2.75821
    R8        2.07380  -0.00172   0.00000  -0.00430  -0.00430   2.06950
    R9        2.07752   0.00289   0.00000   0.00765   0.00765   2.08517
   R10        2.75970  -0.00412   0.00000  -0.01824  -0.01925   2.74045
   R11        2.75441   0.00697   0.00000   0.00340   0.00231   2.75673
   R12        2.93404   0.00439   0.00000   0.01116   0.01061   2.94466
   R13        2.07733  -0.00062   0.00000  -0.00158  -0.00158   2.07575
   R14        2.07598   0.00052   0.00000   0.00129   0.00129   2.07727
   R15        2.77022  -0.00062   0.00000  -0.00980  -0.00954   2.76068
   R16        2.06952  -0.00390   0.00000  -0.00150  -0.00150   2.06802
   R17        2.06697   0.00246   0.00000   0.00222   0.00222   2.06919
   R18        3.16895   0.02968   0.00000   0.07454   0.07543   3.24438
   R19        2.79986  -0.00143   0.00000  -0.00307  -0.00307   2.79679
   R20        3.18837   0.02020   0.00000   0.05965   0.06048   3.24885
   R21        2.77739   0.00845   0.00000  -0.00083  -0.00045   2.77694
   R22        2.81261  -0.00389   0.00000  -0.00552  -0.00552   2.80709
   R23        2.90619  -0.00223   0.00000  -0.00533  -0.00527   2.90091
   R24        2.07973   0.00039   0.00000   0.00018   0.00018   2.07991
   R25        2.07381   0.00291   0.00000   0.00673   0.00673   2.08055
   R26        2.07185  -0.00166   0.00000  -0.00390  -0.00390   2.06795
   R27        2.07595   0.00357   0.00000   0.00832   0.00832   2.08427
   R28        2.89675   0.00251   0.00000   0.00738   0.00738   2.90413
   R29        2.89466   0.00203   0.00000   0.00509   0.00509   2.89975
   R30        2.07775  -0.00134   0.00000  -0.00179  -0.00179   2.07596
   R31        2.06695   0.00105   0.00000   0.00205   0.00205   2.06900
   R32        2.06682   0.00148   0.00000   0.00243   0.00243   2.06926
   R33        2.07500  -0.00037   0.00000  -0.00099  -0.00099   2.07401
   R34        2.06670   0.00054   0.00000   0.00091   0.00091   2.06761
   R35        2.08776  -0.00438   0.00000  -0.01032  -0.01032   2.07744
   R36        2.05946   0.00316   0.00000   0.00720   0.00720   2.06666
   R37        2.91454  -0.00402   0.00000  -0.01015  -0.01015   2.90439
   R38        2.91555   0.00213   0.00000  -0.00130  -0.00130   2.91425
   R39        2.07579   0.00435   0.00000   0.00923   0.00923   2.08502
   R40        2.06955  -0.00009   0.00000  -0.00043  -0.00043   2.06912
   R41        2.06231   0.00242   0.00000   0.00218   0.00218   2.06449
   R42        2.07359  -0.00151   0.00000  -0.00219  -0.00219   2.07140
   R43        2.06759   0.00136   0.00000   0.00294   0.00294   2.07053
   R44        2.07455  -0.00106   0.00000  -0.00153  -0.00153   2.07302
   R45        2.06417  -0.00040   0.00000   0.00209   0.00209   2.06627
   R46        2.91183   0.00059   0.00000   0.00185   0.00185   2.91368
   R47        2.89936   0.00077   0.00000   0.00488   0.00488   2.90424
   R48        2.07867   0.00300   0.00000   0.00373   0.00373   2.08240
   R49        2.07003   0.00095   0.00000   0.00040   0.00040   2.07042
   R50        2.06738  -0.00000   0.00000   0.00013   0.00013   2.06751
   R51        2.07194  -0.00007   0.00000   0.00064   0.00064   2.07257
   R52        2.06866  -0.00308   0.00000  -0.00506  -0.00506   2.06360
   R53        2.07072   0.00233   0.00000   0.00258   0.00258   2.07330
   R54        2.06613  -0.00262   0.00000   0.00240   0.00240   2.06854
    A1        2.21565   0.00428   0.00000   0.05900   0.05761   2.27326
    A2        1.98827  -0.02391   0.00000  -0.04716  -0.04839   1.93988
    A3        2.07914   0.01964   0.00000  -0.01329  -0.01460   2.06453
    A4        2.15935  -0.00366   0.00000  -0.02681  -0.02679   2.13256
    A5        1.89101   0.00040   0.00000  -0.00402  -0.00392   1.88709
    A6        1.89394   0.00084   0.00000   0.01233   0.01228   1.90622
    A7        1.81788   0.00184   0.00000   0.00674   0.00626   1.82414
    A8        1.83682   0.00216   0.00000   0.02150   0.02182   1.85865
    A9        1.84133  -0.00142   0.00000  -0.00839  -0.00845   1.83288
   A10        2.11965   0.00621   0.00000  -0.00283  -0.00323   2.11642
   A11        1.89590   0.00384   0.00000   0.01909   0.01923   1.91513
   A12        1.84242  -0.01081   0.00000  -0.03229  -0.03221   1.81021
   A13        1.93642  -0.00859   0.00000  -0.02915  -0.02918   1.90725
   A14        1.83548   0.00636   0.00000   0.03420   0.03460   1.87008
   A15        1.80436   0.00248   0.00000   0.01455   0.01487   1.81923
   A16        1.98471   0.00352   0.00000   0.02216   0.02148   2.00619
   A17        2.02599   0.00585   0.00000   0.02587   0.02509   2.05108
   A18        2.05518  -0.00599   0.00000  -0.01015  -0.01078   2.04440
   A19        2.11433   0.00216   0.00000  -0.01318  -0.01437   2.09996
   A20        1.86861  -0.00331   0.00000  -0.00437  -0.00427   1.86434
   A21        1.89723  -0.00200   0.00000  -0.00283  -0.00222   1.89501
   A22        1.86857   0.00221   0.00000   0.01706   0.01763   1.88620
   A23        1.88129  -0.00031   0.00000  -0.00195  -0.00197   1.87933
   A24        1.81068   0.00126   0.00000   0.00906   0.00890   1.81957
   A25        2.07561  -0.00278   0.00000  -0.00533  -0.00506   2.07055
   A26        1.83890   0.00144   0.00000   0.00533   0.00462   1.84352
   A27        1.89997   0.00234   0.00000   0.00952   0.00963   1.90960
   A28        1.93905  -0.00234   0.00000  -0.03095  -0.03080   1.90825
   A29        1.90450   0.00017   0.00000   0.00209   0.00170   1.90620
   A30        1.78261   0.00193   0.00000   0.02426   0.02425   1.80686
   A31        2.10111   0.00599   0.00000   0.04392   0.04445   2.14556
   A32        1.98029   0.02154   0.00000   0.02415   0.02389   2.00418
   A33        2.19290  -0.02763   0.00000  -0.06571  -0.06607   2.12683
   A34        1.89501  -0.00440   0.00000  -0.02185  -0.02401   1.87100
   A35        1.88637   0.00203   0.00000  -0.01335  -0.01733   1.86904
   A36        1.97139  -0.01842   0.00000  -0.08806  -0.08908   1.88231
   A37        2.15489   0.01227   0.00000   0.06688   0.06835   2.22324
   A38        2.14700  -0.02232   0.00000  -0.09853  -0.10019   2.04681
   A39        1.89367   0.01045   0.00000   0.04104   0.04143   1.93510
   A40        2.10114  -0.00887   0.00000  -0.02889  -0.02937   2.07177
   A41        1.87080   0.00108   0.00000   0.00134   0.00186   1.87266
   A42        1.92079   0.00618   0.00000   0.01850   0.01815   1.93894
   A43        1.81621   0.00437   0.00000   0.01444   0.01386   1.83006
   A44        1.90442  -0.00111   0.00000  -0.00446  -0.00359   1.90083
   A45        1.82843  -0.00084   0.00000   0.00278   0.00269   1.83112
   A46        2.07205   0.00303   0.00000   0.00200   0.00170   2.07375
   A47        1.96741  -0.00639   0.00000  -0.03468  -0.03490   1.93250
   A48        1.84165   0.00483   0.00000   0.03090   0.03144   1.87309
   A49        1.90951   0.00232   0.00000   0.00704   0.00677   1.91627
   A50        1.84587  -0.00654   0.00000  -0.01938  -0.01931   1.82656
   A51        1.80129   0.00287   0.00000   0.01946   0.01973   1.82102
   A52        2.02626  -0.00193   0.00000  -0.00798  -0.00812   2.01814
   A53        1.97771   0.00109   0.00000  -0.00994  -0.01005   1.96766
   A54        1.88282  -0.00397   0.00000  -0.02476  -0.02457   1.85825
   A55        1.94629  -0.00154   0.00000  -0.00520  -0.00545   1.94084
   A56        1.81467   0.00338   0.00000   0.02238   0.02221   1.83688
   A57        1.79097   0.00379   0.00000   0.03305   0.03294   1.82390
   A58        1.96339  -0.00181   0.00000  -0.01252  -0.01255   1.95084
   A59        1.94193   0.00034   0.00000   0.00140   0.00135   1.94329
   A60        1.91671  -0.00012   0.00000   0.00335   0.00334   1.92005
   A61        1.90037  -0.00030   0.00000  -0.00437  -0.00442   1.89595
   A62        1.88258   0.00085   0.00000   0.00324   0.00325   1.88583
   A63        1.85476   0.00123   0.00000   0.01023   0.01020   1.86496
   A64        1.95883  -0.00023   0.00000  -0.00988  -0.00996   1.94887
   A65        1.91149  -0.00048   0.00000   0.00591   0.00593   1.91743
   A66        1.94489  -0.00170   0.00000  -0.00952  -0.00959   1.93530
   A67        1.87029   0.00090   0.00000   0.00545   0.00547   1.87576
   A68        1.90582   0.00002   0.00000  -0.00309  -0.00324   1.90258
   A69        1.86888   0.00170   0.00000   0.01283   0.01285   1.88172
   A70        2.06230  -0.01886   0.00000  -0.05145  -0.05133   2.01097
   A71        1.95876   0.00837   0.00000  -0.00220  -0.00206   1.95669
   A72        1.87278   0.00375   0.00000   0.00864   0.00874   1.88152
   A73        1.85627   0.00669   0.00000   0.02678   0.02635   1.88262
   A74        1.83481   0.00371   0.00000   0.01534   0.01501   1.84983
   A75        1.86659  -0.00302   0.00000   0.00863   0.00825   1.87484
   A76        1.95632  -0.00048   0.00000  -0.00750  -0.00756   1.94876
   A77        1.94971   0.00162   0.00000   0.00469   0.00471   1.95443
   A78        1.92866  -0.00661   0.00000  -0.02117  -0.02121   1.90746
   A79        1.90817  -0.00172   0.00000  -0.00823  -0.00824   1.89993
   A80        1.86819   0.00355   0.00000   0.01138   0.01126   1.87945
   A81        1.84791   0.00395   0.00000   0.02274   0.02280   1.87071
   A82        1.94433  -0.00267   0.00000  -0.01585  -0.01590   1.92843
   A83        1.92378  -0.00300   0.00000  -0.00212  -0.00214   1.92163
   A84        1.97326   0.00419   0.00000   0.00216   0.00211   1.97538
   A85        1.88088   0.00202   0.00000   0.00735   0.00731   1.88819
   A86        1.88819  -0.00074   0.00000  -0.00388  -0.00395   1.88424
   A87        1.84873   0.00032   0.00000   0.01410   0.01408   1.86281
   A88        1.98683  -0.00757   0.00000  -0.00370  -0.00419   1.98264
   A89        1.94899   0.01893   0.00000   0.03886   0.03890   1.98789
   A90        1.91506  -0.00645   0.00000  -0.04995  -0.04957   1.86548
   A91        1.90818  -0.00812   0.00000   0.00277   0.00242   1.91059
   A92        1.83892   0.00666   0.00000   0.03358   0.03355   1.87247
   A93        1.85840  -0.00413   0.00000  -0.02420  -0.02393   1.83447
   A94        1.96681  -0.00486   0.00000  -0.03065  -0.03062   1.93620
   A95        1.93888   0.00574   0.00000   0.02043   0.02048   1.95936
   A96        1.92988  -0.00351   0.00000  -0.00229  -0.00234   1.92753
   A97        1.89102  -0.00039   0.00000  -0.00293  -0.00281   1.88821
   A98        1.85809   0.00421   0.00000   0.02016   0.02010   1.87819
   A99        1.87504  -0.00109   0.00000  -0.00378  -0.00382   1.87122
   A100       1.96111  -0.00072   0.00000   0.01578   0.01579   1.97690
   A101       1.92500  -0.00733   0.00000  -0.03082  -0.03079   1.89422
   A102       1.93946   0.00425   0.00000   0.00490   0.00481   1.94427
   A103       1.86683   0.00330   0.00000   0.00959   0.00972   1.87655
   A104       1.89187  -0.00112   0.00000  -0.00417  -0.00427   1.88760
   A105       1.87610   0.00177   0.00000   0.00483   0.00477   1.88087
    D1        0.11395  -0.00012   0.00000  -0.07472  -0.07568   0.03827
    D2       -2.01680  -0.00021   0.00000  -0.05877  -0.05977  -2.07658
    D3        2.27534   0.00082   0.00000  -0.05318  -0.05410   2.22124
    D4       -3.00979  -0.00104   0.00000   0.02294   0.02332  -2.98647
    D5        1.14264  -0.00113   0.00000   0.03889   0.03923   1.18187
    D6       -0.84840  -0.00010   0.00000   0.04448   0.04490  -0.80350
    D7        0.61971  -0.00851   0.00000  -0.01496  -0.01364   0.60607
    D8       -1.52449   0.01532   0.00000   0.11355   0.11435  -1.41014
    D9       -2.54056  -0.00796   0.00000  -0.11741  -0.11875  -2.65932
   D10        1.59842   0.01588   0.00000   0.01110   0.00923   1.60765
   D11        1.03488   0.00339   0.00000   0.21044   0.21228   1.24716
   D12       -3.07714   0.00181   0.00000   0.24266   0.24466  -2.83248
   D13       -1.02078   0.00423   0.00000   0.20468   0.20624  -0.81454
   D14       -2.09038   0.00268   0.00000   0.29894   0.29717  -1.79321
   D15        0.08079   0.00110   0.00000   0.33115   0.32955   0.41034
   D16        2.13714   0.00351   0.00000   0.29317   0.29114   2.42828
   D17        0.75091  -0.00084   0.00000   0.05532   0.05480   0.80571
   D18       -1.52534   0.00202   0.00000   0.08147   0.08125  -1.44409
   D19        2.83224   0.00258   0.00000   0.07182   0.07162   2.90385
   D20        2.91448  -0.00124   0.00000   0.03597   0.03557   2.95005
   D21        0.63823   0.00162   0.00000   0.06212   0.06202   0.70024
   D22       -1.28739   0.00218   0.00000   0.05247   0.05239  -1.23500
   D23       -1.43565  -0.00128   0.00000   0.03736   0.03705  -1.39860
   D24        2.57129   0.00157   0.00000   0.06351   0.06350   2.63478
   D25        0.64567   0.00213   0.00000   0.05386   0.05387   0.69954
   D26       -2.00129  -0.00508   0.00000  -0.04903  -0.04942  -2.05071
   D27        0.46625  -0.00301   0.00000  -0.00290  -0.00280   0.46345
   D28        0.25754  -0.00246   0.00000  -0.05472  -0.05500   0.20254
   D29        2.72508  -0.00040   0.00000  -0.00859  -0.00838   2.71670
   D30        2.19719  -0.00008   0.00000  -0.03304  -0.03348   2.16371
   D31       -1.61846   0.00198   0.00000   0.01308   0.01314  -1.60532
   D32        1.19669   0.00326   0.00000   0.04876   0.04864   1.24533
   D33       -0.94937   0.00160   0.00000   0.03901   0.03892  -0.91045
   D34       -2.89519   0.00268   0.00000   0.03199   0.03177  -2.86343
   D35       -1.25887  -0.00377   0.00000  -0.01324  -0.01247  -1.27134
   D36        2.87826  -0.00544   0.00000  -0.02300  -0.02219   2.85608
   D37        0.93244  -0.00436   0.00000  -0.03002  -0.02934   0.90310
   D38       -1.95637  -0.00349   0.00000  -0.01320  -0.01254  -1.96891
   D39        0.30924  -0.00373   0.00000  -0.03735  -0.03683   0.27241
   D40        2.26266  -0.00061   0.00000  -0.01319  -0.01304   2.24962
   D41        0.48324   0.00266   0.00000   0.04837   0.04828   0.53152
[...]
 
   170    C   12  S      Cor( 1S)     1.99923
   171    C   12  S      Val( 2S)     0.95235
   172    C   12  S      Ryd( 3S)     0.00161
   173    C   12  S      Ryd( 4S)     0.00004
   174    C   12  px     Val( 2p)     1.04916
   175    C   12  px     Ryd( 3p)     0.00259
   176    C   12  py     Val( 2p)     0.83448
   177    C   12  py     Ryd( 3p)     0.00217
   178    C   12  pz     Val( 2p)     1.19671
   179    C   12  pz     Ryd( 3p)     0.00574
   180    C   12  dxy    Ryd( 3d)     0.00119
   181    C   12  dxz    Ryd( 3d)     0.00056
   182    C   12  dyz    Ryd( 3d)     0.00066
   183    C   12  dx2y2  Ryd( 3d)     0.00131
   184    C   12  dz2    Ryd( 3d)     0.00133
 
   185    C   13  S      Cor( 1S)     1.99939
   186    C   13  S      Val( 2S)     1.11237
   187    C   13  S      Ryd( 3S)     0.00069
   188    C   13  S      Ryd( 4S)     0.00002
   189    C   13  px     Val( 2p)     1.12152
   190    C   13  px     Ryd( 3p)     0.00249
   191    C   13  py     Val( 2p)     1.21988
   192    C   13  py     Ryd( 3p)     0.00203
   193    C   13  pz     Val( 2p)     1.23164
   194    C   13  pz     Ryd( 3p)     0.00163
   195    C   13  dxy    Ryd( 3d)     0.00041
   196    C   13  dxz    Ryd( 3d)     0.00067
   197    C   13  dyz    Ryd( 3d)     0.00030
   198    C   13  dx2y2  Ryd( 3d)     0.00094
   199    C   13  dz2    Ryd( 3d)     0.00093
 
   200    C   14  S      Cor( 1S)     1.99940
   201    C   14  S      Val( 2S)     1.10377
   202    C   14  S      Ryd( 3S)     0.00055
   203    C   14  S      Ryd( 4S)     0.00002
   204    C   14  px     Val( 2p)     1.15842
   205    C   14  px     Ryd( 3p)     0.00190
   206    C   14  py     Val( 2p)     1.20596
   207    C   14  py     Ryd( 3p)     0.00191
   208    C   14  pz     Val( 2p)     1.20494
   209    C   14  pz     Ryd( 3p)     0.00156
   210    C   14  dxy    Ryd( 3d)     0.00038
   211    C   14  dxz    Ryd( 3d)     0.00042
   212    C   14  dyz    Ryd( 3d)     0.00026
   213    C   14  dx2y2  Ryd( 3d)     0.00106
   214    C   14  dz2    Ryd( 3d)     0.00120
 
   215    C   15  S      Cor( 1S)     1.99923
   216    C   15  S      Val( 2S)     0.96192
   217    C   15  S      Ryd( 3S)     0.00156
   218    C   15  S      Ryd( 4S)     0.00004
   219    C   15  px     Val( 2p)     1.12069
   220    C   15  px     Ryd( 3p)     0.00421
   221    C   15  py     Val( 2p)     1.12133
   222    C   15  py     Ryd( 3p)     0.00328
   223    C   15  pz     Val( 2p)     0.84212
   224    C   15  pz     Ryd( 3p)     0.00308
   225    C   15  dxy    Ryd( 3d)     0.00132
   226    C   15  dxz    Ryd( 3d)     0.00088
   227    C   15  dyz    Ryd( 3d)     0.00087
   228    C   15  dx2y2  Ryd( 3d)     0.00047
   229    C   15  dz2    Ryd( 3d)     0.00149
 
   230    C   16  S      Cor( 1S)     1.99940
   231    C   16  S      Val( 2S)     1.10122
   232    C   16  S      Ryd( 3S)     0.00053
   233    C   16  S      Ryd( 4S)     0.00002
   234    C   16  px     Val( 2p)     1.16095
   235    C   16  px     Ryd( 3p)     0.00169
   236    C   16  py     Val( 2p)     1.23239
   237    C   16  py     Ryd( 3p)     0.00187
   238    C   16  pz     Val( 2p)     1.18299
   239    C   16  pz     Ryd( 3p)     0.00202
   240    C   16  dxy    Ryd( 3d)     0.00105
   241    C   16  dxz    Ryd( 3d)     0.00065
   242    C   16  dyz    Ryd( 3d)     0.00034
   243    C   16  dx2y2  Ryd( 3d)     0.00038
   244    C   16  dz2    Ryd( 3d)     0.00082
 
   245    C   17  S      Cor( 1S)     1.99938
   246    C   17  S      Val( 2S)     1.11222
   247    C   17  S      Ryd( 3S)     0.00058
   248    C   17  S      Ryd( 4S)     0.00002
   249    C   17  px     Val( 2p)     1.22694
   250    C   17  px     Ryd( 3p)     0.00189
   251    C   17  py     Val( 2p)     1.11411
   252    C   17  py     Ryd( 3p)     0.00178
   253    C   17  pz     Val( 2p)     1.22521
   254    C   17  pz     Ryd( 3p)     0.00275
   255    C   17  dxy    Ryd( 3d)     0.00096
   256    C   17  dxz    Ryd( 3d)     0.00076
   257    C   17  dyz    Ryd( 3d)     0.00028
   258    C   17  dx2y2  Ryd( 3d)     0.00039
   259    C   17  dz2    Ryd( 3d)     0.00082
 
   260    C   18  S      Cor( 1S)     1.99924
   261    C   18  S      Val( 2S)     0.94938
   262    C   18  S      Ryd( 3S)     0.00170
   263    C   18  S      Ryd( 4S)     0.00004
   264    C   18  px     Val( 2p)     0.88729
   265    C   18  px     Ryd( 3p)     0.00233
   266    C   18  py     Val( 2p)     1.16042
   267    C   18  py     Ryd( 3p)     0.00566
   268    C   18  pz     Val( 2p)     1.03803
   269    C   18  pz     Ryd( 3p)     0.00245
   270    C   18  dxy    Ryd( 3d)     0.00127
   271    C   18  dxz    Ryd( 3d)     0.00110
   272    C   18  dyz    Ryd( 3d)     0.00069
   273    C   18  dx2y2  Ryd( 3d)     0.00104
   274    C   18  dz2    Ryd( 3d)     0.00106
 
   275    C   19  S      Cor( 1S)     1.99939
   276    C   19  S      Val( 2S)     1.10051
   277    C   19  S      Ryd( 3S)     0.00059
   278    C   19  S      Ryd( 4S)     0.00001
   279    C   19  px     Val( 2p)     1.20287
   280    C   19  px     Ryd( 3p)     0.00181
   281    C   19  py     Val( 2p)     1.20799
   282    C   19  py     Ryd( 3p)     0.00141
   283    C   19  pz     Val( 2p)     1.16171
   284    C   19  pz     Ryd( 3p)     0.00180
   285    C   19  dxy    Ryd( 3d)     0.00043
   286    C   19  dxz    Ryd( 3d)     0.00035
   287    C   19  dyz    Ryd( 3d)     0.00076
   288    C   19  dx2y2  Ryd( 3d)     0.00093
   289    C   19  dz2    Ryd( 3d)     0.00082
 
   290    C   20  S      Cor( 1S)     1.99940
   291    C   20  S      Val( 2S)     1.09653
   292    C   20  S      Ryd( 3S)     0.00044
   293    C   20  S      Ryd( 4S)     0.00001
   294    C   20  px     Val( 2p)     1.24465
   295    C   20  px     Ryd( 3p)     0.00173
   296    C   20  py     Val( 2p)     1.21084
   297    C   20  py     Ryd( 3p)     0.00142
   298    C   20  pz     Val( 2p)     1.12068
   299    C   20  pz     Ryd( 3p)     0.00164
   300    C   20  dxy    Ryd( 3d)     0.00048
   301    C   20  dxz    Ryd( 3d)     0.00049
   302    C   20  dyz    Ryd( 3d)     0.00065
   303    C   20  dx2y2  Ryd( 3d)     0.00093
   304    C   20  dz2    Ryd( 3d)     0.00077
 
   305    H   21  S      Val( 1S)     0.77848
   306    H   21  S      Ryd( 2S)     0.01033
 
   307    H   22  S      Val( 1S)     0.78752
   308    H   22  S      Ryd( 2S)     0.00526
 
   309    H   23  S      Val( 1S)     0.76799
   310    H   23  S      Ryd( 2S)     0.01521
 
   311    H   24  S      Val( 1S)     0.76452
   312    H   24  S      Ryd( 2S)     0.00442
 
   313    H   25  S      Val( 1S)     0.76217
   314    H   25  S      Ryd( 2S)     0.00559
 
   315    H   26  S      Val( 1S)     0.76744
   316    H   26  S      Ryd( 2S)     0.01552
 
   317    H   27  S      Val( 1S)     0.76330
   318    H   27  S      Ryd( 2S)     0.00613
 
   319    H   28  S      Val( 1S)     0.77051
   320    H   28  S      Ryd( 2S)     0.02429
 
   321    H   29  S      Val( 1S)     0.76651
   322    H   29  S      Ryd( 2S)     0.00539
 
   323    H   30  S      Val( 1S)     0.81562
   324    H   30  S      Ryd( 2S)     0.02806
 
   325    H   31  S      Val( 1S)     0.76617
   326    H   31  S      Ryd( 2S)     0.00617
 
   327    H   32  S      Val( 1S)     0.76976
   328    H   32  S      Ryd( 2S)     0.00738
 
   329    H   33  S      Val( 1S)     0.77314
   330    H   33  S      Ryd( 2S)     0.01088
 
   331    H   34  S      Val( 1S)     0.78270
   332    H   34  S      Ryd( 2S)     0.01429
 
   333    H   35  S      Val( 1S)     0.79389
   334    H   35  S      Ryd( 2S)     0.01414
 
   335    H   36  S      Val( 1S)     0.78220
   336    H   36  S      Ryd( 2S)     0.00675
 
   337    H   37  S      Val( 1S)     0.77047
   338    H   37  S      Ryd( 2S)     0.00611
 
   339    H   38  S      Val( 1S)     0.76327
   340    H   38  S      Ryd( 2S)     0.00275
 
   341    H   39  S      Val( 1S)     0.77917
   342    H   39  S      Ryd( 2S)     0.00354
 
   343    H   40  S      Val( 1S)     0.76301
   344    H   40  S      Ryd( 2S)     0.01451
 
   345    H   41  S      Val( 1S)     0.76606
   346    H   41  S      Ryd( 2S)     0.00165
 
   347    H   42  S      Val( 1S)     0.76796
   348    H   42  S      Ryd( 2S)     0.00940
 
   349    H   43  S      Val( 1S)     0.76066
   350    H   43  S      Ryd( 2S)     0.00321
 
   351    H   44  S      Val( 1S)     0.76389
   352    H   44  S      Ryd( 2S)     0.00981
 
   353    H   45  S      Val( 1S)     0.77346
   354    H   45  S      Ryd( 2S)     0.00689
 
   355    H   46  S      Val( 1S)     0.77351
   356    H   46  S      Ryd( 2S)     0.00781
 
   357    H   47  S      Val( 1S)     0.76344
   358    H   47  S      Ryd( 2S)     0.00296
 
   359    H   48  S      Val( 1S)     0.76893
   360    H   48  S      Ryd( 2S)     0.00215
 
   361    H   49  S      Val( 1S)     0.77314
   362    H   49  S      Ryd( 2S)     0.00187
 
   363    H   50  S      Val( 1S)     0.76838
   364    H   50  S      Ryd( 2S)     0.00116
 
   365    H   51  S      Val( 1S)     0.76176
   366    H   51  S      Ryd( 2S)     0.00138
 
   367    H   52  S      Val( 1S)     0.76372
   368    H   52  S      Ryd( 2S)     0.00084
 
   369    H   53  S      Val( 1S)     0.76447
   370    H   53  S      Ryd( 2S)     0.00138


 Summary of Natural Population Analysis:                  
                                                          
                                       Natural Population 
                Natural  -----------------------------------------------
    Atom  No    Charge         Core      Valence    Rydberg      Total
 -----------------------------------------------------------------------
      N    1   -0.83770      1.99941     5.81296    0.02533     7.83770
      C    2   -0.26847      1.99929     4.25145    0.01773     6.26847
      C    3   -0.26216      1.99929     4.24610    0.01677     6.26216
      N    4   -0.45088      1.99940     5.43839    0.01309     7.45088
      C    5   -0.26489      1.99932     4.24661    0.01896     6.26489
      C    6   -0.28865      1.99926     4.26970    0.01969     6.28865
      N    7   -0.61389      1.99945     5.59650    0.01795     7.61389
      P    8    1.31851      9.99837     3.59903    0.08409    13.68149
      N    9   -0.80262      1.99940     5.78727    0.01595     7.80262
      C   10   -0.27248      1.99929     4.25465    0.01854     6.27248
      C   11   -0.26587      1.99931     4.24867    0.01789     6.26587
      C   12   -0.04914      1.99923     4.03270    0.01721     6.04914
      C   13   -0.69489      1.99939     4.68540    0.01010     6.69489
      C   14   -0.68175      1.99940     4.67309    0.00926     6.68175
      C   15   -0.06250      1.99923     4.04606    0.01721     6.06250
      C   16   -0.68633      1.99940     4.67756    0.00937     6.68633
      C   17   -0.68811      1.99938     4.67848    0.01025     6.68811
      C   18   -0.05169      1.99924     4.03512    0.01734     6.05169
      C   19   -0.68138      1.99939     4.67308    0.00891     6.68138
      C   20   -0.68066      1.99940     4.67270    0.00856     6.68066
      H   21    0.21120      0.00000     0.77848    0.01033     0.78880
      H   22    0.20722      0.00000     0.78752    0.00526     0.79278
      H   23    0.21680      0.00000     0.76799    0.01521     0.78320
      H   24    0.23106      0.00000     0.76452    0.00442     0.76894
      H   25    0.23224      0.00000     0.76217    0.00559     0.76776
      H   26    0.21705      0.00000     0.76744    0.01552     0.78295
      H   27    0.23057      0.00000     0.76330    0.00613     0.76943
      H   28    0.20520      0.00000     0.77051    0.02429     0.79480
      H   29    0.22810      0.00000     0.76651    0.00539     0.77190
      H   30    0.15632      0.00000     0.81562    0.02806     0.84368
      H   31    0.22766      0.00000     0.76617    0.00617     0.77234
      H   32    0.22286      0.00000     0.76976    0.00738     0.77714
      H   33    0.21598      0.00000     0.77314    0.01088     0.78402
      H   34    0.20301      0.00000     0.78270    0.01429     0.79699
      H   35    0.19197      0.00000     0.79389    0.01414     0.80803
      H   36    0.21104      0.00000     0.78220    0.00675     0.78896
      H   37    0.22342      0.00000     0.77047    0.00611     0.77658
      H   38    0.23398      0.00000     0.76327    0.00275     0.76602
      H   39    0.21729      0.00000     0.77917    0.00354     0.78271
      H   40    0.22248      0.00000     0.76301    0.01451     0.77752
      H   41    0.23228      0.00000     0.76606    0.00165     0.76772
      H   42    0.22264      0.00000     0.76796    0.00940     0.77736
      H   43    0.23613      0.00000     0.76066    0.00321     0.76387
      H   44    0.22630      0.00000     0.76389    0.00981     0.77370
      H   45    0.21966      0.00000     0.77346    0.00689     0.78034
      H   46    0.21867      0.00000     0.77351    0.00781     0.78133
      H   47    0.23360      0.00000     0.76344    0.00296     0.76640
      H   48    0.22892      0.00000     0.76893    0.00215     0.77108
      H   49    0.22499      0.00000     0.77314    0.00187     0.77501
      H   50    0.23047      0.00000     0.76838    0.00116     0.76953
      H   51    0.23687      0.00000     0.76176    0.00138     0.76313
      H   52    0.23544      0.00000     0.76372    0.00084     0.76456
      H   53    0.23415      0.00000     0.76447    0.00138     0.76585
 =======================================================================
   * Total *   -0.00000     47.98586   117.38270    0.63144   166.00000

                                 Natural Population      
 --------------------------------------------------------
   Core                      47.98586 ( 99.9705% of  48)
   Valence                  117.38270 ( 99.4769% of 118)
   Natural Minimal Basis    165.36856 ( 99.6196% of 166)
   Natural Rydberg Basis      0.63144 (  0.3804% of 166)
 --------------------------------------------------------

    Atom  No          Natural Electron Configuration
 ----------------------------------------------------------------------------
      N    1      [core]2S( 1.34)2p( 4.47)3S( 0.01)3p( 0.01)
      C    2      [core]2S( 1.01)2p( 3.24)3p( 0.01)3d( 0.01)
      C    3      [core]2S( 1.01)2p( 3.24)3p( 0.01)3d( 0.01)
      N    4      [core]2S( 1.18)2p( 4.26)3p( 0.01)
      C    5      [core]2S( 1.01)2p( 3.23)3p( 0.01)3d( 0.01)
      C    6      [core]2S( 1.03)2p( 3.24)3p( 0.01)
      N    7      [core]2S( 1.35)2p( 4.25)3p( 0.01)
      P    8      [core]3S( 1.32)3p( 2.28)4S( 0.01)3d( 0.05)4p( 0.03)
      N    9      [core]2S( 1.31)2p( 4.47)3p( 0.01)
      C   10      [core]2S( 1.02)2p( 3.24)3p( 0.01)
      C   11      [core]2S( 1.00)2p( 3.25)3p( 0.01)3d( 0.01)
      C   12      [core]2S( 0.95)2p( 3.08)3p( 0.01)3d( 0.01)
      C   13      [core]2S( 1.11)2p( 3.57)3p( 0.01)
      C   14      [core]2S( 1.10)2p( 3.57)3p( 0.01)
      C   15      [core]2S( 0.96)2p( 3.08)3p( 0.01)3d( 0.01)
      C   16      [core]2S( 1.10)2p( 3.58)3p( 0.01)
      C   17      [core]2S( 1.11)2p( 3.57)3p( 0.01)
      C   18      [core]2S( 0.95)2p( 3.09)3p( 0.01)3d( 0.01)
      C   19      [core]2S( 1.10)2p( 3.57)3p( 0.01)
      C   20      [core]2S( 1.10)2p( 3.58)
      H   21            1S( 0.78)2S( 0.01)
      H   22            1S( 0.79)2S( 0.01)
      H   23            1S( 0.77)2S( 0.02)
      H   24            1S( 0.76)
      H   25            1S( 0.76)2S( 0.01)
      H   26            1S( 0.77)2S( 0.02)
      H   27            1S( 0.76)2S( 0.01)
      H   28            1S( 0.77)2S( 0.02)
      H   29            1S( 0.77)2S( 0.01)
      H   30            1S( 0.82)2S( 0.03)
      H   31            1S( 0.77)2S( 0.01)
      H   32            1S( 0.77)2S( 0.01)
      H   33            1S( 0.77)2S( 0.01)
      H   34            1S( 0.78)2S( 0.01)
      H   35            1S( 0.79)2S( 0.01)
      H   36            1S( 0.78)2S( 0.01)
      H   37            1S( 0.77)2S( 0.01)
      H   38            1S( 0.76)
      H   39            1S( 0.78)
      H   40            1S( 0.76)2S( 0.01)
      H   41            1S( 0.77)
      H   42            1S( 0.77)2S( 0.01)
      H   43            1S( 0.76)
      H   44            1S( 0.76)2S( 0.01)
      H   45            1S( 0.77)2S( 0.01)
      H   46            1S( 0.77)2S( 0.01)
      H   47            1S( 0.76)
      H   48            1S( 0.77)
      H   49            1S( 0.77)
      H   50            1S( 0.77)
      H   51            1S( 0.76)
      H   52            1S( 0.76)
      H   53            1S( 0.76)


 NBO analysis skipped by request.
 1\1\GINC-DELLA-R4C2N12\SP\RB3LYP TD-FC\6-31G(d)\C15H33N4P1\BJS4\24-Aug
 -2020\0\\# TD(NStates=10, Root=1) B3LYP/6-31G* scf=qc volume pop=NPA d
 ensity=current Geom=AllCheck Guess=Read\\Title Card Required\\0,1\N,0,
 -1.432427,0.0205204316,1.1397918811\C,0,-1.4666623332,-1.0770044194,0.
 1691076325\C,0,-0.3063631124,-1.182343239,-0.8168626783\N,0,1.01140705
 37,-1.3204014478,-0.2311571062\C,0,2.0629479804,-0.4444167863,-0.68375
 61939\C,0,2.1442485753,0.8927862476,0.0909501212\N,0,0.8118909425,1.42
 2070388,0.3865503714\P,0,-0.0802674627,0.8811442469,1.8082097319\N,0,0
 .9629637171,-0.2294122553,2.6580969048\C,0,1.7369379442,-1.3882506169,
 2.1858120811\C,0,1.2225556637,-2.1288801063,0.9423744804\C,0,1.4953109
 045,0.2540759904,3.9677659384\C,0,2.6954282343,1.2089989706,3.82937237
 48\C,0,0.4363758295,0.8558275652,4.9012954716\C,0,0.6267020393,2.84578
 57439,0.0075994767\C,0,-0.845742752,3.2180874549,-0.2016373587\C,0,1.3
 159109102,3.8399068386,0.9611650981\C,0,-2.6824690491,0.0144160142,1.9
 530676414\C,0,-2.6853354452,-1.0424884371,3.0740189752\C,0,-3.09031312
 81,1.3886888084,2.5002245814\H,0,-2.3762118233,-0.9606119836,-0.440632
 8743\H,0,-1.5866736982,-2.0467816448,0.6815323047\H,0,-0.2977745412,-0
 .2887254695,-1.4445809569\H,0,-0.5519753485,-2.0379229397,-1.477021181
 3\H,0,1.8910382702,-0.2282510015,-1.7453678306\H,0,3.0333674167,-0.962
 8713612,-0.6274133941\H,0,2.6812682423,1.6222212353,-0.5278409812\H,0,
 2.7475250906,0.7723049968,0.9990613197\H,0,1.7616650519,-2.1315104647,
 2.9978823787\H,0,2.7893522861,-1.1109102775,2.0107841121\H,0,0.2860643
 121,-2.6362900049,1.1881353302\H,0,1.9615369559,-2.9295180811,0.747888
 6166\H,0,1.8602836964,-0.6528631758,4.4694429536\H,0,2.3874889449,2.15
 80279561,3.3765847735\H,0,3.4881010593,0.7757877003,3.2097676963\H,0,3
 .1283892792,1.429762801,4.8130371917\H,0,0.0514953421,1.8088061096,4.5
 297449951\H,0,0.8853663596,1.0314131254,5.8865327722\H,0,-0.4075741163
 ,0.1717583019,5.0308491339\H,0,1.1119843937,2.9396640055,-0.974071847\
 H,0,-1.3935485378,3.2449632881,0.7448873557\H,0,-1.3407111437,2.500470
 1832,-0.8625663137\H,0,-0.9125311588,4.2154034386,-0.6528111675\H,0,0.
 85272374,3.8051886419,1.9536140659\H,0,1.2333548443,4.8668733707,0.583
 6879001\H,0,2.3814025622,3.6082756951,1.0729081599\H,0,-3.4699572644,-
 0.2712121571,1.2405775844\H,0,-1.9648253875,-0.784024284,3.8555687021\
 H,0,-2.4269965678,-2.0372995794,2.6958185945\H,0,-3.6787742609,-1.1108
 840671,3.534394257\H,0,-2.4192897516,1.7413826322,3.2872307907\H,0,-4.
 0999803542,1.3176965955,2.9227185414\H,0,-3.106823405,2.1369150225,1.7
 025375913\\Version=ES64L-G16RevA.03\State=1-A\HF=-1151.7868904\RMSD=2.
 938e-13\Dipole=-0.4684666,-0.4279132,-0.7938911\Quadrupole=-0.5484334,
 0.6673912,-0.1189578,-0.0302479,-3.0304786,-1.1705732\PG=C01 [X(C15H33
 N4P1)]\\@


 The number of Unix installations has grown to 10,
  with more expected.
                  -- The Unix Programmer's Manual,
                     2nd Edition, June, 1972.
 Job cpu time:       0 days  1 hours 58 minutes 47.0 seconds.
 Elapsed time:       0 days  0 hours 17 minutes  5.8 seconds.
 File lengths (MBytes):  RWF=   1125 Int=      0 D2E=      0 Chk=    268 Scr=      1
 Normal termination of Gaussian 16 at Mon Aug 24 15:47:02 2020.
