 Entering Gaussian System, Link 0=g16
 Input=base_9_conf11123.com
 Output=base_9_conf11123.log
 Initial command:
 /opt/export//g16/l1.exe "/scratch/bjs4/job.162905/Gau-162910.inp" -scrdir="/scratch/bjs4/job.162905/"
 Entering Link 1 = /opt/export//g16/l1.exe PID=    162920.
  
 Copyright (c) 1988,1990,1992,1993,1995,1998,2003,2009,2016,
            Gaussian, Inc.  All Rights Reserved.
  
 This is part of the Gaussian(R) 16 program.  It is based on
 the Gaussian(R) 09 system (copyright 2009, Gaussian, Inc.),
 the Gaussian(R) 03 system (copyright 2003, Gaussian, Inc.),
 the Gaussian(R) 98 system (copyright 1998, Gaussian, Inc.),
 the Gaussian(R) 94 system (copyright 1995, Gaussian, Inc.),
 the Gaussian 92(TM) system (copyright 1992, Gaussian, Inc.),
 the Gaussian 90(TM) system (copyright 1990, Gaussian, Inc.),
 the Gaussian 88(TM) system (copyright 1988, Gaussian, Inc.),
 the Gaussian 86(TM) system (copyright 1986, Carnegie Mellon
 University), and the Gaussian 82(TM) system (copyright 1983,
 Carnegie Mellon University). Gaussian is a federally registered
 trademark of Gaussian, Inc.
  
 This software contains proprietary and confidential information,
 including trade secrets, belonging to Gaussian, Inc.
  
 This software is provided under written license and may be
 used, copied, transmitted, or stored only in accord with that
 written license.
  
 The following legend is applicable only to US Government
 contracts under FAR:
  
                    RESTRICTED RIGHTS LEGEND
  
 Use, reproduction and disclosure by the US Government is
 subject to restrictions as set forth in subparagraphs (a)
 and (c) of the Commercial Computer Software - Restricted
 Rights clause in FAR 52.227-19.
  
 Gaussian, Inc.
 340 Quinnipiac St., Bldg. 40, Wallingford CT 06492
  
  
 ---------------------------------------------------------------
 Warning -- This program may not be used in any manner that
 competes with the business of Gaussian, Inc. or will provide
 assistance to any competitor of Gaussian, Inc.  The licensee
 of this program is prohibited from giving any competitor of
 Gaussian, Inc. access to this program.  By using this program,
 the user acknowledges that Gaussian, Inc. is engaged in the
 business of creating and licensing software in the field of
 computational chemistry and represents and warrants to the
 licensee that it is not a competitor of Gaussian, Inc. and that
 it will not use this program in any manner prohibited above.
 ---------------------------------------------------------------
  

 Cite this work as:
 Gaussian 16, Revision A.03,
 M. J. Frisch, G. W. Trucks, H. B. Schlegel, G. E. Scuseria, 
 M. A. Robb, J. R. Cheeseman, G. Scalmani, V. Barone, 
 G. A. Petersson, H. Nakatsuji, X. Li, M. Caricato, A. V. Marenich, 
 J. Bloino, B. G. Janesko, R. Gomperts, B. Mennucci, H. P. Hratchian, 
 J. V. Ortiz, A. F. Izmaylov, J. L. Sonnenberg, D. Williams-Young, 
 F. Ding, F. Lipparini, F. Egidi, J. Goings, B. Peng, A. Petrone, 
 T. Henderson, D. Ranasinghe, V. G. Zakrzewski, J. Gao, N. Rega, 
 G. Zheng, W. Liang, M. Hada, M. Ehara, K. Toyota, R. Fukuda, 
 J. Hasegawa, M. Ishida, T. Nakajima, Y. Honda, O. Kitao, H. Nakai, 
 T. Vreven, K. Throssell, J. A. Montgomery, Jr., J. E. Peralta, 
 F. Ogliaro, M. J. Bearpark, J. J. Heyd, E. N. Brothers, K. N. Kudin, 
 V. N. Staroverov, T. A. Keith, R. Kobayashi, J. Normand, 
 K. Raghavachari, A. P. Rendell, J. C. Burant, S. S. Iyengar, 
 J. Tomasi, M. Cossi, J. M. Millam, M. Klene, C. Adamo, R. Cammi, 
 J. W. Ochterski, R. L. Martin, K. Morokuma, O. Farkas, 
 J. B. Foresman, and D. J. Fox, Gaussian, Inc., Wallingford CT, 2016.
 
 ******************************************
 Gaussian 16:  ES64L-G16RevA.03 25-Dec-2016
                24-Aug-2020 
 ******************************************
 %nprocshared=7
 Will use up to    7 processors via shared memory.
 %Mem=14GB
 %Chk=base_9_conf111.chk
 ---------------------------------
 # opt=CalcAll B3LYP/6-31G* scf=qc
 ---------------------------------
 1/10=4,18=20,19=15,26=3,38=1/1,3;
 2/9=110,12=2,17=6,18=5,40=1/2;
 3/5=1,6=6,7=1,11=2,25=1,30=1,71=2,74=-5,140=1/1,2,3;
 4//1;
 5/5=2,8=3,38=5/8;
 8/6=4,10=90,11=11/1;
 11/6=1,8=1,9=11,15=111,16=1/1,2,10;
 10/6=1/2;
 6/7=2,8=2,9=2,10=2,18=1,28=1/1;
 7/10=1,25=1/1,2,3,16;
 1/10=4,18=20,19=15,26=3/3(3);
 2/9=110/2;
 7/8=1,9=1,25=1,44=-1/16;
 99//99;
 2/9=110/2;
 3/5=1,6=6,7=1,11=2,25=1,30=1,71=2,74=-5,140=1/1,2,3;
 4/5=5,16=3,69=1/1;
 5/5=2,8=3,38=5/8;
 8/6=4,10=90,11=11/1;
 11/6=1,8=1,9=11,15=111,16=1/1,2,10;
 10/6=1/2;
 7/10=1,25=1/1,2,3,16;
 1/10=4,18=20,19=15,26=3/3(-8);
 2/9=110/2;
 6/7=2,8=2,9=2,10=2,18=1,19=2,28=1/1;
 7/8=1,9=1,25=1,44=-1/16;
 99//99;
 -------------------
 Title Card Required
 -------------------
 Symbolic Z-matrix:
 Charge =  0 Multiplicity = 1
 P                     1.082    -0.0564    0.0094 
 N1                    1.0483    0.5576    1.4384 
 C                     1.0614   -0.1704    2.7563 
 C                     2.42563  -0.46155   3.39671 
 C                     0.26847   0.63454   3.8243 
 C                     0.22756  -1.47461   2.63046 
 N                     1.1236    1.2666   -1.0195 
 C                     2.32359   1.92846  -1.51967 
 C                     1.81872   3.24089  -2.09974 
 C                     0.45172   2.88594  -2.63546 
 C                    -0.05576   1.83182  -1.66644 
 N                    -0.698    -0.0564    0.0094 
 C                    -1.3698   -1.11767  -0.7729 
 C                    -2.7694   -1.30725  -0.21355 
 C                    -2.6177   -0.90345   1.22486 
 C                    -1.559     0.18234   1.16245 
 N                     2.862    -0.0564    0.0094 
 C                     3.6924   -0.7612    0.97797 
 C                     5.0651   -0.8789    0.32487 
 C                     4.7644   -0.8697   -1.15831 
 C                     3.5367    0.0115   -1.27775 
 H                     2.84044   0.42961   3.87233 
 H                     3.18982  -0.82348   2.7147 
 H                     2.32847  -1.20405   4.2004 
 H                     0.78261   1.55069   4.12236 
 H                     0.15026   0.04593   4.74523 
 H                    -0.73609   0.89923   3.47639 
 H                     0.71779  -2.25751   2.06198 
 H                    -0.74822  -1.28335   2.16528 
 H                     0.03443  -1.9236    3.61287 
 H                     2.80894   1.32853  -2.29443 
 H                     3.05788   2.13611  -0.73262 
 H                     2.4758    3.6398   -2.87449 
 H                     1.71985   4.0005   -1.31441 
 H                     0.55125   2.46085  -3.64099 
 H                    -0.21226   3.75332  -2.69503 
 H                    -0.64361   1.09527  -2.2218 
 H                    -0.70993   2.28028  -0.91462 
 H                    -0.8173   -2.05901  -0.68564 
 H                    -1.4533   -0.85489  -1.83069 
 H                    -3.1286   -2.3358   -0.31862 
 H                    -3.4816   -0.64356  -0.71796 
 H                    -2.272    -1.7472    1.83098 
 H                    -3.5571   -0.53478   1.65085 
 H                    -1.0583    0.21468   2.12021 
 H                    -2.0907    1.12159   0.99055 
 H                     3.3475   -1.75524   1.2371 
 H                     3.7732   -0.20815   1.92618 
 H                     5.5891   -1.79161   0.62818 
 H                     5.6907   -0.01945   0.5878 
 H                     4.5443   -1.88603  -1.50537 
 H                     5.6076   -0.49347  -1.74503 
 H                     2.9026   -0.29984  -2.11137 
 H                     3.8322    1.04818  -1.46962 
 

 GradGradGradGradGradGradGradGradGradGradGradGradGradGradGradGradGradGrad
 Berny optimization.
 Initialization pass.
                           ----------------------------
                           !    Initial Parameters    !
                           ! (Angstroms and Degrees)  !
 --------------------------                            --------------------------
 ! Name  Definition              Value          Derivative Info.                !
 --------------------------------------------------------------------------------
 ! R1    R(1,2)                  1.5557         calculate D2E/DX2 analytically  !
 ! R2    R(1,7)                  1.6765         calculate D2E/DX2 analytically  !
 ! R3    R(1,12)                 1.78           calculate D2E/DX2 analytically  !
 ! R4    R(1,17)                 1.78           calculate D2E/DX2 analytically  !
 ! R5    R(2,3)                  1.5057         calculate D2E/DX2 analytically  !
 ! R6    R(3,4)                  1.5349         calculate D2E/DX2 analytically  !
 ! R7    R(3,5)                  1.5548         calculate D2E/DX2 analytically  !
 ! R8    R(3,6)                  1.5531         calculate D2E/DX2 analytically  !
 ! R9    R(4,22)                 1.092          calculate D2E/DX2 analytically  !
 ! R10   R(4,23)                 1.0863         calculate D2E/DX2 analytically  !
 ! R11   R(4,24)                 1.0985         calculate D2E/DX2 analytically  !
 ! R12   R(5,25)                 1.092          calculate D2E/DX2 analytically  !
 ! R13   R(5,26)                 1.0993         calculate D2E/DX2 analytically  !
 ! R14   R(5,27)                 1.0956         calculate D2E/DX2 analytically  !
 ! R15   R(6,28)                 1.0846         calculate D2E/DX2 analytically  !
 ! R16   R(6,29)                 1.0978         calculate D2E/DX2 analytically  !
 ! R17   R(6,30)                 1.0973         calculate D2E/DX2 analytically  !
 ! R18   R(7,8)                  1.4588         calculate D2E/DX2 analytically  !
 ! R19   R(7,11)                 1.4591         calculate D2E/DX2 analytically  !
 ! R20   R(8,9)                  1.5211         calculate D2E/DX2 analytically  !
 ! R21   R(8,31)                 1.0935         calculate D2E/DX2 analytically  !
 ! R22   R(8,32)                 1.0962         calculate D2E/DX2 analytically  !
 ! R23   R(9,10)                 1.5105         calculate D2E/DX2 analytically  !
 ! R24   R(9,33)                 1.0914         calculate D2E/DX2 analytically  !
 ! R25   R(9,34)                 1.0971         calculate D2E/DX2 analytically  !
 ! R26   R(10,11)                1.5191         calculate D2E/DX2 analytically  !
 ! R27   R(10,35)                1.0962         calculate D2E/DX2 analytically  !
 ! R28   R(10,36)                1.094          calculate D2E/DX2 analytically  !
 ! R29   R(11,37)                1.0938         calculate D2E/DX2 analytically  !
 ! R30   R(11,38)                1.0928         calculate D2E/DX2 analytically  !
 ! R31   R(12,13)                1.4797         calculate D2E/DX2 analytically  !
 ! R32   R(12,16)                1.4587         calculate D2E/DX2 analytically  !
 ! R33   R(13,14)                1.5191         calculate D2E/DX2 analytically  !
 ! R34   R(13,39)                1.095          calculate D2E/DX2 analytically  !
 ! R35   R(13,40)                1.0931         calculate D2E/DX2 analytically  !
 ! R36   R(14,15)                1.5017         calculate D2E/DX2 analytically  !
 ! R37   R(14,41)                1.0945         calculate D2E/DX2 analytically  !
 ! R38   R(14,42)                1.0964         calculate D2E/DX2 analytically  !
 ! R39   R(15,16)                1.5178         calculate D2E/DX2 analytically  !
 ! R40   R(15,43)                1.0949         calculate D2E/DX2 analytically  !
 ! R41   R(15,44)                1.0954         calculate D2E/DX2 analytically  !
 ! R42   R(16,45)                1.0812         calculate D2E/DX2 analytically  !
 ! R43   R(16,46)                1.0929         calculate D2E/DX2 analytically  !
 ! R44   R(17,18)                1.4575         calculate D2E/DX2 analytically  !
 ! R45   R(17,21)                1.4548         calculate D2E/DX2 analytically  !
 ! R46   R(18,19)                1.5247         calculate D2E/DX2 analytically  !
 ! R47   R(18,47)                1.0836         calculate D2E/DX2 analytically  !
 ! R48   R(18,48)                1.1007         calculate D2E/DX2 analytically  !
 ! R49   R(19,20)                1.5134         calculate D2E/DX2 analytically  !
 ! R50   R(19,49)                1.0953         calculate D2E/DX2 analytically  !
 ! R51   R(19,50)                1.0951         calculate D2E/DX2 analytically  !
 ! R52   R(20,21)                1.5159         calculate D2E/DX2 analytically  !
 ! R53   R(20,51)                1.0963         calculate D2E/DX2 analytically  !
 ! R54   R(20,52)                1.094          calculate D2E/DX2 analytically  !
 ! R55   R(21,53)                1.0927         calculate D2E/DX2 analytically  !
 ! R56   R(21,54)                1.0949         calculate D2E/DX2 analytically  !
 ! A1    A(2,1,7)              104.6442         calculate D2E/DX2 analytically  !
 ! A2    A(2,1,12)              88.7587         calculate D2E/DX2 analytically  !
 ! A3    A(2,1,17)              91.2413         calculate D2E/DX2 analytically  !
 ! A4    A(7,1,12)              91.4218         calculate D2E/DX2 analytically  !
 ! A5    A(7,1,17)              88.5782         calculate D2E/DX2 analytically  !
 ! A6    A(1,2,3)              127.8064         calculate D2E/DX2 analytically  !
 ! A7    A(2,3,4)              117.687          calculate D2E/DX2 analytically  !
 ! A8    A(2,3,5)              110.2733         calculate D2E/DX2 analytically  !
 ! A9    A(2,3,6)              109.2951         calculate D2E/DX2 analytically  !
 ! A10   A(4,3,5)              105.3602         calculate D2E/DX2 analytically  !
 ! A11   A(4,3,6)              110.5914         calculate D2E/DX2 analytically  !
 ! A12   A(5,3,6)              102.5096         calculate D2E/DX2 analytically  !
 ! A13   A(3,4,22)             111.3796         calculate D2E/DX2 analytically  !
 ! A14   A(3,4,23)             115.2447         calculate D2E/DX2 analytically  !
 ! A15   A(3,4,24)             110.7846         calculate D2E/DX2 analytically  !
 ! A16   A(22,4,23)            106.1479         calculate D2E/DX2 analytically  !
 ! A17   A(22,4,24)            105.4592         calculate D2E/DX2 analytically  !
 ! A18   A(23,4,24)            107.2385         calculate D2E/DX2 analytically  !
 ! A19   A(3,5,25)             112.4402         calculate D2E/DX2 analytically  !
 ! A20   A(3,5,26)             110.6758         calculate D2E/DX2 analytically  !
 ! A21   A(3,5,27)             111.9985         calculate D2E/DX2 analytically  !
 ! A22   A(25,5,26)            105.7338         calculate D2E/DX2 analytically  !
 ! A23   A(25,5,27)            108.4027         calculate D2E/DX2 analytically  !
 ! A24   A(26,5,27)            107.2649         calculate D2E/DX2 analytically  !
 ! A25   A(3,6,28)             113.9505         calculate D2E/DX2 analytically  !
 ! A26   A(3,6,29)             111.4232         calculate D2E/DX2 analytically  !
 ! A27   A(3,6,30)             111.4425         calculate D2E/DX2 analytically  !
 ! A28   A(28,6,29)            107.7829         calculate D2E/DX2 analytically  !
 ! A29   A(28,6,30)            104.6819         calculate D2E/DX2 analytically  !
 ! A30   A(29,6,30)            107.1113         calculate D2E/DX2 analytically  !
 ! A31   A(1,7,8)              126.0755         calculate D2E/DX2 analytically  !
 ! A32   A(1,7,11)             123.9009         calculate D2E/DX2 analytically  !
 ! A33   A(8,7,11)             109.7006         calculate D2E/DX2 analytically  !
 ! A34   A(7,8,9)              104.4287         calculate D2E/DX2 analytically  !
 ! A35   A(7,8,31)             111.0453         calculate D2E/DX2 analytically  !
 ! A36   A(7,8,32)             113.0017         calculate D2E/DX2 analytically  !
 ! A37   A(9,8,31)             110.5173         calculate D2E/DX2 analytically  !
 ! A38   A(9,8,32)             109.431          calculate D2E/DX2 analytically  !
 ! A39   A(31,8,32)            108.379          calculate D2E/DX2 analytically  !
 ! A40   A(8,9,10)             103.4661         calculate D2E/DX2 analytically  !
 ! A41   A(8,9,33)             112.7206         calculate D2E/DX2 analytically  !
 ! A42   A(8,9,34)             110.7528         calculate D2E/DX2 analytically  !
 ! A43   A(10,9,33)            112.2706         calculate D2E/DX2 analytically  !
 ! A44   A(10,9,34)            109.5743         calculate D2E/DX2 analytically  !
 ! A45   A(33,9,34)            108.0199         calculate D2E/DX2 analytically  !
 ! A46   A(9,10,11)            103.8363         calculate D2E/DX2 analytically  !
 ! A47   A(9,10,35)            109.5283         calculate D2E/DX2 analytically  !
 ! A48   A(9,10,36)            112.4748         calculate D2E/DX2 analytically  !
 ! A49   A(11,10,35)           110.265          calculate D2E/DX2 analytically  !
 ! A50   A(11,10,36)           112.4673         calculate D2E/DX2 analytically  !
 ! A51   A(35,10,36)           108.2171         calculate D2E/DX2 analytically  !
 ! A52   A(7,11,10)            106.3568         calculate D2E/DX2 analytically  !
 ! A53   A(7,11,37)            113.4943         calculate D2E/DX2 analytically  !
 ! A54   A(7,11,38)            109.7416         calculate D2E/DX2 analytically  !
 ! A55   A(10,11,37)           108.8393         calculate D2E/DX2 analytically  !
 ! A56   A(10,11,38)           110.7354         calculate D2E/DX2 analytically  !
 ! A57   A(37,11,38)           107.6925         calculate D2E/DX2 analytically  !
 ! A58   A(1,12,13)            117.0007         calculate D2E/DX2 analytically  !
 ! A59   A(1,12,16)            126.1745         calculate D2E/DX2 analytically  !
 ! A60   A(13,12,16)           105.504          calculate D2E/DX2 analytically  !
 ! A61   A(12,13,14)           108.2477         calculate D2E/DX2 analytically  !
 ! A62   A(12,13,39)           110.2039         calculate D2E/DX2 analytically  !
 ! A63   A(12,13,40)           111.9534         calculate D2E/DX2 analytically  !
 ! A64   A(14,13,39)           109.1626         calculate D2E/DX2 analytically  !
 ! A65   A(14,13,40)           108.4168         calculate D2E/DX2 analytically  !
 ! A66   A(39,13,40)           108.8031         calculate D2E/DX2 analytically  !
 ! A67   A(13,14,15)           103.0654         calculate D2E/DX2 analytically  !
 ! A68   A(13,14,41)           112.5996         calculate D2E/DX2 analytically  !
 ! A69   A(13,14,42)           110.7032         calculate D2E/DX2 analytically  !
 ! A70   A(15,14,41)           112.1969         calculate D2E/DX2 analytically  !
 ! A71   A(15,14,42)           110.091          calculate D2E/DX2 analytically  !
 ! A72   A(41,14,42)           108.1496         calculate D2E/DX2 analytically  !
 ! A73   A(14,15,16)           102.9111         calculate D2E/DX2 analytically  !
 ! A74   A(14,15,43)           110.7894         calculate D2E/DX2 analytically  !
 ! A75   A(14,15,44)           112.1093         calculate D2E/DX2 analytically  !
 ! A76   A(16,15,43)           110.7205         calculate D2E/DX2 analytically  !
 ! A77   A(16,15,44)           111.9267         calculate D2E/DX2 analytically  !
 ! A78   A(43,15,44)           108.352          calculate D2E/DX2 analytically  !
 ! A79   A(12,16,15)           109.0949         calculate D2E/DX2 analytically  !
 ! A80   A(12,16,45)           115.579          calculate D2E/DX2 analytically  !
 ! A81   A(12,16,46)           107.6668         calculate D2E/DX2 analytically  !
 ! A82   A(15,16,45)           107.9381         calculate D2E/DX2 analytically  !
 ! A83   A(15,16,46)           106.3747         calculate D2E/DX2 analytically  !
 ! A84   A(45,16,46)           109.8106         calculate D2E/DX2 analytically  !
 ! A85   A(1,17,18)            124.7311         calculate D2E/DX2 analytically  !
 ! A86   A(1,17,21)            117.63           calculate D2E/DX2 analytically  !
 ! A87   A(18,17,21)           110.2597         calculate D2E/DX2 analytically  !
 ! A88   A(17,18,19)           105.4033         calculate D2E/DX2 analytically  !
 ! A89   A(17,18,47)           114.9076         calculate D2E/DX2 analytically  !
 ! A90   A(17,18,48)           111.7974         calculate D2E/DX2 analytically  !
 ! A91   A(19,18,47)           108.5526         calculate D2E/DX2 analytically  !
 ! A92   A(19,18,48)           109.981          calculate D2E/DX2 analytically  !
 ! A93   A(47,18,48)           106.1578         calculate D2E/DX2 analytically  !
 ! A94   A(18,19,20)           103.9127         calculate D2E/DX2 analytically  !
 ! A95   A(18,19,49)           112.1131         calculate D2E/DX2 analytically  !
 ! A96   A(18,19,50)           110.5427         calculate D2E/DX2 analytically  !
 ! A97   A(20,19,49)           111.8098         calculate D2E/DX2 analytically  !
 ! A98   A(20,19,50)           110.1241         calculate D2E/DX2 analytically  !
 ! A99   A(49,19,50)           108.3134         calculate D2E/DX2 analytically  !
 ! A100  A(19,20,21)           103.985          calculate D2E/DX2 analytically  !
 ! A101  A(19,20,51)           110.1524         calculate D2E/DX2 analytically  !
 ! A102  A(19,20,52)           111.9972         calculate D2E/DX2 analytically  !
 ! A103  A(21,20,51)           110.5707         calculate D2E/DX2 analytically  !
 ! A104  A(21,20,52)           112.4608         calculate D2E/DX2 analytically  !
 ! A105  A(51,20,52)           107.6854         calculate D2E/DX2 analytically  !
 ! A106  A(17,21,20)           106.1854         calculate D2E/DX2 analytically  !
 ! A107  A(17,21,53)           113.1132         calculate D2E/DX2 analytically  !
 ! A108  A(17,21,54)           108.9285         calculate D2E/DX2 analytically  !
 ! A109  A(20,21,53)           111.3745         calculate D2E/DX2 analytically  !
 ! A110  A(20,21,54)           110.2193         calculate D2E/DX2 analytically  !
 ! A111  A(53,21,54)           107.0201         calculate D2E/DX2 analytically  !
 ! A112  L(12,1,17,2,-1)       180.0            calculate D2E/DX2 analytically  !
 ! A113  L(12,1,17,2,-2)       180.0            calculate D2E/DX2 analytically  !
 ! D1    D(7,1,2,3)           -177.26           calculate D2E/DX2 analytically  !
 ! D2    D(12,1,2,3)            91.5945         calculate D2E/DX2 analytically  !
 ! D3    D(17,1,2,3)           -88.4055         calculate D2E/DX2 analytically  !
 ! D4    D(2,1,7,8)             90.3532         calculate D2E/DX2 analytically  !
 ! D5    D(2,1,7,11)           -96.8566         calculate D2E/DX2 analytically  !
 ! D6    D(12,1,7,8)           179.4415         calculate D2E/DX2 analytically  !
 ! D7    D(12,1,7,11)           -7.7683         calculate D2E/DX2 analytically  !
 ! D8    D(17,1,7,8)            -0.5585         calculate D2E/DX2 analytically  !
 ! D9    D(17,1,7,11)          172.2317         calculate D2E/DX2 analytically  !
 ! D10   D(2,1,12,13)         -149.6471         calculate D2E/DX2 analytically  !
 ! D11   D(2,1,12,16)          -11.554          calculate D2E/DX2 analytically  !
 ! D12   D(7,1,12,13)          105.7325         calculate D2E/DX2 analytically  !
 ! D13   D(7,1,12,16)         -116.1744         calculate D2E/DX2 analytically  !
 ! D14   D(13,12,17,18)        -90.353          calculate D2E/DX2 analytically  !
 ! D15   D(13,12,17,21)         56.6244         calculate D2E/DX2 analytically  !
 ! D16   D(16,12,17,18)         47.7401         calculate D2E/DX2 analytically  !
 ! D17   D(16,12,17,21)       -165.2825         calculate D2E/DX2 analytically  !
 ! D18   D(2,1,17,18)           59.2941         calculate D2E/DX2 analytically  !
 ! D19   D(2,1,17,21)         -153.7285         calculate D2E/DX2 analytically  !
 ! D20   D(7,1,17,18)          163.9146         calculate D2E/DX2 analytically  !
 ! D21   D(7,1,17,21)          -49.108          calculate D2E/DX2 analytically  !
 ! D22   D(1,2,3,4)             90.3527         calculate D2E/DX2 analytically  !
 ! D23   D(1,2,3,5)           -148.8025         calculate D2E/DX2 analytically  !
 ! D24   D(1,2,3,6)            -36.8418         calculate D2E/DX2 analytically  !
 ! D25   D(2,3,4,22)            77.4319         calculate D2E/DX2 analytically  !
 ! D26   D(2,3,4,23)           -43.5521         calculate D2E/DX2 analytically  !
 ! D27   D(2,3,4,24)          -165.5181         calculate D2E/DX2 analytically  !
 ! D28   D(5,3,4,22)           -45.9308         calculate D2E/DX2 analytically  !
 ! D29   D(5,3,4,23)          -166.9148         calculate D2E/DX2 analytically  !
 ! D30   D(5,3,4,24)            71.1191         calculate D2E/DX2 analytically  !
 ! D31   D(6,3,4,22)          -156.0005         calculate D2E/DX2 analytically  !
 ! D32   D(6,3,4,23)            83.0155         calculate D2E/DX2 analytically  !
 ! D33   D(6,3,4,24)           -38.9506         calculate D2E/DX2 analytically  !
 ! D34   D(2,3,5,25)           -70.1151         calculate D2E/DX2 analytically  !
 ! D35   D(2,3,5,26)           171.887          calculate D2E/DX2 analytically  !
 ! D36   D(2,3,5,27)            52.244          calculate D2E/DX2 analytically  !
 ! D37   D(4,3,5,25)            57.8472         calculate D2E/DX2 analytically  !
 ! D38   D(4,3,5,26)           -60.1507         calculate D2E/DX2 analytically  !
 ! D39   D(4,3,5,27)          -179.7937         calculate D2E/DX2 analytically  !
 ! D40   D(6,3,5,25)           173.6037         calculate D2E/DX2 analytically  !
 ! D41   D(6,3,5,26)            55.6058         calculate D2E/DX2 analytically  !
 ! D42   D(6,3,5,27)           -64.0372         calculate D2E/DX2 analytically  !
 ! D43   D(2,3,6,28)            73.8471         calculate D2E/DX2 analytically  !
 ! D44   D(2,3,6,29)           -48.3798         calculate D2E/DX2 analytically  !
 ! D45   D(2,3,6,30)          -167.962          calculate D2E/DX2 analytically  !
 ! D46   D(4,3,6,28)           -57.2568         calculate D2E/DX2 analytically  !
 ! D47   D(4,3,6,29)          -179.4837         calculate D2E/DX2 analytically  !
 ! D48   D(4,3,6,30)            60.9342         calculate D2E/DX2 analytically  !
 ! D49   D(5,3,6,28)          -169.1701         calculate D2E/DX2 analytically  !
 ! D50   D(5,3,6,29)            68.603          calculate D2E/DX2 analytically  !
 ! D51   D(5,3,6,30)           -50.9791         calculate D2E/DX2 analytically  !
 ! D52   D(1,7,8,9)           -166.1338         calculate D2E/DX2 analytically  !
 ! D53   D(1,7,8,31)            74.7378         calculate D2E/DX2 analytically  !
 ! D54   D(1,7,8,32)           -47.2917         calculate D2E/DX2 analytically  !
 ! D55   D(11,7,8,9)            20.2186         calculate D2E/DX2 analytically  !
 ! D56   D(11,7,8,31)          -98.9098         calculate D2E/DX2 analytically  !
 ! D57   D(11,7,8,32)          139.0607         calculate D2E/DX2 analytically  !
 ! D58   D(1,7,11,10)         -172.8866         calculate D2E/DX2 analytically  !
 ! D59   D(1,7,11,37)          -53.2473         calculate D2E/DX2 analytically  !
 ! D60   D(1,7,11,38)           67.2882         calculate D2E/DX2 analytically  !
 ! D61   D(8,7,11,10)            0.9282         calculate D2E/DX2 analytically  !
 ! D62   D(8,7,11,37)          120.5675         calculate D2E/DX2 analytically  !
 ! D63   D(8,7,11,38)         -118.897          calculate D2E/DX2 analytically  !
 ! D64   D(7,8,9,10)           -33.2714         calculate D2E/DX2 analytically  !
 ! D65   D(7,8,9,33)          -154.788          calculate D2E/DX2 analytically  !
 ! D66   D(7,8,9,34)            84.0601         calculate D2E/DX2 analytically  !
 ! D67   D(31,8,9,10)           86.214          calculate D2E/DX2 analytically  !
 ! D68   D(31,8,9,33)          -35.3026         calculate D2E/DX2 analytically  !
 ! D69   D(31,8,9,34)         -156.4546         calculate D2E/DX2 analytically  !
 ! D70   D(32,8,9,10)         -154.5109         calculate D2E/DX2 analytically  !
 ! D71   D(32,8,9,33)           83.9725         calculate D2E/DX2 analytically  !
 ! D72   D(32,8,9,34)          -37.1795         calculate D2E/DX2 analytically  !
 ! D73   D(8,9,10,11)           33.573          calculate D2E/DX2 analytically  !
 ! D74   D(8,9,10,35)          -84.1916         calculate D2E/DX2 analytically  !
 ! D75   D(8,9,10,36)          155.4312         calculate D2E/DX2 analytically  !
 ! D76   D(33,9,10,11)         155.3918         calculate D2E/DX2 analytically  !
 ! D77   D(33,9,10,35)          37.6272         calculate D2E/DX2 analytically  !
 ! D78   D(33,9,10,36)         -82.7501         calculate D2E/DX2 analytically  !
 ! D79   D(34,9,10,11)         -84.5812         calculate D2E/DX2 analytically  !
 ! D80   D(34,9,10,35)         157.6541         calculate D2E/DX2 analytically  !
 ! D81   D(34,9,10,36)          37.2769         calculate D2E/DX2 analytically  !
 ! D82   D(9,10,11,7)          -21.7982         calculate D2E/DX2 analytically  !
 ! D83   D(9,10,11,37)        -144.4227         calculate D2E/DX2 analytically  !
 ! D84   D(9,10,11,38)          97.3794         calculate D2E/DX2 analytically  !
 ! D85   D(35,10,11,7)          95.4544         calculate D2E/DX2 analytically  !
 ! D86   D(35,10,11,37)        -27.1701         calculate D2E/DX2 analytically  !
 ! D87   D(35,10,11,38)       -145.368          calculate D2E/DX2 analytically  !
 ! D88   D(36,10,11,7)        -143.6613         calculate D2E/DX2 analytically  !
 ! D89   D(36,10,11,37)         93.7142         calculate D2E/DX2 analytically  !
 ! D90   D(36,10,11,38)        -24.4837         calculate D2E/DX2 analytically  !
 ! D91   D(1,12,13,14)         157.0423         calculate D2E/DX2 analytically  !
 ! D92   D(1,12,13,39)          37.7264         calculate D2E/DX2 analytically  !
 ! D93   D(1,12,13,40)         -83.5144         calculate D2E/DX2 analytically  !
 ! D94   D(16,12,13,14)         11.0651         calculate D2E/DX2 analytically  !
 ! D95   D(16,12,13,39)       -108.2509         calculate D2E/DX2 analytically  !
 ! D96   D(16,12,13,40)        130.5084         calculate D2E/DX2 analytically  !
 ! D97   D(1,12,16,15)        -131.3984         calculate D2E/DX2 analytically  !
 ! D98   D(1,12,16,45)          -9.5926         calculate D2E/DX2 analytically  !
 ! D99   D(1,12,16,46)         113.5547         calculate D2E/DX2 analytically  !
 ! D100  D(13,12,16,15)         10.461          calculate D2E/DX2 analytically  !
 ! D101  D(13,12,16,45)        132.2669         calculate D2E/DX2 analytically  !
 ! D102  D(13,12,16,46)       -104.5858         calculate D2E/DX2 analytically  !
 ! D103  D(12,13,14,15)        -28.1235         calculate D2E/DX2 analytically  !
 ! D104  D(12,13,14,41)       -149.2339         calculate D2E/DX2 analytically  !
 ! D105  D(12,13,14,42)         89.5668         calculate D2E/DX2 analytically  !
 ! D106  D(39,13,14,15)         91.847          calculate D2E/DX2 analytically  !
 ! D107  D(39,13,14,41)        -29.2634         calculate D2E/DX2 analytically  !
 ! D108  D(39,13,14,42)       -150.4627         calculate D2E/DX2 analytically  !
 ! D109  D(40,13,14,15)       -149.7705         calculate D2E/DX2 analytically  !
 ! D110  D(40,13,14,41)         89.1191         calculate D2E/DX2 analytically  !
 ! D111  D(40,13,14,42)        -32.0802         calculate D2E/DX2 analytically  !
 ! D112  D(13,14,15,16)         32.8583         calculate D2E/DX2 analytically  !
 ! D113  D(13,14,15,43)        -85.5204         calculate D2E/DX2 analytically  !
 ! D114  D(13,14,15,44)        153.2985         calculate D2E/DX2 analytically  !
 ! D115  D(41,14,15,16)        154.2422         calculate D2E/DX2 analytically  !
 ! D116  D(41,14,15,43)         35.8635         calculate D2E/DX2 analytically  !
 ! D117  D(41,14,15,44)        -85.3176         calculate D2E/DX2 analytically  !
 ! D118  D(42,14,15,16)        -85.2619         calculate D2E/DX2 analytically  !
 ! D119  D(42,14,15,43)        156.3594         calculate D2E/DX2 analytically  !
 ! D120  D(42,14,15,44)         35.1783         calculate D2E/DX2 analytically  !
 ! D121  D(14,15,16,12)        -27.8204         calculate D2E/DX2 analytically  !
 ! D122  D(14,15,16,45)       -154.1413         calculate D2E/DX2 analytically  !
 ! D123  D(14,15,16,46)         88.0571         calculate D2E/DX2 analytically  !
 ! D124  D(43,15,16,12)         90.6065         calculate D2E/DX2 analytically  !
 ! D125  D(43,15,16,45)        -35.7143         calculate D2E/DX2 analytically  !
 ! D126  D(43,15,16,46)       -153.5159         calculate D2E/DX2 analytically  !
 ! D127  D(44,15,16,12)       -148.386          calculate D2E/DX2 analytically  !
 ! D128  D(44,15,16,45)         85.2931         calculate D2E/DX2 analytically  !
 ! D129  D(44,15,16,46)        -32.5084         calculate D2E/DX2 analytically  !
 ! D130  D(1,17,18,19)         160.9637         calculate D2E/DX2 analytically  !
 ! D131  D(1,17,18,47)          41.5044         calculate D2E/DX2 analytically  !
 ! D132  D(1,17,18,48)         -79.5698         calculate D2E/DX2 analytically  !
 ! D133  D(21,17,18,19)         11.9386         calculate D2E/DX2 analytically  !
 ! D134  D(21,17,18,47)       -107.5207         calculate D2E/DX2 analytically  !
 ! D135  D(21,17,18,48)        131.4051         calculate D2E/DX2 analytically  !
 ! D136  D(1,17,21,20)        -143.1212         calculate D2E/DX2 analytically  !
 ! D137  D(1,17,21,53)         -20.6751         calculate D2E/DX2 analytically  !
 ! D138  D(1,17,21,54)          98.1941         calculate D2E/DX2 analytically  !
 ! D139  D(18,17,21,20)          8.3623         calculate D2E/DX2 analytically  !
 ! D140  D(18,17,21,53)        130.8084         calculate D2E/DX2 analytically  !
 ! D141  D(18,17,21,54)       -110.3223         calculate D2E/DX2 analytically  !
 ! D142  D(17,18,19,20)        -27.3401         calculate D2E/DX2 analytically  !
 ! D143  D(17,18,19,49)       -148.257          calculate D2E/DX2 analytically  !
 ! D144  D(17,18,19,50)         90.7818         calculate D2E/DX2 analytically  !
 ! D145  D(47,18,19,20)         96.2508         calculate D2E/DX2 analytically  !
 ! D146  D(47,18,19,49)        -24.6662         calculate D2E/DX2 analytically  !
 ! D147  D(47,18,19,50)       -145.6274         calculate D2E/DX2 analytically  !
 ! D148  D(48,18,19,20)       -148.0041         calculate D2E/DX2 analytically  !
 ! D149  D(48,18,19,49)         91.0789         calculate D2E/DX2 analytically  !
 ! D150  D(48,18,19,50)        -29.8823         calculate D2E/DX2 analytically  !
 ! D151  D(18,19,20,21)         32.0464         calculate D2E/DX2 analytically  !
 ! D152  D(18,19,20,51)        -86.4502         calculate D2E/DX2 analytically  !
 ! D153  D(18,19,20,52)        153.7309         calculate D2E/DX2 analytically  !
 ! D154  D(49,19,20,21)        153.1668         calculate D2E/DX2 analytically  !
 ! D155  D(49,19,20,51)         34.6702         calculate D2E/DX2 analytically  !
 ! D156  D(49,19,20,52)        -85.1487         calculate D2E/DX2 analytically  !
 ! D157  D(50,19,20,21)        -86.3639         calculate D2E/DX2 analytically  !
 ! D158  D(50,19,20,51)        155.1394         calculate D2E/DX2 analytically  !
 ! D159  D(50,19,20,52)         35.3206         calculate D2E/DX2 analytically  !
 ! D160  D(19,20,21,17)        -25.291          calculate D2E/DX2 analytically  !
 ! D161  D(19,20,21,53)       -148.8325         calculate D2E/DX2 analytically  !
 ! D162  D(19,20,21,54)         92.5397         calculate D2E/DX2 analytically  !
 ! D163  D(51,20,21,17)         92.9179         calculate D2E/DX2 analytically  !
 ! D164  D(51,20,21,53)        -30.6236         calculate D2E/DX2 analytically  !
 ! D165  D(51,20,21,54)       -149.2514         calculate D2E/DX2 analytically  !
 ! D166  D(52,20,21,17)       -146.6667         calculate D2E/DX2 analytically  !
 ! D167  D(52,20,21,53)         89.7918         calculate D2E/DX2 analytically  !
 ! D168  D(52,20,21,54)        -28.836          calculate D2E/DX2 analytically  !
 --------------------------------------------------------------------------------
 Trust Radius=3.00D-01 FncErr=1.00D-07 GrdErr=1.00D-06 EigMax=2.50D+02 EigMin=1.00D-04
 Number of steps in this run=    324 maximum allowed number of steps=    324.
 GradGradGradGradGradGradGradGradGradGradGradGradGradGradGradGradGradGrad

 Stoichiometry    C16H33N4P
 Framework group  C1[X(C16H33N4P)]
 Deg. of freedom   156
 Full point group                 C1      NOp   1
 Largest Abelian subgroup         C1      NOp   1
 Largest concise Abelian subgroup C1      NOp   1
                         Standard orientation:                         
 ---------------------------------------------------------------------
 Center     Atomic      Atomic             Coordinates (Angstroms)
 Number     Number       Type             X           Y           Z
 ---------------------------------------------------------------------
      1         15           0        0.065125    0.100195   -0.340028
      2          7           0       -0.417588   -0.724745    0.887422
      3          6           0       -1.078049   -2.077818    0.888097
      4          6           0       -0.171993   -3.313657    0.976311
      5          6           0       -2.057472   -2.198619    2.089525
      6          6           0       -2.030214   -2.184726   -0.334213
      7          7           0        0.775681    1.467259    0.320987
      8          6           0        2.180137    1.613553    0.687464
      9          6           0        2.219659    2.870700    1.542957
     10          6           0        1.141918    3.740519    0.939994
     11          6           0        0.091575    2.746909    0.473922
     12          7           0       -1.527164    0.894633   -0.383426
     13          6           0       -2.023119    1.333527   -1.706681
     14          6           0       -3.536907    1.439211   -1.636182
     15          6           0       -3.898929    0.431217   -0.583577
     16          6           0       -2.713074    0.487580    0.362072
     17          7           0        1.657414   -0.694244   -0.296630
     18          6           0        1.872814   -2.130087   -0.424663
     19          6           0        3.339666   -2.286772   -0.810010
     20          6           0        3.667673   -0.994750   -1.526542
     21          6           0        2.790851    0.035922   -0.843223
     22          1           0        0.183651   -3.474543    1.996154
     23          1           0        0.714040   -3.284309    0.348457
     24          1           0       -0.727594   -4.223937    0.712944
     25          1           0       -1.536799   -2.254661    3.047789
     26          1           0       -2.648654   -3.122626    2.016988
     27          1           0       -2.764374   -1.362543    2.128379
     28          1           0       -1.517684   -2.307646   -1.282174
     29          1           0       -2.678768   -1.302756   -0.415615
     30          1           0       -2.685600   -3.061355   -0.256684
     31          1           0        2.807101    1.734216   -0.200280
     32          1           0        2.562036    0.765453    1.267660
     33          1           0        3.196878    3.356572    1.533344
     34          1           0        1.965613    2.639963    2.584948
     35          1           0        1.550775    4.290236    0.084222
     36          1           0        0.742622    4.466909    1.653917
     37          1           0       -0.356425    3.115450   -0.453425
     38          1           0       -0.707020    2.652432    1.213927
     39          1           0       -1.749219    0.602634   -2.474643
     40          1           0       -1.621600    2.309882   -1.990332
     41          1           0       -4.018551    1.226254   -2.595686
     42          1           0       -3.840928    2.443050   -1.316775
     43          1           0       -3.999022   -0.567821   -1.020278
     44          1           0       -4.837631    0.682204   -0.077906
     45          1           0       -2.643149   -0.466611    0.865738
     46          1           0       -2.934814    1.274106    1.087782
     47          1           0        1.264605   -2.617467   -1.177499
     48          1           0        1.673463   -2.659093    0.519746
     49          1           0        3.507009   -3.160342   -1.449137
     50          1           0        3.962979   -2.390316    0.084373
     51          1           0        3.409974   -1.076143   -2.588986
     52          1           0        4.731465   -0.748245   -1.460531
     53          1           0        2.496851    0.829662   -1.534222
     54          1           0        3.336273    0.511892   -0.021757
 ---------------------------------------------------------------------
 Rotational constants (GHZ):           0.3458914           0.2790655           0.1945728
 Standard basis: 6-31G(d) (6D, 7F)
 There are   385 symmetry adapted cartesian basis functions of A   symmetry.
 There are   385 symmetry adapted basis functions of A   symmetry.
   385 basis functions,   744 primitive gaussians,   385 cartesian basis functions
    86 alpha electrons       86 beta electrons
       nuclear repulsion energy      2209.3233359447 Hartrees.
 NAtoms=   54 NActive=   54 NUniq=   54 SFac= 1.00D+00 NAtFMM=   60 NAOKFM=F Big=F
 Integral buffers will be    131072 words long.
 Raffenetti 2 integral format.
 Two-electron integral symmetry is turned on.
 One-electron integrals computed using PRISM.
 NBasis=   385 RedAO= T EigKep=  2.67D-03  NBF=   385
 NBsUse=   385 1.00D-06 EigRej= -1.00D+00 NBFU=   385
 ExpMin= 9.98D-02 ExpMax= 1.94D+04 ExpMxC= 2.91D+03 IAcc=3 IRadAn=         5 AccDes= 0.00D+00
 Harris functional with IExCor=  402 and IRadAn=       5 diagonalized for initial guess.
 HarFok:  IExCor=  402 AccDes= 0.00D+00 IRadAn=         5 IDoV= 1 UseB2=F ITyADJ=14
 ICtDFT=  3500011 ScaDFX=  1.000000  1.000000  1.000000  1.000000
 FoFCou: FMM=F IPFlag=           0 FMFlag=      100000 FMFlg1=           0
         NFxFlg=           0 DoJE=T BraDBF=F KetDBF=T FulRan=T
         wScrn=  0.000000 ICntrl=       500 IOpCl=  0 I1Cent=   200000004 NGrid=           0
         NMat0=    1 NMatS0=      1 NMatT0=    0 NMatD0=    1 NMtDS0=    0 NMtDT0=    0
 Petite list used in FoFCou.
 Gradient too large for Newton-Raphson -- use scaled steepest descent instead.
     Accept linear search using points  2 and  3.
 Gradient too large for Newton-Raphson -- use scaled steepest descent instead.
     Minimum is close to point  3 DX=  4.71D-02 DF= -5.25D-04 DXR=  8.61D-02 DFR=  7.48D-03 which will be used.
 Gradient too large for Newton-Raphson -- use scaled steepest descent instead.
 Gradient too large for Newton-Raphson -- use scaled steepest descent instead.
     Accept linear search using points  1 and  2.
 Gradient too large for Newton-Raphson -- use scaled steepest descent instead.
     Accept linear search using points  3 and  4.
 Gradient too large for Newton-Raphson -- use scaled steepest descent instead.
     Accept linear search using points  1 and  2.
 Gradient too large for Newton-Raphson -- use scaled steepest descent instead.
 Restarting incremental Fock formation.
     Minimum is close to point  3 DX=  2.83D-02 DF= -1.09D-06 DXR=  3.05D-02 DFR=  9.61D-04 which will be used.
 Gradient too large for Newton-Raphson -- use scaled steepest descent instead.
     Accept linear search using points  1 and  2.
 Gradient too large for Newton-Raphson -- use scaled steepest descent instead.
 Gradient too large for Newton-Raphson -- use scaled steepest descent instead.
 LinEq1:  Iter=  0 NonCon=     1 RMS=1.49D-04 Max=2.06D-02 NDo=     1
 AX will form     1 AO Fock derivatives at one time.
 LinEq1:  Iter=  1 NonCon=     1 RMS=5.38D-05 Max=4.86D-03 NDo=     1
 LinEq1:  Iter=  2 NonCon=     1 RMS=2.53D-05 Max=1.68D-03 NDo=     1
 LinEq1:  Iter=  3 NonCon=     1 RMS=3.73D-05 Max=3.41D-03 NDo=     1
 LinEq1:  Iter=  4 NonCon=     1 RMS=3.98D-05 Max=3.02D-03 NDo=     1
 LinEq1:  Iter=  5 NonCon=     1 RMS=2.31D-05 Max=1.21D-03 NDo=     1
 LinEq1:  Iter=  6 NonCon=     1 RMS=1.60D-05 Max=1.22D-03 NDo=     1
 LinEq1:  Iter=  7 NonCon=     1 RMS=1.16D-05 Max=8.05D-04 NDo=     1
 LinEq1:  Iter=  8 NonCon=     1 RMS=6.29D-06 Max=2.22D-04 NDo=     1
 LinEq1:  Iter=  9 NonCon=     1 RMS=2.87D-06 Max=7.45D-05 NDo=     1
 LinEq1:  Iter= 10 NonCon=     1 RMS=1.58D-06 Max=4.94D-05 NDo=     1
 LinEq1:  Iter= 11 NonCon=     1 RMS=9.10D-07 Max=2.38D-05 NDo=     1
 LinEq1:  Iter= 12 NonCon=     1 RMS=3.62D-07 Max=7.50D-06 NDo=     1
 LinEq1:  Iter= 13 NonCon=     1 RMS=1.50D-07 Max=3.09D-06 NDo=     1
 LinEq1:  Iter= 14 NonCon=     1 RMS=7.73D-08 Max=1.74D-06 NDo=     1
 LinEq1:  Iter= 15 NonCon=     1 RMS=3.31D-08 Max=9.23D-07 NDo=     1
 LinEq1:  Iter= 16 NonCon=     1 RMS=1.51D-08 Max=4.27D-07 NDo=     1
 LinEq1:  Iter= 17 NonCon=     1 RMS=7.76D-09 Max=2.61D-07 NDo=     1
 LinEq1:  Iter= 18 NonCon=     0 RMS=2.99D-09 Max=1.07D-07 NDo=     1
 Linear equations converged to 2.268D-08 2.268D-07 after    18 iterations.
     Accept linear search using points  1 and  2.
     Minimum is close to point  2 DX= -4.31D-02 DF= -3.79D-07 DXR=  4.51D-02 DFR=  2.10D-03 which will be used.
 LinEq1:  Iter=  0 NonCon=     1 RMS=3.26D-05 Max=4.81D-03 NDo=     1
 LinEq1:  Iter=  1 NonCon=     1 RMS=1.67D-05 Max=1.62D-03 NDo=     1
 LinEq1:  Iter=  2 NonCon=     1 RMS=1.04D-05 Max=9.61D-04 NDo=     1
 LinEq1:  Iter=  3 NonCon=     1 RMS=8.95D-06 Max=5.47D-04 NDo=     1
 LinEq1:  Iter=  4 NonCon=     1 RMS=5.88D-06 Max=4.07D-04 NDo=     1
 LinEq1:  Iter=  5 NonCon=     1 RMS=5.19D-06 Max=3.73D-04 NDo=     1
 LinEq1:  Iter=  6 NonCon=     1 RMS=3.43D-06 Max=1.26D-04 NDo=     1
 LinEq1:  Iter=  7 NonCon=     1 RMS=1.59D-06 Max=7.39D-05 NDo=     1
 LinEq1:  Iter=  8 NonCon=     1 RMS=8.82D-07 Max=3.46D-05 NDo=     1
 LinEq1:  Iter=  9 NonCon=     1 RMS=4.90D-07 Max=1.63D-05 NDo=     1
 LinEq1:  Iter= 10 NonCon=     1 RMS=2.62D-07 Max=8.28D-06 NDo=     1
 LinEq1:  Iter= 11 NonCon=     1 RMS=1.58D-07 Max=5.50D-06 NDo=     1
 LinEq1:  Iter= 12 NonCon=     1 RMS=8.30D-08 Max=2.44D-06 NDo=     1
 LinEq1:  Iter= 13 NonCon=     1 RMS=4.75D-08 Max=2.83D-06 NDo=     1
 LinEq1:  Iter= 14 NonCon=     1 RMS=2.08D-08 Max=6.30D-07 NDo=     1
 LinEq1:  Iter= 15 NonCon=     1 RMS=8.30D-09 Max=2.23D-07 NDo=     1
 LinEq1:  Iter= 16 NonCon=     0 RMS=3.97D-09 Max=1.20D-07 NDo=     1
 Linear equations converged to 1.305D-08 1.305D-07 after    16 iterations.
     Minimum is close to point  2 DX=  7.28D-03 DF= -6.93D-11 DXR=  7.23D-03 DFR=  5.22D-05 which will be used.
 LinEq1:  Iter=  0 NonCon=     1 RMS=1.66D-07 Max=2.62D-05 NDo=     1
 LinEq1:  Iter=  1 NonCon=     1 RMS=1.80D-07 Max=2.07D-05 NDo=     1
 LinEq1:  Iter=  2 NonCon=     1 RMS=4.91D-08 Max=3.12D-06 NDo=     1
 LinEq1:  Iter=  3 NonCon=     1 RMS=5.84D-08 Max=4.52D-06 NDo=     1
 LinEq1:  Iter=  4 NonCon=     1 RMS=4.73D-08 Max=3.43D-06 NDo=     1
 LinEq1:  Iter=  5 NonCon=     1 RMS=2.73D-08 Max=1.53D-06 NDo=     1
 LinEq1:  Iter=  6 NonCon=     1 RMS=1.91D-08 Max=1.01D-06 NDo=     1
 LinEq1:  Iter=  7 NonCon=     1 RMS=1.15D-08 Max=4.57D-07 NDo=     1
 LinEq1:  Iter=  8 NonCon=     1 RMS=7.99D-09 Max=3.14D-07 NDo=     1
 LinEq1:  Iter=  9 NonCon=     1 RMS=5.44D-09 Max=2.54D-07 NDo=     1
 LinEq1:  Iter= 10 NonCon=     1 RMS=2.44D-09 Max=5.37D-08 NDo=     1
 LinEq1:  Iter= 11 NonCon=     1 RMS=1.51D-09 Max=3.43D-08 NDo=     1
 LinEq1:  Iter= 12 NonCon=     1 RMS=7.27D-10 Max=3.42D-08 NDo=     1
 LinEq1:  Iter= 13 NonCon=     1 RMS=3.47D-10 Max=1.54D-08 NDo=     1
 LinEq1:  Iter= 14 NonCon=     1 RMS=1.77D-10 Max=3.74D-09 NDo=     1
 LinEq1:  Iter= 15 NonCon=     1 RMS=6.46D-11 Max=2.74D-09 NDo=     1
 LinEq1:  Iter= 16 NonCon=     1 RMS=2.97D-11 Max=7.52D-10 NDo=     1
 LinEq1:  Iter= 17 NonCon=     1 RMS=1.41D-11 Max=3.97D-10 NDo=     1
 LinEq1:  Iter= 18 NonCon=     0 RMS=5.12D-12 Max=1.50D-10 NDo=     1
 Linear equations converged to 3.614D-11 3.614D-10 after    18 iterations.
 SCF Done:  E(RB3LYP) =  -1189.58416699     a.u. after   14 cycles
            Convg  =    0.4368D-09                    86 Fock formations.
              S**2 =  0.0000                  -V/T =  2.0064
 DoSCS=F DFT=T ScalE2(SS,OS)=  1.000000  1.000000
 Range of M.O.s used for correlation:     1   385
 NBasis=   385 NAE=    86 NBE=    86 NFC=     0 NFV=     0
 NROrb=    385 NOA=    86 NOB=    86 NVA=   299 NVB=   299

 **** Warning!!: The smallest alpha delta epsilon is  0.63438057D-01

 Symmetrizing basis deriv contribution to polar:
 IMax=3 JMax=2 DiffMx= 0.00D+00
 G2DrvN: will do    55 centers at a time, making    1 passes.
 Calling FoFCou, ICntrl=  3107 FMM=F I1Cent=   0 AccDes= 0.00D+00.
 End of G2Drv F.D. properties file   721 does not exist.
 End of G2Drv F.D. properties file   722 does not exist.
 End of G2Drv F.D. properties file   788 does not exist.
          IDoAtm=11111111111111111111111111111111111111111111111111
          IDoAtm=1111
          Differentiating once with respect to electric field.
                with respect to dipole field.
          Differentiating once with respect to nuclear coordinates.
 CalDSu exits because no D1Ps are significant.
          There are   165 degrees of freedom in the 1st order CPHF.  IDoFFX=6 NUNeed=     3.
    162 vectors produced by pass  0 Test12= 2.57D-14 1.00D-09 XBig12= 3.73D+02 1.14D+01.
 AX will form   162 AO Fock derivatives at one time.
    162 vectors produced by pass  1 Test12= 2.57D-14 1.00D-09 XBig12= 7.55D+01 1.15D+00.
    162 vectors produced by pass  2 Test12= 2.57D-14 1.00D-09 XBig12= 5.96D-01 1.07D-01.
    162 vectors produced by pass  3 Test12= 2.57D-14 1.00D-09 XBig12= 1.68D-03 5.24D-03.
    162 vectors produced by pass  4 Test12= 2.57D-14 1.00D-09 XBig12= 1.94D-06 1.06D-04.
     80 vectors produced by pass  5 Test12= 2.57D-14 1.00D-09 XBig12= 1.36D-09 3.05D-06.
      6 vectors produced by pass  6 Test12= 2.57D-14 1.00D-09 XBig12= 8.61D-13 8.41D-08.
      3 vectors produced by pass  7 Test12= 2.57D-14 1.00D-09 XBig12= 6.75D-16 3.03D-09.
      1 vectors produced by pass  8 Test12= 2.57D-14 1.00D-09 XBig12= 1.66D-16 1.28D-09.
 InvSVY:  IOpt=1 It=  1 EMax= 1.78D-14
 Solved reduced A of dimension   900 with   165 vectors.
 Isotropic polarizability for W=    0.000000      234.56 Bohr**3.
 End of Minotr F.D. properties file   721 does not exist.
 End of Minotr F.D. properties file   722 does not exist.
 End of Minotr F.D. properties file   788 does not exist.

 **********************************************************************

            Population analysis using the SCF density.

 **********************************************************************

 Orbital symmetries:
       Occupied  (A) (A) (A) (A) (A) (A) (A) (A) (A) (A) (A) (A)
                 (A) (A) (A) (A) (A) (A) (A) (A) (A) (A) (A) (A)
                 (A) (A) (A) (A) (A) (A) (A) (A) (A) (A) (A) (A)
                 (A) (A) (A) (A) (A) (A) (A) (A) (A) (A) (A) (A)
                 (A) (A) (A) (A) (A) (A) (A) (A) (A) (A) (A) (A)
                 (A) (A) (A) (A) (A) (A) (A) (A) (A) (A) (A) (A)
                 (A) (A) (A) (A) (A) (A) (A) (A) (A) (A) (A) (A)
                 (A) (A)
       Virtual   (A) (A) (A) (A) (A) (A) (A) (A) (A) (A) (A) (A)
                 (A) (A) (A) (A) (A) (A) (A) (A) (A) (A) (A) (A)
                 (A) (A) (A) (A) (A) (A) (A) (A) (A) (A) (A) (A)
                 (A) (A) (A) (A) (A) (A) (A) (A) (A) (A) (A) (A)
                 (A) (A) (A) (A) (A) (A) (A) (A) (A) (A) (A) (A)
                 (A) (A) (A) (A) (A) (A) (A) (A) (A) (A) (A) (A)
                 (A) (A) (A) (A) (A) (A) (A) (A) (A) (A) (A) (A)
                 (A) (A) (A) (A) (A) (A) (A) (A) (A) (A) (A) (A)
                 (A) (A) (A) (A) (A) (A) (A) (A) (A) (A) (A) (A)
                 (A) (A) (A) (A) (A) (A) (A) (A) (A) (A) (A) (A)
                 (A) (A) (A) (A) (A) (A) (A) (A) (A) (A) (A) (A)
                 (A) (A) (A) (A) (A) (A) (A) (A) (A) (A) (A) (A)
                 (A) (A) (A) (A) (A) (A) (A) (A) (A) (A) (A) (A)
                 (A) (A) (A) (A) (A) (A) (A) (A) (A) (A) (A) (A)
                 (A) (A) (A) (A) (A) (A) (A) (A) (A) (A) (A) (A)
                 (A) (A) (A) (A) (A) (A) (A) (A) (A) (A) (A) (A)
                 (A) (A) (A) (A) (A) (A) (A) (A) (A) (A) (A) (A)
                 (A) (A) (A) (A) (A) (A) (A) (A) (A) (A) (A) (A)
                 (A) (A) (A) (A) (A) (A) (A) (A) (A) (A) (A) (A)
                 (A) (A) (A) (A) (A) (A) (A) (A) (A) (A) (A) (A)
                 (A) (A) (A) (A) (A) (A) (A) (A) (A) (A) (A) (A)
                 (A) (A) (A) (A) (A) (A) (A) (A) (A) (A) (A) (A)
                 (A) (A) (A) (A) (A) (A) (A) (A) (A) (A) (A) (A)
                 (A) (A) (A) (A) (A) (A) (A) (A) (A) (A) (A) (A)
                 (A) (A) (A) (A) (A) (A) (A) (A) (A) (A) (A)
 The electronic state is 1-A.
 Alpha  occ. eigenvalues --  -77.14267 -14.32627 -14.32186 -14.31970 -14.22657
 Alpha  occ. eigenvalues --  -10.20191 -10.19803 -10.19661 -10.19635 -10.19333
 Alpha  occ. eigenvalues --  -10.19051 -10.18180 -10.17812 -10.17458 -10.17333
 Alpha  occ. eigenvalues --  -10.17253 -10.17046 -10.16864 -10.14851 -10.14214
 Alpha  occ. eigenvalues --  -10.13911  -6.59420  -4.75755  -4.75727  -4.75555
 Alpha  occ. eigenvalues --   -0.94909  -0.91312  -0.90115  -0.83387  -0.78971
 Alpha  occ. eigenvalues --   -0.76775  -0.75468  -0.75273  -0.72810  -0.72083
 Alpha  occ. eigenvalues --   -0.71584  -0.67243  -0.65872  -0.63680  -0.60443
 Alpha  occ. eigenvalues --   -0.59087  -0.57911  -0.57382  -0.55972  -0.55558
 Alpha  occ. eigenvalues --   -0.52057  -0.50780  -0.50170  -0.48971  -0.48610
 Alpha  occ. eigenvalues --   -0.47336  -0.46264  -0.44002  -0.43531  -0.43109
 Alpha  occ. eigenvalues --   -0.42455  -0.41959  -0.41111  -0.40563  -0.40051
 Alpha  occ. eigenvalues --   -0.39704  -0.38801  -0.38235  -0.37500  -0.37277
 Alpha  occ. eigenvalues --   -0.36474  -0.35921  -0.34936  -0.34515  -0.34360
 Alpha  occ. eigenvalues --   -0.33606  -0.33232  -0.33028  -0.32743  -0.32621
 Alpha  occ. eigenvalues --   -0.31808  -0.31581  -0.31340  -0.30105  -0.28912
 Alpha  occ. eigenvalues --   -0.27609  -0.25370  -0.21604  -0.20620  -0.18483
 Alpha  occ. eigenvalues --   -0.14781
 Alpha virt. eigenvalues --   -0.08437   0.06242   0.07820   0.08594   0.10327
 Alpha virt. eigenvalues --    0.10777   0.11127   0.12054   0.12224   0.12740
 Alpha virt. eigenvalues --    0.13465   0.13987   0.14410   0.14906   0.15212
 Alpha virt. eigenvalues --    0.15436   0.15916   0.16435   0.17003   0.17129
 Alpha virt. eigenvalues --    0.17432   0.17851   0.18190   0.18589   0.18879
 Alpha virt. eigenvalues --    0.19359   0.19545   0.20394   0.20490   0.20951
 Alpha virt. eigenvalues --    0.21570   0.21810   0.21902   0.22698   0.23006
 Alpha virt. eigenvalues --    0.23272   0.23984   0.24587   0.25162   0.25721
 Alpha virt. eigenvalues --    0.26329   0.26624   0.27452   0.27739   0.28318
 Alpha virt. eigenvalues --    0.29413   0.30004   0.30767   0.31614   0.32656
 Alpha virt. eigenvalues --    0.32783   0.33646   0.34246   0.35326   0.36407
 Alpha virt. eigenvalues --    0.37276   0.40228   0.44828   0.48106   0.48856
 Alpha virt. eigenvalues --    0.52156   0.52915   0.53234   0.53791   0.54217
 Alpha virt. eigenvalues --    0.54550   0.55237   0.55879   0.56453   0.56823
 Alpha virt. eigenvalues --    0.57974   0.59252   0.59472   0.59805   0.61423
 Alpha virt. eigenvalues --    0.62053   0.63033   0.63388   0.63759   0.64106
 Alpha virt. eigenvalues --    0.64826   0.65316   0.66245   0.66721   0.67743
 Alpha virt. eigenvalues --    0.68357   0.69725   0.71121   0.71241   0.72411
 Alpha virt. eigenvalues --    0.74123   0.74792   0.75854   0.76555   0.77080
 Alpha virt. eigenvalues --    0.77469   0.78524   0.79327   0.79630   0.80435
 Alpha virt. eigenvalues --    0.81068   0.82507   0.82824   0.84790   0.85327
 Alpha virt. eigenvalues --    0.85673   0.85998   0.86343   0.86650   0.87279
 Alpha virt. eigenvalues --    0.87447   0.87792   0.88040   0.88583   0.89394
 Alpha virt. eigenvalues --    0.89422   0.90180   0.90997   0.91238   0.91947
 Alpha virt. eigenvalues --    0.92535   0.92960   0.94028   0.94324   0.94773
 Alpha virt. eigenvalues --    0.94920   0.95303   0.95685   0.96276   0.96969
 Alpha virt. eigenvalues --    0.97581   0.97891   0.98265   0.98739   0.99486
 Alpha virt. eigenvalues --    1.00181   1.00344   1.01670   1.02271   1.02871
 Alpha virt. eigenvalues --    1.03332   1.04357   1.04889   1.07086   1.08205
 Alpha virt. eigenvalues --    1.09312   1.09415   1.10862   1.13798   1.14451
 Alpha virt. eigenvalues --    1.18014   1.18617   1.19883   1.21126   1.22310
 Alpha virt. eigenvalues --    1.26265   1.27578   1.29916   1.31621   1.32851
 Alpha virt. eigenvalues --    1.36380   1.37860   1.41345   1.42055   1.44368
 Alpha virt. eigenvalues --    1.44784   1.45185   1.47414   1.49302   1.50436
 Alpha virt. eigenvalues --    1.54065   1.54777   1.55561   1.55662   1.58875
 Alpha virt. eigenvalues --    1.61331   1.62249   1.65243   1.67237   1.69135
 Alpha virt. eigenvalues --    1.71071   1.72220   1.73992   1.75546   1.77500
 Alpha virt. eigenvalues --    1.77994   1.78846   1.80659   1.81221   1.82825
 Alpha virt. eigenvalues --    1.84015   1.84844   1.85463   1.86429   1.86671
 Alpha virt. eigenvalues --    1.87005   1.87594   1.89761   1.90480   1.90995
 Alpha virt. eigenvalues --    1.92007   1.92292   1.93408   1.94792   1.96638
 Alpha virt. eigenvalues --    1.99103   2.00302   2.00721   2.02636   2.03530
 Alpha virt. eigenvalues --    2.03732   2.05423   2.05705   2.06485   2.07097
 Alpha virt. eigenvalues --    2.08661   2.08952   2.09426   2.10029   2.10754
 Alpha virt. eigenvalues --    2.11047   2.11663   2.13369   2.14233   2.14392
 Alpha virt. eigenvalues --    2.16311   2.18385   2.19412   2.22099   2.23298
 Alpha virt. eigenvalues --    2.24730   2.25463   2.26241   2.26883   2.27421
 Alpha virt. eigenvalues --    2.29370   2.30530   2.31031   2.31248   2.32735
 Alpha virt. eigenvalues --    2.33266   2.33467   2.34998   2.37252   2.39798
 Alpha virt. eigenvalues --    2.40070   2.41656   2.44045   2.46326   2.47466
 Alpha virt. eigenvalues --    2.48574   2.48868   2.50778   2.51367   2.54256
 Alpha virt. eigenvalues --    2.56393   2.57754   2.58777   2.59523   2.61019
 Alpha virt. eigenvalues --    2.61412   2.61827   2.66917   2.67422   2.69934
 Alpha virt. eigenvalues --    2.72200   2.73037   2.73423   2.74484   2.77221
 Alpha virt. eigenvalues --    2.78189   2.79851   2.82223   2.86333   2.91495
 Alpha virt. eigenvalues --    2.91971   2.96949   2.99211   3.66676   3.99613
 Alpha virt. eigenvalues --    4.07555   4.16223   4.18049   4.22433   4.24936
 Alpha virt. eigenvalues --    4.25580   4.30780   4.31774   4.32330   4.34412
 Alpha virt. eigenvalues --    4.36315   4.42861   4.52000   4.56624   4.56996
 Alpha virt. eigenvalues --    4.59415   4.62768   4.65013   4.75067
          Condensed to atoms (all electrons):
 Mulliken charges:
               1
     1  P    0.953193
     2  N   -0.558038
     3  C    0.240564
     4  C   -0.457523
     5  C   -0.443229
     6  C   -0.457094
     7  N   -0.469317
     8  C   -0.129283
     9  C   -0.298512
    10  C   -0.303922
    11  C   -0.076051
    12  N   -0.524955
    13  C   -0.123601
    14  C   -0.285876
    15  C   -0.302705
    16  C   -0.101369
    17  N   -0.481824
    18  C   -0.127801
    19  C   -0.304549
    20  C   -0.294173
    21  C   -0.175256
    22  H    0.132674
    23  H    0.129824
    24  H    0.119388
    25  H    0.139126
    26  H    0.127961
    27  H    0.160294
    28  H    0.122735
    29  H    0.124702
    30  H    0.119211
    31  H    0.162909
    32  H    0.176607
    33  H    0.131400
    34  H    0.145072
    35  H    0.132557
    36  H    0.140787
    37  H    0.135327
    38  H    0.152454
    39  H    0.137288
    40  H    0.129170
    41  H    0.139356
    42  H    0.138240
    43  H    0.164075
    44  H    0.137265
    45  H    0.155478
    46  H    0.123250
    47  H    0.156704
    48  H    0.196974
    49  H    0.141591
    50  H    0.144105
    51  H    0.130056
    52  H    0.133214
    53  H    0.165043
    54  H    0.176482
 Sum of Mulliken charges =   0.00000
 Mulliken charges with hydrogens summed into heavy atoms:
               1
     1  P    0.953193
     2  N   -0.558038
     3  C    0.240564
     4  C   -0.075637
     5  C   -0.015848
     6  C   -0.090446
     7  N   -0.469317
     8  C    0.210234
     9  C   -0.022040
    10  C   -0.030578
    11  C    0.211731
    12  N   -0.524955
    13  C    0.142858
    14  C   -0.008280
    15  C   -0.001364
    16  C    0.177359
    17  N   -0.481824
    18  C    0.225878
    19  C   -0.018853
    20  C   -0.030903
    21  C    0.166269
 APT charges:
               1
     1  P    0.799448
     2  N   -0.679120
     3  C    0.500374
     4  C   -0.089480
     5  C    0.047950
     6  C   -0.060101
     7  N   -0.599927
     8  C    0.217641
     9  C    0.100142
    10  C    0.095836
    11  C    0.380488
    12  N   -0.420067
    13  C    0.366043
    14  C    0.096218
    15  C    0.055923
    16  C    0.250323
    17  N   -0.547638
    18  C    0.278077
    19  C    0.102042
    20  C    0.114607
    21  C    0.209092
    22  H   -0.034801
    23  H    0.095888
    24  H   -0.067730
    25  H   -0.031781
    26  H   -0.058468
    27  H   -0.007770
    28  H   -0.037445
    29  H    0.050313
    30  H   -0.057904
    31  H   -0.026279
    32  H   -0.055469
    33  H   -0.052536
    34  H   -0.045574
    35  H   -0.053040
    36  H   -0.041985
    37  H   -0.067079
    38  H   -0.068229
    39  H   -0.046196
    40  H   -0.081217
    41  H   -0.048090
    42  H   -0.044836
    43  H   -0.022268
    44  H   -0.048529
    45  H    0.055408
    46  H   -0.096281
    47  H   -0.061725
    48  H   -0.004784
    49  H   -0.043706
    50  H   -0.045238
    51  H   -0.059509
    52  H   -0.062167
    53  H   -0.054865
    54  H    0.006019
 Sum of APT charges =   0.00000
 APT charges with hydrogens summed into heavy atoms:
               1
     1  P    0.799448
     2  N   -0.679120
     3  C    0.500374
     4  C   -0.096123
     5  C   -0.050069
     6  C   -0.105138
     7  N   -0.599927
     8  C    0.135893
     9  C    0.002033
    10  C    0.000810
    11  C    0.245180
    12  N   -0.420067
    13  C    0.238630
    14  C    0.003292
    15  C   -0.014873
    16  C    0.209450
    17  N   -0.547638
    18  C    0.211568
    19  C    0.013098
    20  C   -0.007069
    21  C    0.160246
 Electronic spatial extent (au):  <R**2>=           6458.1186
 Charge=              0.0000 electrons
 Dipole moment (field-independent basis, Debye):
    X=              1.2792    Y=              1.1481    Z=             -2.0853  Tot=              2.7024
 Quadrupole moment (field-independent basis, Debye-Ang):
   XX=           -130.4532   YY=           -135.5289   ZZ=           -140.4400
   XY=             -1.9697   XZ=              0.8058   YZ=              1.7102
 Traceless Quadrupole moment (field-independent basis, Debye-Ang):
   XX=              5.0209   YY=             -0.0549   ZZ=             -4.9660
   XY=             -1.9697   XZ=              0.8058   YZ=              1.7102
 Octapole moment (field-independent basis, Debye-Ang**2):
  XXX=              8.3109  YYY=             13.2610  ZZZ=             -4.7026  XYY=              9.5515
  XXY=              9.0665  XXZ=              1.5785  XZZ=              1.2457  YZZ=              5.2014
  YYZ=             -0.0867  XYZ=              0.1573
 Hexadecapole moment (field-independent basis, Debye-Ang**3):
 XXXX=          -4271.8485 YYYY=          -3399.9863 ZZZZ=          -1153.9745 XXXY=            -14.4820
 XXXZ=             14.6826 YYYX=            -31.8871 YYYZ=             20.0136 ZZZX=             14.9001
 ZZZY=             11.7166 XXYY=          -1276.3710 XXZZ=           -919.3163 YYZZ=           -750.2099
 XXYZ=             -0.4174 YYXZ=             -6.6167 ZZXY=            -10.4790
 N-N= 2.209323335945D+03 E-N=-7.197892840001D+03  KE= 1.181975160585D+03
  Exact polarizability: 271.651  -1.644 248.067  -5.459  -7.710 183.975
 Approx polarizability: 398.350  -8.536 360.612 -23.193 -33.404 338.092
 Calling FoFJK, ICntrl=    100127 FMM=F ISym2X=0 I1Cent= 0 IOpClX= 0 NMat=1 NMatS=1 NMatT=0.
 ***** Axes restored to original set *****
 -------------------------------------------------------------------
 Center     Atomic                   Forces (Hartrees/Bohr)
 Number     Number              X              Y              Z
 -------------------------------------------------------------------
      1       15           0.004900938    0.047799547    0.013198941
      2        7           0.021912654    0.008820668    0.119449228
      3        6          -0.030997455    0.000289130   -0.015376073
      4        6           0.000742396   -0.007749577    0.022836057
      5        6           0.002225296    0.009375397    0.005906744
      6        6           0.001710588   -0.014374987    0.009235995
      7        7           0.008511283    0.005795764   -0.035816150
      8        6          -0.037935781    0.056726432   -0.011130089
      9        6          -0.000946586    0.012047389    0.003137555
     10        6          -0.002031762    0.004480517   -0.009907049
     11        6          -0.013940734    0.000190159   -0.004806188
     12        7          -0.020665910   -0.046065641   -0.020648567
     13        6           0.001967915   -0.009032333   -0.010488375
     14        6          -0.009747282   -0.004761295   -0.007737072
     15        6          -0.012174097   -0.000419206    0.005044371
     16        6          -0.018446264    0.015886170    0.011169459
     17        7          -0.003598102   -0.028827898   -0.036752089
     18        6           0.030659173    0.012911399   -0.016584215
     19        6           0.009789582   -0.003004497    0.000140478
     20        6           0.007694726   -0.014031645   -0.010356308
     21        6           0.058835076   -0.043443661    0.006561814
     22        1           0.000645833    0.006258997   -0.000340122
     23        1          -0.032577621   -0.010362564    0.043751251
     24        1          -0.005556677    0.000678908    0.001457668
     25        1           0.001370045    0.004360702   -0.004417461
     26        1           0.001124434   -0.001275897   -0.002848464
     27        1           0.004290341    0.003730812    0.006862509
     28        1           0.007865203   -0.004789549   -0.008687888
     29        1           0.026752093   -0.015500839    0.014435290
     30        1           0.000662740    0.000194025    0.002433301
     31        1          -0.027563284    0.036228442   -0.011728597
     32        1          -0.011655049    0.004535601    0.002772736
     33        1           0.003854849    0.001420159   -0.000165935
     34        1           0.001916287   -0.000217932    0.001036158
     35        1          -0.001495854    0.000163808   -0.001550239
     36        1          -0.001906381   -0.000908157   -0.002040727
     37        1          -0.001037802   -0.001816561    0.002782560
     38        1          -0.001959293   -0.000444611    0.003007606
     39        1           0.000160320   -0.002283762   -0.004200327
     40        1           0.007083040    0.001058528   -0.006115567
     41        1          -0.000888249   -0.000166466   -0.003855695
     42        1          -0.000334662   -0.000432219   -0.001216469
     43        1          -0.005793927   -0.001804080   -0.000945131
     44        1           0.000730192   -0.000495819    0.003075903
     45        1          -0.008549286    0.016218672   -0.018136071
     46        1           0.001412610    0.010205235    0.000714058
     47        1          -0.009629144   -0.008039759   -0.002775543
     48        1           0.014797722    0.009263334   -0.042884943
     49        1           0.001805769    0.001897010    0.002566852
     50        1           0.000707471    0.000527893    0.001540383
     51        1           0.000793440   -0.002119374   -0.000690690
     52        1           0.000322147   -0.001041091   -0.003035409
     53        1          -0.000728528   -0.006128251    0.001943944
     54        1           0.034915571   -0.041527027    0.010176594
 -------------------------------------------------------------------
 Cartesian Forces:  Max     0.119449228 RMS     0.018136006
 FormGI is forming the generalized inverse of G from B-inverse, IUseBI=4.

 GradGradGradGradGradGradGradGradGradGradGradGradGradGradGradGradGradGrad
 Berny optimization.
 Internal  Forces:  Max     0.231326650 RMS     0.039214482
 Search for a local minimum.
 Step number   1 out of a maximum of  324
 All quantities printed in internal units (Hartrees-Bohrs-Radians)
 Mixed Optimization -- RFO/linear search
 Second derivative matrix not updated -- analytic derivatives used.
 ITU=  0
     Eigenvalues ---   -0.23001  -0.14247  -0.07695  -0.04077  -0.02407
     Eigenvalues ---   -0.01027  -0.00937  -0.00651  -0.00325  -0.00014
     Eigenvalues ---    0.00043   0.00103   0.00181   0.00321   0.00771
     Eigenvalues ---    0.00820   0.01616   0.01692   0.02154   0.02237
     Eigenvalues ---    0.02359   0.02600   0.03052   0.03294   0.03641
     Eigenvalues ---    0.03729   0.03902   0.04015   0.04114   0.04161
     Eigenvalues ---    0.04197   0.04255   0.04326   0.04384   0.04393
     Eigenvalues ---    0.04515   0.04584   0.04702   0.04796   0.04843
     Eigenvalues ---    0.04914   0.04939   0.05006   0.05073   0.05181
     Eigenvalues ---    0.05196   0.05443   0.05589   0.05628   0.05836
     Eigenvalues ---    0.05893   0.06139   0.06356   0.06463   0.06477
     Eigenvalues ---    0.06522   0.06555   0.06751   0.06841   0.07092
     Eigenvalues ---    0.07152   0.07457   0.07727   0.07785   0.08166
     Eigenvalues ---    0.08347   0.08892   0.09507   0.09583   0.09614
     Eigenvalues ---    0.09819   0.09969   0.10219   0.10347   0.10549
     Eigenvalues ---    0.10777   0.10944   0.11612   0.11702   0.12130
     Eigenvalues ---    0.12644   0.13156   0.13469   0.14065   0.15049
     Eigenvalues ---    0.15630   0.16079   0.16780   0.17167   0.18645
     Eigenvalues ---    0.19247   0.20625   0.21855   0.22180   0.22544
     Eigenvalues ---    0.22669   0.23493   0.24434   0.25080   0.25266
     Eigenvalues ---    0.26031   0.26422   0.26566   0.27598   0.27861
     Eigenvalues ---    0.28348   0.28765   0.29880   0.30290   0.31085
     Eigenvalues ---    0.31211   0.31708   0.31759   0.32393   0.32436
     Eigenvalues ---    0.32583   0.32787   0.32832   0.32942   0.33012
     Eigenvalues ---    0.33036   0.33057   0.33160   0.33176   0.33213
     Eigenvalues ---    0.33465   0.33528   0.33571   0.33574   0.33804
     Eigenvalues ---    0.33848   0.33931   0.34127   0.34143   0.34167
     Eigenvalues ---    0.34259   0.34286   0.34357   0.34795   0.34906
     Eigenvalues ---    0.34997   0.35294   0.35479   0.35983   0.36123
     Eigenvalues ---    0.36300   0.36547   0.36617   0.38594   0.45037
     Eigenvalues ---    0.47663   0.52427   0.78466   1.62217   3.09037
     Eigenvalues ---    5.64152
 RFO step:  Lambda=-2.97663612D-01 EMin=-2.30011433D-01
 Linear search not attempted -- first point.
 Maximum step size (   0.300) exceeded in Quadratic search.
    -- Step size scaled by   0.414
 Iteration  1 RMS(Cart)=  0.20398049 RMS(Int)=  0.00661153
 Iteration  2 RMS(Cart)=  0.02884233 RMS(Int)=  0.00050879
 Iteration  3 RMS(Cart)=  0.00032855 RMS(Int)=  0.00049257
 Iteration  4 RMS(Cart)=  0.00000044 RMS(Int)=  0.00049257
 Variable       Old X    -DE/DX   Delta X   Delta X   Delta X     New X
                                 (Linear)    (Quad)   (Total)
    R1        2.93983   0.17081   0.00000   0.04456   0.04456   2.98439
    R2        3.16815   0.13067   0.00000   0.01218   0.01218   3.18033
    R3        3.36371   0.06525   0.00000  -0.00502  -0.00492   3.35879
    R4        3.36371   0.14637   0.00000  -0.04485  -0.04495   3.31876
    R5        2.84529   0.07977   0.00000  -0.02518  -0.02518   2.82011
    R6        2.90060  -0.00229   0.00000   0.04093   0.04093   2.94153
    R7        2.93808   0.00757   0.00000   0.00073   0.00073   2.93880
    R8        2.93491   0.00768   0.00000   0.01235   0.01235   2.94727
    R9        2.06357   0.00521   0.00000   0.00096   0.00096   2.06453
   R10        2.05287  -0.04693   0.00000   0.00600   0.00600   2.05887
   R11        2.07583   0.00110   0.00000  -0.00096  -0.00096   2.07487
   R12        2.06362   0.00310   0.00000   0.00135   0.00135   2.06497
   R13        2.07745  -0.00182   0.00000  -0.00041  -0.00041   2.07704
   R14        2.07030  -0.00521   0.00000  -0.00245  -0.00245   2.06785
   R15        2.04966   0.01156   0.00000   0.00612   0.00612   2.05578
   R16        2.07450  -0.03260   0.00000   0.00457   0.00457   2.07907
   R17        2.07356   0.00198   0.00000   0.00225   0.00225   2.07580
   R18        2.75680   0.01167   0.00000   0.00966   0.00966   2.76646
   R19        2.75725   0.03355   0.00000   0.00651   0.00651   2.76376
   R20        2.87453   0.00252   0.00000   0.00463   0.00463   2.87916
   R21        2.06641  -0.02380   0.00000  -0.00841  -0.00841   2.05799
   R22        2.07160  -0.00496   0.00000   0.00189   0.00189   2.07348
   R23        2.85447  -0.00780   0.00000   0.01105   0.01105   2.86552
   R24        2.06242   0.00296   0.00000   0.00174   0.00174   2.06416
   R25        2.07313   0.00042   0.00000  -0.00022  -0.00022   2.07291
   R26        2.87071  -0.00078   0.00000   0.00922   0.00922   2.87993
   R27        2.07156   0.00122   0.00000   0.00054   0.00054   2.07210
   R28        2.06730   0.00055   0.00000   0.00022   0.00022   2.06752
   R29        2.06707   0.00037   0.00000  -0.00021  -0.00021   2.06686
   R30        2.06516   0.00306   0.00000   0.00237   0.00237   2.06753
   R31        2.79629   0.01824   0.00000   0.00661   0.00652   2.80280
   R32        2.75657   0.02323   0.00000  -0.00421  -0.00431   2.75226
   R33        2.87070   0.00950   0.00000   0.00433   0.00437   2.87507
   R34        2.06922   0.00171   0.00000   0.00159   0.00159   2.07081
   R35        2.06573   0.00563   0.00000   0.00386   0.00386   2.06959
   R36        2.83779   0.01007   0.00000   0.01560   0.01571   2.85350
   R37        2.06835   0.00082   0.00000   0.00051   0.00051   2.06886
   R38        2.07194   0.00052   0.00000   0.00017   0.00017   2.07210
   R39        2.86820   0.02100   0.00000   0.00485   0.00488   2.87308
   R40        2.06906  -0.00096   0.00000   0.00387   0.00387   2.07293
   R41        2.06997   0.00040   0.00000   0.00001   0.00001   2.06998
   R42        2.04322  -0.01954   0.00000  -0.00753  -0.00753   2.03569
   R43        2.06529   0.00797   0.00000   0.00418   0.00418   2.06947
   R44        2.75436   0.00229   0.00000  -0.02362  -0.02339   2.73096
   R45        2.74927   0.05684   0.00000   0.01068   0.01090   2.76017
   R46        2.88126   0.00179   0.00000   0.01048   0.01038   2.89164
   R47        2.04773   0.00978   0.00000   0.01033   0.01033   2.05806
   R48        2.07998  -0.03120   0.00000  -0.05199  -0.05199   2.02800
   R49        2.85988  -0.02059   0.00000   0.01510   0.01488   2.87476
   R50        2.06976  -0.00001   0.00000  -0.00042  -0.00042   2.06934
   R51        2.06937   0.00119   0.00000   0.00110   0.00110   2.07047
   R52        2.86468   0.00696   0.00000   0.01575   0.01564   2.88033
   R53        2.07166   0.00202   0.00000   0.00030   0.00030   2.07196
   R54        2.06731   0.00152   0.00000   0.00059   0.00059   2.06790
   R55        2.06486   0.00069   0.00000  -0.00023  -0.00023   2.06462
   R56        2.06909  -0.03168   0.00000   0.00337   0.00337   2.07246
    A1        1.82639  -0.02070   0.00000  -0.01925  -0.02119   1.80519
    A2        1.54913   0.03852   0.00000   0.03765   0.03813   1.58726
    A3        1.59246   0.10386   0.00000   0.08916   0.09003   1.68249
    A4        1.59561  -0.21976   0.00000   0.02822   0.02933   1.62495
    A5        1.54598   0.23133   0.00000   0.03753   0.03829   1.58427
    A6        2.23064   0.19250   0.00000   0.13667   0.13667   2.36731
    A7        2.05402   0.06506   0.00000   0.02821   0.02790   2.08193
    A8        1.92463  -0.03770   0.00000  -0.01099  -0.01076   1.91387
    A9        1.90756   0.00940   0.00000  -0.00704  -0.00729   1.90027
   A10        1.83888  -0.03316   0.00000  -0.03542  -0.03530   1.80358
   A11        1.93018  -0.05498   0.00000   0.00904   0.00899   1.93918
   A12        1.78913   0.04770   0.00000   0.01329   0.01338   1.80251
   A13        1.94394  -0.00306   0.00000  -0.02459  -0.02457   1.91937
   A14        2.01140   0.02059   0.00000   0.08059   0.08062   2.09202
   A15        1.93356  -0.01412   0.00000  -0.01357  -0.01391   1.91964
   A16        1.85263   0.00072   0.00000  -0.02728  -0.02697   1.82566
   A17        1.84061   0.00476   0.00000   0.00320   0.00283   1.84344
   A18        1.87167  -0.00971   0.00000  -0.02482  -0.02507   1.84659
   A19        1.96245  -0.00585   0.00000  -0.00475  -0.00475   1.95770
   A20        1.93166  -0.00415   0.00000   0.00029   0.00030   1.93195
   A21        1.95474   0.01101   0.00000  -0.00010  -0.00011   1.95464
   A22        1.84540   0.00469   0.00000   0.00417   0.00417   1.84958
   A23        1.89198  -0.00412   0.00000  -0.00029  -0.00030   1.89168
   A24        1.87213  -0.00183   0.00000   0.00115   0.00115   1.87328
   A25        1.98881  -0.00934   0.00000  -0.01063  -0.01062   1.97819
   A26        1.94470   0.01616   0.00000   0.00642   0.00641   1.95111
   A27        1.94504  -0.00327   0.00000   0.00435   0.00435   1.94938
   A28        1.88117  -0.00395   0.00000  -0.00084  -0.00083   1.88034
   A29        1.82704   0.00432   0.00000   0.00396   0.00397   1.83101
   A30        1.86944  -0.00461   0.00000  -0.00327  -0.00329   1.86615
   A31        2.20043   0.21806   0.00000  -0.00947  -0.00947   2.19096
   A32        2.16248  -0.15982   0.00000   0.00499   0.00499   2.16747
   A33        1.91464  -0.05617   0.00000   0.00471   0.00470   1.91934
   A34        1.82262   0.03497   0.00000  -0.00337  -0.00337   1.81926
   A35        1.93811   0.00636   0.00000   0.00918   0.00918   1.94728
   A36        1.97225  -0.01737   0.00000  -0.00414  -0.00412   1.96813
   A37        1.92889  -0.03365   0.00000  -0.00345  -0.00345   1.92545
   A38        1.90993  -0.01111   0.00000   0.00872   0.00872   1.91865
   A39        1.89157   0.01896   0.00000  -0.00666  -0.00665   1.88492
   A40        1.80582  -0.00575   0.00000   0.00039   0.00038   1.80621
   A41        1.96735   0.00295   0.00000  -0.00211  -0.00211   1.96524
   A42        1.93300  -0.00152   0.00000  -0.00036  -0.00036   1.93265
   A43        1.95949  -0.00138   0.00000   0.00222   0.00223   1.96172
   A44        1.91243   0.00746   0.00000   0.00024   0.00024   1.91267
   A45        1.88530  -0.00157   0.00000  -0.00031  -0.00032   1.88499
   A46        1.81228  -0.01160   0.00000   0.00059   0.00059   1.81287
   A47        1.91163   0.00862   0.00000   0.00075   0.00075   1.91238
   A48        1.96305   0.00016   0.00000   0.00059   0.00059   1.96365
   A49        1.92449   0.00103   0.00000   0.00071   0.00071   1.92520
   A50        1.96292   0.00513   0.00000  -0.00175  -0.00175   1.96118
   A51        1.88874  -0.00313   0.00000  -0.00077  -0.00077   1.88797
   A52        1.85628   0.03530   0.00000  -0.00430  -0.00430   1.85198
   A53        1.98085  -0.01663   0.00000  -0.00121  -0.00121   1.97964
   A54        1.91535  -0.00640   0.00000   0.00073   0.00073   1.91608
   A55        1.89960  -0.00205   0.00000   0.00542   0.00542   1.90502
   A56        1.93270  -0.01460   0.00000   0.00124   0.00124   1.93393
   A57        1.87959   0.00379   0.00000  -0.00172  -0.00173   1.87786
   A58        2.04205  -0.03669   0.00000  -0.00310  -0.00290   2.03914
   A59        2.20216   0.05867   0.00000  -0.01118  -0.01141   2.19075
   A60        1.84139  -0.00520   0.00000   0.01568   0.01595   1.85734
[...]
   188    C   13  S      Ryd( 4S)     0.00004
   189    C   13  px     Val( 2p)     0.92265
   190    C   13  px     Ryd( 3p)     0.00396
   191    C   13  py     Val( 2p)     1.16343
   192    C   13  py     Ryd( 3p)     0.00283
   193    C   13  pz     Val( 2p)     1.12860
   194    C   13  pz     Ryd( 3p)     0.00287
   195    C   13  dxy    Ryd( 3d)     0.00125
   196    C   13  dxz    Ryd( 3d)     0.00096
   197    C   13  dyz    Ryd( 3d)     0.00110
   198    C   13  dx2y2  Ryd( 3d)     0.00091
   199    C   13  dz2    Ryd( 3d)     0.00078
 
   200    C   14  S      Cor( 1S)     1.99934
   201    C   14  S      Val( 2S)     1.04514
   202    C   14  S      Ryd( 3S)     0.00061
   203    C   14  S      Ryd( 4S)     0.00002
   204    C   14  px     Val( 2p)     1.21496
   205    C   14  px     Ryd( 3p)     0.00437
   206    C   14  py     Val( 2p)     1.17679
   207    C   14  py     Ryd( 3p)     0.00177
   208    C   14  pz     Val( 2p)     1.02010
   209    C   14  pz     Ryd( 3p)     0.00189
   210    C   14  dxy    Ryd( 3d)     0.00057
   211    C   14  dxz    Ryd( 3d)     0.00053
   212    C   14  dyz    Ryd( 3d)     0.00056
   213    C   14  dx2y2  Ryd( 3d)     0.00105
   214    C   14  dz2    Ryd( 3d)     0.00077
 
   215    C   15  S      Cor( 1S)     1.99933
   216    C   15  S      Val( 2S)     1.04588
   217    C   15  S      Ryd( 3S)     0.00054
   218    C   15  S      Ryd( 4S)     0.00002
   219    C   15  px     Val( 2p)     1.06918
   220    C   15  px     Ryd( 3p)     0.00172
   221    C   15  py     Val( 2p)     1.19710
   222    C   15  py     Ryd( 3p)     0.00283
   223    C   15  pz     Val( 2p)     1.14898
   224    C   15  pz     Ryd( 3p)     0.00291
   225    C   15  dxy    Ryd( 3d)     0.00081
   226    C   15  dxz    Ryd( 3d)     0.00034
   227    C   15  dyz    Ryd( 3d)     0.00078
   228    C   15  dx2y2  Ryd( 3d)     0.00065
   229    C   15  dz2    Ryd( 3d)     0.00091
 
   230    C   16  S      Cor( 1S)     1.99935
   231    C   16  S      Val( 2S)     1.02690
   232    C   16  S      Ryd( 3S)     0.00181
   233    C   16  S      Ryd( 4S)     0.00003
   234    C   16  px     Val( 2p)     1.10222
   235    C   16  px     Ryd( 3p)     0.00232
   236    C   16  py     Val( 2p)     1.24619
   237    C   16  py     Ryd( 3p)     0.00381
   238    C   16  pz     Val( 2p)     0.85934
   239    C   16  pz     Ryd( 3p)     0.00330
   240    C   16  dxy    Ryd( 3d)     0.00098
   241    C   16  dxz    Ryd( 3d)     0.00072
   242    C   16  dyz    Ryd( 3d)     0.00129
   243    C   16  dx2y2  Ryd( 3d)     0.00063
   244    C   16  dz2    Ryd( 3d)     0.00141
 
   245    N   17  S      Cor( 1S)     1.99943
   246    N   17  S      Val( 2S)     1.32968
   247    N   17  S      Ryd( 3S)     0.00198
   248    N   17  S      Ryd( 4S)     0.00007
   249    N   17  px     Val( 2p)     1.70716
   250    N   17  px     Ryd( 3p)     0.00351
   251    N   17  py     Val( 2p)     1.40280
   252    N   17  py     Ryd( 3p)     0.00263
   253    N   17  pz     Val( 2p)     1.40875
   254    N   17  pz     Ryd( 3p)     0.00197
   255    N   17  dxy    Ryd( 3d)     0.00059
   256    N   17  dxz    Ryd( 3d)     0.00076
   257    N   17  dyz    Ryd( 3d)     0.00058
   258    N   17  dx2y2  Ryd( 3d)     0.00045
   259    N   17  dz2    Ryd( 3d)     0.00038
 
   260    C   18  S      Cor( 1S)     1.99936
   261    C   18  S      Val( 2S)     1.02608
   262    C   18  S      Ryd( 3S)     0.00166
   263    C   18  S      Ryd( 4S)     0.00004
   264    C   18  px     Val( 2p)     1.18062
   265    C   18  px     Ryd( 3p)     0.00312
   266    C   18  py     Val( 2p)     0.90926
   267    C   18  py     Ryd( 3p)     0.00280
   268    C   18  pz     Val( 2p)     1.12692
   269    C   18  pz     Ryd( 3p)     0.00231
   270    C   18  dxy    Ryd( 3d)     0.00120
   271    C   18  dxz    Ryd( 3d)     0.00127
   272    C   18  dyz    Ryd( 3d)     0.00092
   273    C   18  dx2y2  Ryd( 3d)     0.00103
   274    C   18  dz2    Ryd( 3d)     0.00072
 
   275    C   19  S      Cor( 1S)     1.99933
   276    C   19  S      Val( 2S)     1.04548
   277    C   19  S      Ryd( 3S)     0.00061
   278    C   19  S      Ryd( 4S)     0.00002
   279    C   19  px     Val( 2p)     1.16363
   280    C   19  px     Ryd( 3p)     0.00317
   281    C   19  py     Val( 2p)     1.14507
   282    C   19  py     Ryd( 3p)     0.00227
   283    C   19  pz     Val( 2p)     1.10159
   284    C   19  pz     Ryd( 3p)     0.00237
   285    C   19  dxy    Ryd( 3d)     0.00102
   286    C   19  dxz    Ryd( 3d)     0.00097
   287    C   19  dyz    Ryd( 3d)     0.00081
   288    C   19  dx2y2  Ryd( 3d)     0.00034
   289    C   19  dz2    Ryd( 3d)     0.00036
 
   290    C   20  S      Cor( 1S)     1.99933
   291    C   20  S      Val( 2S)     1.04881
   292    C   20  S      Ryd( 3S)     0.00053
   293    C   20  S      Ryd( 4S)     0.00002
   294    C   20  px     Val( 2p)     1.14471
   295    C   20  px     Ryd( 3p)     0.00148
   296    C   20  py     Val( 2p)     1.04795
   297    C   20  py     Ryd( 3p)     0.00182
   298    C   20  pz     Val( 2p)     1.21413
   299    C   20  pz     Ryd( 3p)     0.00401
   300    C   20  dxy    Ryd( 3d)     0.00081
   301    C   20  dxz    Ryd( 3d)     0.00087
   302    C   20  dyz    Ryd( 3d)     0.00053
   303    C   20  dx2y2  Ryd( 3d)     0.00050
   304    C   20  dz2    Ryd( 3d)     0.00080
 
   305    C   21  S      Cor( 1S)     1.99934
   306    C   21  S      Val( 2S)     1.02255
   307    C   21  S      Ryd( 3S)     0.00159
   308    C   21  S      Ryd( 4S)     0.00003
   309    C   21  px     Val( 2p)     1.05813
   310    C   21  px     Ryd( 3p)     0.00361
   311    C   21  py     Val( 2p)     1.18573
   312    C   21  py     Ryd( 3p)     0.00417
   313    C   21  pz     Val( 2p)     0.97034
   314    C   21  pz     Ryd( 3p)     0.00240
   315    C   21  dxy    Ryd( 3d)     0.00076
   316    C   21  dxz    Ryd( 3d)     0.00164
   317    C   21  dyz    Ryd( 3d)     0.00048
   318    C   21  dx2y2  Ryd( 3d)     0.00089
   319    C   21  dz2    Ryd( 3d)     0.00140
 
   320    H   22  S      Val( 1S)     0.79045
   321    H   22  S      Ryd( 2S)     0.01910
 
   322    H   23  S      Val( 1S)     0.77979
   323    H   23  S      Ryd( 2S)     0.01061
 
   324    H   24  S      Val( 1S)     0.77434
   325    H   24  S      Ryd( 2S)     0.00565
 
   326    H   25  S      Val( 1S)     0.78427
   327    H   25  S      Ryd( 2S)     0.02464
 
   328    H   26  S      Val( 1S)     0.76454
   329    H   26  S      Ryd( 2S)     0.00478
 
   330    H   27  S      Val( 1S)     0.77193
   331    H   27  S      Ryd( 2S)     0.00655
 
   332    H   28  S      Val( 1S)     0.77532
   333    H   28  S      Ryd( 2S)     0.00764
 
   334    H   29  S      Val( 1S)     0.77027
   335    H   29  S      Ryd( 2S)     0.00641
 
   336    H   30  S      Val( 1S)     0.76449
   337    H   30  S      Ryd( 2S)     0.00480
 
   338    H   31  S      Val( 1S)     0.77785
   339    H   31  S      Ryd( 2S)     0.01043
 
   340    H   32  S      Val( 1S)     0.77216
   341    H   32  S      Ryd( 2S)     0.01363
 
   342    H   33  S      Val( 1S)     0.76510
   343    H   33  S      Ryd( 2S)     0.00565
 
   344    H   34  S      Val( 1S)     0.78571
   345    H   34  S      Ryd( 2S)     0.03073
 
   346    H   35  S      Val( 1S)     0.76999
   347    H   35  S      Ryd( 2S)     0.00676
 
   348    H   36  S      Val( 1S)     0.76538
   349    H   36  S      Ryd( 2S)     0.00804
 
   350    H   37  S      Val( 1S)     0.78011
   351    H   37  S      Ryd( 2S)     0.01269
 
   352    H   38  S      Val( 1S)     0.78888
   353    H   38  S      Ryd( 2S)     0.02265
 
   354    H   39  S      Val( 1S)     0.78227
   355    H   39  S      Ryd( 2S)     0.01837
 
   356    H   40  S      Val( 1S)     0.76356
   357    H   40  S      Ryd( 2S)     0.01301
 
   358    H   41  S      Val( 1S)     0.75428
   359    H   41  S      Ryd( 2S)     0.00287
 
   360    H   42  S      Val( 1S)     0.76446
   361    H   42  S      Ryd( 2S)     0.00489
 
   362    H   43  S      Val( 1S)     0.76494
   363    H   43  S      Ryd( 2S)     0.00466
 
   364    H   44  S      Val( 1S)     0.75341
   365    H   44  S      Ryd( 2S)     0.00202
 
   366    H   45  S      Val( 1S)     0.75240
   367    H   45  S      Ryd( 2S)     0.00908
 
   368    H   46  S      Val( 1S)     0.76883
   369    H   46  S      Ryd( 2S)     0.00716
 
   370    H   47  S      Val( 1S)     0.79302
   371    H   47  S      Ryd( 2S)     0.01457
 
   372    H   48  S      Val( 1S)     0.78287
   373    H   48  S      Ryd( 2S)     0.01503
 
   374    H   49  S      Val( 1S)     0.75922
   375    H   49  S      Ryd( 2S)     0.00367
 
   376    H   50  S      Val( 1S)     0.76554
   377    H   50  S      Ryd( 2S)     0.00583
 
   378    H   51  S      Val( 1S)     0.77607
   379    H   51  S      Ryd( 2S)     0.01028
 
   380    H   52  S      Val( 1S)     0.76201
   381    H   52  S      Ryd( 2S)     0.00527
 
   382    H   53  S      Val( 1S)     0.77236
   383    H   53  S      Ryd( 2S)     0.00936
 
   384    H   54  S      Val( 1S)     0.78056
   385    H   54  S      Ryd( 2S)     0.00837

 WARNING:  1 low occupancy (<1.9990e) core orbital  found on  P    1


 Summary of Natural Population Analysis:                  
                                                          
                                       Natural Population 
                Natural  -----------------------------------------------
    Atom  No    Charge         Core      Valence    Rydberg      Total
 -----------------------------------------------------------------------
      P    1    2.32361      9.99765     2.53639    0.14236    12.67639
      N    2   -0.81110      1.99938     5.79819    0.01353     7.81110
      C    3    0.11539      1.99912     3.86696    0.01853     5.88461
      C    4   -0.69291      1.99935     4.68279    0.01077     6.69291
      C    5   -0.66744      1.99931     4.65694    0.01119     6.66744
      C    6   -0.66231      1.99932     4.65221    0.01077     6.66231
      N    7   -0.78526      1.99946     5.77281    0.01300     7.78526
      C    8   -0.26488      1.99933     4.24683    0.01872     6.26488
      C    9   -0.47081      1.99933     4.45969    0.01179     6.47081
      C   10   -0.46918      1.99934     4.45742    0.01242     6.46918
      C   11   -0.26422      1.99935     4.24893    0.01594     6.26422
      N   12   -0.78251      1.99942     5.76776    0.01532     7.78251
      C   13   -0.26163      1.99933     4.24583    0.01647     6.26163
      C   14   -0.46847      1.99934     4.45699    0.01215     6.46847
      C   15   -0.47199      1.99933     4.46114    0.01152     6.47199
      C   16   -0.25030      1.99935     4.23464    0.01631     6.25030
      N   17   -0.86072      1.99943     5.84838    0.01291     7.86072
      C   18   -0.25732      1.99936     4.24289    0.01507     6.25732
      C   19   -0.46702      1.99933     4.45576    0.01193     6.46702
      C   20   -0.46628      1.99933     4.45560    0.01136     6.46628
      C   21   -0.25308      1.99934     4.23675    0.01698     6.25308
      H   22    0.19045      0.00000     0.79045    0.01910     0.80955
      H   23    0.20960      0.00000     0.77979    0.01061     0.79040
      H   24    0.22001      0.00000     0.77434    0.00565     0.77999
      H   25    0.19110      0.00000     0.78427    0.02464     0.80890
      H   26    0.23067      0.00000     0.76454    0.00478     0.76933
      H   27    0.22153      0.00000     0.77193    0.00655     0.77847
      H   28    0.21704      0.00000     0.77532    0.00764     0.78296
      H   29    0.22332      0.00000     0.77027    0.00641     0.77668
      H   30    0.23071      0.00000     0.76449    0.00480     0.76929
      H   31    0.21172      0.00000     0.77785    0.01043     0.78828
      H   32    0.21421      0.00000     0.77216    0.01363     0.78579
      H   33    0.22925      0.00000     0.76510    0.00565     0.77075
      H   34    0.18356      0.00000     0.78571    0.03073     0.81644
      H   35    0.22325      0.00000     0.76999    0.00676     0.77675
      H   36    0.22658      0.00000     0.76538    0.00804     0.77342
      H   37    0.20720      0.00000     0.78011    0.01269     0.79280
      H   38    0.18847      0.00000     0.78888    0.02265     0.81153
      H   39    0.19935      0.00000     0.78227    0.01837     0.80065
      H   40    0.22343      0.00000     0.76356    0.01301     0.77657
      H   41    0.24285      0.00000     0.75428    0.00287     0.75715
      H   42    0.23065      0.00000     0.76446    0.00489     0.76935
      H   43    0.23040      0.00000     0.76494    0.00466     0.76960
      H   44    0.24457      0.00000     0.75341    0.00202     0.75543
      H   45    0.23852      0.00000     0.75240    0.00908     0.76148
      H   46    0.22400      0.00000     0.76883    0.00716     0.77600
      H   47    0.19241      0.00000     0.79302    0.01457     0.80759
      H   48    0.20210      0.00000     0.78287    0.01503     0.79790
      H   49    0.23712      0.00000     0.75922    0.00367     0.76288
      H   50    0.22863      0.00000     0.76554    0.00583     0.77137
      H   51    0.21365      0.00000     0.77607    0.01028     0.78635
      H   52    0.23272      0.00000     0.76201    0.00527     0.76728
      H   53    0.21828      0.00000     0.77236    0.00936     0.78172
      H   54    0.21108      0.00000     0.78056    0.00837     0.78892
 =======================================================================
   * Total *   -0.00000     49.98449   121.26130    0.75420   172.00000

                                 Natural Population      
 --------------------------------------------------------
   Core                      49.98449 ( 99.9690% of  50)
   Valence                  121.26130 ( 99.3945% of 122)
   Natural Minimal Basis    171.24580 ( 99.5615% of 172)
   Natural Rydberg Basis      0.75420 (  0.4385% of 172)
 --------------------------------------------------------

    Atom  No          Natural Electron Configuration
 ----------------------------------------------------------------------------
      P    1      [core]3S( 0.80)3p( 1.74)4S( 0.03)3d( 0.09)4p( 0.02)
      N    2      [core]2S( 1.42)2p( 4.37)3p( 0.01)
      C    3      [core]2S( 0.90)2p( 2.97)3p( 0.01)3d( 0.01)
      C    4      [core]2S( 1.11)2p( 3.58)3p( 0.01)
      C    5      [core]2S( 1.11)2p( 3.55)3p( 0.01)
      C    6      [core]2S( 1.11)2p( 3.55)3p( 0.01)
      N    7      [core]2S( 1.36)2p( 4.42)3p( 0.01)
      C    8      [core]2S( 1.03)2p( 3.22)3p( 0.01)3d( 0.01)
      C    9      [core]2S( 1.05)2p( 3.41)3p( 0.01)
      C   10      [core]2S( 1.05)2p( 3.41)3p( 0.01)
      C   11      [core]2S( 1.03)2p( 3.22)3p( 0.01)3d( 0.01)
      N   12      [core]2S( 1.32)2p( 4.45)3p( 0.01)
      C   13      [core]2S( 1.03)2p( 3.21)3p( 0.01)3d( 0.01)
      C   14      [core]2S( 1.05)2p( 3.41)3p( 0.01)
      C   15      [core]2S( 1.05)2p( 3.42)3p( 0.01)
      C   16      [core]2S( 1.03)2p( 3.21)3p( 0.01)3d( 0.01)
      N   17      [core]2S( 1.33)2p( 4.52)3p( 0.01)
      C   18      [core]2S( 1.03)2p( 3.22)3p( 0.01)3d( 0.01)
      C   19      [core]2S( 1.05)2p( 3.41)3p( 0.01)
      C   20      [core]2S( 1.05)2p( 3.41)3p( 0.01)
      C   21      [core]2S( 1.02)2p( 3.21)3p( 0.01)3d( 0.01)
      H   22            1S( 0.79)2S( 0.02)
      H   23            1S( 0.78)2S( 0.01)
      H   24            1S( 0.77)2S( 0.01)
      H   25            1S( 0.78)2S( 0.02)
      H   26            1S( 0.76)
      H   27            1S( 0.77)2S( 0.01)
      H   28            1S( 0.78)2S( 0.01)
      H   29            1S( 0.77)2S( 0.01)
      H   30            1S( 0.76)
      H   31            1S( 0.78)2S( 0.01)
      H   32            1S( 0.77)2S( 0.01)
      H   33            1S( 0.77)2S( 0.01)
      H   34            1S( 0.79)2S( 0.03)
      H   35            1S( 0.77)2S( 0.01)
      H   36            1S( 0.77)2S( 0.01)
      H   37            1S( 0.78)2S( 0.01)
      H   38            1S( 0.79)2S( 0.02)
      H   39            1S( 0.78)2S( 0.02)
      H   40            1S( 0.76)2S( 0.01)
      H   41            1S( 0.75)
      H   42            1S( 0.76)
      H   43            1S( 0.76)
      H   44            1S( 0.75)
      H   45            1S( 0.75)2S( 0.01)
      H   46            1S( 0.77)2S( 0.01)
      H   47            1S( 0.79)2S( 0.01)
      H   48            1S( 0.78)2S( 0.02)
      H   49            1S( 0.76)
      H   50            1S( 0.77)2S( 0.01)
      H   51            1S( 0.78)2S( 0.01)
      H   52            1S( 0.76)2S( 0.01)
      H   53            1S( 0.77)2S( 0.01)
      H   54            1S( 0.78)2S( 0.01)


 NBO analysis skipped by request.
 1\1\GINC-DELLA-R2C4N3\SP\RB3LYP TD-FC\6-31G(d)\C16H33N4P1\BJS4\24-Aug-
 2020\0\\# TD(NStates=10, Root=1) B3LYP/6-31G* scf=qc volume pop=NPA de
 nsity=current Geom=AllCheck Guess=Read\\Title Card Required\\0,1\P,0,0
 .9675925197,0.0919594211,0.388542932\N,0,0.6473696342,0.2137965423,1.8
 98283638\C,0,1.1945648599,0.8537872148,3.0807615316\C,0,2.6391721318,1
 .3765470376,2.9206637046\C,0,0.280445682,2.0368651629,3.4719879125\C,0
 ,1.1695750566,-0.1843400303,4.2251796496\N,0,1.1019140179,1.4152501883
 ,-0.6847139674\C,0,2.3142106459,2.2608438302,-0.769608436\C,0,1.796769
 6029,3.7012523272,-0.6617722938\C,0,0.4257729755,3.6093539359,-1.34573
 32903\C,0,-0.1106153893,2.2507162626,-0.8673437904\N,0,-0.3551580278,-
 0.722142159,-0.2651273767\C,0,-0.4074190838,-1.2118995137,-1.647649410
 6\C,0,-1.8552748529,-1.7013782847,-1.8061672468\C,0,-2.201532078,-2.19
 81527661,-0.3944157388\C,0,-1.5238915377,-1.1648493976,0.5191016378\N,
 0,2.4123057891,-0.7191233804,0.0076994594\C,0,2.7619985625,-1.91326913
 82,0.8116840786\C,0,3.903789455,-2.5753843602,0.0265429617\C,0,3.56377
 04838,-2.2353226424,-1.4310764963\C,0,3.052351034,-0.7919153989,-1.325
 777088\H,0,2.6834451323,2.1809745116,2.1771771833\H,0,3.3153893262,0.5
 772802555,2.5983813957\H,0,3.0186307325,1.7813334466,3.8675292087\H,0,
 0.2866045111,2.8019438635,2.6862278792\H,0,0.6042363472,2.5066822819,4
 .4101463827\H,0,-0.7507376768,1.68908338,3.5941679229\H,0,1.827078841,
 -1.0297196825,3.9921871372\H,0,0.1547114037,-0.5752211652,4.353482088\
 H,0,1.497202901,0.2559983879,5.1756786598\H,0,2.8122178802,2.109102850
 8,-1.7387740373\H,0,3.0370976538,2.0058534315,0.0101652364\H,0,2.46979
 48309,4.4283176869,-1.1282670663\H,0,1.674356215,3.980216624,0.3923842
 977\H,0,0.5502815551,3.6057734836,-2.4358897538\H,0,-0.2474717112,4.43
 35463056,-1.0894229222\H,0,-0.7942717188,1.7947862474,-1.59232638\H,0,
 -0.6585702079,2.363638907,0.0789151007\H,0,0.2979008916,-2.0435652592,
 -1.811802362\H,0,-0.1506481812,-0.4198332855,-2.3620008556\H,0,-1.9563
 415232,-2.4695102653,-2.5798509947\H,0,-2.5054152878,-0.8607667647,-2.
 0790994307\H,0,-1.7636536514,-3.1910313339,-0.2304657246\H,0,-3.278651
 2372,-2.273934068,-0.2135444872\H,0,-1.2163575362,-1.5742130028,1.4833
 44853\H,0,-2.1972183147,-0.3200599247,0.7256295148\H,0,1.9041328302,-2
 .5966600011,0.8993211754\H,0,3.0588339484,-1.6324762604,1.8265142715\H
 ,0,3.9729777639,-3.6503351848,0.2211742863\H,0,4.8641527909,-2.1222444
 817,0.302445901\H,0,2.7649560078,-2.8942436734,-1.794900769\H,0,4.4155
 580065,-2.330988551,-2.1126401652\H,0,2.3541493403,-0.5252985995,-2.12
 35338626\H,0,3.8955766555,-0.0877150118,-1.3815160537\\Version=ES64L-G
 16RevA.03\State=1-A\HF=-1189.9307417\RMSD=2.400e-09\Dipole=-0.5017433,
 -0.829023,-0.675412\Quadrupole=2.4540695,-1.6946286,-0.7594408,1.00638
 59,0.425984,-0.1416052\PG=C01 [X(C16H33N4P1)]\\@


 COLLEGE PROFESSOR: SOMEONE WHO TALKS IN OTHER PEOPLE'S SLEEP.
 Job cpu time:       0 days  2 hours 18 minutes 15.0 seconds.
 Elapsed time:       0 days  0 hours 19 minutes 48.5 seconds.
 File lengths (MBytes):  RWF=   1207 Int=      0 D2E=      0 Chk=    268 Scr=      1
 Normal termination of Gaussian 16 at Mon Aug 24 21:24:56 2020.
