 Entering Gaussian System, Link 0=g16
 Input=base_6_conf1123.com
 Output=base_6_conf1123.log
 Initial command:
 /opt/export//g16/l1.exe "/scratch/bjs4/job.27426/Gau-27428.inp" -scrdir="/scratch/bjs4/job.27426/"
 Entering Link 1 = /opt/export//g16/l1.exe PID=     27429.
  
 Copyright (c) 1988,1990,1992,1993,1995,1998,2003,2009,2016,
            Gaussian, Inc.  All Rights Reserved.
  
 This is part of the Gaussian(R) 16 program.  It is based on
 the Gaussian(R) 09 system (copyright 2009, Gaussian, Inc.),
 the Gaussian(R) 03 system (copyright 2003, Gaussian, Inc.),
 the Gaussian(R) 98 system (copyright 1998, Gaussian, Inc.),
 the Gaussian(R) 94 system (copyright 1995, Gaussian, Inc.),
 the Gaussian 92(TM) system (copyright 1992, Gaussian, Inc.),
 the Gaussian 90(TM) system (copyright 1990, Gaussian, Inc.),
 the Gaussian 88(TM) system (copyright 1988, Gaussian, Inc.),
 the Gaussian 86(TM) system (copyright 1986, Carnegie Mellon
 University), and the Gaussian 82(TM) system (copyright 1983,
 Carnegie Mellon University). Gaussian is a federally registered
 trademark of Gaussian, Inc.
  
 This software contains proprietary and confidential information,
 including trade secrets, belonging to Gaussian, Inc.
  
 This software is provided under written license and may be
 used, copied, transmitted, or stored only in accord with that
 written license.
  
 The following legend is applicable only to US Government
 contracts under FAR:
  
                    RESTRICTED RIGHTS LEGEND
  
 Use, reproduction and disclosure by the US Government is
 subject to restrictions as set forth in subparagraphs (a)
 and (c) of the Commercial Computer Software - Restricted
 Rights clause in FAR 52.227-19.
  
 Gaussian, Inc.
 340 Quinnipiac St., Bldg. 40, Wallingford CT 06492
  
  
 ---------------------------------------------------------------
 Warning -- This program may not be used in any manner that
 competes with the business of Gaussian, Inc. or will provide
 assistance to any competitor of Gaussian, Inc.  The licensee
 of this program is prohibited from giving any competitor of
 Gaussian, Inc. access to this program.  By using this program,
 the user acknowledges that Gaussian, Inc. is engaged in the
 business of creating and licensing software in the field of
 computational chemistry and represents and warrants to the
 licensee that it is not a competitor of Gaussian, Inc. and that
 it will not use this program in any manner prohibited above.
 ---------------------------------------------------------------
  

 Cite this work as:
 Gaussian 16, Revision A.03,
 M. J. Frisch, G. W. Trucks, H. B. Schlegel, G. E. Scuseria, 
 M. A. Robb, J. R. Cheeseman, G. Scalmani, V. Barone, 
 G. A. Petersson, H. Nakatsuji, X. Li, M. Caricato, A. V. Marenich, 
 J. Bloino, B. G. Janesko, R. Gomperts, B. Mennucci, H. P. Hratchian, 
 J. V. Ortiz, A. F. Izmaylov, J. L. Sonnenberg, D. Williams-Young, 
 F. Ding, F. Lipparini, F. Egidi, J. Goings, B. Peng, A. Petrone, 
 T. Henderson, D. Ranasinghe, V. G. Zakrzewski, J. Gao, N. Rega, 
 G. Zheng, W. Liang, M. Hada, M. Ehara, K. Toyota, R. Fukuda, 
 J. Hasegawa, M. Ishida, T. Nakajima, Y. Honda, O. Kitao, H. Nakai, 
 T. Vreven, K. Throssell, J. A. Montgomery, Jr., J. E. Peralta, 
 F. Ogliaro, M. J. Bearpark, J. J. Heyd, E. N. Brothers, K. N. Kudin, 
 V. N. Staroverov, T. A. Keith, R. Kobayashi, J. Normand, 
 K. Raghavachari, A. P. Rendell, J. C. Burant, S. S. Iyengar, 
 J. Tomasi, M. Cossi, J. M. Millam, M. Klene, C. Adamo, R. Cammi, 
 J. W. Ochterski, R. L. Martin, K. Morokuma, O. Farkas, 
 J. B. Foresman, and D. J. Fox, Gaussian, Inc., Wallingford CT, 2016.
 
 ******************************************
 Gaussian 16:  ES64L-G16RevA.03 25-Dec-2016
                24-Aug-2020 
 ******************************************
 %nprocshared=7
 Will use up to    7 processors via shared memory.
 %Mem=14GB
 %Chk=base_6_conf11.chk
 ---------------------------------
 # opt=CalcAll B3LYP/6-31G* scf=qc
 ---------------------------------
 1/10=4,18=20,19=15,26=3,38=1/1,3;
 2/9=110,12=2,17=6,18=5,40=1/2;
 3/5=1,6=6,7=1,11=2,25=1,30=1,71=2,74=-5,140=1/1,2,3;
 4//1;
 5/5=2,8=3,38=5/8;
 8/6=4,10=90,11=11/1;
 11/6=1,8=1,9=11,15=111,16=1/1,2,10;
 10/6=1/2;
 6/7=2,8=2,9=2,10=2,18=1,28=1/1;
 7/10=1,25=1/1,2,3,16;
 1/10=4,18=20,19=15,26=3/3(3);
 2/9=110/2;
 7/8=1,9=1,25=1,44=-1/16;
 99//99;
 2/9=110/2;
 3/5=1,6=6,7=1,11=2,25=1,30=1,71=2,74=-5,140=1/1,2,3;
 4/5=5,16=3,69=1/1;
 5/5=2,8=3,38=5/8;
 8/6=4,10=90,11=11/1;
 11/6=1,8=1,9=11,15=111,16=1/1,2,10;
 10/6=1/2;
 7/10=1,25=1/1,2,3,16;
 1/10=4,18=20,19=15,26=3/3(-8);
 2/9=110/2;
 6/7=2,8=2,9=2,10=2,18=1,19=2,28=1/1;
 7/8=1,9=1,25=1,44=-1/16;
 99//99;
 -------------------
 Title Card Required
 -------------------
 Symbolic Z-matrix:
 Charge =  0 Multiplicity = 1
 N                    -1.3325    0.0965    1.2627 
 C                    -1.3347   -0.677     0.0182 
 C                    -0.0666   -0.9542   -0.8227 
 N1                    1.1923   -1.3331   -0.1966 
 C                     2.2526   -0.3428   -0.3632 
 C                     2.1781    1.0394    0.3401 
 N                     0.8633    1.5949    0.6743 
 P                    -0.0423    0.9382    1.9236 
 N                     0.8413   -0.1292    2.8862 
 C                     1.5867   -1.2768    2.35 
 C                     1.0899   -2.0077    1.0914 
 C                     1.4522    0.2657    4.1847 
 C                     0.48466   0.78175   5.25584 
 C                     2.40675  -0.78974   4.75149 
 C                     0.3903    2.6135   -0.2921 
 C                     0.22582   2.19595  -1.76767 
 C                    -0.95248   3.24283   0.13362 
 C                    -2.6256    0.0807    1.981 
 C                    -3.09834  -1.33015   2.3814 
 C                    -2.59346   0.97774   3.2253 
 H                    -2.0236   -0.1957   -0.6861 
 H                    -1.7651   -1.6605    0.2217 
 H                     0.0784   -0.1219   -1.5231 
 H                    -0.3264   -1.7969   -1.4792 
 H                     2.3486   -0.1513   -1.4414 
 H                     3.212    -0.8052   -0.0938 
 H                     2.743     1.7228   -0.3027 
 H                     2.7948    1.0104    1.243 
 H                     1.589    -2.0553    3.1279 
 H                     2.6431   -1.0107    2.2176 
 H                     0.0892   -2.415     1.2778 
 H                     1.7144   -2.9071    1.0026 
 H                     2.12068   1.11839   3.99777 
 H                    -0.15473  -0.00921   5.65822 
 H                    -0.14793   1.58406   4.86555 
 H                     1.05063   1.21496   6.09113 
 H                     1.87712  -1.67727   5.10907 
 H                     2.95423  -0.3676    5.61325 
 H                     3.15174  -1.0896    4.01475 
 H                     1.13345   3.42232  -0.3042 
 H                    -0.49198   1.37739  -1.88649 
 H                     1.17902   1.90825  -2.21447 
 H                    -0.14443   3.03772  -2.36634 
 H                    -1.76004   2.50469   0.12457 
 H                    -1.22898   4.05033  -0.55681 
 H                    -0.91657   3.69667   1.12655 
 H                    -3.41713   0.47926   1.32939 
 H                    -2.40345  -1.83063   3.06446 
 H                    -3.2327   -1.96503   1.50064 
 H                    -4.06272  -1.28045   2.90067 
 H                    -1.93361   0.58457   4.00527 
 H                    -3.59483   1.05612   3.6633 
 H                    -2.26492   1.98962   2.97316 
 

 GradGradGradGradGradGradGradGradGradGradGradGradGradGradGradGradGradGrad
 Berny optimization.
 Initialization pass.
                           ----------------------------
                           !    Initial Parameters    !
                           ! (Angstroms and Degrees)  !
 --------------------------                            --------------------------
 ! Name  Definition              Value          Derivative Info.                !
 --------------------------------------------------------------------------------
 ! R1    R(1,2)                  1.4653         calculate D2E/DX2 analytically  !
 ! R2    R(1,8)                  1.6763         calculate D2E/DX2 analytically  !
 ! R3    R(1,18)                 1.4793         calculate D2E/DX2 analytically  !
 ! R4    R(2,3)                  1.5466         calculate D2E/DX2 analytically  !
 ! R5    R(2,21)                 1.0965         calculate D2E/DX2 analytically  !
 ! R6    R(2,22)                 1.0927         calculate D2E/DX2 analytically  !
 ! R7    R(3,4)                  1.4562         calculate D2E/DX2 analytically  !
 ! R8    R(3,23)                 1.0974         calculate D2E/DX2 analytically  !
 ! R9    R(3,24)                 1.0994         calculate D2E/DX2 analytically  !
 ! R10   R(4,5)                  1.4604         calculate D2E/DX2 analytically  !
 ! R11   R(4,11)                 1.4576         calculate D2E/DX2 analytically  !
 ! R12   R(5,6)                  1.5526         calculate D2E/DX2 analytically  !
 ! R13   R(5,25)                 1.0993         calculate D2E/DX2 analytically  !
 ! R14   R(5,26)                 1.0986         calculate D2E/DX2 analytically  !
 ! R15   R(6,7)                  1.4659         calculate D2E/DX2 analytically  !
 ! R16   R(6,27)                 1.0951         calculate D2E/DX2 analytically  !
 ! R17   R(6,28)                 1.0938         calculate D2E/DX2 analytically  !
 ! R18   R(7,8)                  1.6769         calculate D2E/DX2 analytically  !
 ! R19   R(7,15)                 1.4816         calculate D2E/DX2 analytically  !
 ! R20   R(8,9)                  1.6872         calculate D2E/DX2 analytically  !
 ! R21   R(9,10)                 1.4697         calculate D2E/DX2 analytically  !
 ! R22   R(9,12)                 1.4884         calculate D2E/DX2 analytically  !
 ! R23   R(10,11)                1.5379         calculate D2E/DX2 analytically  !
 ! R24   R(10,29)                1.1005         calculate D2E/DX2 analytically  !
 ! R25   R(10,30)                1.0974         calculate D2E/DX2 analytically  !
 ! R26   R(11,31)                1.0964         calculate D2E/DX2 analytically  !
 ! R27   R(11,32)                1.0985         calculate D2E/DX2 analytically  !
 ! R28   R(12,13)                1.5329         calculate D2E/DX2 analytically  !
 ! R29   R(12,14)                1.5318         calculate D2E/DX2 analytically  !
 ! R30   R(12,33)                1.0995         calculate D2E/DX2 analytically  !
 ! R31   R(13,34)                1.0938         calculate D2E/DX2 analytically  !
 ! R32   R(13,35)                1.0937         calculate D2E/DX2 analytically  !
 ! R33   R(13,36)                1.098          calculate D2E/DX2 analytically  !
 ! R34   R(14,37)                1.0937         calculate D2E/DX2 analytically  !
 ! R35   R(14,38)                1.1048         calculate D2E/DX2 analytically  !
 ! R36   R(14,39)                1.0898         calculate D2E/DX2 analytically  !
 ! R37   R(15,16)                1.5423         calculate D2E/DX2 analytically  !
 ! R38   R(15,17)                1.5428         calculate D2E/DX2 analytically  !
 ! R39   R(15,40)                1.0985         calculate D2E/DX2 analytically  !
 ! R40   R(16,41)                1.0952         calculate D2E/DX2 analytically  !
 ! R41   R(16,42)                1.0913         calculate D2E/DX2 analytically  !
 ! R42   R(16,43)                1.0973         calculate D2E/DX2 analytically  !
 ! R43   R(17,44)                1.0941         calculate D2E/DX2 analytically  !
 ! R44   R(17,45)                1.0978         calculate D2E/DX2 analytically  !
 ! R45   R(17,46)                1.0923         calculate D2E/DX2 analytically  !
 ! R46   R(18,19)                1.5409         calculate D2E/DX2 analytically  !
 ! R47   R(18,20)                1.5343         calculate D2E/DX2 analytically  !
 ! R48   R(18,47)                1.1            calculate D2E/DX2 analytically  !
 ! R49   R(19,48)                1.0954         calculate D2E/DX2 analytically  !
 ! R50   R(19,49)                1.094          calculate D2E/DX2 analytically  !
 ! R51   R(19,50)                1.0964         calculate D2E/DX2 analytically  !
 ! R52   R(20,51)                1.0947         calculate D2E/DX2 analytically  !
 ! R53   R(20,52)                1.0958         calculate D2E/DX2 analytically  !
 ! R54   R(20,53)                1.0934         calculate D2E/DX2 analytically  !
 ! A1    A(2,1,8)              126.9472         calculate D2E/DX2 analytically  !
 ! A2    A(2,1,18)             113.9194         calculate D2E/DX2 analytically  !
 ! A3    A(8,1,18)             119.1257         calculate D2E/DX2 analytically  !
 ! A4    A(1,2,3)              123.7215         calculate D2E/DX2 analytically  !
 ! A5    A(1,2,21)             108.3469         calculate D2E/DX2 analytically  !
 ! A6    A(1,2,22)             108.515          calculate D2E/DX2 analytically  !
 ! A7    A(3,2,21)             104.1569         calculate D2E/DX2 analytically  !
 ! A8    A(3,2,22)             105.2422         calculate D2E/DX2 analytically  !
 ! A9    A(21,2,22)            105.5002         calculate D2E/DX2 analytically  !
 ! A10   A(2,3,4)              121.447          calculate D2E/DX2 analytically  !
 ! A11   A(2,3,23)             108.6273         calculate D2E/DX2 analytically  !
 ! A12   A(2,3,24)             105.5631         calculate D2E/DX2 analytically  !
 ! A13   A(4,3,23)             110.9488         calculate D2E/DX2 analytically  !
 ! A14   A(4,3,24)             105.1654         calculate D2E/DX2 analytically  !
 ! A15   A(23,3,24)            103.3825         calculate D2E/DX2 analytically  !
 ! A16   A(3,4,5)              113.7154         calculate D2E/DX2 analytically  !
 ! A17   A(3,4,11)             116.0808         calculate D2E/DX2 analytically  !
 ! A18   A(5,4,11)             117.7532         calculate D2E/DX2 analytically  !
 ! A19   A(4,5,6)              121.1423         calculate D2E/DX2 analytically  !
 ! A20   A(4,5,25)             107.0635         calculate D2E/DX2 analytically  !
 ! A21   A(4,5,26)             108.7035         calculate D2E/DX2 analytically  !
 ! A22   A(6,5,25)             107.0614         calculate D2E/DX2 analytically  !
 ! A23   A(6,5,26)             107.7902         calculate D2E/DX2 analytically  !
 ! A24   A(25,5,26)            103.7441         calculate D2E/DX2 analytically  !
 ! A25   A(5,6,7)              118.9239         calculate D2E/DX2 analytically  !
 ! A26   A(5,6,27)             105.3612         calculate D2E/DX2 analytically  !
 ! A27   A(5,6,28)             108.8603         calculate D2E/DX2 analytically  !
 ! A28   A(7,6,27)             111.0993         calculate D2E/DX2 analytically  !
 ! A29   A(7,6,28)             109.1199         calculate D2E/DX2 analytically  !
 ! A30   A(27,6,28)            102.1359         calculate D2E/DX2 analytically  !
 ! A31   A(6,7,8)              120.3846         calculate D2E/DX2 analytically  !
 ! A32   A(6,7,15)             113.4624         calculate D2E/DX2 analytically  !
 ! A33   A(8,7,15)             125.6441         calculate D2E/DX2 analytically  !
 ! A34   A(1,8,7)              108.5763         calculate D2E/DX2 analytically  !
 ! A35   A(1,8,9)              108.0811         calculate D2E/DX2 analytically  !
 ! A36   A(7,8,9)              112.9524         calculate D2E/DX2 analytically  !
 ! A37   A(8,9,10)             123.4659         calculate D2E/DX2 analytically  !
 ! A38   A(8,9,12)             123.014          calculate D2E/DX2 analytically  !
 ! A39   A(10,9,12)            108.4992         calculate D2E/DX2 analytically  !
 ! A40   A(9,10,11)            120.3867         calculate D2E/DX2 analytically  !
 ! A41   A(9,10,29)            107.1889         calculate D2E/DX2 analytically  !
 ! A42   A(9,10,30)            110.0533         calculate D2E/DX2 analytically  !
 ! A43   A(11,10,29)           104.0609         calculate D2E/DX2 analytically  !
 ! A44   A(11,10,30)           109.1154         calculate D2E/DX2 analytically  !
 ! A45   A(29,10,30)           104.7611         calculate D2E/DX2 analytically  !
 ! A46   A(4,11,10)            118.7198         calculate D2E/DX2 analytically  !
 ! A47   A(4,11,31)            112.7243         calculate D2E/DX2 analytically  !
 ! A48   A(4,11,32)            105.5188         calculate D2E/DX2 analytically  !
 ! A49   A(10,11,31)           109.4066         calculate D2E/DX2 analytically  !
 ! A50   A(10,11,32)           105.7606         calculate D2E/DX2 analytically  !
 ! A51   A(31,11,32)           103.2065         calculate D2E/DX2 analytically  !
 ! A52   A(9,12,13)            116.0961         calculate D2E/DX2 analytically  !
 ! A53   A(9,12,14)            113.3144         calculate D2E/DX2 analytically  !
 ! A54   A(9,12,33)            107.8778         calculate D2E/DX2 analytically  !
 ! A55   A(13,12,14)           111.5142         calculate D2E/DX2 analytically  !
 ! A56   A(13,12,33)           103.9734         calculate D2E/DX2 analytically  !
 ! A57   A(14,12,33)           102.6147         calculate D2E/DX2 analytically  !
 ! A58   A(12,13,34)           112.4941         calculate D2E/DX2 analytically  !
 ! A59   A(12,13,35)           111.2643         calculate D2E/DX2 analytically  !
 ! A60   A(12,13,36)           109.8185         calculate D2E/DX2 analytically  !
 ! A61   A(34,13,35)           108.8835         calculate D2E/DX2 analytically  !
 ! A62   A(34,13,36)           107.8641         calculate D2E/DX2 analytically  !
 ! A63   A(35,13,36)           106.2702         calculate D2E/DX2 analytically  !
 ! A64   A(12,14,37)           112.2322         calculate D2E/DX2 analytically  !
 ! A65   A(12,14,38)           109.5211         calculate D2E/DX2 analytically  !
 ! A66   A(12,14,39)           111.434          calculate D2E/DX2 analytically  !
 ! A67   A(37,14,38)           107.1594         calculate D2E/DX2 analytically  !
 ! A68   A(37,14,39)           109.1952         calculate D2E/DX2 analytically  !
 ! A69   A(38,14,39)           107.0789         calculate D2E/DX2 analytically  !
 ! A70   A(7,15,16)            118.1613         calculate D2E/DX2 analytically  !
 ! A71   A(7,15,17)            112.2283         calculate D2E/DX2 analytically  !
 ! A72   A(7,15,40)            107.3026         calculate D2E/DX2 analytically  !
 ! A73   A(16,15,17)           106.3562         calculate D2E/DX2 analytically  !
 ! A74   A(16,15,40)           105.1268         calculate D2E/DX2 analytically  !
 ! A75   A(17,15,40)           106.948          calculate D2E/DX2 analytically  !
 ! A76   A(15,16,41)           112.0892         calculate D2E/DX2 analytically  !
 ! A77   A(15,16,42)           111.7106         calculate D2E/DX2 analytically  !
 ! A78   A(15,16,43)           110.5042         calculate D2E/DX2 analytically  !
 ! A79   A(41,16,42)           109.3301         calculate D2E/DX2 analytically  !
 ! A80   A(41,16,43)           107.0393         calculate D2E/DX2 analytically  !
 ! A81   A(42,16,43)           105.8773         calculate D2E/DX2 analytically  !
 ! A82   A(15,17,44)           111.4023         calculate D2E/DX2 analytically  !
 ! A83   A(15,17,45)           110.2246         calculate D2E/DX2 analytically  !
 ! A84   A(15,17,46)           113.0597         calculate D2E/DX2 analytically  !
 ! A85   A(44,17,45)           107.7663         calculate D2E/DX2 analytically  !
 ! A86   A(44,17,46)           108.185          calculate D2E/DX2 analytically  !
 ! A87   A(45,17,46)           105.9237         calculate D2E/DX2 analytically  !
 ! A88   A(1,18,19)            113.8372         calculate D2E/DX2 analytically  !
 ! A89   A(1,18,20)            111.6689         calculate D2E/DX2 analytically  !
 ! A90   A(1,18,47)            109.7246         calculate D2E/DX2 analytically  !
 ! A91   A(19,18,20)           109.3305         calculate D2E/DX2 analytically  !
 ! A92   A(19,18,47)           105.3623         calculate D2E/DX2 analytically  !
 ! A93   A(20,18,47)           106.4783         calculate D2E/DX2 analytically  !
 ! A94   A(18,19,48)           112.69           calculate D2E/DX2 analytically  !
 ! A95   A(18,19,49)           111.0898         calculate D2E/DX2 analytically  !
 ! A96   A(18,19,50)           110.5739         calculate D2E/DX2 analytically  !
 ! A97   A(48,19,49)           108.3477         calculate D2E/DX2 analytically  !
 ! A98   A(48,19,50)           106.4606         calculate D2E/DX2 analytically  !
 ! A99   A(49,19,50)           107.4317         calculate D2E/DX2 analytically  !
 ! A100  A(18,20,51)           112.3634         calculate D2E/DX2 analytically  !
 ! A101  A(18,20,52)           110.2947         calculate D2E/DX2 analytically  !
 ! A102  A(18,20,53)           111.1229         calculate D2E/DX2 analytically  !
 ! A103  A(51,20,52)           106.9618         calculate D2E/DX2 analytically  !
 ! A104  A(51,20,53)           108.3961         calculate D2E/DX2 analytically  !
 ! A105  A(52,20,53)           107.4925         calculate D2E/DX2 analytically  !
 ! D1    D(8,1,2,3)              6.5288         calculate D2E/DX2 analytically  !
 ! D2    D(8,1,2,21)          -115.5544         calculate D2E/DX2 analytically  !
 ! D3    D(8,1,2,22)           130.3676         calculate D2E/DX2 analytically  !
 ! D4    D(18,1,2,3)          -172.4484         calculate D2E/DX2 analytically  !
 ! D5    D(18,1,2,21)           65.4684         calculate D2E/DX2 analytically  !
 ! D6    D(18,1,2,22)          -48.6096         calculate D2E/DX2 analytically  !
 ! D7    D(2,1,8,7)             35.5067         calculate D2E/DX2 analytically  !
 ! D8    D(2,1,8,9)            -87.3469         calculate D2E/DX2 analytically  !
 ! D9    D(18,1,8,7)          -145.5636         calculate D2E/DX2 analytically  !
 ! D10   D(18,1,8,9)            91.5828         calculate D2E/DX2 analytically  !
 ! D11   D(2,1,18,19)           59.2942         calculate D2E/DX2 analytically  !
 ! D12   D(2,1,18,20)         -176.3069         calculate D2E/DX2 analytically  !
 ! D13   D(2,1,18,47)          -58.4866         calculate D2E/DX2 analytically  !
 ! D14   D(8,1,18,19)         -119.7701         calculate D2E/DX2 analytically  !
 ! D15   D(8,1,18,20)            4.6288         calculate D2E/DX2 analytically  !
 ! D16   D(8,1,18,47)          122.4491         calculate D2E/DX2 analytically  !
 ! D17   D(1,2,3,4)             43.0242         calculate D2E/DX2 analytically  !
 ! D18   D(1,2,3,23)           -87.3954         calculate D2E/DX2 analytically  !
 ! D19   D(1,2,3,24)           162.2751         calculate D2E/DX2 analytically  !
 ! D20   D(21,2,3,4)           166.9873         calculate D2E/DX2 analytically  !
 ! D21   D(21,2,3,23)           36.5676         calculate D2E/DX2 analytically  !
 ! D22   D(21,2,3,24)          -73.7618         calculate D2E/DX2 analytically  !
 ! D23   D(22,2,3,4)           -82.2565         calculate D2E/DX2 analytically  !
 ! D24   D(22,2,3,23)          147.3239         calculate D2E/DX2 analytically  !
 ! D25   D(22,2,3,24)           36.9944         calculate D2E/DX2 analytically  !
 ! D26   D(2,3,4,5)           -114.6653         calculate D2E/DX2 analytically  !
 ! D27   D(2,3,4,11)            26.7144         calculate D2E/DX2 analytically  !
 ! D28   D(23,3,4,5)            14.756          calculate D2E/DX2 analytically  !
 ! D29   D(23,3,4,11)          156.1357         calculate D2E/DX2 analytically  !
 ! D30   D(24,3,4,5)           125.8894         calculate D2E/DX2 analytically  !
 ! D31   D(24,3,4,11)          -92.7309         calculate D2E/DX2 analytically  !
 ! D32   D(3,4,5,6)             68.5652         calculate D2E/DX2 analytically  !
 ! D33   D(3,4,5,25)           -54.3947         calculate D2E/DX2 analytically  !
 ! D34   D(3,4,5,26)          -165.8822         calculate D2E/DX2 analytically  !
 ! D35   D(11,4,5,6)           -72.1277         calculate D2E/DX2 analytically  !
 ! D36   D(11,4,5,25)          164.9123         calculate D2E/DX2 analytically  !
 ! D37   D(11,4,5,26)           53.4248         calculate D2E/DX2 analytically  !
 ! D38   D(3,4,11,10)         -112.0917         calculate D2E/DX2 analytically  !
 ! D39   D(3,4,11,31)           17.7182         calculate D2E/DX2 analytically  !
 ! D40   D(3,4,11,32)          129.6408         calculate D2E/DX2 analytically  !
 ! D41   D(5,4,11,10)           27.6876         calculate D2E/DX2 analytically  !
 ! D42   D(5,4,11,31)          157.4975         calculate D2E/DX2 analytically  !
 ! D43   D(5,4,11,32)          -90.5799         calculate D2E/DX2 analytically  !
 ! D44   D(4,5,6,7)            -26.5093         calculate D2E/DX2 analytically  !
 ! D45   D(4,5,6,27)          -151.8424         calculate D2E/DX2 analytically  !
 ! D46   D(4,5,6,28)            99.2384         calculate D2E/DX2 analytically  !
 ! D47   D(25,5,6,7)            96.4516         calculate D2E/DX2 analytically  !
 ! D48   D(25,5,6,27)          -28.8815         calculate D2E/DX2 analytically  !
 ! D49   D(25,5,6,28)         -137.8007         calculate D2E/DX2 analytically  !
 ! D50   D(26,5,6,7)          -152.48           calculate D2E/DX2 analytically  !
 ! D51   D(26,5,6,27)           82.187          calculate D2E/DX2 analytically  !
 ! D52   D(26,5,6,28)          -26.7322         calculate D2E/DX2 analytically  !
 ! D53   D(5,6,7,8)             72.2746         calculate D2E/DX2 analytically  !
 ! D54   D(5,6,7,15)           -99.993          calculate D2E/DX2 analytically  !
 ! D55   D(27,6,7,8)          -165.2037         calculate D2E/DX2 analytically  !
 ! D56   D(27,6,7,15)           22.5286         calculate D2E/DX2 analytically  !
 ! D57   D(28,6,7,8)           -53.3487         calculate D2E/DX2 analytically  !
 ! D58   D(28,6,7,15)          134.3837         calculate D2E/DX2 analytically  !
 ! D59   D(6,7,8,1)           -107.7318         calculate D2E/DX2 analytically  !
 ! D60   D(6,7,8,9)             12.1292         calculate D2E/DX2 analytically  !
 ! D61   D(15,7,8,1)            63.5326         calculate D2E/DX2 analytically  !
 ! D62   D(15,7,8,9)          -176.6064         calculate D2E/DX2 analytically  !
 ! D63   D(6,7,15,16)           59.2943         calculate D2E/DX2 analytically  !
 ! D64   D(6,7,15,17)         -176.3841         calculate D2E/DX2 analytically  !
 ! D65   D(6,7,15,40)          -59.1815         calculate D2E/DX2 analytically  !
 ! D66   D(8,7,15,16)         -112.4944         calculate D2E/DX2 analytically  !
 ! D67   D(8,7,15,17)           11.8272         calculate D2E/DX2 analytically  !
 ! D68   D(8,7,15,40)          129.0298         calculate D2E/DX2 analytically  !
 ! D69   D(1,8,9,10)            66.4619         calculate D2E/DX2 analytically  !
 ! D70   D(1,8,9,12)          -141.5205         calculate D2E/DX2 analytically  !
 ! D71   D(7,8,9,10)           -53.6833         calculate D2E/DX2 analytically  !
 ! D72   D(7,8,9,12)            98.3344         calculate D2E/DX2 analytically  !
 ! D73   D(8,9,10,11)          -31.3803         calculate D2E/DX2 analytically  !
 ! D74   D(8,9,10,29)         -149.818          calculate D2E/DX2 analytically  !
 ! D75   D(8,9,10,30)           96.8018         calculate D2E/DX2 analytically  !
 ! D76   D(12,9,10,11)         173.1314         calculate D2E/DX2 analytically  !
 ! D77   D(12,9,10,29)          54.6937         calculate D2E/DX2 analytically  !
 ! D78   D(12,9,10,30)         -58.6865         calculate D2E/DX2 analytically  !
 ! D79   D(8,9,12,13)           59.2943         calculate D2E/DX2 analytically  !
 ! D80   D(8,9,12,14)         -169.7282         calculate D2E/DX2 analytically  !
 ! D81   D(8,9,12,33)          -56.8427         calculate D2E/DX2 analytically  !
 ! D82   D(10,9,12,13)        -145.0828         calculate D2E/DX2 analytically  !
 ! D83   D(10,9,12,14)         -14.1053         calculate D2E/DX2 analytically  !
 ! D84   D(10,9,12,33)          98.7802         calculate D2E/DX2 analytically  !
 ! D85   D(9,10,11,4)           70.9889         calculate D2E/DX2 analytically  !
 ! D86   D(9,10,11,31)         -60.3146         calculate D2E/DX2 analytically  !
 ! D87   D(9,10,11,32)        -170.8699         calculate D2E/DX2 analytically  !
 ! D88   D(29,10,11,4)        -169.0092         calculate D2E/DX2 analytically  !
 ! D89   D(29,10,11,31)         59.6874         calculate D2E/DX2 analytically  !
 ! D90   D(29,10,11,32)        -50.8679         calculate D2E/DX2 analytically  !
 ! D91   D(30,10,11,4)         -57.6144         calculate D2E/DX2 analytically  !
 ! D92   D(30,10,11,31)        171.0821         calculate D2E/DX2 analytically  !
 ! D93   D(30,10,11,32)         60.5268         calculate D2E/DX2 analytically  !
 ! D94   D(9,12,13,34)          70.3406         calculate D2E/DX2 analytically  !
 ! D95   D(9,12,13,35)         -52.1417         calculate D2E/DX2 analytically  !
 ! D96   D(9,12,13,36)        -169.5166         calculate D2E/DX2 analytically  !
 ! D97   D(14,12,13,34)        -61.4792         calculate D2E/DX2 analytically  !
 ! D98   D(14,12,13,35)        176.0385         calculate D2E/DX2 analytically  !
 ! D99   D(14,12,13,36)         58.6636         calculate D2E/DX2 analytically  !
 ! D100  D(33,12,13,34)       -171.3559         calculate D2E/DX2 analytically  !
 ! D101  D(33,12,13,35)         66.1618         calculate D2E/DX2 analytically  !
 ! D102  D(33,12,13,36)        -51.2131         calculate D2E/DX2 analytically  !
 ! D103  D(9,12,14,37)         -70.8696         calculate D2E/DX2 analytically  !
 ! D104  D(9,12,14,38)         170.2436         calculate D2E/DX2 analytically  !
 ! D105  D(9,12,14,39)          51.9537         calculate D2E/DX2 analytically  !
 ! D106  D(13,12,14,37)         62.3461         calculate D2E/DX2 analytically  !
 ! D107  D(13,12,14,38)        -56.5406         calculate D2E/DX2 analytically  !
 ! D108  D(13,12,14,39)       -174.8306         calculate D2E/DX2 analytically  !
 ! D109  D(33,12,14,37)        173.0902         calculate D2E/DX2 analytically  !
 ! D110  D(33,12,14,38)         54.2035         calculate D2E/DX2 analytically  !
 ! D111  D(33,12,14,39)        -64.0865         calculate D2E/DX2 analytically  !
 ! D112  D(7,15,16,41)          59.7677         calculate D2E/DX2 analytically  !
 ! D113  D(7,15,16,42)         -63.3319         calculate D2E/DX2 analytically  !
 ! D114  D(7,15,16,43)         179.0688         calculate D2E/DX2 analytically  !
 ! D115  D(17,15,16,41)        -67.4111         calculate D2E/DX2 analytically  !
 ! D116  D(17,15,16,42)        169.4894         calculate D2E/DX2 analytically  !
 ! D117  D(17,15,16,43)         51.8901         calculate D2E/DX2 analytically  !
 ! D118  D(40,15,16,41)        179.3829         calculate D2E/DX2 analytically  !
 ! D119  D(40,15,16,42)         56.2833         calculate D2E/DX2 analytically  !
 ! D120  D(40,15,16,43)        -61.3159         calculate D2E/DX2 analytically  !
 ! D121  D(7,15,17,44)         -65.2494         calculate D2E/DX2 analytically  !
 ! D122  D(7,15,17,45)         175.1688         calculate D2E/DX2 analytically  !
 ! D123  D(7,15,17,46)          56.8346         calculate D2E/DX2 analytically  !
 ! D124  D(16,15,17,44)         65.3895         calculate D2E/DX2 analytically  !
 ! D125  D(16,15,17,45)        -54.1924         calculate D2E/DX2 analytically  !
 ! D126  D(16,15,17,46)       -172.5265         calculate D2E/DX2 analytically  !
 ! D127  D(40,15,17,44)        177.3364         calculate D2E/DX2 analytically  !
 ! D128  D(40,15,17,45)         57.7545         calculate D2E/DX2 analytically  !
 ! D129  D(40,15,17,46)        -60.5796         calculate D2E/DX2 analytically  !
 ! D130  D(1,18,19,48)          61.4943         calculate D2E/DX2 analytically  !
 ! D131  D(1,18,19,49)         -60.304          calculate D2E/DX2 analytically  !
 ! D132  D(1,18,19,50)        -179.4941         calculate D2E/DX2 analytically  !
 ! D133  D(20,18,19,48)        -64.1522         calculate D2E/DX2 analytically  !
 ! D134  D(20,18,19,49)        174.0494         calculate D2E/DX2 analytically  !
 ! D135  D(20,18,19,50)         54.8593         calculate D2E/DX2 analytically  !
 ! D136  D(47,18,19,48)       -178.2386         calculate D2E/DX2 analytically  !
 ! D137  D(47,18,19,49)         59.9631         calculate D2E/DX2 analytically  !
 ! D138  D(47,18,19,50)        -59.227          calculate D2E/DX2 analytically  !
 ! D139  D(1,18,20,51)         -68.3133         calculate D2E/DX2 analytically  !
 ! D140  D(1,18,20,52)         172.4456         calculate D2E/DX2 analytically  !
 ! D141  D(1,18,20,53)          53.3397         calculate D2E/DX2 analytically  !
 ! D142  D(19,18,20,51)         58.5728         calculate D2E/DX2 analytically  !
 ! D143  D(19,18,20,52)        -60.6683         calculate D2E/DX2 analytically  !
 ! D144  D(19,18,20,53)       -179.7741         calculate D2E/DX2 analytically  !
 ! D145  D(47,18,20,51)        171.9348         calculate D2E/DX2 analytically  !
 ! D146  D(47,18,20,52)         52.6937         calculate D2E/DX2 analytically  !
 ! D147  D(47,18,20,53)        -66.4122         calculate D2E/DX2 analytically  !
 --------------------------------------------------------------------------------
 Trust Radius=3.00D-01 FncErr=1.00D-07 GrdErr=1.00D-06 EigMax=2.50D+02 EigMin=1.00D-04
 Number of steps in this run=    316 maximum allowed number of steps=    318.
 GradGradGradGradGradGradGradGradGradGradGradGradGradGradGradGradGradGrad

 Stoichiometry    C15H33N4P
 Framework group  C1[X(C15H33N4P)]
 Deg. of freedom   153
 Full point group                 C1      NOp   1
 Largest Abelian subgroup         C1      NOp   1
 Largest concise Abelian subgroup C1      NOp   1
                         Standard orientation:                         
 ---------------------------------------------------------------------
 Center     Atomic      Atomic             Coordinates (Angstroms)
 Number     Number       Type             X           Y           Z
 ---------------------------------------------------------------------
      1          7           0       -0.277229    1.340595    0.565606
      2          6           0       -1.226985    1.022948    1.635256
      3          6           0       -1.843135   -0.379617    1.847860
      4          7           0       -1.035277   -1.587133    1.749540
      5          6           0       -1.408844   -2.454666    0.635754
      6          6           0       -1.162809   -2.023557   -0.835392
      7          7           0       -1.115691   -0.594084   -1.156880
      8         15           0        0.198376    0.337375   -0.690266
      9          7           0        1.504033   -0.587886   -0.155622
     10          6           0        1.398712   -1.603613    0.901413
     11          6           0        0.383939   -1.434414    2.044526
     12          6           0        2.666908   -0.925690   -1.020986
     13          6           0        3.453454    0.261896   -1.587349
     14          6           0        3.598387   -1.973049   -0.403121
     15          6           0       -2.378059   -0.077685   -1.735639
     16          6           0       -3.667375   -0.202881   -0.898562
     17          6           0       -2.268409    1.405696   -2.145408
     18          6           0        0.308738    2.695133    0.666510
     19          6           0        1.077270    2.945022    1.978461
     20          6           0        1.223427    3.006911   -0.525184
     21          1           0       -2.095316    1.684713    1.533575
     22          1           0       -0.771010    1.284604    2.593146
     23          1           0       -2.748133   -0.461836    1.232614
     24          1           0       -2.233464   -0.377614    2.875611
     25          1           0       -2.483627   -2.662783    0.735407
     26          1           0       -0.938281   -3.436673    0.780918
     27          1           0       -1.935280   -2.533937   -1.420319
     28          1           0       -0.247692   -2.502176   -1.195770
     29          1           0        2.372697   -1.643609    1.412245
     30          1           0        1.275547   -2.598945    0.455921
     31          1           0        0.605332   -0.512261    2.594670
     32          1           0        0.619517   -2.223278    2.771852
     33          1           0        2.284762   -1.441097   -1.913852
     34          1           0        4.024023    0.790793   -0.818541
     35          1           0        2.791218    0.973308   -2.088881
     36          1           0        4.161076   -0.089829   -2.349755
     37          1           0        4.164086   -1.575302    0.444146
     38          1           0        4.333049   -2.305181   -1.158454
     39          1           0        3.047030   -2.856797   -0.082641
     40          1           0       -2.574991   -0.649477   -2.652634
     41          1           0       -3.589933    0.324116    0.058345
     42          1           0       -3.930540   -1.246171   -0.716128
     43          1           0       -4.518953    0.231787   -1.437028
     44          1           0       -2.117922    2.050451   -1.274357
     45          1           0       -3.189509    1.729939   -2.647047
     46          1           0       -1.458760    1.595179   -2.853741
     47          1           0       -0.492639    3.448455    0.650207
     48          1           0        1.931665    2.270850    2.102653
     49          1           0        0.421045    2.832843    2.846590
     50          1           0        1.480138    3.964501    2.000812
     51          1           0        2.134835    2.400569   -0.520505
     52          1           0        1.537523    4.056378   -0.498858
     53          1           0        0.704692    2.842811   -1.473551
 ---------------------------------------------------------------------
 Rotational constants (GHZ):           0.3791052           0.3070849           0.2637559
 Standard basis: 6-31G(d) (6D, 7F)
 There are   370 symmetry adapted cartesian basis functions of A   symmetry.
 There are   370 symmetry adapted basis functions of A   symmetry.
   370 basis functions,   716 primitive gaussians,   370 cartesian basis functions
    83 alpha electrons       83 beta electrons
       nuclear repulsion energy      2103.7596930470 Hartrees.
 NAtoms=   53 NActive=   53 NUniq=   53 SFac= 1.00D+00 NAtFMM=   60 NAOKFM=F Big=F
 Integral buffers will be    131072 words long.
 Raffenetti 2 integral format.
 Two-electron integral symmetry is turned on.
 One-electron integrals computed using PRISM.
 NBasis=   370 RedAO= T EigKep=  2.90D-03  NBF=   370
 NBsUse=   370 1.00D-06 EigRej= -1.00D+00 NBFU=   370
 ExpMin= 9.98D-02 ExpMax= 1.94D+04 ExpMxC= 2.91D+03 IAcc=3 IRadAn=         5 AccDes= 0.00D+00
 Harris functional with IExCor=  402 and IRadAn=       5 diagonalized for initial guess.
 HarFok:  IExCor=  402 AccDes= 0.00D+00 IRadAn=         5 IDoV= 1 UseB2=F ITyADJ=14
 ICtDFT=  3500011 ScaDFX=  1.000000  1.000000  1.000000  1.000000
 FoFCou: FMM=F IPFlag=           0 FMFlag=      100000 FMFlg1=           0
         NFxFlg=           0 DoJE=T BraDBF=F KetDBF=T FulRan=T
         wScrn=  0.000000 ICntrl=       500 IOpCl=  0 I1Cent=   200000004 NGrid=           0
         NMat0=    1 NMatS0=      1 NMatT0=    0 NMatD0=    1 NMtDS0=    0 NMtDT0=    0
 Petite list used in FoFCou.
 Gradient too large for Newton-Raphson -- use scaled steepest descent instead.
     Accept linear search using points  2 and  3.
 Gradient too large for Newton-Raphson -- use scaled steepest descent instead.
     Minimum is close to point  3 DX=  2.16D-02 DF= -3.14D-05 DXR=  2.99D-02 DFR=  8.96D-04 which will be used.
 Gradient too large for Newton-Raphson -- use scaled steepest descent instead.
     Minimum is close to point  2 DX=  3.05D-02 DF= -8.32D-06 DXR=  5.76D-02 DFR=  3.33D-03 which will be used.
 Gradient too large for Newton-Raphson -- use scaled steepest descent instead.
     Minimum is close to point  2 DX=  3.21D-03 DF= -1.22D-08 DXR=  5.33D-03 DFR=  2.84D-05 which will be used.
 Gradient too large for Newton-Raphson -- use scaled steepest descent instead.
     Accept linear search using points  1 and  2.
 LinEq1:  Iter=  0 NonCon=     1 RMS=2.76D-05 Max=1.32D-03 NDo=     1
 AX will form     1 AO Fock derivatives at one time.
 LinEq1:  Iter=  1 NonCon=     1 RMS=1.06D-05 Max=3.48D-04 NDo=     1
 LinEq1:  Iter=  2 NonCon=     1 RMS=5.47D-06 Max=2.88D-04 NDo=     1
 LinEq1:  Iter=  3 NonCon=     1 RMS=1.58D-06 Max=5.69D-05 NDo=     1
 LinEq1:  Iter=  4 NonCon=     1 RMS=8.07D-07 Max=3.01D-05 NDo=     1
 LinEq1:  Iter=  5 NonCon=     1 RMS=4.86D-07 Max=1.39D-05 NDo=     1
 LinEq1:  Iter=  6 NonCon=     1 RMS=2.54D-07 Max=3.51D-06 NDo=     1
 LinEq1:  Iter=  7 NonCon=     1 RMS=1.23D-07 Max=4.67D-06 NDo=     1
 LinEq1:  Iter=  8 NonCon=     1 RMS=7.70D-08 Max=2.21D-06 NDo=     1
 LinEq1:  Iter=  9 NonCon=     1 RMS=3.25D-08 Max=1.01D-06 NDo=     1
 LinEq1:  Iter= 10 NonCon=     1 RMS=1.56D-08 Max=4.79D-07 NDo=     1
 LinEq1:  Iter= 11 NonCon=     0 RMS=5.47D-09 Max=2.18D-07 NDo=     1
 Linear equations converged to 2.183D-08 2.183D-07 after    11 iterations.
     Accept linear search using points  1 and  2.
     Minimum is close to point  2 DX= -1.39D-04 DF= -6.82D-13 DXR=  1.40D-04 DFR=  2.11D-08 which will be used.
 LinEq1:  Iter=  0 NonCon=     1 RMS=2.47D-08 Max=9.55D-07 NDo=     1
 LinEq1:  Iter=  1 NonCon=     1 RMS=1.57D-08 Max=7.83D-07 NDo=     1
 LinEq1:  Iter=  2 NonCon=     1 RMS=7.84D-09 Max=2.10D-07 NDo=     1
 LinEq1:  Iter=  3 NonCon=     1 RMS=4.13D-09 Max=1.08D-07 NDo=     1
 LinEq1:  Iter=  4 NonCon=     1 RMS=2.05D-09 Max=6.38D-08 NDo=     1
 LinEq1:  Iter=  5 NonCon=     1 RMS=1.32D-09 Max=4.84D-08 NDo=     1
 LinEq1:  Iter=  6 NonCon=     1 RMS=5.69D-10 Max=1.73D-08 NDo=     1
 LinEq1:  Iter=  7 NonCon=     1 RMS=2.00D-10 Max=5.05D-09 NDo=     1
 LinEq1:  Iter=  8 NonCon=     1 RMS=1.10D-10 Max=5.35D-09 NDo=     1
 LinEq1:  Iter=  9 NonCon=     1 RMS=5.67D-11 Max=1.62D-09 NDo=     1
 LinEq1:  Iter= 10 NonCon=     1 RMS=3.42D-11 Max=1.37D-09 NDo=     1
 LinEq1:  Iter= 11 NonCon=     1 RMS=1.50D-11 Max=5.10D-10 NDo=     1
 LinEq1:  Iter= 12 NonCon=     0 RMS=7.74D-12 Max=2.20D-10 NDo=     1
 Linear equations converged to 3.234D-11 3.234D-10 after    12 iterations.
 SCF Done:  E(RB3LYP) =  -1151.72170169     a.u. after    8 cycles
            Convg  =    0.1007D-09                    38 Fock formations.
              S**2 =  0.0000                  -V/T =  2.0077
 DoSCS=F DFT=T ScalE2(SS,OS)=  1.000000  1.000000
 Range of M.O.s used for correlation:     1   370
 NBasis=   370 NAE=    83 NBE=    83 NFC=     0 NFV=     0
 NROrb=    370 NOA=    83 NOB=    83 NVA=   287 NVB=   287
 Symmetrizing basis deriv contribution to polar:
 IMax=3 JMax=2 DiffMx= 0.00D+00
 G2DrvN: will do    54 centers at a time, making    1 passes.
 Calling FoFCou, ICntrl=  3107 FMM=F I1Cent=   0 AccDes= 0.00D+00.
 End of G2Drv F.D. properties file   721 does not exist.
 End of G2Drv F.D. properties file   722 does not exist.
 End of G2Drv F.D. properties file   788 does not exist.
          IDoAtm=11111111111111111111111111111111111111111111111111
          IDoAtm=111
          Differentiating once with respect to electric field.
                with respect to dipole field.
          Differentiating once with respect to nuclear coordinates.
 CalDSu exits because no D1Ps are significant.
          There are   162 degrees of freedom in the 1st order CPHF.  IDoFFX=6 NUNeed=     3.
    159 vectors produced by pass  0 Test12= 2.38D-14 1.00D-09 XBig12= 1.45D+02 1.86D+00.
 AX will form   159 AO Fock derivatives at one time.
    159 vectors produced by pass  1 Test12= 2.38D-14 1.00D-09 XBig12= 1.02D+01 2.68D-01.
    159 vectors produced by pass  2 Test12= 2.38D-14 1.00D-09 XBig12= 1.05D-01 3.98D-02.
    159 vectors produced by pass  3 Test12= 2.38D-14 1.00D-09 XBig12= 2.38D-04 1.55D-03.
    159 vectors produced by pass  4 Test12= 2.38D-14 1.00D-09 XBig12= 2.48D-07 3.09D-05.
     72 vectors produced by pass  5 Test12= 2.38D-14 1.00D-09 XBig12= 1.70D-10 9.60D-07.
      3 vectors produced by pass  6 Test12= 2.38D-14 1.00D-09 XBig12= 1.11D-13 2.65D-08.
 InvSVY:  IOpt=1 It=  1 EMax= 5.33D-15
 Solved reduced A of dimension   870 with   162 vectors.
 Isotropic polarizability for W=    0.000000      201.96 Bohr**3.
 End of Minotr F.D. properties file   721 does not exist.
 End of Minotr F.D. properties file   722 does not exist.
 End of Minotr F.D. properties file   788 does not exist.

 **********************************************************************

            Population analysis using the SCF density.

 **********************************************************************

 Orbital symmetries:
       Occupied  (A) (A) (A) (A) (A) (A) (A) (A) (A) (A) (A) (A)
                 (A) (A) (A) (A) (A) (A) (A) (A) (A) (A) (A) (A)
                 (A) (A) (A) (A) (A) (A) (A) (A) (A) (A) (A) (A)
                 (A) (A) (A) (A) (A) (A) (A) (A) (A) (A) (A) (A)
                 (A) (A) (A) (A) (A) (A) (A) (A) (A) (A) (A) (A)
                 (A) (A) (A) (A) (A) (A) (A) (A) (A) (A) (A) (A)
                 (A) (A) (A) (A) (A) (A) (A) (A) (A) (A) (A)
       Virtual   (A) (A) (A) (A) (A) (A) (A) (A) (A) (A) (A) (A)
                 (A) (A) (A) (A) (A) (A) (A) (A) (A) (A) (A) (A)
                 (A) (A) (A) (A) (A) (A) (A) (A) (A) (A) (A) (A)
                 (A) (A) (A) (A) (A) (A) (A) (A) (A) (A) (A) (A)
                 (A) (A) (A) (A) (A) (A) (A) (A) (A) (A) (A) (A)
                 (A) (A) (A) (A) (A) (A) (A) (A) (A) (A) (A) (A)
                 (A) (A) (A) (A) (A) (A) (A) (A) (A) (A) (A) (A)
                 (A) (A) (A) (A) (A) (A) (A) (A) (A) (A) (A) (A)
                 (A) (A) (A) (A) (A) (A) (A) (A) (A) (A) (A) (A)
                 (A) (A) (A) (A) (A) (A) (A) (A) (A) (A) (A) (A)
                 (A) (A) (A) (A) (A) (A) (A) (A) (A) (A) (A) (A)
                 (A) (A) (A) (A) (A) (A) (A) (A) (A) (A) (A) (A)
                 (A) (A) (A) (A) (A) (A) (A) (A) (A) (A) (A) (A)
                 (A) (A) (A) (A) (A) (A) (A) (A) (A) (A) (A) (A)
                 (A) (A) (A) (A) (A) (A) (A) (A) (A) (A) (A) (A)
                 (A) (A) (A) (A) (A) (A) (A) (A) (A) (A) (A) (A)
                 (A) (A) (A) (A) (A) (A) (A) (A) (A) (A) (A) (A)
                 (A) (A) (A) (A) (A) (A) (A) (A) (A) (A) (A) (A)
                 (A) (A) (A) (A) (A) (A) (A) (A) (A) (A) (A) (A)
                 (A) (A) (A) (A) (A) (A) (A) (A) (A) (A) (A) (A)
                 (A) (A) (A) (A) (A) (A) (A) (A) (A) (A) (A) (A)
                 (A) (A) (A) (A) (A) (A) (A) (A) (A) (A) (A) (A)
                 (A) (A) (A) (A) (A) (A) (A) (A) (A) (A) (A) (A)
                 (A) (A) (A) (A) (A) (A) (A) (A) (A) (A) (A)
 The electronic state is 1-A.
 Alpha  occ. eigenvalues --  -77.09146 -14.31676 -14.31463 -14.31442 -14.30974
 Alpha  occ. eigenvalues --  -10.22046 -10.21519 -10.21206 -10.20312 -10.20245
 Alpha  occ. eigenvalues --  -10.20180 -10.20113 -10.20023 -10.19874 -10.17439
 Alpha  occ. eigenvalues --  -10.17285 -10.16552 -10.16495 -10.16400 -10.15599
 Alpha  occ. eigenvalues --   -6.55241  -4.71581  -4.71563  -4.70907  -0.93187
 Alpha  occ. eigenvalues --   -0.89883  -0.88996  -0.88591  -0.77367  -0.76729
 Alpha  occ. eigenvalues --   -0.76460  -0.72695  -0.72052  -0.71200  -0.68270
 Alpha  occ. eigenvalues --   -0.67699  -0.67021  -0.62074  -0.61973  -0.60734
 Alpha  occ. eigenvalues --   -0.57371  -0.56473  -0.55692  -0.51438  -0.48739
 Alpha  occ. eigenvalues --   -0.48170  -0.48015  -0.46998  -0.46164  -0.45533
 Alpha  occ. eigenvalues --   -0.44968  -0.44515  -0.43615  -0.42977  -0.42616
 Alpha  occ. eigenvalues --   -0.41398  -0.40536  -0.39710  -0.39358  -0.38975
 Alpha  occ. eigenvalues --   -0.38821  -0.38240  -0.37834  -0.37404  -0.37123
 Alpha  occ. eigenvalues --   -0.36440  -0.36330  -0.35637  -0.34689  -0.34154
 Alpha  occ. eigenvalues --   -0.34025  -0.33505  -0.33376  -0.33064  -0.32774
 Alpha  occ. eigenvalues --   -0.32156  -0.31616  -0.31104  -0.24075  -0.22766
 Alpha  occ. eigenvalues --   -0.20863  -0.19274  -0.14507
 Alpha virt. eigenvalues --    0.06565   0.07046   0.08880   0.09019   0.09573
 Alpha virt. eigenvalues --    0.09943   0.11003   0.11544   0.12107   0.13017
 Alpha virt. eigenvalues --    0.13531   0.13768   0.14289   0.14461   0.14790
 Alpha virt. eigenvalues --    0.15143   0.15549   0.15910   0.16326   0.16918
 Alpha virt. eigenvalues --    0.17256   0.17574   0.18481   0.18924   0.19148
 Alpha virt. eigenvalues --    0.19811   0.20062   0.20191   0.20317   0.20689
 Alpha virt. eigenvalues --    0.21048   0.21610   0.21856   0.22419   0.22955
 Alpha virt. eigenvalues --    0.23095   0.23883   0.23993   0.24719   0.25218
 Alpha virt. eigenvalues --    0.25464   0.25783   0.26596   0.26903   0.27637
 Alpha virt. eigenvalues --    0.28395   0.29046   0.29296   0.30280   0.30617
 Alpha virt. eigenvalues --    0.31619   0.33815   0.35914   0.36928   0.39693
 Alpha virt. eigenvalues --    0.44003   0.46786   0.48295   0.49543   0.50797
 Alpha virt. eigenvalues --    0.51234   0.52007   0.53108   0.53241   0.54002
 Alpha virt. eigenvalues --    0.54859   0.55858   0.56170   0.57222   0.58628
 Alpha virt. eigenvalues --    0.59278   0.59699   0.60822   0.61008   0.61676
 Alpha virt. eigenvalues --    0.62357   0.64496   0.65080   0.65719   0.65810
 Alpha virt. eigenvalues --    0.67290   0.67653   0.68443   0.69817   0.70111
 Alpha virt. eigenvalues --    0.70965   0.71983   0.72421   0.73329   0.75334
 Alpha virt. eigenvalues --    0.75689   0.76744   0.78604   0.78792   0.79185
 Alpha virt. eigenvalues --    0.80707   0.81705   0.81959   0.83094   0.83476
 Alpha virt. eigenvalues --    0.84480   0.84840   0.85854   0.85997   0.86668
 Alpha virt. eigenvalues --    0.87129   0.87435   0.88258   0.89235   0.89700
 Alpha virt. eigenvalues --    0.90222   0.90547   0.90821   0.91355   0.91640
 Alpha virt. eigenvalues --    0.92204   0.92470   0.92836   0.93499   0.93743
 Alpha virt. eigenvalues --    0.94284   0.94750   0.96027   0.96141   0.96823
 Alpha virt. eigenvalues --    0.97343   0.97976   0.98549   0.99424   1.00046
 Alpha virt. eigenvalues --    1.01599   1.01734   1.02873   1.03106   1.03191
 Alpha virt. eigenvalues --    1.04771   1.05538   1.06311   1.07016   1.07685
 Alpha virt. eigenvalues --    1.08353   1.09590   1.10851   1.12205   1.13859
 Alpha virt. eigenvalues --    1.14905   1.15765   1.17089   1.18161   1.19927
 Alpha virt. eigenvalues --    1.22659   1.23444   1.25582   1.28004   1.30726
 Alpha virt. eigenvalues --    1.33510   1.34429   1.35860   1.36340   1.38590
 Alpha virt. eigenvalues --    1.41655   1.42648   1.44276   1.46786   1.48216
 Alpha virt. eigenvalues --    1.49609   1.53163   1.55258   1.58879   1.59679
 Alpha virt. eigenvalues --    1.60991   1.61733   1.61928   1.63482   1.65834
 Alpha virt. eigenvalues --    1.66929   1.69264   1.70654   1.72222   1.75146
 Alpha virt. eigenvalues --    1.76315   1.77117   1.78256   1.78692   1.79805
 Alpha virt. eigenvalues --    1.80032   1.82245   1.82621   1.82821   1.85571
 Alpha virt. eigenvalues --    1.87455   1.88768   1.90595   1.91638   1.92676
 Alpha virt. eigenvalues --    1.93549   1.94332   1.96384   1.98089   2.00437
 Alpha virt. eigenvalues --    2.01134   2.01947   2.02786   2.03384   2.04201
 Alpha virt. eigenvalues --    2.04976   2.05512   2.05994   2.07842   2.09176
 Alpha virt. eigenvalues --    2.11005   2.12203   2.12611   2.13605   2.14317
 Alpha virt. eigenvalues --    2.15552   2.16984   2.17142   2.17874   2.19199
 Alpha virt. eigenvalues --    2.22106   2.24055   2.26003   2.26732   2.27229
 Alpha virt. eigenvalues --    2.27299   2.28153   2.28216   2.29536   2.29978
 Alpha virt. eigenvalues --    2.31482   2.32073   2.32451   2.33384   2.35691
 Alpha virt. eigenvalues --    2.36819   2.38769   2.40164   2.41911   2.42361
 Alpha virt. eigenvalues --    2.43583   2.47215   2.48406   2.49464   2.50316
 Alpha virt. eigenvalues --    2.52523   2.53106   2.55913   2.56441   2.58512
 Alpha virt. eigenvalues --    2.59752   2.61395   2.64416   2.67160   2.68233
 Alpha virt. eigenvalues --    2.69325   2.72334   2.74482   2.77120   2.80827
 Alpha virt. eigenvalues --    2.81391   2.83152   2.84783   2.86829   2.88712
 Alpha virt. eigenvalues --    2.92056   2.96558   3.65764   4.00247   4.04058
 Alpha virt. eigenvalues --    4.06753   4.18297   4.22187   4.23242   4.25354
 Alpha virt. eigenvalues --    4.27911   4.30515   4.32628   4.34868   4.36543
 Alpha virt. eigenvalues --    4.41129   4.49862   4.55074   4.56714   4.59958
 Alpha virt. eigenvalues --    4.62683   4.64726
          Condensed to atoms (all electrons):
 Mulliken charges:
               1
     1  N   -0.555756
     2  C   -0.120583
     3  C   -0.154206
     4  N   -0.380921
     5  C   -0.149289
     6  C   -0.158933
     7  N   -0.546857
     8  P    0.717947
     9  N   -0.542394
    10  C   -0.146769
    11  C   -0.157088
    12  C    0.085227
    13  C   -0.450956
    14  C   -0.471819
    15  C    0.076390
    16  C   -0.452885
    17  C   -0.478834
    18  C    0.083885
    19  C   -0.450402
    20  C   -0.477268
    21  H    0.123932
    22  H    0.134024
    23  H    0.139612
    24  H    0.131532
    25  H    0.138078
    26  H    0.133301
    27  H    0.135336
    28  H    0.140993
    29  H    0.146577
    30  H    0.131288
    31  H    0.157763
    32  H    0.133188
    33  H    0.127495
    34  H    0.138115
    35  H    0.178278
    36  H    0.133840
    37  H    0.151189
    38  H    0.142151
    39  H    0.155017
    40  H    0.131334
    41  H    0.159740
    42  H    0.141050
    43  H    0.141497
    44  H    0.166533
    45  H    0.133973
    46  H    0.169681
    47  H    0.117903
    48  H    0.148474
    49  H    0.141936
    50  H    0.138998
    51  H    0.168335
    52  H    0.123540
    53  H    0.176803
 Sum of Mulliken charges =   0.00000
 Mulliken charges with hydrogens summed into heavy atoms:
               1
     1  N   -0.555756
     2  C    0.137374
     3  C    0.116939
     4  N   -0.380921
     5  C    0.122090
     6  C    0.117396
     7  N   -0.546857
     8  P    0.717947
     9  N   -0.542394
    10  C    0.131096
    11  C    0.133863
    12  C    0.212722
    13  C   -0.000722
    14  C   -0.023461
    15  C    0.207724
    16  C   -0.010597
    17  C   -0.008647
    18  C    0.201788
    19  C   -0.020995
    20  C   -0.008590
 APT charges:
               1
     1  N   -0.880909
     2  C    0.272457
     3  C    0.351075
     4  N   -0.588057
     5  C    0.313932
     6  C    0.263392
     7  N   -0.901831
     8  P    1.257037
     9  N   -0.822616
    10  C    0.231604
    11  C    0.365047
    12  C    0.459217
    13  C    0.013683
    14  C    0.034483
    15  C    0.496287
    16  C   -0.016703
    17  C    0.022970
    18  C    0.479550
    19  C   -0.001471
    20  C    0.028446
    21  H   -0.086354
    22  H   -0.072888
    23  H   -0.003645
    24  H   -0.103404
    25  H   -0.053006
    26  H   -0.054321
    27  H   -0.056448
    28  H   -0.062936
    29  H   -0.055681
    30  H   -0.078921
    31  H   -0.018370
    32  H   -0.096564
    33  H   -0.111034
    34  H   -0.021014
    35  H    0.021251
    36  H   -0.042466
    37  H   -0.019870
    38  H   -0.031307
    39  H    0.002675
    40  H   -0.113905
    41  H   -0.002139
    42  H   -0.019312
    43  H   -0.037522
    44  H    0.003296
    45  H   -0.040164
    46  H    0.004111
    47  H   -0.120755
    48  H   -0.012632
    49  H   -0.015099
    50  H   -0.032393
    51  H    0.002363
    52  H   -0.062447
    53  H    0.013305
 Sum of APT charges =   0.00000
 APT charges with hydrogens summed into heavy atoms:
               1
     1  N   -0.880909
     2  C    0.113216
     3  C    0.244026
     4  N   -0.588057
     5  C    0.206604
     6  C    0.144009
     7  N   -0.901831
     8  P    1.257037
     9  N   -0.822616
    10  C    0.097002
    11  C    0.250113
    12  C    0.348184
    13  C   -0.028546
    14  C   -0.014019
    15  C    0.382382
    16  C   -0.075676
    17  C   -0.009786
    18  C    0.358795
    19  C   -0.061595
    20  C   -0.018333
 Electronic spatial extent (au):  <R**2>=           5496.2545
 Charge=              0.0000 electrons
 Dipole moment (field-independent basis, Debye):
    X=             -0.4161    Y=             -0.8622    Z=              0.3018  Tot=              1.0038
 Quadrupole moment (field-independent basis, Debye-Ang):
   XX=           -128.7775   YY=           -131.7735   ZZ=           -136.3464
   XY=             -2.3820   XZ=              2.5775   YZ=              3.5486
 Traceless Quadrupole moment (field-independent basis, Debye-Ang):
   XX=              3.5216   YY=              0.5256   ZZ=             -4.0472
   XY=             -2.3820   XZ=              2.5775   YZ=              3.5486
 Octapole moment (field-independent basis, Debye-Ang**2):
  XXX=             -5.5899  YYY=             -5.9367  ZZZ=             -0.6218  XYY=              0.9892
  XXY=             -5.9173  XXZ=             -8.7596  XZZ=              1.5010  YZZ=              3.4685
  YYZ=             -4.0744  XYZ=             -3.4420
 Hexadecapole moment (field-independent basis, Debye-Ang**3):
 XXXX=          -3357.3156 YYYY=          -2446.1764 ZZZZ=          -1691.7092 XXXY=             -9.2329
 XXXZ=             11.9749 YYYX=              8.8162 YYYZ=             16.8409 ZZZX=             12.5135
 ZZZY=             10.0068 XXYY=           -976.7314 XXZZ=           -828.4338 YYZZ=           -711.0627
 XXYZ=             12.4743 YYXZ=             12.0044 ZZXY=            -21.3232
 N-N= 2.103759693047D+03 E-N=-6.897015873696D+03  KE= 1.142891217094D+03
  Exact polarizability: 217.516  -1.627 204.281   1.650   1.673 184.083
 Approx polarizability: 294.407  -4.407 289.558   5.163   7.594 274.322
 Calling FoFJK, ICntrl=    100127 FMM=F ISym2X=0 I1Cent= 0 IOpClX= 0 NMat=1 NMatS=1 NMatT=0.
 ***** Axes restored to original set *****
 -------------------------------------------------------------------
 Center     Atomic                   Forces (Hartrees/Bohr)
 Number     Number              X              Y              Z
 -------------------------------------------------------------------
      1        7          -0.001040613   -0.019638012   -0.023503967
      2        6          -0.007352784   -0.009004601   -0.000879034
      3        6          -0.000585599   -0.002306244   -0.010762550
      4        7          -0.006174998    0.024594678    0.007330122
      5        6           0.004490194   -0.007228674   -0.009663570
      6        6           0.007482039   -0.001695270    0.007311289
      7        7           0.036531541   -0.009170115   -0.047071184
      8       15          -0.033799572    0.052630568    0.058648594
      9        7           0.020424913   -0.037243844   -0.009967915
     10        6          -0.003207827   -0.017728706   -0.003475896
     11        6           0.008793733   -0.005885164    0.001515435
     12        6           0.011970449    0.027871151    0.001583052
     13        6          -0.004097711    0.000964017   -0.000826474
     14        6           0.003967007    0.001098921    0.015119639
     15        6          -0.019438482    0.012515079    0.005246104
     16        6           0.002145557   -0.002613593   -0.001753740
     17        6          -0.000220179    0.005722884    0.003738299
     18        6          -0.001200229    0.000105686    0.011350452
     19        6           0.000592411   -0.003392449   -0.000632464
     20        6          -0.005687894    0.005855557    0.002664463
     21        1          -0.005544825    0.000327425   -0.003001866
     22        1          -0.002528104   -0.002243775    0.001107816
     23        1           0.007850491   -0.009837483    0.009895962
     24        1          -0.009878860   -0.000829346   -0.000654595
     25        1          -0.003736563   -0.003245298   -0.000136800
     26        1          -0.000340208   -0.001016861    0.002069003
     27        1          -0.005260948    0.006032174   -0.001565884
     28        1          -0.002132806   -0.001997436    0.006328462
     29        1          -0.001710354    0.000443814   -0.008444456
     30        1           0.000656520   -0.001435409   -0.007086383
     31        1          -0.001964295    0.006717905   -0.005265857
     32        1           0.004586165   -0.001896713    0.006530649
     33        1           0.001166830    0.004023950   -0.003620833
     34        1          -0.001672492   -0.002120539   -0.000371895
     35        1          -0.000169069   -0.002133271   -0.001737059
     36        1           0.001473794   -0.002812823   -0.000756177
     37        1           0.000239602   -0.002330961    0.001475707
     38        1          -0.005420777    0.000290599   -0.003692256
     39        1           0.002708008   -0.000176427    0.007859215
     40        1           0.003029051    0.000288639    0.003384458
     41        1           0.000313842    0.006995955   -0.001487227
     42        1           0.002006936   -0.004734078   -0.001474737
     43        1           0.000643913    0.001881121    0.003545872
     44        1           0.000107466   -0.000062966    0.000106400
     45        1           0.002037451   -0.002288116   -0.001822300
     46        1           0.001864785   -0.002757845    0.002644888
     47        1           0.002044080    0.002210883   -0.006287267
     48        1           0.003489293    0.001557475   -0.000972599
     49        1          -0.001494248   -0.002169813    0.001799406
     50        1          -0.000791796    0.002344539   -0.001811432
     51        1          -0.000607400    0.000573019   -0.002874133
     52        1          -0.003620710   -0.003214825   -0.002095487
     53        1          -0.000936729   -0.001835382    0.002440752
 -------------------------------------------------------------------
 Cartesian Forces:  Max     0.058648594 RMS     0.010878744
 FormGI is forming the generalized inverse of G from B-inverse, IUseBI=4.

 GradGradGradGradGradGradGradGradGradGradGradGradGradGradGradGradGradGrad
 Berny optimization.
 Internal  Forces:  Max     0.056709910 RMS     0.008279249
 Search for a local minimum.
 Step number   1 out of a maximum of  316
 All quantities printed in internal units (Hartrees-Bohrs-Radians)
 Mixed Optimization -- RFO/linear search
 Second derivative matrix not updated -- analytic derivatives used.
 ITU=  0
     Eigenvalues ---   -0.00835  -0.00514  -0.00462  -0.00100   0.00114
     Eigenvalues ---    0.00235   0.00296   0.00351   0.00371   0.00490
     Eigenvalues ---    0.00525   0.00636   0.00791   0.00899   0.01099
     Eigenvalues ---    0.01269   0.01472   0.01862   0.02189   0.03165
     Eigenvalues ---    0.03342   0.03615   0.04127   0.04294   0.04349
     Eigenvalues ---    0.04411   0.04435   0.04475   0.04513   0.04591
     Eigenvalues ---    0.04611   0.04622   0.04645   0.04681   0.04745
     Eigenvalues ---    0.04762   0.04802   0.04867   0.04903   0.04959
     Eigenvalues ---    0.04984   0.05012   0.05061   0.05135   0.05175
     Eigenvalues ---    0.05233   0.05247   0.05422   0.05502   0.05580
     Eigenvalues ---    0.06127   0.06940   0.07586   0.08322   0.09028
     Eigenvalues ---    0.09108   0.09176   0.09670   0.09745   0.09965
     Eigenvalues ---    0.10189   0.11213   0.11566   0.11952   0.12061
     Eigenvalues ---    0.12188   0.12378   0.12447   0.12649   0.12675
     Eigenvalues ---    0.12855   0.12882   0.13198   0.13335   0.13713
     Eigenvalues ---    0.13843   0.14179   0.14251   0.14415   0.14460
     Eigenvalues ---    0.14635   0.14807   0.15279   0.15307   0.15424
     Eigenvalues ---    0.16605   0.17632   0.18159   0.18682   0.18881
     Eigenvalues ---    0.19457   0.19730   0.20253   0.20732   0.21256
     Eigenvalues ---    0.21601   0.23968   0.24422   0.25772   0.25922
     Eigenvalues ---    0.26134   0.26591   0.26791   0.27639   0.28002
     Eigenvalues ---    0.28375   0.28958   0.29421   0.29576   0.29761
     Eigenvalues ---    0.30490   0.30822   0.31146   0.31403   0.31664
     Eigenvalues ---    0.31921   0.32010   0.32126   0.32198   0.32331
     Eigenvalues ---    0.32632   0.32660   0.33093   0.33238   0.33346
     Eigenvalues ---    0.33470   0.33494   0.33569   0.33771   0.33792
     Eigenvalues ---    0.33829   0.33927   0.34046   0.34243   0.34274
     Eigenvalues ---    0.34383   0.34416   0.34457   0.34624   0.34752
     Eigenvalues ---    0.34801   0.34980   0.34997   0.35171   0.35296
     Eigenvalues ---    0.35398   0.35802   0.36347   0.37311   0.39686
     Eigenvalues ---    0.57967   0.63501   0.92722
 RFO step:  Lambda=-5.60027767D-02 EMin=-8.34745658D-03
 Linear search not attempted -- first point.
 Maximum step size (   0.300) exceeded in Quadratic search.
    -- Step size scaled by   0.831
 Iteration  1 RMS(Cart)=  0.17479143 RMS(Int)=  0.01037001
 Iteration  2 RMS(Cart)=  0.02718397 RMS(Int)=  0.00062425
 Iteration  3 RMS(Cart)=  0.00057054 RMS(Int)=  0.00057176
 Iteration  4 RMS(Cart)=  0.00000043 RMS(Int)=  0.00057176
 Variable       Old X    -DE/DX   Delta X   Delta X   Delta X     New X
                                 (Linear)    (Quad)   (Total)
    R1        2.76900   0.00479   0.00000   0.00027   0.00048   2.76948
    R2        3.16768   0.03744   0.00000   0.06887   0.06945   3.23713
    R3        2.79546   0.00890   0.00000   0.00509   0.00509   2.80055
    R4        2.92269   0.00112   0.00000  -0.00522  -0.00561   2.91708
    R5        2.07205   0.00556   0.00000   0.01082   0.01082   2.08287
    R6        2.06485   0.00322   0.00000   0.00679   0.00679   2.07164
    R7        2.75174   0.00332   0.00000   0.00442   0.00373   2.75547
    R8        2.07380  -0.01274   0.00000  -0.01341  -0.01341   2.06040
    R9        2.07752   0.00336   0.00000   0.00778   0.00778   2.08531
   R10        2.75970   0.00228   0.00000  -0.01236  -0.01276   2.74694
   R11        2.75441   0.00428   0.00000   0.00192   0.00140   2.75581
   R12        2.93404   0.01115   0.00000   0.01163   0.01144   2.94548
   R13        2.07733  -0.00076   0.00000  -0.00169  -0.00169   2.07564
   R14        2.07598   0.00064   0.00000   0.00125   0.00125   2.07723
   R15        2.77022  -0.00112   0.00000  -0.01026  -0.01014   2.76008
   R16        2.06952   0.00197   0.00000   0.00431   0.00431   2.07383
   R17        2.06697   0.00407   0.00000   0.00587   0.00587   2.07285
   R18        3.16895   0.03302   0.00000   0.07078   0.07115   3.24010
   R19        2.79986   0.00476   0.00000  -0.00175  -0.00175   2.79811
   R20        3.18837   0.02289   0.00000   0.06897   0.06964   3.25801
   R21        2.77739   0.01368   0.00000   0.00381   0.00414   2.78153
   R22        2.81261   0.02383   0.00000   0.00694   0.00694   2.81955
   R23        2.90619  -0.00601   0.00000  -0.00563  -0.00595   2.90023
   R24        2.07973  -0.00629   0.00000  -0.00767  -0.00767   2.07205
   R25        2.07381   0.00114   0.00000   0.01127   0.01127   2.08508
   R26        2.07185  -0.00160   0.00000  -0.00368  -0.00368   2.06817
   R27        2.07595   0.00363   0.00000   0.00845   0.00845   2.08440
   R28        2.89676  -0.00182   0.00000   0.00093   0.00093   2.89769
   R29        2.89466   0.00938   0.00000   0.00532   0.00532   2.89997
   R30        2.07774   0.00445   0.00000   0.01213   0.01213   2.08987
   R31        2.06694   0.00238   0.00000   0.00383   0.00383   2.07077
   R32        2.06681  -0.00085   0.00000  -0.00235  -0.00235   2.06446
   R33        2.07500  -0.00093   0.00000  -0.00216  -0.00216   2.07284
   R34        2.06671   0.00226   0.00000   0.00699   0.00699   2.07370
   R35        2.08776  -0.00546   0.00000  -0.01316  -0.01316   2.07460
   R36        2.05947  -0.00341   0.00000   0.00211   0.00211   2.06157
   R37        2.91454   0.00016   0.00000  -0.00461  -0.00461   2.90993
   R38        2.91554  -0.00176   0.00000  -0.00818  -0.00818   2.90736
   R39        2.07578   0.00222   0.00000   0.00632   0.00632   2.08210
   R40        2.06957  -0.00527   0.00000  -0.00248  -0.00248   2.06709
   R41        2.06231   0.00360   0.00000   0.00620   0.00620   2.06851
   R42        2.07360  -0.00071   0.00000  -0.00083  -0.00083   2.07277
   R43        2.06758  -0.00004   0.00000   0.00074   0.00074   2.06831
   R44        2.07457  -0.00105   0.00000  -0.00247  -0.00247   2.07211
   R45        2.06419   0.00132   0.00000   0.00166   0.00166   2.06586
   R46        2.91183   0.00055   0.00000   0.00256   0.00256   2.91439
   R47        2.89936   0.00069   0.00000   0.00476   0.00476   2.90412
   R48        2.07867   0.00305   0.00000   0.00391   0.00391   2.08258
   R49        2.07003   0.00090   0.00000   0.00048   0.00048   2.07051
   R50        2.06738  -0.00001   0.00000  -0.00016  -0.00016   2.06723
   R51        2.07194  -0.00006   0.00000   0.00045   0.00045   2.07238
   R52        2.06866  -0.00262   0.00000  -0.00380  -0.00380   2.06486
   R53        2.07072   0.00224   0.00000   0.00234   0.00234   2.07306
   R54        2.06613  -0.00254   0.00000   0.00070   0.00070   2.06683
    A1        2.21565   0.00731   0.00000   0.05437   0.05438   2.27002
    A2        1.98827  -0.02522   0.00000  -0.04154  -0.04283   1.94544
    A3        2.07914   0.01789   0.00000  -0.01402  -0.01539   2.06374
    A4        2.15935  -0.00429   0.00000  -0.02056  -0.02037   2.13898
    A5        1.89101   0.00093   0.00000   0.00010   0.00004   1.89105
    A6        1.89394   0.00053   0.00000   0.00502   0.00508   1.89902
    A7        1.81788   0.00211   0.00000   0.00846   0.00814   1.82602
    A8        1.83682   0.00254   0.00000   0.01556   0.01573   1.85255
    A9        1.84133  -0.00161   0.00000  -0.00762  -0.00767   1.83366
   A10        2.11965   0.00599   0.00000   0.00155   0.00130   2.12095
   A11        1.89590   0.00497   0.00000   0.02089   0.02074   1.91664
   A12        1.84242  -0.00892   0.00000  -0.03018  -0.02990   1.81252
   A13        1.93642  -0.01084   0.00000  -0.03367  -0.03346   1.90296
   A14        1.83548   0.00657   0.00000   0.03231   0.03246   1.86794
   A15        1.80436   0.00186   0.00000   0.01172   0.01208   1.81644
   A16        1.98471   0.00724   0.00000   0.02973   0.02954   2.01425
   A17        2.02599   0.00470   0.00000   0.01916   0.01921   2.04520
   A18        2.05518  -0.00859   0.00000  -0.01703  -0.01826   2.03692
   A19        2.11433   0.00248   0.00000  -0.01480  -0.01572   2.09861
   A20        1.86861  -0.00120   0.00000   0.00136   0.00167   1.87028
   A21        1.89723  -0.00426   0.00000  -0.00908  -0.00900   1.88824
   A22        1.86857   0.00248   0.00000   0.02160   0.02207   1.89065
   A23        1.88129  -0.00077   0.00000  -0.00476  -0.00499   1.87631
   A24        1.81068   0.00134   0.00000   0.01022   0.01012   1.82080
   A25        2.07561   0.00261   0.00000   0.00446   0.00472   2.08033
   A26        1.83890   0.00745   0.00000   0.02286   0.02285   1.86175
   A27        1.89997  -0.00391   0.00000  -0.00356  -0.00375   1.89622
   A28        1.93905  -0.00969   0.00000  -0.03771  -0.03771   1.90134
   A29        1.90450   0.00098   0.00000  -0.00309  -0.00321   1.90129
   A30        1.78261   0.00269   0.00000   0.02026   0.02013   1.80274
   A31        2.10111  -0.00119   0.00000   0.03043   0.03028   2.13138
   A32        1.98029   0.01397   0.00000   0.02988   0.02933   2.00962
   A33        2.19290  -0.01195   0.00000  -0.05298  -0.05378   2.13912
   A34        1.89501  -0.00053   0.00000  -0.01042  -0.01311   1.88191
   A35        1.88637   0.00039   0.00000  -0.02227  -0.02427   1.86210
   A36        1.97139  -0.01505   0.00000  -0.07739  -0.07823   1.89316
   A37        2.15489   0.00479   0.00000   0.05001   0.05020   2.20509
   A38        2.14700  -0.05671   0.00000  -0.12039  -0.12041   2.02659
   A39        1.89367   0.05255   0.00000   0.04466   0.04332   1.93699
   A40        2.10114  -0.00253   0.00000  -0.01758  -0.01721   2.08394
   A41        1.87080   0.00216   0.00000   0.00660   0.00622   1.87702
   A42        1.92079   0.00703   0.00000   0.01122   0.01124   1.93203
   A43        1.81621  -0.00077   0.00000  -0.00306  -0.00303   1.81318
   A44        1.90442  -0.00730   0.00000   0.00113   0.00091   1.90533
   A45        1.82843   0.00189   0.00000   0.00367   0.00366   1.83209
   A46        2.07205   0.00325   0.00000   0.01396   0.01299   2.08504
   A47        1.96741  -0.00553   0.00000  -0.03470  -0.03409   1.93332
   A48        1.84165   0.00361   0.00000   0.02809   0.02833   1.86998
   A49        1.90951   0.00278   0.00000   0.00439   0.00448   1.91399
   A50        1.84587  -0.00719   0.00000  -0.02576  -0.02550   1.82037
   A51        1.80129   0.00295   0.00000   0.01673   0.01686   1.81816
   A52        2.02626  -0.02154   0.00000  -0.04181  -0.04254   1.98372
   A53        1.97771   0.03695   0.00000   0.00447   0.00217   1.97988
   A54        1.88282  -0.00350   0.00000   0.02115   0.02113   1.90395
   A55        1.94629  -0.01823   0.00000  -0.03046  -0.03145   1.91484
   A56        1.81468   0.00975   0.00000   0.02295   0.02379   1.83847
   A57        1.79096  -0.00298   0.00000   0.04011   0.04017   1.83113
   A58        1.96339  -0.00087   0.00000  -0.01826  -0.01836   1.94503
   A59        1.94193  -0.00151   0.00000  -0.00001  -0.00006   1.94186
   A60        1.91669  -0.00230   0.00000  -0.00388  -0.00393   1.91276
   A61        1.90038   0.00054   0.00000  -0.00077  -0.00086   1.89952
   A62        1.88258   0.00131   0.00000   0.00528   0.00519   1.88778
   A63        1.85476   0.00315   0.00000   0.02001   0.02000   1.87476
   A64        1.95882   0.00166   0.00000  -0.01508  -0.01512   1.94370
   A65        1.91150  -0.00760   0.00000  -0.01552  -0.01557   1.89594
   A66        1.94489   0.01020   0.00000   0.02765   0.02775   1.97264
   A67        1.87029   0.00073   0.00000   0.00986   0.00968   1.87996
   A68        1.90582  -0.00347   0.00000  -0.00649  -0.00640   1.89941
   A69        1.86888  -0.00208   0.00000  -0.00048  -0.00039   1.86849
   A70        2.06230   0.00686   0.00000  -0.02953  -0.02973   2.03258
   A71        1.95875  -0.00374   0.00000   0.00765   0.00793   1.96669
   A72        1.87278  -0.00461   0.00000  -0.01207  -0.01210   1.86069
   A73        1.85627   0.00197   0.00000   0.03096   0.03101   1.88728
   A74        1.83481  -0.00140   0.00000   0.01210   0.01185   1.84666
   A75        1.86659   0.00058   0.00000  -0.00817  -0.00840   1.85820
   A76        1.95633   0.00259   0.00000  -0.00426  -0.00429   1.95203
   A77        1.94972   0.00289   0.00000   0.00699   0.00702   1.95674
   A78        1.92866  -0.00682   0.00000  -0.01539  -0.01540   1.91326
   A79        1.90817  -0.00155   0.00000  -0.00449  -0.00448   1.90369
   A80        1.86819   0.00031   0.00000   0.00577   0.00570   1.87389
   A81        1.84791   0.00244   0.00000   0.01222   0.01226   1.86017
   A82        1.94434   0.00080   0.00000   0.00244   0.00243   1.94677
   A83        1.92378  -0.00337   0.00000  -0.01446  -0.01449   1.90929
   A84        1.97326  -0.00313   0.00000  -0.01433  -0.01437   1.95889
   A85        1.88088   0.00116   0.00000   0.00465   0.00464   1.88552
   A86        1.88818   0.00064   0.00000   0.00215   0.00214   1.89032
   A87        1.84872   0.00428   0.00000   0.02142   0.02137   1.87008
   A88        1.98683  -0.00741   0.00000  -0.00367  -0.00386   1.98297
   A89        1.94899   0.01876   0.00000   0.03595   0.03605   1.98504
   A90        1.91506  -0.00642   0.00000  -0.04115  -0.04089   1.87416
   A91        1.90818  -0.00834   0.00000  -0.00650  -0.00668   1.90150
   A92        1.83892   0.00659   0.00000   0.03044   0.03038   1.86930
   A93        1.85840  -0.00385   0.00000  -0.01704  -0.01675   1.84165
   A94        1.96681  -0.00492   0.00000  -0.02981  -0.02978   1.93704
   A95        1.93888   0.00571   0.00000   0.02271   0.02279   1.96168
   A96        1.92988  -0.00349   0.00000  -0.00529  -0.00536   1.92452
   A97        1.89102  -0.00034   0.00000  -0.00158  -0.00142   1.88960
   A98        1.85809   0.00423   0.00000   0.01935   0.01924   1.87733
   A99        1.87504  -0.00109   0.00000  -0.00460  -0.00461   1.87043
   A100       1.96111  -0.00106   0.00000   0.00891   0.00890   1.97001
   A101       1.92500  -0.00715   0.00000  -0.02786  -0.02782   1.89718
   A102       1.93946   0.00433   0.00000   0.00839   0.00836   1.94782
   A103       1.86683   0.00330   0.00000   0.01028   0.01033   1.87716
   A104       1.89187  -0.00092   0.00000  -0.00440  -0.00446   1.88741
   A105       1.87610   0.00166   0.00000   0.00489   0.00491   1.88100
    D1        0.11395  -0.00079   0.00000  -0.02688  -0.02773   0.08622
    D2       -2.01680  -0.00130   0.00000  -0.02259  -0.02320  -2.04001
    D3        2.27534  -0.00015   0.00000  -0.01628  -0.01683   2.25852
    D4       -3.00979  -0.00004   0.00000   0.05354   0.05358  -2.95621
    D5        1.14264  -0.00055   0.00000   0.05783   0.05811   1.20075
    D6       -0.84840   0.00060   0.00000   0.06414   0.06448  -0.78391
    D7        0.61971  -0.00314   0.00000  -0.03926  -0.03872   0.58099
    D8       -1.52449   0.01526   0.00000   0.07480   0.07481  -1.44968
    D9       -2.54056  -0.00432   0.00000  -0.12361  -0.12482  -2.66538
   D10        1.59842   0.01407   0.00000  -0.00955  -0.01129   1.58713
   D11        1.03488   0.00245   0.00000   0.15462   0.15611   1.19099
   D12       -3.07714   0.00058   0.00000   0.17203   0.17369  -2.90344
   D13       -1.02078   0.00325   0.00000   0.14675   0.14808  -0.87271
   D14       -2.09038   0.00321   0.00000   0.22739   0.22590  -1.86448
   D15        0.08079   0.00134   0.00000   0.24480   0.24348   0.32427
   D16        2.13714   0.00401   0.00000   0.21953   0.21786   2.35500
   D17        0.75091  -0.00308   0.00000   0.01358   0.01361   0.76453
   D18       -1.52534   0.00217   0.00000   0.04040   0.04060  -1.48473
   D19        2.83224   0.00208   0.00000   0.03223   0.03243   2.86467
   D20        2.91448  -0.00294   0.00000   0.00647   0.00628   2.92076
   D21        0.63823   0.00231   0.00000   0.03329   0.03327   0.67150
   D22       -1.28739   0.00223   0.00000   0.02512   0.02510  -1.26229
   D23       -1.43565  -0.00296   0.00000   0.00716   0.00703  -1.42862
   D24        2.57129   0.00230   0.00000   0.03398   0.03402   2.60531
   D25        0.64567   0.00221   0.00000   0.02581   0.02585   0.67152
   D26       -2.00129  -0.00016   0.00000  -0.02448  -0.02435  -2.02564
   D27        0.46625   0.00089   0.00000   0.01104   0.01163   0.47789
   D28        0.25754   0.00149   0.00000  -0.02802  -0.02797   0.22957
   D29        2.72508   0.00254   0.00000   0.00750   0.00801   2.73310
   D30        2.19719   0.00227   0.00000  -0.01258  -0.01279   2.18440
   D31       -1.61846   0.00332   0.00000   0.02295   0.02320  -1.59526
   D32        1.19669   0.00516   0.00000   0.05124   0.05138   1.24807
   D33       -0.94937   0.00093   0.00000   0.03112   0.03115  -0.91822
   D34       -2.89519   0.00194   0.00000   0.02288   0.02286  -2.87233
   D35       -1.25887  -0.00150   0.00000  -0.00018   0.00030  -1.25857
   D36        2.87826  -0.00573   0.00000  -0.02030  -0.01993   2.85833
   D37        0.93244  -0.00472   0.00000  -0.02854  -0.02822   0.90422
   D38       -1.95637  -0.00574   0.00000  -0.01228  -0.01163  -1.96799
   D39        0.30924  -0.00414   0.00000  -0.02850  -0.02795   0.28129
   D40        2.26266  -0.00121   0.00000  -0.00916  -0.00882   2.25384
   D41        0.48324   0.00187   0.00000   0.04395   0.04400   0.52724
   D42        2.74885   0.00348   0.00000   0.02773   0.02768   2.77653
   D43       -1.58092   0.00640   0.00000   0.04707   0.04680  -1.53411
   D44       -0.46268  -0.00690   0.00000  -0.04034  -0.04022  -0.50290
[...]
   173    C   12  S      Ryd( 4S)     0.00005
   174    C   12  px     Val( 2p)     0.91257
   175    C   12  px     Ryd( 3p)     0.00193
   176    C   12  py     Val( 2p)     1.18638
   177    C   12  py     Ryd( 3p)     0.00498
   178    C   12  pz     Val( 2p)     0.97616
   179    C   12  pz     Ryd( 3p)     0.00292
   180    C   12  dxy    Ryd( 3d)     0.00058
   181    C   12  dxz    Ryd( 3d)     0.00136
   182    C   12  dyz    Ryd( 3d)     0.00085
   183    C   12  dx2y2  Ryd( 3d)     0.00135
   184    C   12  dz2    Ryd( 3d)     0.00095
 
   185    C   13  S      Cor( 1S)     1.99940
   186    C   13  S      Val( 2S)     1.11219
   187    C   13  S      Ryd( 3S)     0.00078
   188    C   13  S      Ryd( 4S)     0.00002
   189    C   13  px     Val( 2p)     1.24179
   190    C   13  px     Ryd( 3p)     0.00189
   191    C   13  py     Val( 2p)     1.19884
   192    C   13  py     Ryd( 3p)     0.00156
   193    C   13  pz     Val( 2p)     1.13396
   194    C   13  pz     Ryd( 3p)     0.00155
   195    C   13  dxy    Ryd( 3d)     0.00024
   196    C   13  dxz    Ryd( 3d)     0.00106
   197    C   13  dyz    Ryd( 3d)     0.00050
   198    C   13  dx2y2  Ryd( 3d)     0.00108
   199    C   13  dz2    Ryd( 3d)     0.00043
 
   200    C   14  S      Cor( 1S)     1.99939
   201    C   14  S      Val( 2S)     1.10548
   202    C   14  S      Ryd( 3S)     0.00061
   203    C   14  S      Ryd( 4S)     0.00002
   204    C   14  px     Val( 2p)     1.13106
   205    C   14  px     Ryd( 3p)     0.00318
   206    C   14  py     Val( 2p)     1.22748
   207    C   14  py     Ryd( 3p)     0.00187
   208    C   14  pz     Val( 2p)     1.20814
   209    C   14  pz     Ryd( 3p)     0.00203
   210    C   14  dxy    Ryd( 3d)     0.00022
   211    C   14  dxz    Ryd( 3d)     0.00093
   212    C   14  dyz    Ryd( 3d)     0.00076
   213    C   14  dx2y2  Ryd( 3d)     0.00097
   214    C   14  dz2    Ryd( 3d)     0.00037
 
   215    C   15  S      Cor( 1S)     1.99922
   216    C   15  S      Val( 2S)     0.95383
   217    C   15  S      Ryd( 3S)     0.00181
   218    C   15  S      Ryd( 4S)     0.00004
   219    C   15  px     Val( 2p)     0.94892
   220    C   15  px     Ryd( 3p)     0.00262
   221    C   15  py     Val( 2p)     1.06063
   222    C   15  py     Ryd( 3p)     0.00641
   223    C   15  pz     Val( 2p)     1.07646
   224    C   15  pz     Ryd( 3p)     0.00241
   225    C   15  dxy    Ryd( 3d)     0.00131
   226    C   15  dxz    Ryd( 3d)     0.00128
   227    C   15  dyz    Ryd( 3d)     0.00123
   228    C   15  dx2y2  Ryd( 3d)     0.00059
   229    C   15  dz2    Ryd( 3d)     0.00063
 
   230    C   16  S      Cor( 1S)     1.99938
   231    C   16  S      Val( 2S)     1.11063
   232    C   16  S      Ryd( 3S)     0.00057
   233    C   16  S      Ryd( 4S)     0.00002
   234    C   16  px     Val( 2p)     1.16801
   235    C   16  px     Ryd( 3p)     0.00207
   236    C   16  py     Val( 2p)     1.23091
   237    C   16  py     Ryd( 3p)     0.00230
   238    C   16  pz     Val( 2p)     1.16476
   239    C   16  pz     Ryd( 3p)     0.00118
   240    C   16  dxy    Ryd( 3d)     0.00085
   241    C   16  dxz    Ryd( 3d)     0.00087
   242    C   16  dyz    Ryd( 3d)     0.00098
   243    C   16  dx2y2  Ryd( 3d)     0.00032
   244    C   16  dz2    Ryd( 3d)     0.00024
 
   245    C   17  S      Cor( 1S)     1.99940
   246    C   17  S      Val( 2S)     1.10125
   247    C   17  S      Ryd( 3S)     0.00043
   248    C   17  S      Ryd( 4S)     0.00002
   249    C   17  px     Val( 2p)     1.23673
   250    C   17  px     Ryd( 3p)     0.00186
   251    C   17  py     Val( 2p)     1.13818
   252    C   17  py     Ryd( 3p)     0.00151
   253    C   17  pz     Val( 2p)     1.19853
   254    C   17  pz     Ryd( 3p)     0.00172
   255    C   17  dxy    Ryd( 3d)     0.00072
   256    C   17  dxz    Ryd( 3d)     0.00104
   257    C   17  dyz    Ryd( 3d)     0.00087
   258    C   17  dx2y2  Ryd( 3d)     0.00045
   259    C   17  dz2    Ryd( 3d)     0.00021
 
   260    C   18  S      Cor( 1S)     1.99923
   261    C   18  S      Val( 2S)     0.95113
   262    C   18  S      Ryd( 3S)     0.00161
   263    C   18  S      Ryd( 4S)     0.00004
   264    C   18  px     Val( 2p)     1.05633
   265    C   18  px     Ryd( 3p)     0.00370
   266    C   18  py     Val( 2p)     0.87863
   267    C   18  py     Ryd( 3p)     0.00203
   268    C   18  pz     Val( 2p)     1.14758
   269    C   18  pz     Ryd( 3p)     0.00464
   270    C   18  dxy    Ryd( 3d)     0.00112
   271    C   18  dxz    Ryd( 3d)     0.00097
   272    C   18  dyz    Ryd( 3d)     0.00087
   273    C   18  dx2y2  Ryd( 3d)     0.00128
   274    C   18  dz2    Ryd( 3d)     0.00087
 
   275    C   19  S      Cor( 1S)     1.99939
   276    C   19  S      Val( 2S)     1.10694
   277    C   19  S      Ryd( 3S)     0.00058
   278    C   19  S      Ryd( 4S)     0.00002
   279    C   19  px     Val( 2p)     1.09444
   280    C   19  px     Ryd( 3p)     0.00204
   281    C   19  py     Val( 2p)     1.23970
   282    C   19  py     Ryd( 3p)     0.00195
   283    C   19  pz     Val( 2p)     1.23754
   284    C   19  pz     Ryd( 3p)     0.00164
   285    C   19  dxy    Ryd( 3d)     0.00037
   286    C   19  dxz    Ryd( 3d)     0.00079
   287    C   19  dyz    Ryd( 3d)     0.00085
   288    C   19  dx2y2  Ryd( 3d)     0.00081
   289    C   19  dz2    Ryd( 3d)     0.00042
 
   290    C   20  S      Cor( 1S)     1.99940
   291    C   20  S      Val( 2S)     1.10245
   292    C   20  S      Ryd( 3S)     0.00054
   293    C   20  S      Ryd( 4S)     0.00002
   294    C   20  px     Val( 2p)     1.23399
   295    C   20  px     Ryd( 3p)     0.00211
   296    C   20  py     Val( 2p)     1.15676
   297    C   20  py     Ryd( 3p)     0.00157
   298    C   20  pz     Val( 2p)     1.18249
   299    C   20  pz     Ryd( 3p)     0.00164
   300    C   20  dxy    Ryd( 3d)     0.00031
   301    C   20  dxz    Ryd( 3d)     0.00060
   302    C   20  dyz    Ryd( 3d)     0.00062
   303    C   20  dx2y2  Ryd( 3d)     0.00102
   304    C   20  dz2    Ryd( 3d)     0.00076
 
   305    H   21  S      Val( 1S)     0.77773
   306    H   21  S      Ryd( 2S)     0.01174
 
   307    H   22  S      Val( 1S)     0.80023
   308    H   22  S      Ryd( 2S)     0.01818
 
   309    H   23  S      Val( 1S)     0.76609
   310    H   23  S      Ryd( 2S)     0.01099
 
   311    H   24  S      Val( 1S)     0.76751
   312    H   24  S      Ryd( 2S)     0.00619
 
   313    H   25  S      Val( 1S)     0.76676
   314    H   25  S      Ryd( 2S)     0.01100
 
   315    H   26  S      Val( 1S)     0.75746
   316    H   26  S      Ryd( 2S)     0.00874
 
   317    H   27  S      Val( 1S)     0.77434
   318    H   27  S      Ryd( 2S)     0.01109
 
   319    H   28  S      Val( 1S)     0.75600
   320    H   28  S      Ryd( 2S)     0.01566
 
   321    H   29  S      Val( 1S)     0.76842
   322    H   29  S      Ryd( 2S)     0.01117
 
   323    H   30  S      Val( 1S)     0.79664
   324    H   30  S      Ryd( 2S)     0.01248
 
   325    H   31  S      Val( 1S)     0.77031
   326    H   31  S      Ryd( 2S)     0.01543
 
   327    H   32  S      Val( 1S)     0.77130
   328    H   32  S      Ryd( 2S)     0.00567
 
   329    H   33  S      Val( 1S)     0.77817
   330    H   33  S      Ryd( 2S)     0.01334
 
   331    H   34  S      Val( 1S)     0.76961
   332    H   34  S      Ryd( 2S)     0.00704
 
   333    H   35  S      Val( 1S)     0.78032
   334    H   35  S      Ryd( 2S)     0.01100
 
   335    H   36  S      Val( 1S)     0.77064
   336    H   36  S      Ryd( 2S)     0.00801
 
   337    H   37  S      Val( 1S)     0.77881
   338    H   37  S      Ryd( 2S)     0.00684
 
   339    H   38  S      Val( 1S)     0.77699
   340    H   38  S      Ryd( 2S)     0.00613
 
   341    H   39  S      Val( 1S)     0.78323
   342    H   39  S      Ryd( 2S)     0.00927
 
   343    H   40  S      Val( 1S)     0.76306
   344    H   40  S      Ryd( 2S)     0.00662
 
   345    H   41  S      Val( 1S)     0.76087
   346    H   41  S      Ryd( 2S)     0.00831
 
   347    H   42  S      Val( 1S)     0.78596
   348    H   42  S      Ryd( 2S)     0.01155
 
   349    H   43  S      Val( 1S)     0.76520
   350    H   43  S      Ryd( 2S)     0.00317
 
   351    H   44  S      Val( 1S)     0.75986
   352    H   44  S      Ryd( 2S)     0.00121
 
   353    H   45  S      Val( 1S)     0.75996
   354    H   45  S      Ryd( 2S)     0.00115
 
   355    H   46  S      Val( 1S)     0.76428
   356    H   46  S      Ryd( 2S)     0.00648
 
   357    H   47  S      Val( 1S)     0.77435
   358    H   47  S      Ryd( 2S)     0.01291
 
   359    H   48  S      Val( 1S)     0.78113
   360    H   48  S      Ryd( 2S)     0.00898
 
   361    H   49  S      Val( 1S)     0.77851
   362    H   49  S      Ryd( 2S)     0.00865
 
   363    H   50  S      Val( 1S)     0.77566
   364    H   50  S      Ryd( 2S)     0.00474
 
   365    H   51  S      Val( 1S)     0.77085
   366    H   51  S      Ryd( 2S)     0.00433
 
   367    H   52  S      Val( 1S)     0.76150
   368    H   52  S      Ryd( 2S)     0.00187
 
   369    H   53  S      Val( 1S)     0.77680
   370    H   53  S      Ryd( 2S)     0.00584

 WARNING:  1 low occupancy (<1.9990e) core orbital  found on  P    8


 Summary of Natural Population Analysis:                  
                                                          
                                       Natural Population 
                Natural  -----------------------------------------------
    Atom  No    Charge         Core      Valence    Rydberg      Total
 -----------------------------------------------------------------------
      N    1   -0.82539      1.99941     5.80554    0.02045     7.82539
      C    2   -0.26252      1.99928     4.24490    0.01834     6.26252
      C    3   -0.25997      1.99929     4.24360    0.01708     6.25997
      N    4   -0.43326      1.99940     5.42104    0.01282     7.43326
      C    5   -0.26567      1.99930     4.24804    0.01833     6.26567
      C    6   -0.27651      1.99927     4.25780    0.01944     6.27651
      N    7   -0.65361      1.99942     5.63313    0.02106     7.65361
      P    8    1.38638      9.99829     3.53473    0.08060    13.61362
      N    9   -0.81989      1.99939     5.80332    0.01718     7.81989
      C   10   -0.27409      1.99930     4.25633    0.01846     6.27409
      C   11   -0.26871      1.99930     4.25138    0.01803     6.26871
      C   12   -0.04946      1.99924     4.03343    0.01679     6.04946
      C   13   -0.69527      1.99940     4.68677    0.00911     6.69527
      C   14   -0.68250      1.99939     4.67216    0.01096     6.68250
      C   15   -0.05738      1.99922     4.03984    0.01832     6.05738
      C   16   -0.68309      1.99938     4.67430    0.00940     6.68309
      C   17   -0.68292      1.99940     4.67469    0.00882     6.68292
      C   18   -0.05003      1.99923     4.03367    0.01714     6.05003
      C   19   -0.68750      1.99939     4.67863    0.00949     6.68750
      C   20   -0.68427      1.99940     4.67568    0.00919     6.68427
      H   21    0.21053      0.00000     0.77773    0.01174     0.78947
      H   22    0.18159      0.00000     0.80023    0.01818     0.81841
      H   23    0.22292      0.00000     0.76609    0.01099     0.77708
      H   24    0.22629      0.00000     0.76751    0.00619     0.77371
      H   25    0.22225      0.00000     0.76676    0.01100     0.77775
      H   26    0.23380      0.00000     0.75746    0.00874     0.76620
      H   27    0.21456      0.00000     0.77434    0.01109     0.78544
      H   28    0.22834      0.00000     0.75600    0.01566     0.77166
      H   29    0.22042      0.00000     0.76842    0.01117     0.77958
      H   30    0.19088      0.00000     0.79664    0.01248     0.80912
      H   31    0.21426      0.00000     0.77031    0.01543     0.78574
      H   32    0.22303      0.00000     0.77130    0.00567     0.77697
      H   33    0.20850      0.00000     0.77817    0.01334     0.79150
      H   34    0.22335      0.00000     0.76961    0.00704     0.77665
      H   35    0.20868      0.00000     0.78032    0.01100     0.79132
      H   36    0.22135      0.00000     0.77064    0.00801     0.77865
      H   37    0.21435      0.00000     0.77881    0.00684     0.78565
      H   38    0.21688      0.00000     0.77699    0.00613     0.78312
      H   39    0.20750      0.00000     0.78323    0.00927     0.79250
      H   40    0.23032      0.00000     0.76306    0.00662     0.76968
      H   41    0.23081      0.00000     0.76087    0.00831     0.76919
      H   42    0.20248      0.00000     0.78596    0.01155     0.79752
      H   43    0.23163      0.00000     0.76520    0.00317     0.76837
      H   44    0.23893      0.00000     0.75986    0.00121     0.76107
      H   45    0.23889      0.00000     0.75996    0.00115     0.76111
      H   46    0.22924      0.00000     0.76428    0.00648     0.77076
      H   47    0.21274      0.00000     0.77435    0.01291     0.78726
      H   48    0.20988      0.00000     0.78113    0.00898     0.79012
      H   49    0.21284      0.00000     0.77851    0.00865     0.78716
      H   50    0.21960      0.00000     0.77566    0.00474     0.78040
      H   51    0.22482      0.00000     0.77085    0.00433     0.77518
      H   52    0.23664      0.00000     0.76150    0.00187     0.76336
      H   53    0.21736      0.00000     0.77680    0.00584     0.78264
 =======================================================================
   * Total *    0.00000     47.98570   117.35751    0.65680   166.00000

                                 Natural Population      
 --------------------------------------------------------
   Core                      47.98570 ( 99.9702% of  48)
   Valence                  117.35751 ( 99.4555% of 118)
   Natural Minimal Basis    165.34320 ( 99.6043% of 166)
   Natural Rydberg Basis      0.65680 (  0.3957% of 166)
 --------------------------------------------------------

    Atom  No          Natural Electron Configuration
 ----------------------------------------------------------------------------
      N    1      [core]2S( 1.34)2p( 4.47)3S( 0.01)3p( 0.01)
      C    2      [core]2S( 1.02)2p( 3.23)3p( 0.01)3d( 0.01)
      C    3      [core]2S( 1.01)2p( 3.24)3p( 0.01)3d( 0.01)
      N    4      [core]2S( 1.18)2p( 4.24)3p( 0.01)
      C    5      [core]2S( 1.02)2p( 3.23)3p( 0.01)3d( 0.01)
      C    6      [core]2S( 1.03)2p( 3.22)3p( 0.01)
      N    7      [core]2S( 1.34)2p( 4.30)3S( 0.01)3p( 0.01)
      P    8      [core]3S( 1.31)3p( 2.22)4S( 0.01)3d( 0.05)4p( 0.03)
      N    9      [core]2S( 1.31)2p( 4.50)3p( 0.01)
      C   10      [core]2S( 1.02)2p( 3.24)3p( 0.01)
      C   11      [core]2S( 1.00)2p( 3.25)3p( 0.01)3d( 0.01)
      C   12      [core]2S( 0.96)2p( 3.08)3p( 0.01)3d( 0.01)
      C   13      [core]2S( 1.11)2p( 3.57)3p( 0.01)
      C   14      [core]2S( 1.11)2p( 3.57)3p( 0.01)
      C   15      [core]2S( 0.95)2p( 3.09)3p( 0.01)3d( 0.01)
      C   16      [core]2S( 1.11)2p( 3.56)3p( 0.01)
      C   17      [core]2S( 1.10)2p( 3.57)3p( 0.01)
      C   18      [core]2S( 0.95)2p( 3.08)3p( 0.01)3d( 0.01)
      C   19      [core]2S( 1.11)2p( 3.57)3p( 0.01)
      C   20      [core]2S( 1.10)2p( 3.57)3p( 0.01)
      H   21            1S( 0.78)2S( 0.01)
      H   22            1S( 0.80)2S( 0.02)
      H   23            1S( 0.77)2S( 0.01)
      H   24            1S( 0.77)2S( 0.01)
      H   25            1S( 0.77)2S( 0.01)
      H   26            1S( 0.76)2S( 0.01)
      H   27            1S( 0.77)2S( 0.01)
      H   28            1S( 0.76)2S( 0.02)
      H   29            1S( 0.77)2S( 0.01)
      H   30            1S( 0.80)2S( 0.01)
      H   31            1S( 0.77)2S( 0.02)
      H   32            1S( 0.77)2S( 0.01)
      H   33            1S( 0.78)2S( 0.01)
      H   34            1S( 0.77)2S( 0.01)
      H   35            1S( 0.78)2S( 0.01)
      H   36            1S( 0.77)2S( 0.01)
      H   37            1S( 0.78)2S( 0.01)
      H   38            1S( 0.78)2S( 0.01)
      H   39            1S( 0.78)2S( 0.01)
      H   40            1S( 0.76)2S( 0.01)
      H   41            1S( 0.76)2S( 0.01)
      H   42            1S( 0.79)2S( 0.01)
      H   43            1S( 0.77)
      H   44            1S( 0.76)
      H   45            1S( 0.76)
      H   46            1S( 0.76)2S( 0.01)
      H   47            1S( 0.77)2S( 0.01)
      H   48            1S( 0.78)2S( 0.01)
      H   49            1S( 0.78)2S( 0.01)
      H   50            1S( 0.78)
      H   51            1S( 0.77)
      H   52            1S( 0.76)
      H   53            1S( 0.78)2S( 0.01)


 NBO analysis skipped by request.
 1\1\GINC-DELLA-R4C4N2\SP\RB3LYP TD-FC\6-31G(d)\C15H33N4P1\BJS4\24-Aug-
 2020\0\\# TD(NStates=10, Root=1) B3LYP/6-31G* scf=qc volume pop=NPA de
 nsity=current Geom=AllCheck Guess=Read\\Title Card Required\\0,1\N,0,-
 1.2928811859,-0.2294601675,1.0922310187\C,0,-1.1806495835,-1.398152035
 4,0.2164978557\C,0,-0.0748997913,-1.3380264205,-0.8347297553\N,0,1.256
 187717,-1.183220671,-0.2974809443\C,0,2.1261577228,-0.1354830293,-0.76
 6559637\C,0,2.1829503439,1.080765378,0.1875172015\N,0,0.8836607292,1.5
 226779253,0.6791096206\P,0,-0.0267091761,0.6756870983,1.9061121707\N,0
 ,1.1437949672,-0.3885542359,2.6261006796\C,0,2.069386969,-1.3943476206
 ,2.0767499588\C,0,1.7033998428,-2.0673049933,0.7447900984\C,0,1.532663
 932,-0.0964839804,4.0411826218\C,0,1.3479451768,1.3570804461,4.4987252
 115\C,0,0.8582999942,-1.0646279271,5.0268640923\C,0,0.3263513883,2.757
 5232232,0.0833497766\C,0,-0.6271087302,2.5009769299,-1.0993045552\C,0,
 -0.3204068636,3.6956049978,1.1159806757\C,0,-2.603669341,-0.2416218407
 ,1.8112176305\C,0,-2.6253210578,-1.1458689454,3.0560836087\C,0,-3.1482
 066871,1.1545465621,2.1397412417\H,0,-2.1259379536,-1.5025757622,-0.33
 59163844\H,0,-1.0793832612,-2.3299973449,0.8004859051\H,0,-0.269406506
 8,-0.4946592053,-1.5021587153\H,0,-0.1704816098,-2.2579782369,-1.44563
 48764\H,0,1.7709438964,0.190680061,-1.7510244644\H,0,3.1492923949,-0.5
 235196756,-0.9160937851\H,0,2.6652853338,1.918258713,-0.3326942568\H,0
 ,2.8301935958,0.8448132638,1.0389398378\H,0,2.1713406681,-2.2052092374
 ,2.8132889341\H,0,3.078348791,-0.9582208614,1.9850213561\H,0,0.9198127
 641,-2.8098521713,0.919884997\H,0,2.6007274582,-2.6359315739,0.4334610
 67\H,0,2.6161811252,-0.2837477242,4.0862958552\H,0,0.2951509326,1.6280
 050536,4.6090643724\H,0,1.8062824439,2.0584107232,3.7937473363\H,0,1.8
 360670303,1.4833418624,5.4730475199\H,0,-0.214320904,-0.8569838697,5.0
 982942318\H,0,1.2911887858,-0.9638614635,6.0301428318\H,0,0.9786493277
 ,-2.1069967352,4.7120803262\H,0,1.1943987839,3.3000354327,-0.314942778
 9\H,0,-1.498397965,1.9238646132,-0.774761104\H,0,-0.1246033968,1.93679
 89441,-1.8933604531\H,0,-0.9757786213,3.4479038972,-1.531178504\H,0,-1
 .2532753883,3.2937104773,1.5194726879\H,0,-0.5495148237,4.6563791873,0
 .6393415093\H,0,0.3598520513,3.878227036,1.9539127533\H,0,-3.307815017
 2,-0.6749098764,1.0878552574\H,0,-2.0324305356,-0.7055347582,3.8640042
 894\H,0,-2.218312282,-2.139606078,2.8403038326\H,0,-3.6514603709,-1.27
 54150423,3.4225555632\H,0,-2.5557533834,1.6566246629,2.9087978555\H,0,
 -4.1773928143,1.0640230529,2.5087570352\H,0,-3.1621969162,1.7868519423
 ,1.2461513968\\Version=ES64L-G16RevA.03\State=1-A\HF=-1151.7849508\RMS
 D=3.614e-09\Dipole=0.5949109,0.2433127,-1.1947148\Quadrupole=0.8435033
 ,1.3931554,-2.2366586,-1.1587111,-2.0188362,0.2272232\PG=C01 [X(C15H33
 N4P1)]\\@


 THERE IS SOMETHING FASCINATING ABOUT SCIENCE.
 ONE GETS SUCH WHOLESALE CONJECTURE OUT OF SUCH TRIFLING INVESTMENTS.

                                                       -- MARK TWAIN
 Job cpu time:       0 days  2 hours  4 minutes 17.0 seconds.
 Elapsed time:       0 days  0 hours 18 minutes  3.2 seconds.
 File lengths (MBytes):  RWF=   1125 Int=      0 D2E=      0 Chk=    268 Scr=      1
 Normal termination of Gaussian 16 at Mon Aug 24 16:05:51 2020.
