 Entering Gaussian System, Link 0=g16
 Input=base_9_conf9123.com
 Output=base_9_conf9123.log
 Initial command:
 /opt/export//g16/l1.exe "/scratch/bjs4/job.29260/Gau-29262.inp" -scrdir="/scratch/bjs4/job.29260/"
 Entering Link 1 = /opt/export//g16/l1.exe PID=     29263.
  
 Copyright (c) 1988,1990,1992,1993,1995,1998,2003,2009,2016,
            Gaussian, Inc.  All Rights Reserved.
  
 This is part of the Gaussian(R) 16 program.  It is based on
 the Gaussian(R) 09 system (copyright 2009, Gaussian, Inc.),
 the Gaussian(R) 03 system (copyright 2003, Gaussian, Inc.),
 the Gaussian(R) 98 system (copyright 1998, Gaussian, Inc.),
 the Gaussian(R) 94 system (copyright 1995, Gaussian, Inc.),
 the Gaussian 92(TM) system (copyright 1992, Gaussian, Inc.),
 the Gaussian 90(TM) system (copyright 1990, Gaussian, Inc.),
 the Gaussian 88(TM) system (copyright 1988, Gaussian, Inc.),
 the Gaussian 86(TM) system (copyright 1986, Carnegie Mellon
 University), and the Gaussian 82(TM) system (copyright 1983,
 Carnegie Mellon University). Gaussian is a federally registered
 trademark of Gaussian, Inc.
  
 This software contains proprietary and confidential information,
 including trade secrets, belonging to Gaussian, Inc.
  
 This software is provided under written license and may be
 used, copied, transmitted, or stored only in accord with that
 written license.
  
 The following legend is applicable only to US Government
 contracts under FAR:
  
                    RESTRICTED RIGHTS LEGEND
  
 Use, reproduction and disclosure by the US Government is
 subject to restrictions as set forth in subparagraphs (a)
 and (c) of the Commercial Computer Software - Restricted
 Rights clause in FAR 52.227-19.
  
 Gaussian, Inc.
 340 Quinnipiac St., Bldg. 40, Wallingford CT 06492
  
  
 ---------------------------------------------------------------
 Warning -- This program may not be used in any manner that
 competes with the business of Gaussian, Inc. or will provide
 assistance to any competitor of Gaussian, Inc.  The licensee
 of this program is prohibited from giving any competitor of
 Gaussian, Inc. access to this program.  By using this program,
 the user acknowledges that Gaussian, Inc. is engaged in the
 business of creating and licensing software in the field of
 computational chemistry and represents and warrants to the
 licensee that it is not a competitor of Gaussian, Inc. and that
 it will not use this program in any manner prohibited above.
 ---------------------------------------------------------------
  

 Cite this work as:
 Gaussian 16, Revision A.03,
 M. J. Frisch, G. W. Trucks, H. B. Schlegel, G. E. Scuseria, 
 M. A. Robb, J. R. Cheeseman, G. Scalmani, V. Barone, 
 G. A. Petersson, H. Nakatsuji, X. Li, M. Caricato, A. V. Marenich, 
 J. Bloino, B. G. Janesko, R. Gomperts, B. Mennucci, H. P. Hratchian, 
 J. V. Ortiz, A. F. Izmaylov, J. L. Sonnenberg, D. Williams-Young, 
 F. Ding, F. Lipparini, F. Egidi, J. Goings, B. Peng, A. Petrone, 
 T. Henderson, D. Ranasinghe, V. G. Zakrzewski, J. Gao, N. Rega, 
 G. Zheng, W. Liang, M. Hada, M. Ehara, K. Toyota, R. Fukuda, 
 J. Hasegawa, M. Ishida, T. Nakajima, Y. Honda, O. Kitao, H. Nakai, 
 T. Vreven, K. Throssell, J. A. Montgomery, Jr., J. E. Peralta, 
 F. Ogliaro, M. J. Bearpark, J. J. Heyd, E. N. Brothers, K. N. Kudin, 
 V. N. Staroverov, T. A. Keith, R. Kobayashi, J. Normand, 
 K. Raghavachari, A. P. Rendell, J. C. Burant, S. S. Iyengar, 
 J. Tomasi, M. Cossi, J. M. Millam, M. Klene, C. Adamo, R. Cammi, 
 J. W. Ochterski, R. L. Martin, K. Morokuma, O. Farkas, 
 J. B. Foresman, and D. J. Fox, Gaussian, Inc., Wallingford CT, 2016.
 
 ******************************************
 Gaussian 16:  ES64L-G16RevA.03 25-Dec-2016
                24-Aug-2020 
 ******************************************
 %nprocshared=7
 Will use up to    7 processors via shared memory.
 %Mem=14GB
 %Chk=base_9_conf91.chk
 ---------------------------------
 # opt=CalcAll B3LYP/6-31G* scf=qc
 ---------------------------------
 1/10=4,18=20,19=15,26=3,38=1/1,3;
 2/9=110,12=2,17=6,18=5,40=1/2;
 3/5=1,6=6,7=1,11=2,25=1,30=1,71=2,74=-5,140=1/1,2,3;
 4//1;
 5/5=2,8=3,38=5/8;
 8/6=4,10=90,11=11/1;
 11/6=1,8=1,9=11,15=111,16=1/1,2,10;
 10/6=1/2;
 6/7=2,8=2,9=2,10=2,18=1,28=1/1;
 7/10=1,25=1/1,2,3,16;
 1/10=4,18=20,19=15,26=3/3(3);
 2/9=110/2;
 7/8=1,9=1,25=1,44=-1/16;
 99//99;
 2/9=110/2;
 3/5=1,6=6,7=1,11=2,25=1,30=1,71=2,74=-5,140=1/1,2,3;
 4/5=5,16=3,69=1/1;
 5/5=2,8=3,38=5/8;
 8/6=4,10=90,11=11/1;
 11/6=1,8=1,9=11,15=111,16=1/1,2,10;
 10/6=1/2;
 7/10=1,25=1/1,2,3,16;
 1/10=4,18=20,19=15,26=3/3(-8);
 2/9=110/2;
 6/7=2,8=2,9=2,10=2,18=1,19=2,28=1/1;
 7/8=1,9=1,25=1,44=-1/16;
 99//99;
 -------------------
 Title Card Required
 -------------------
 Symbolic Z-matrix:
 Charge =  0 Multiplicity = 1
 P                     1.082    -0.0564    0.0094 
 N1                    1.0483    0.5576    1.4384 
 C                     1.0614   -0.1704    2.7563 
 C                     2.42563  -0.46155   3.39671 
 C                     0.26847   0.63454   3.8243 
 C                     0.22756  -1.47461   2.63046 
 N                     1.1236    1.2666   -1.0195 
 C                     0.54562   2.57955  -0.75435 
 C                     0.54828   3.27506  -2.10717 
 C                     1.7871    2.73194  -2.77949 
 C                     1.88529   1.30658  -2.26334 
 N                    -0.698    -0.0564    0.0094 
 C                    -1.3698    0.46408   1.22075 
 C                    -2.7694    0.91034   0.83387 
 C                    -2.6177    1.28875  -0.61142 
 C                    -1.559     0.32025  -1.10625 
 N                     2.862    -0.0564    0.0094 
 C                     3.6924   -0.7612    0.97797 
 C                     5.0651   -0.8789    0.32487 
 C                     4.7644   -0.8697   -1.15831 
 C                     3.5367    0.0115   -1.27775 
 H                     2.84044   0.42961   3.87233 
 H                     3.18982  -0.82348   2.7147 
 H                     2.32847  -1.20405   4.2004 
 H                     0.78261   1.55069   4.12236 
 H                     0.15026   0.04593   4.74523 
 H                    -0.73609   0.89923   3.47639 
 H                     0.71779  -2.25751   2.06198 
 H                    -0.74822  -1.28335   2.16528 
 H                     0.03443  -1.9236    3.61287 
 H                     1.15182   3.13752  -0.03536 
 H                    -0.48097   2.52669  -0.37348 
 H                     0.56721   4.36293  -2.02182 
 H                    -0.33844   2.99573  -2.6896 
 H                     2.66103   3.31209  -2.46113 
 H                     1.72501   2.77807  -3.87072 
 H                     2.94074   1.04865  -2.13683 
 H                     1.4556    0.60435  -2.98204 
 H                    -0.8173    1.32049   1.62114 
 H                    -1.4533   -0.2972    2.00076 
 H                    -3.1286    1.7448    1.4443 
 H                    -3.4816    0.08272   0.93376 
 H                    -2.272     2.32313  -0.70809 
 H                    -3.5571    1.18587  -1.16532 
 H                    -1.0583    0.77632  -1.94907 
 H                    -2.0907   -0.57712  -1.43253 
 H                     3.3475   -1.75524   1.2371 
 H                     3.7732   -0.20815   1.92618 
 H                     5.5891   -1.79161   0.62818 
 H                     5.6907   -0.01945   0.5878 
 H                     4.5443   -1.88603  -1.50537 
 H                     5.6076   -0.49347  -1.74503 
 H                     2.9026   -0.29984  -2.11137 
 H                     3.8322    1.04818  -1.46962 
 

 GradGradGradGradGradGradGradGradGradGradGradGradGradGradGradGradGradGrad
 Berny optimization.
 Initialization pass.
                           ----------------------------
                           !    Initial Parameters    !
                           ! (Angstroms and Degrees)  !
 --------------------------                            --------------------------
 ! Name  Definition              Value          Derivative Info.                !
 --------------------------------------------------------------------------------
 ! R1    R(1,2)                  1.5557         calculate D2E/DX2 analytically  !
 ! R2    R(1,7)                  1.6765         calculate D2E/DX2 analytically  !
 ! R3    R(1,12)                 1.78           calculate D2E/DX2 analytically  !
 ! R4    R(1,17)                 1.78           calculate D2E/DX2 analytically  !
 ! R5    R(2,3)                  1.5057         calculate D2E/DX2 analytically  !
 ! R6    R(3,4)                  1.5349         calculate D2E/DX2 analytically  !
 ! R7    R(3,5)                  1.5548         calculate D2E/DX2 analytically  !
 ! R8    R(3,6)                  1.5531         calculate D2E/DX2 analytically  !
 ! R9    R(4,22)                 1.092          calculate D2E/DX2 analytically  !
 ! R10   R(4,23)                 1.0863         calculate D2E/DX2 analytically  !
 ! R11   R(4,24)                 1.0985         calculate D2E/DX2 analytically  !
 ! R12   R(5,25)                 1.092          calculate D2E/DX2 analytically  !
 ! R13   R(5,26)                 1.0993         calculate D2E/DX2 analytically  !
 ! R14   R(5,27)                 1.0956         calculate D2E/DX2 analytically  !
 ! R15   R(6,28)                 1.0846         calculate D2E/DX2 analytically  !
 ! R16   R(6,29)                 1.0978         calculate D2E/DX2 analytically  !
 ! R17   R(6,30)                 1.0973         calculate D2E/DX2 analytically  !
 ! R18   R(7,8)                  1.4588         calculate D2E/DX2 analytically  !
 ! R19   R(7,11)                 1.4591         calculate D2E/DX2 analytically  !
 ! R20   R(8,9)                  1.5211         calculate D2E/DX2 analytically  !
 ! R21   R(8,31)                 1.0935         calculate D2E/DX2 analytically  !
 ! R22   R(8,32)                 1.0962         calculate D2E/DX2 analytically  !
 ! R23   R(9,10)                 1.5105         calculate D2E/DX2 analytically  !
 ! R24   R(9,33)                 1.0914         calculate D2E/DX2 analytically  !
 ! R25   R(9,34)                 1.0971         calculate D2E/DX2 analytically  !
 ! R26   R(10,11)                1.5191         calculate D2E/DX2 analytically  !
 ! R27   R(10,35)                1.0962         calculate D2E/DX2 analytically  !
 ! R28   R(10,36)                1.094          calculate D2E/DX2 analytically  !
 ! R29   R(11,37)                1.0938         calculate D2E/DX2 analytically  !
 ! R30   R(11,38)                1.0928         calculate D2E/DX2 analytically  !
 ! R31   R(12,13)                1.4797         calculate D2E/DX2 analytically  !
 ! R32   R(12,16)                1.4587         calculate D2E/DX2 analytically  !
 ! R33   R(13,14)                1.5191         calculate D2E/DX2 analytically  !
 ! R34   R(13,39)                1.095          calculate D2E/DX2 analytically  !
 ! R35   R(13,40)                1.0931         calculate D2E/DX2 analytically  !
 ! R36   R(14,15)                1.5017         calculate D2E/DX2 analytically  !
 ! R37   R(14,41)                1.0945         calculate D2E/DX2 analytically  !
 ! R38   R(14,42)                1.0964         calculate D2E/DX2 analytically  !
 ! R39   R(15,16)                1.5178         calculate D2E/DX2 analytically  !
 ! R40   R(15,43)                1.0949         calculate D2E/DX2 analytically  !
 ! R41   R(15,44)                1.0954         calculate D2E/DX2 analytically  !
 ! R42   R(16,45)                1.0812         calculate D2E/DX2 analytically  !
 ! R43   R(16,46)                1.0929         calculate D2E/DX2 analytically  !
 ! R44   R(17,18)                1.4575         calculate D2E/DX2 analytically  !
 ! R45   R(17,21)                1.4548         calculate D2E/DX2 analytically  !
 ! R46   R(18,19)                1.5247         calculate D2E/DX2 analytically  !
 ! R47   R(18,47)                1.0836         calculate D2E/DX2 analytically  !
 ! R48   R(18,48)                1.1007         calculate D2E/DX2 analytically  !
 ! R49   R(19,20)                1.5134         calculate D2E/DX2 analytically  !
 ! R50   R(19,49)                1.0953         calculate D2E/DX2 analytically  !
 ! R51   R(19,50)                1.0951         calculate D2E/DX2 analytically  !
 ! R52   R(20,21)                1.5159         calculate D2E/DX2 analytically  !
 ! R53   R(20,51)                1.0963         calculate D2E/DX2 analytically  !
 ! R54   R(20,52)                1.094          calculate D2E/DX2 analytically  !
 ! R55   R(21,53)                1.0927         calculate D2E/DX2 analytically  !
 ! R56   R(21,54)                1.0949         calculate D2E/DX2 analytically  !
 ! A1    A(2,1,7)              104.6442         calculate D2E/DX2 analytically  !
 ! A2    A(2,1,12)              88.7587         calculate D2E/DX2 analytically  !
 ! A3    A(2,1,17)              91.2413         calculate D2E/DX2 analytically  !
 ! A4    A(7,1,12)              91.4218         calculate D2E/DX2 analytically  !
 ! A5    A(7,1,17)              88.5782         calculate D2E/DX2 analytically  !
 ! A6    A(1,2,3)              127.8064         calculate D2E/DX2 analytically  !
 ! A7    A(2,3,4)              117.687          calculate D2E/DX2 analytically  !
 ! A8    A(2,3,5)              110.2733         calculate D2E/DX2 analytically  !
 ! A9    A(2,3,6)              109.2951         calculate D2E/DX2 analytically  !
 ! A10   A(4,3,5)              105.3602         calculate D2E/DX2 analytically  !
 ! A11   A(4,3,6)              110.5914         calculate D2E/DX2 analytically  !
 ! A12   A(5,3,6)              102.5096         calculate D2E/DX2 analytically  !
 ! A13   A(3,4,22)             111.3796         calculate D2E/DX2 analytically  !
 ! A14   A(3,4,23)             115.2447         calculate D2E/DX2 analytically  !
 ! A15   A(3,4,24)             110.7846         calculate D2E/DX2 analytically  !
 ! A16   A(22,4,23)            106.1479         calculate D2E/DX2 analytically  !
 ! A17   A(22,4,24)            105.4592         calculate D2E/DX2 analytically  !
 ! A18   A(23,4,24)            107.2385         calculate D2E/DX2 analytically  !
 ! A19   A(3,5,25)             112.4402         calculate D2E/DX2 analytically  !
 ! A20   A(3,5,26)             110.6758         calculate D2E/DX2 analytically  !
 ! A21   A(3,5,27)             111.9985         calculate D2E/DX2 analytically  !
 ! A22   A(25,5,26)            105.7338         calculate D2E/DX2 analytically  !
 ! A23   A(25,5,27)            108.4027         calculate D2E/DX2 analytically  !
 ! A24   A(26,5,27)            107.2649         calculate D2E/DX2 analytically  !
 ! A25   A(3,6,28)             113.9505         calculate D2E/DX2 analytically  !
 ! A26   A(3,6,29)             111.4232         calculate D2E/DX2 analytically  !
 ! A27   A(3,6,30)             111.4425         calculate D2E/DX2 analytically  !
 ! A28   A(28,6,29)            107.7829         calculate D2E/DX2 analytically  !
 ! A29   A(28,6,30)            104.6819         calculate D2E/DX2 analytically  !
 ! A30   A(29,6,30)            107.1113         calculate D2E/DX2 analytically  !
 ! A31   A(1,7,8)              126.0752         calculate D2E/DX2 analytically  !
 ! A32   A(1,7,11)             123.9009         calculate D2E/DX2 analytically  !
 ! A33   A(8,7,11)             109.7008         calculate D2E/DX2 analytically  !
 ! A34   A(7,8,9)              104.4284         calculate D2E/DX2 analytically  !
 ! A35   A(7,8,31)             111.045          calculate D2E/DX2 analytically  !
 ! A36   A(7,8,32)             113.0024         calculate D2E/DX2 analytically  !
 ! A37   A(9,8,31)             110.5166         calculate D2E/DX2 analytically  !
 ! A38   A(9,8,32)             109.4311         calculate D2E/DX2 analytically  !
 ! A39   A(31,8,32)            108.3793         calculate D2E/DX2 analytically  !
 ! A40   A(8,9,10)             103.4664         calculate D2E/DX2 analytically  !
 ! A41   A(8,9,33)             112.7208         calculate D2E/DX2 analytically  !
 ! A42   A(8,9,34)             110.7521         calculate D2E/DX2 analytically  !
 ! A43   A(10,9,33)            112.2709         calculate D2E/DX2 analytically  !
 ! A44   A(10,9,34)            109.5748         calculate D2E/DX2 analytically  !
 ! A45   A(33,9,34)            108.0194         calculate D2E/DX2 analytically  !
 ! A46   A(9,10,11)            103.8363         calculate D2E/DX2 analytically  !
 ! A47   A(9,10,35)            109.5285         calculate D2E/DX2 analytically  !
 ! A48   A(9,10,36)            112.4743         calculate D2E/DX2 analytically  !
 ! A49   A(11,10,35)           110.2651         calculate D2E/DX2 analytically  !
 ! A50   A(11,10,36)           112.4672         calculate D2E/DX2 analytically  !
 ! A51   A(35,10,36)           108.2174         calculate D2E/DX2 analytically  !
 ! A52   A(7,11,10)            106.3567         calculate D2E/DX2 analytically  !
 ! A53   A(7,11,37)            113.494          calculate D2E/DX2 analytically  !
 ! A54   A(7,11,38)            109.7409         calculate D2E/DX2 analytically  !
 ! A55   A(10,11,37)           108.8391         calculate D2E/DX2 analytically  !
 ! A56   A(10,11,38)           110.7356         calculate D2E/DX2 analytically  !
 ! A57   A(37,11,38)           107.6936         calculate D2E/DX2 analytically  !
 ! A58   A(1,12,13)            117.0008         calculate D2E/DX2 analytically  !
 ! A59   A(1,12,16)            126.1743         calculate D2E/DX2 analytically  !
 ! A60   A(13,12,16)           105.5041         calculate D2E/DX2 analytically  !
 ! A61   A(12,13,14)           108.2479         calculate D2E/DX2 analytically  !
 ! A62   A(12,13,39)           110.204          calculate D2E/DX2 analytically  !
 ! A63   A(12,13,40)           111.9538         calculate D2E/DX2 analytically  !
 ! A64   A(14,13,39)           109.162          calculate D2E/DX2 analytically  !
 ! A65   A(14,13,40)           108.4171         calculate D2E/DX2 analytically  !
 ! A66   A(39,13,40)           108.8026         calculate D2E/DX2 analytically  !
 ! A67   A(13,14,15)           103.0654         calculate D2E/DX2 analytically  !
 ! A68   A(13,14,41)           112.5997         calculate D2E/DX2 analytically  !
 ! A69   A(13,14,42)           110.7025         calculate D2E/DX2 analytically  !
 ! A70   A(15,14,41)           112.1978         calculate D2E/DX2 analytically  !
 ! A71   A(15,14,42)           110.0909         calculate D2E/DX2 analytically  !
 ! A72   A(41,14,42)           108.1495         calculate D2E/DX2 analytically  !
 ! A73   A(14,15,16)           102.9115         calculate D2E/DX2 analytically  !
 ! A74   A(14,15,43)           110.7894         calculate D2E/DX2 analytically  !
 ! A75   A(14,15,44)           112.1093         calculate D2E/DX2 analytically  !
 ! A76   A(16,15,43)           110.7205         calculate D2E/DX2 analytically  !
 ! A77   A(16,15,44)           111.9261         calculate D2E/DX2 analytically  !
 ! A78   A(43,15,44)           108.3524         calculate D2E/DX2 analytically  !
 ! A79   A(12,16,15)           109.0945         calculate D2E/DX2 analytically  !
 ! A80   A(12,16,45)           115.5791         calculate D2E/DX2 analytically  !
 ! A81   A(12,16,46)           107.6665         calculate D2E/DX2 analytically  !
 ! A82   A(15,16,45)           107.9383         calculate D2E/DX2 analytically  !
 ! A83   A(15,16,46)           106.3747         calculate D2E/DX2 analytically  !
 ! A84   A(45,16,46)           109.811          calculate D2E/DX2 analytically  !
 ! A85   A(1,17,18)            124.7311         calculate D2E/DX2 analytically  !
 ! A86   A(1,17,21)            117.63           calculate D2E/DX2 analytically  !
 ! A87   A(18,17,21)           110.2597         calculate D2E/DX2 analytically  !
 ! A88   A(17,18,19)           105.4033         calculate D2E/DX2 analytically  !
 ! A89   A(17,18,47)           114.9076         calculate D2E/DX2 analytically  !
 ! A90   A(17,18,48)           111.7974         calculate D2E/DX2 analytically  !
 ! A91   A(19,18,47)           108.5526         calculate D2E/DX2 analytically  !
 ! A92   A(19,18,48)           109.981          calculate D2E/DX2 analytically  !
 ! A93   A(47,18,48)           106.1578         calculate D2E/DX2 analytically  !
 ! A94   A(18,19,20)           103.9127         calculate D2E/DX2 analytically  !
 ! A95   A(18,19,49)           112.1131         calculate D2E/DX2 analytically  !
 ! A96   A(18,19,50)           110.5427         calculate D2E/DX2 analytically  !
 ! A97   A(20,19,49)           111.8098         calculate D2E/DX2 analytically  !
 ! A98   A(20,19,50)           110.1241         calculate D2E/DX2 analytically  !
 ! A99   A(49,19,50)           108.3134         calculate D2E/DX2 analytically  !
 ! A100  A(19,20,21)           103.985          calculate D2E/DX2 analytically  !
 ! A101  A(19,20,51)           110.1524         calculate D2E/DX2 analytically  !
 ! A102  A(19,20,52)           111.9972         calculate D2E/DX2 analytically  !
 ! A103  A(21,20,51)           110.5707         calculate D2E/DX2 analytically  !
 ! A104  A(21,20,52)           112.4608         calculate D2E/DX2 analytically  !
 ! A105  A(51,20,52)           107.6854         calculate D2E/DX2 analytically  !
 ! A106  A(17,21,20)           106.1854         calculate D2E/DX2 analytically  !
 ! A107  A(17,21,53)           113.1132         calculate D2E/DX2 analytically  !
 ! A108  A(17,21,54)           108.9285         calculate D2E/DX2 analytically  !
 ! A109  A(20,21,53)           111.3745         calculate D2E/DX2 analytically  !
 ! A110  A(20,21,54)           110.2193         calculate D2E/DX2 analytically  !
 ! A111  A(53,21,54)           107.0201         calculate D2E/DX2 analytically  !
 ! A112  L(12,1,17,2,-1)       180.0            calculate D2E/DX2 analytically  !
 ! A113  L(12,1,17,2,-2)       180.0            calculate D2E/DX2 analytically  !
 ! D1    D(7,1,2,3)           -177.26           calculate D2E/DX2 analytically  !
 ! D2    D(12,1,2,3)            91.5945         calculate D2E/DX2 analytically  !
 ! D3    D(17,1,2,3)           -88.4055         calculate D2E/DX2 analytically  !
 ! D4    D(2,1,7,8)            -29.6472         calculate D2E/DX2 analytically  !
 ! D5    D(2,1,7,11)           143.1434         calculate D2E/DX2 analytically  !
 ! D6    D(12,1,7,8)            59.4411         calculate D2E/DX2 analytically  !
 ! D7    D(12,1,7,11)         -127.7683         calculate D2E/DX2 analytically  !
 ! D8    D(17,1,7,8)          -120.5589         calculate D2E/DX2 analytically  !
 ! D9    D(17,1,7,11)           52.2317         calculate D2E/DX2 analytically  !
 ! D10   D(2,1,12,13)           -0.0001         calculate D2E/DX2 analytically  !
 ! D11   D(2,1,12,16)          138.0932         calculate D2E/DX2 analytically  !
 ! D12   D(7,1,12,13)         -104.6206         calculate D2E/DX2 analytically  !
 ! D13   D(7,1,12,16)           33.4727         calculate D2E/DX2 analytically  !
 ! D14   D(13,12,17,18)         59.294          calculate D2E/DX2 analytically  !
 ! D15   D(13,12,17,21)       -153.7286         calculate D2E/DX2 analytically  !
 ! D16   D(16,12,17,18)       -162.6127         calculate D2E/DX2 analytically  !
 ! D17   D(16,12,17,21)        -15.6353         calculate D2E/DX2 analytically  !
 ! D18   D(2,1,17,18)           59.2941         calculate D2E/DX2 analytically  !
 ! D19   D(2,1,17,21)         -153.7285         calculate D2E/DX2 analytically  !
 ! D20   D(7,1,17,18)          163.9146         calculate D2E/DX2 analytically  !
 ! D21   D(7,1,17,21)          -49.108          calculate D2E/DX2 analytically  !
 ! D22   D(1,2,3,4)             90.3527         calculate D2E/DX2 analytically  !
 ! D23   D(1,2,3,5)           -148.8025         calculate D2E/DX2 analytically  !
 ! D24   D(1,2,3,6)            -36.8418         calculate D2E/DX2 analytically  !
 ! D25   D(2,3,4,22)            77.4319         calculate D2E/DX2 analytically  !
 ! D26   D(2,3,4,23)           -43.5521         calculate D2E/DX2 analytically  !
 ! D27   D(2,3,4,24)          -165.5181         calculate D2E/DX2 analytically  !
 ! D28   D(5,3,4,22)           -45.9308         calculate D2E/DX2 analytically  !
 ! D29   D(5,3,4,23)          -166.9148         calculate D2E/DX2 analytically  !
 ! D30   D(5,3,4,24)            71.1191         calculate D2E/DX2 analytically  !
 ! D31   D(6,3,4,22)          -156.0005         calculate D2E/DX2 analytically  !
 ! D32   D(6,3,4,23)            83.0155         calculate D2E/DX2 analytically  !
 ! D33   D(6,3,4,24)           -38.9506         calculate D2E/DX2 analytically  !
 ! D34   D(2,3,5,25)           -70.1151         calculate D2E/DX2 analytically  !
 ! D35   D(2,3,5,26)           171.887          calculate D2E/DX2 analytically  !
 ! D36   D(2,3,5,27)            52.244          calculate D2E/DX2 analytically  !
 ! D37   D(4,3,5,25)            57.8472         calculate D2E/DX2 analytically  !
 ! D38   D(4,3,5,26)           -60.1507         calculate D2E/DX2 analytically  !
 ! D39   D(4,3,5,27)          -179.7937         calculate D2E/DX2 analytically  !
 ! D40   D(6,3,5,25)           173.6037         calculate D2E/DX2 analytically  !
 ! D41   D(6,3,5,26)            55.6058         calculate D2E/DX2 analytically  !
 ! D42   D(6,3,5,27)           -64.0372         calculate D2E/DX2 analytically  !
 ! D43   D(2,3,6,28)            73.8471         calculate D2E/DX2 analytically  !
 ! D44   D(2,3,6,29)           -48.3798         calculate D2E/DX2 analytically  !
 ! D45   D(2,3,6,30)          -167.962          calculate D2E/DX2 analytically  !
 ! D46   D(4,3,6,28)           -57.2568         calculate D2E/DX2 analytically  !
 ! D47   D(4,3,6,29)          -179.4837         calculate D2E/DX2 analytically  !
 ! D48   D(4,3,6,30)            60.9342         calculate D2E/DX2 analytically  !
 ! D49   D(5,3,6,28)          -169.1701         calculate D2E/DX2 analytically  !
 ! D50   D(5,3,6,29)            68.603          calculate D2E/DX2 analytically  !
 ! D51   D(5,3,6,30)           -50.9791         calculate D2E/DX2 analytically  !
 ! D52   D(1,7,8,9)           -166.1342         calculate D2E/DX2 analytically  !
 ! D53   D(1,7,8,31)            74.7385         calculate D2E/DX2 analytically  !
 ! D54   D(1,7,8,32)           -47.2916         calculate D2E/DX2 analytically  !
 ! D55   D(11,7,8,9)            20.218          calculate D2E/DX2 analytically  !
 ! D56   D(11,7,8,31)          -98.9093         calculate D2E/DX2 analytically  !
 ! D57   D(11,7,8,32)          139.0605         calculate D2E/DX2 analytically  !
 ! D58   D(1,7,11,10)         -172.8864         calculate D2E/DX2 analytically  !
 ! D59   D(1,7,11,37)          -53.2477         calculate D2E/DX2 analytically  !
 ! D60   D(1,7,11,38)           67.2886         calculate D2E/DX2 analytically  !
 ! D61   D(8,7,11,10)            0.9286         calculate D2E/DX2 analytically  !
 ! D62   D(8,7,11,37)          120.5674         calculate D2E/DX2 analytically  !
 ! D63   D(8,7,11,38)         -118.8964         calculate D2E/DX2 analytically  !
 ! D64   D(7,8,9,10)           -33.2709         calculate D2E/DX2 analytically  !
 ! D65   D(7,8,9,33)          -154.7882         calculate D2E/DX2 analytically  !
 ! D66   D(7,8,9,34)            84.061          calculate D2E/DX2 analytically  !
 ! D67   D(31,8,9,10)           86.2136         calculate D2E/DX2 analytically  !
 ! D68   D(31,8,9,33)          -35.3036         calculate D2E/DX2 analytically  !
 ! D69   D(31,8,9,34)         -156.4545         calculate D2E/DX2 analytically  !
 ! D70   D(32,8,9,10)         -154.5112         calculate D2E/DX2 analytically  !
 ! D71   D(32,8,9,33)           83.9715         calculate D2E/DX2 analytically  !
 ! D72   D(32,8,9,34)          -37.1793         calculate D2E/DX2 analytically  !
 ! D73   D(8,9,10,11)           33.5729         calculate D2E/DX2 analytically  !
 ! D74   D(8,9,10,35)          -84.192          calculate D2E/DX2 analytically  !
 ! D75   D(8,9,10,36)          155.4306         calculate D2E/DX2 analytically  !
 ! D76   D(33,9,10,11)         155.3921         calculate D2E/DX2 analytically  !
 ! D77   D(33,9,10,35)          37.6273         calculate D2E/DX2 analytically  !
 ! D78   D(33,9,10,36)         -82.7501         calculate D2E/DX2 analytically  !
 ! D79   D(34,9,10,11)         -84.581          calculate D2E/DX2 analytically  !
 ! D80   D(34,9,10,35)         157.6542         calculate D2E/DX2 analytically  !
 ! D81   D(34,9,10,36)          37.2768         calculate D2E/DX2 analytically  !
 ! D82   D(9,10,11,7)          -21.7983         calculate D2E/DX2 analytically  !
 ! D83   D(9,10,11,37)        -144.4223         calculate D2E/DX2 analytically  !
 ! D84   D(9,10,11,38)          97.3785         calculate D2E/DX2 analytically  !
 ! D85   D(35,10,11,7)          95.4546         calculate D2E/DX2 analytically  !
 ! D86   D(35,10,11,37)        -27.1694         calculate D2E/DX2 analytically  !
 ! D87   D(35,10,11,38)       -145.3686         calculate D2E/DX2 analytically  !
 ! D88   D(36,10,11,7)        -143.6608         calculate D2E/DX2 analytically  !
 ! D89   D(36,10,11,37)         93.7152         calculate D2E/DX2 analytically  !
 ! D90   D(36,10,11,38)        -24.484          calculate D2E/DX2 analytically  !
 ! D91   D(1,12,13,14)         157.0419         calculate D2E/DX2 analytically  !
 ! D92   D(1,12,13,39)          37.7264         calculate D2E/DX2 analytically  !
 ! D93   D(1,12,13,40)         -83.5141         calculate D2E/DX2 analytically  !
 ! D94   D(16,12,13,14)         11.0646         calculate D2E/DX2 analytically  !
 ! D95   D(16,12,13,39)       -108.2509         calculate D2E/DX2 analytically  !
 ! D96   D(16,12,13,40)        130.5086         calculate D2E/DX2 analytically  !
 ! D97   D(1,12,16,15)        -131.3985         calculate D2E/DX2 analytically  !
 ! D98   D(1,12,16,45)          -9.5926         calculate D2E/DX2 analytically  !
 ! D99   D(1,12,16,46)         113.555          calculate D2E/DX2 analytically  !
 ! D100  D(13,12,16,15)         10.4612         calculate D2E/DX2 analytically  !
 ! D101  D(13,12,16,45)        132.2671         calculate D2E/DX2 analytically  !
 ! D102  D(13,12,16,46)       -104.5853         calculate D2E/DX2 analytically  !
 ! D103  D(12,13,14,15)        -28.1231         calculate D2E/DX2 analytically  !
 ! D104  D(12,13,14,41)       -149.2345         calculate D2E/DX2 analytically  !
 ! D105  D(12,13,14,42)         89.5668         calculate D2E/DX2 analytically  !
 ! D106  D(39,13,14,15)         91.8474         calculate D2E/DX2 analytically  !
 ! D107  D(39,13,14,41)        -29.2641         calculate D2E/DX2 analytically  !
 ! D108  D(39,13,14,42)       -150.4627         calculate D2E/DX2 analytically  !
 ! D109  D(40,13,14,15)       -149.7708         calculate D2E/DX2 analytically  !
 ! D110  D(40,13,14,41)         89.1177         calculate D2E/DX2 analytically  !
 ! D111  D(40,13,14,42)        -32.0809         calculate D2E/DX2 analytically  !
 ! D112  D(13,14,15,16)         32.858          calculate D2E/DX2 analytically  !
 ! D113  D(13,14,15,43)        -85.5208         calculate D2E/DX2 analytically  !
 ! D114  D(13,14,15,44)        153.2976         calculate D2E/DX2 analytically  !
 ! D115  D(41,14,15,16)        154.2425         calculate D2E/DX2 analytically  !
 ! D116  D(41,14,15,43)         35.8637         calculate D2E/DX2 analytically  !
 ! D117  D(41,14,15,44)        -85.3179         calculate D2E/DX2 analytically  !
 ! D118  D(42,14,15,16)        -85.2613         calculate D2E/DX2 analytically  !
 ! D119  D(42,14,15,43)        156.3599         calculate D2E/DX2 analytically  !
 ! D120  D(42,14,15,44)         35.1783         calculate D2E/DX2 analytically  !
 ! D121  D(14,15,16,12)        -27.8203         calculate D2E/DX2 analytically  !
 ! D122  D(14,15,16,45)       -154.1412         calculate D2E/DX2 analytically  !
 ! D123  D(14,15,16,46)         88.0567         calculate D2E/DX2 analytically  !
 ! D124  D(43,15,16,12)         90.6067         calculate D2E/DX2 analytically  !
 ! D125  D(43,15,16,45)        -35.7142         calculate D2E/DX2 analytically  !
 ! D126  D(43,15,16,46)       -153.5163         calculate D2E/DX2 analytically  !
 ! D127  D(44,15,16,12)       -148.3858         calculate D2E/DX2 analytically  !
 ! D128  D(44,15,16,45)         85.2933         calculate D2E/DX2 analytically  !
 ! D129  D(44,15,16,46)        -32.5088         calculate D2E/DX2 analytically  !
 ! D130  D(1,17,18,19)         160.9637         calculate D2E/DX2 analytically  !
 ! D131  D(1,17,18,47)          41.5044         calculate D2E/DX2 analytically  !
 ! D132  D(1,17,18,48)         -79.5698         calculate D2E/DX2 analytically  !
 ! D133  D(21,17,18,19)         11.9386         calculate D2E/DX2 analytically  !
 ! D134  D(21,17,18,47)       -107.5207         calculate D2E/DX2 analytically  !
 ! D135  D(21,17,18,48)        131.4051         calculate D2E/DX2 analytically  !
 ! D136  D(1,17,21,20)        -143.1212         calculate D2E/DX2 analytically  !
 ! D137  D(1,17,21,53)         -20.6751         calculate D2E/DX2 analytically  !
 ! D138  D(1,17,21,54)          98.1941         calculate D2E/DX2 analytically  !
 ! D139  D(18,17,21,20)          8.3623         calculate D2E/DX2 analytically  !
 ! D140  D(18,17,21,53)        130.8084         calculate D2E/DX2 analytically  !
 ! D141  D(18,17,21,54)       -110.3223         calculate D2E/DX2 analytically  !
 ! D142  D(17,18,19,20)        -27.3401         calculate D2E/DX2 analytically  !
 ! D143  D(17,18,19,49)       -148.257          calculate D2E/DX2 analytically  !
 ! D144  D(17,18,19,50)         90.7818         calculate D2E/DX2 analytically  !
 ! D145  D(47,18,19,20)         96.2508         calculate D2E/DX2 analytically  !
 ! D146  D(47,18,19,49)        -24.6662         calculate D2E/DX2 analytically  !
 ! D147  D(47,18,19,50)       -145.6274         calculate D2E/DX2 analytically  !
 ! D148  D(48,18,19,20)       -148.0041         calculate D2E/DX2 analytically  !
 ! D149  D(48,18,19,49)         91.0789         calculate D2E/DX2 analytically  !
 ! D150  D(48,18,19,50)        -29.8823         calculate D2E/DX2 analytically  !
 ! D151  D(18,19,20,21)         32.0464         calculate D2E/DX2 analytically  !
 ! D152  D(18,19,20,51)        -86.4502         calculate D2E/DX2 analytically  !
 ! D153  D(18,19,20,52)        153.7309         calculate D2E/DX2 analytically  !
 ! D154  D(49,19,20,21)        153.1668         calculate D2E/DX2 analytically  !
 ! D155  D(49,19,20,51)         34.6702         calculate D2E/DX2 analytically  !
 ! D156  D(49,19,20,52)        -85.1487         calculate D2E/DX2 analytically  !
 ! D157  D(50,19,20,21)        -86.3639         calculate D2E/DX2 analytically  !
 ! D158  D(50,19,20,51)        155.1394         calculate D2E/DX2 analytically  !
 ! D159  D(50,19,20,52)         35.3206         calculate D2E/DX2 analytically  !
 ! D160  D(19,20,21,17)        -25.291          calculate D2E/DX2 analytically  !
 ! D161  D(19,20,21,53)       -148.8325         calculate D2E/DX2 analytically  !
 ! D162  D(19,20,21,54)         92.5397         calculate D2E/DX2 analytically  !
 ! D163  D(51,20,21,17)         92.9179         calculate D2E/DX2 analytically  !
 ! D164  D(51,20,21,53)        -30.6236         calculate D2E/DX2 analytically  !
 ! D165  D(51,20,21,54)       -149.2514         calculate D2E/DX2 analytically  !
 ! D166  D(52,20,21,17)       -146.6667         calculate D2E/DX2 analytically  !
 ! D167  D(52,20,21,53)         89.7918         calculate D2E/DX2 analytically  !
 ! D168  D(52,20,21,54)        -28.836          calculate D2E/DX2 analytically  !
 --------------------------------------------------------------------------------
 Trust Radius=3.00D-01 FncErr=1.00D-07 GrdErr=1.00D-06 EigMax=2.50D+02 EigMin=1.00D-04
 Number of steps in this run=    324 maximum allowed number of steps=    324.
 GradGradGradGradGradGradGradGradGradGradGradGradGradGradGradGradGradGrad

 Stoichiometry    C16H33N4P
 Framework group  C1[X(C16H33N4P)]
 Deg. of freedom   156
 Full point group                 C1      NOp   1
 Largest Abelian subgroup         C1      NOp   1
 Largest concise Abelian subgroup C1      NOp   1
                         Standard orientation:                         
 ---------------------------------------------------------------------
 Center     Atomic      Atomic             Coordinates (Angstroms)
 Number     Number       Type             X           Y           Z
 ---------------------------------------------------------------------
      1         15           0       -0.138488    0.026116   -0.558621
      2          7           0        0.106252    1.062640    0.575352
      3          6           0       -0.041597    2.559389    0.505345
      4          6           0       -1.409127    3.158413    0.861784
      5          6           0        0.971422    3.246232    1.464162
      6          6           0        0.425600    3.056531   -0.889884
      7          7           0        0.119803   -1.463568    0.165825
      8          6           0        1.024035   -1.732394    1.278614
      9          6           0        1.147005   -3.248242    1.309383
     10          6           0       -0.214518   -3.720862    0.857107
     11          6           0       -0.653826   -2.662280   -0.139947
     12          7           0        1.580985    0.159789   -0.999013
     13          6           0        2.409808    1.086747   -0.196900
     14          6           0        3.860956    0.654414   -0.319224
     15          6           0        3.755313   -0.822926   -0.566968
     16          6           0        2.465893   -0.942693   -1.358641
     17          7           0       -1.857960   -0.107557   -0.118228
     18          6           0       -2.802884    1.002190   -0.114404
     19          6           0       -4.184232    0.358042   -0.155024
     20          6           0       -3.948713   -0.964363   -0.852235
     21          6           0       -2.542092   -1.350636   -0.439637
     22          1           0       -1.563626    3.182669    1.942519
     23          1           0       -2.266212    2.636500    0.445696
     24          1           0       -1.474041    4.204580    0.533171
     25          1           0        0.720499    3.091969    2.515709
     26          1           0        0.970715    4.335292    1.314178
     27          1           0        1.996049    2.895805    1.298081
     28          1           0       -0.270077    2.834829   -1.691950
     29          1           0        1.399122    2.628776   -1.162648
     30          1           0        0.535335    4.148110   -0.910706
     31          1           0        0.608876   -1.362373    2.220147
     32          1           0        2.016919   -1.288687    1.140597
     33          1           0        1.410135   -3.629846    2.297434
     34          1           0        1.909657   -3.590861    0.599103
     35          1           0       -0.898112   -3.742529    1.713793
     36          1           0       -0.184910   -4.722304    0.417784
     37          1           0       -1.734439   -2.518711   -0.049555
     38          1           0       -0.446044   -2.984645   -1.163274
     39          1           0        2.110511    1.047248    0.855652
     40          1           0        2.325983    2.118371   -0.548554
     41          1           0        4.444861    0.882531    0.577988
     42          1           0        4.341213    1.146165   -1.173447
     43          1           0        3.682077   -1.371167    0.377946
     44          1           0        4.615066   -1.209974   -1.124535
     45          1           0        2.066250   -1.934127   -1.196188
     46          1           0        2.737489   -0.820524   -2.410186
     47          1           0       -2.713831    1.680312   -0.954905
     48          1           0       -2.702910    1.621001    0.790347
     49          1           0       -4.912033    0.976667   -0.690955
     50          1           0       -4.558678    0.187482    0.859797
     51          1           0       -4.009336   -0.834371   -1.939088
     52          1           0       -4.689725   -1.716381   -0.565627
     53          1           0       -2.041359   -1.925899   -1.222117
     54          1           0       -2.569926   -1.982156    0.454370
 ---------------------------------------------------------------------
 Rotational constants (GHZ):           0.3555126           0.3021488           0.1904307
 Standard basis: 6-31G(d) (6D, 7F)
 There are   385 symmetry adapted cartesian basis functions of A   symmetry.
 There are   385 symmetry adapted basis functions of A   symmetry.
   385 basis functions,   744 primitive gaussians,   385 cartesian basis functions
    86 alpha electrons       86 beta electrons
       nuclear repulsion energy      2225.6958737693 Hartrees.
 NAtoms=   54 NActive=   54 NUniq=   54 SFac= 1.00D+00 NAtFMM=   60 NAOKFM=F Big=F
 Integral buffers will be    131072 words long.
 Raffenetti 2 integral format.
 Two-electron integral symmetry is turned on.
 One-electron integrals computed using PRISM.
 NBasis=   385 RedAO= T EigKep=  2.17D-03  NBF=   385
 NBsUse=   385 1.00D-06 EigRej= -1.00D+00 NBFU=   385
 ExpMin= 9.98D-02 ExpMax= 1.94D+04 ExpMxC= 2.91D+03 IAcc=3 IRadAn=         5 AccDes= 0.00D+00
 Harris functional with IExCor=  402 and IRadAn=       5 diagonalized for initial guess.
 HarFok:  IExCor=  402 AccDes= 0.00D+00 IRadAn=         5 IDoV= 1 UseB2=F ITyADJ=14
 ICtDFT=  3500011 ScaDFX=  1.000000  1.000000  1.000000  1.000000
 FoFCou: FMM=F IPFlag=           0 FMFlag=      100000 FMFlg1=           0
         NFxFlg=           0 DoJE=T BraDBF=F KetDBF=T FulRan=T
         wScrn=  0.000000 ICntrl=       500 IOpCl=  0 I1Cent=   200000004 NGrid=           0
         NMat0=    1 NMatS0=      1 NMatT0=    0 NMatD0=    1 NMtDS0=    0 NMtDT0=    0
 Petite list used in FoFCou.
 Gradient too large for Newton-Raphson -- use scaled steepest descent instead.
 Alpha Gap=    -0.126 HL deriv= 5.27D-03 Rot set to   1.09D+00
     Minimum is close to point  2 DX=  2.97D-02 DF= -6.27D-03 DXR=  9.02D-02 DFR=  8.20D-03 which will be used.
 Gradient too large for Newton-Raphson -- use scaled steepest descent instead.
 Gradient too large for Newton-Raphson -- use scaled steepest descent instead.
     Accept linear search using points  1 and  2.
 Gradient too large for Newton-Raphson -- use scaled steepest descent instead.
 Gradient too large for Newton-Raphson -- use scaled steepest descent instead.
     Accept linear search using points  1 and  2.
 Gradient too large for Newton-Raphson -- use scaled steepest descent instead.
 Gradient too large for Newton-Raphson -- use scaled steepest descent instead.
 Restarting incremental Fock formation.
 LinEq1:  Iter=  0 NonCon=     1 RMS=2.18D-04 Max=2.43D-02 NDo=     1
 AX will form     1 AO Fock derivatives at one time.
 LinEq1:  Iter=  1 NonCon=     1 RMS=3.22D-04 Max=2.94D-02 NDo=     1
 LinEq1:  Iter=  2 NonCon=     1 RMS=1.66D-04 Max=1.42D-02 NDo=     1
 LinEq1:  Iter=  3 NonCon=     1 RMS=2.77D-04 Max=2.78D-02 NDo=     1
 LinEq1:  Iter=  4 NonCon=     1 RMS=1.71D-04 Max=9.54D-03 NDo=     1
 LinEq1:  Iter=  5 NonCon=     1 RMS=1.19D-04 Max=6.33D-03 NDo=     1
 LinEq1:  Iter=  6 NonCon=     1 RMS=6.34D-05 Max=1.97D-03 NDo=     1
 LinEq1:  Iter=  7 NonCon=     1 RMS=6.10D-05 Max=5.20D-03 NDo=     1
 LinEq1:  Iter=  8 NonCon=     1 RMS=2.23D-05 Max=8.32D-04 NDo=     1
 LinEq1:  Iter=  9 NonCon=     1 RMS=1.97D-05 Max=1.45D-03 NDo=     1
 LinEq1:  Iter= 10 NonCon=     1 RMS=7.62D-06 Max=1.83D-04 NDo=     1
 LinEq1:  Iter= 11 NonCon=     1 RMS=4.94D-06 Max=1.34D-04 NDo=     1
 LinEq1:  Iter= 12 NonCon=     1 RMS=1.90D-06 Max=4.98D-05 NDo=     1
 LinEq1:  Iter= 13 NonCon=     1 RMS=1.02D-06 Max=2.56D-05 NDo=     1
 LinEq1:  Iter= 14 NonCon=     1 RMS=4.51D-07 Max=1.19D-05 NDo=     1
 LinEq1:  Iter= 15 NonCon=     1 RMS=1.58D-07 Max=3.78D-06 NDo=     1
 LinEq1:  Iter= 16 NonCon=     1 RMS=7.65D-08 Max=1.88D-06 NDo=     1
 LinEq1:  Iter= 17 NonCon=     1 RMS=3.76D-08 Max=7.20D-07 NDo=     1
 LinEq1:  Iter= 18 NonCon=     1 RMS=1.57D-08 Max=3.56D-07 NDo=     1
 LinEq1:  Iter= 19 NonCon=     1 RMS=9.14D-09 Max=3.12D-07 NDo=     1
 LinEq1:  Iter= 20 NonCon=     0 RMS=4.49D-09 Max=1.85D-07 NDo=     1
 Linear equations converged to 2.268D-08 2.268D-07 after    20 iterations.
     Accept linear search using points  1 and  2.
     Minimum is close to point  2 DX= -8.06D-02 DF= -2.34D-06 DXR=  8.77D-02 DFR=  8.24D-03 which will be used.
 LinEq1:  Iter=  0 NonCon=     1 RMS=5.46D-05 Max=7.53D-03 NDo=     1
 LinEq1:  Iter=  1 NonCon=     1 RMS=4.91D-05 Max=6.16D-03 NDo=     1
 LinEq1:  Iter=  2 NonCon=     1 RMS=3.31D-05 Max=2.30D-03 NDo=     1
 LinEq1:  Iter=  3 NonCon=     1 RMS=1.81D-05 Max=1.29D-03 NDo=     1
 LinEq1:  Iter=  4 NonCon=     1 RMS=1.44D-05 Max=1.05D-03 NDo=     1
 LinEq1:  Iter=  5 NonCon=     1 RMS=2.32D-05 Max=2.33D-03 NDo=     1
 LinEq1:  Iter=  6 NonCon=     1 RMS=1.20D-05 Max=5.73D-04 NDo=     1
 LinEq1:  Iter=  7 NonCon=     1 RMS=8.76D-06 Max=5.50D-04 NDo=     1
 LinEq1:  Iter=  8 NonCon=     1 RMS=6.03D-06 Max=1.85D-04 NDo=     1
 LinEq1:  Iter=  9 NonCon=     1 RMS=3.27D-06 Max=1.97D-04 NDo=     1
 LinEq1:  Iter= 10 NonCon=     1 RMS=1.71D-06 Max=6.03D-05 NDo=     1
 LinEq1:  Iter= 11 NonCon=     1 RMS=1.08D-06 Max=6.18D-05 NDo=     1
 LinEq1:  Iter= 12 NonCon=     1 RMS=4.82D-07 Max=1.78D-05 NDo=     1
 LinEq1:  Iter= 13 NonCon=     1 RMS=2.52D-07 Max=4.90D-06 NDo=     1
 LinEq1:  Iter= 14 NonCon=     1 RMS=1.13D-07 Max=3.91D-06 NDo=     1
 LinEq1:  Iter= 15 NonCon=     1 RMS=4.77D-08 Max=1.52D-06 NDo=     1
 LinEq1:  Iter= 16 NonCon=     1 RMS=2.18D-08 Max=5.64D-07 NDo=     1
 LinEq1:  Iter= 17 NonCon=     1 RMS=1.02D-08 Max=2.38D-07 NDo=     1
 LinEq1:  Iter= 18 NonCon=     0 RMS=4.11D-09 Max=1.42D-07 NDo=     1
 Linear equations converged to 1.946D-08 1.946D-07 after    18 iterations.
     Minimum is close to point  2 DX=  3.89D-02 DF= -6.91D-09 DXR=  3.75D-02 DFR=  1.41D-03 which will be used.
 LinEq1:  Iter=  0 NonCon=     1 RMS=1.45D-06 Max=2.19D-04 NDo=     1
 LinEq1:  Iter=  1 NonCon=     1 RMS=1.61D-06 Max=2.12D-04 NDo=     1
 LinEq1:  Iter=  2 NonCon=     1 RMS=5.13D-07 Max=3.63D-05 NDo=     1
 LinEq1:  Iter=  3 NonCon=     1 RMS=6.68D-07 Max=7.32D-05 NDo=     1
 LinEq1:  Iter=  4 NonCon=     1 RMS=4.54D-07 Max=2.52D-05 NDo=     1
 LinEq1:  Iter=  5 NonCon=     1 RMS=4.56D-07 Max=2.51D-05 NDo=     1
 LinEq1:  Iter=  6 NonCon=     1 RMS=2.77D-07 Max=1.75D-05 NDo=     1
 LinEq1:  Iter=  7 NonCon=     1 RMS=1.76D-07 Max=8.23D-06 NDo=     1
 LinEq1:  Iter=  8 NonCon=     1 RMS=7.44D-08 Max=2.68D-06 NDo=     1
 LinEq1:  Iter=  9 NonCon=     1 RMS=3.58D-08 Max=1.79D-06 NDo=     1
 LinEq1:  Iter= 10 NonCon=     1 RMS=1.94D-08 Max=1.08D-06 NDo=     1
 LinEq1:  Iter= 11 NonCon=     1 RMS=1.10D-08 Max=5.94D-07 NDo=     1
 LinEq1:  Iter= 12 NonCon=     1 RMS=6.65D-09 Max=2.02D-07 NDo=     1
 LinEq1:  Iter= 13 NonCon=     1 RMS=3.04D-09 Max=1.15D-07 NDo=     1
 LinEq1:  Iter= 14 NonCon=     1 RMS=1.35D-09 Max=6.16D-08 NDo=     1
 LinEq1:  Iter= 15 NonCon=     1 RMS=6.33D-10 Max=1.87D-08 NDo=     1
 LinEq1:  Iter= 16 NonCon=     1 RMS=2.93D-10 Max=1.03D-08 NDo=     1
 LinEq1:  Iter= 17 NonCon=     0 RMS=1.41D-10 Max=2.72D-09 NDo=     1
 Linear equations converged to 3.481D-10 3.481D-09 after    17 iterations.
 SCF Done:  E(RB3LYP) =  -1189.51704238     a.u. after   11 cycles
            Convg  =    0.5572D-07                    81 Fock formations.
              S**2 =  0.0000                  -V/T =  2.0063
 DoSCS=F DFT=T ScalE2(SS,OS)=  1.000000  1.000000
 Range of M.O.s used for correlation:     1   385
 NBasis=   385 NAE=    86 NBE=    86 NFC=     0 NFV=     0
 NROrb=    385 NOA=    86 NOB=    86 NVA=   299 NVB=   299

 **** Warning!!: The smallest alpha delta epsilon is  0.48906739D-01

 Symmetrizing basis deriv contribution to polar:
 IMax=3 JMax=2 DiffMx= 0.00D+00
 G2DrvN: will do    55 centers at a time, making    1 passes.
 Calling FoFCou, ICntrl=  3107 FMM=F I1Cent=   0 AccDes= 0.00D+00.
 End of G2Drv F.D. properties file   721 does not exist.
 End of G2Drv F.D. properties file   722 does not exist.
 End of G2Drv F.D. properties file   788 does not exist.
          IDoAtm=11111111111111111111111111111111111111111111111111
          IDoAtm=1111
          Differentiating once with respect to electric field.
                with respect to dipole field.
          Differentiating once with respect to nuclear coordinates.
 CalDSu exits because no D1Ps are significant.
          There are   165 degrees of freedom in the 1st order CPHF.  IDoFFX=6 NUNeed=     3.
    162 vectors produced by pass  0 Test12= 2.57D-14 1.00D-09 XBig12= 4.28D+02 1.14D+01.
 AX will form   162 AO Fock derivatives at one time.
    162 vectors produced by pass  1 Test12= 2.57D-14 1.00D-09 XBig12= 9.11D+01 1.45D+00.
    162 vectors produced by pass  2 Test12= 2.57D-14 1.00D-09 XBig12= 5.84D-01 7.82D-02.
    162 vectors produced by pass  3 Test12= 2.57D-14 1.00D-09 XBig12= 1.37D-03 4.24D-03.
    162 vectors produced by pass  4 Test12= 2.57D-14 1.00D-09 XBig12= 1.57D-06 9.00D-05.
     82 vectors produced by pass  5 Test12= 2.57D-14 1.00D-09 XBig12= 1.13D-09 2.75D-06.
      7 vectors produced by pass  6 Test12= 2.57D-14 1.00D-09 XBig12= 7.74D-13 5.63D-08.
      3 vectors produced by pass  7 Test12= 2.57D-14 1.00D-09 XBig12= 6.45D-16 2.19D-09.
 InvSVY:  IOpt=1 It=  1 EMax= 2.13D-14
 Solved reduced A of dimension   902 with   165 vectors.
 Isotropic polarizability for W=    0.000000      233.95 Bohr**3.
 End of Minotr F.D. properties file   721 does not exist.
 End of Minotr F.D. properties file   722 does not exist.
 End of Minotr F.D. properties file   788 does not exist.

 **********************************************************************

            Population analysis using the SCF density.

 **********************************************************************

 Orbital symmetries:
       Occupied  (A) (A) (A) (A) (A) (A) (A) (A) (A) (A) (A) (A)
                 (A) (A) (A) (A) (A) (A) (A) (A) (A) (A) (A) (A)
                 (A) (A) (A) (A) (A) (A) (A) (A) (A) (A) (A) (A)
                 (A) (A) (A) (A) (A) (A) (A) (A) (A) (A) (A) (A)
                 (A) (A) (A) (A) (A) (A) (A) (A) (A) (A) (A) (A)
                 (A) (A) (A) (A) (A) (A) (A) (A) (A) (A) (A) (A)
                 (A) (A) (A) (A) (A) (A) (A) (A) (A) (A) (A) (A)
                 (A) (A)
       Virtual   (A) (A) (A) (A) (A) (A) (A) (A) (A) (A) (A) (A)
                 (A) (A) (A) (A) (A) (A) (A) (A) (A) (A) (A) (A)
                 (A) (A) (A) (A) (A) (A) (A) (A) (A) (A) (A) (A)
                 (A) (A) (A) (A) (A) (A) (A) (A) (A) (A) (A) (A)
                 (A) (A) (A) (A) (A) (A) (A) (A) (A) (A) (A) (A)
                 (A) (A) (A) (A) (A) (A) (A) (A) (A) (A) (A) (A)
                 (A) (A) (A) (A) (A) (A) (A) (A) (A) (A) (A) (A)
                 (A) (A) (A) (A) (A) (A) (A) (A) (A) (A) (A) (A)
                 (A) (A) (A) (A) (A) (A) (A) (A) (A) (A) (A) (A)
                 (A) (A) (A) (A) (A) (A) (A) (A) (A) (A) (A) (A)
                 (A) (A) (A) (A) (A) (A) (A) (A) (A) (A) (A) (A)
                 (A) (A) (A) (A) (A) (A) (A) (A) (A) (A) (A) (A)
                 (A) (A) (A) (A) (A) (A) (A) (A) (A) (A) (A) (A)
                 (A) (A) (A) (A) (A) (A) (A) (A) (A) (A) (A) (A)
                 (A) (A) (A) (A) (A) (A) (A) (A) (A) (A) (A) (A)
                 (A) (A) (A) (A) (A) (A) (A) (A) (A) (A) (A) (A)
                 (A) (A) (A) (A) (A) (A) (A) (A) (A) (A) (A) (A)
                 (A) (A) (A) (A) (A) (A) (A) (A) (A) (A) (A) (A)
                 (A) (A) (A) (A) (A) (A) (A) (A) (A) (A) (A) (A)
                 (A) (A) (A) (A) (A) (A) (A) (A) (A) (A) (A) (A)
                 (A) (A) (A) (A) (A) (A) (A) (A) (A) (A) (A) (A)
                 (A) (A) (A) (A) (A) (A) (A) (A) (A) (A) (A) (A)
                 (A) (A) (A) (A) (A) (A) (A) (A) (A) (A) (A) (A)
                 (A) (A) (A) (A) (A) (A) (A) (A) (A) (A) (A) (A)
                 (A) (A) (A) (A) (A) (A) (A) (A) (A) (A) (A)
 The electronic state is 1-A.
 Alpha  occ. eigenvalues --  -77.15819 -14.33698 -14.30715 -14.29735 -14.23725
 Alpha  occ. eigenvalues --  -10.21072 -10.20685 -10.20328 -10.19454 -10.18732
 Alpha  occ. eigenvalues --  -10.18384 -10.18103 -10.17697 -10.17057 -10.16933
 Alpha  occ. eigenvalues --  -10.16923 -10.16724 -10.16300 -10.14891 -10.14317
 Alpha  occ. eigenvalues --  -10.14134  -6.60860  -4.77232  -4.77109  -4.77035
 Alpha  occ. eigenvalues --   -0.95187  -0.91362  -0.89102  -0.83913  -0.78964
 Alpha  occ. eigenvalues --   -0.77535  -0.76386  -0.74868  -0.73213  -0.71374
 Alpha  occ. eigenvalues --   -0.71134  -0.67625  -0.65987  -0.64559  -0.61036
 Alpha  occ. eigenvalues --   -0.59280  -0.57639  -0.56937  -0.56209  -0.55554
 Alpha  occ. eigenvalues --   -0.51932  -0.51689  -0.50155  -0.48915  -0.47871
 Alpha  occ. eigenvalues --   -0.47118  -0.46365  -0.44943  -0.44108  -0.43195
 Alpha  occ. eigenvalues --   -0.42238  -0.41541  -0.41055  -0.40511  -0.40274
 Alpha  occ. eigenvalues --   -0.39621  -0.38465  -0.38347  -0.37840  -0.37537
 Alpha  occ. eigenvalues --   -0.36634  -0.36091  -0.35319  -0.34989  -0.34462
 Alpha  occ. eigenvalues --   -0.33873  -0.33589  -0.33383  -0.32812  -0.32579
 Alpha  occ. eigenvalues --   -0.31962  -0.31530  -0.30703  -0.29029  -0.28121
 Alpha  occ. eigenvalues --   -0.26428  -0.25329  -0.20628  -0.20545  -0.17699
 Alpha  occ. eigenvalues --   -0.14853
 Alpha virt. eigenvalues --   -0.09962   0.06147   0.07497   0.08018   0.09412
 Alpha virt. eigenvalues --    0.10554   0.11316   0.11584   0.12117   0.12643
 Alpha virt. eigenvalues --    0.12801   0.13452   0.14206   0.14887   0.15205
 Alpha virt. eigenvalues --    0.15731   0.16217   0.16463   0.17238   0.17587
 Alpha virt. eigenvalues --    0.17609   0.17928   0.18252   0.18703   0.19071
 Alpha virt. eigenvalues --    0.19948   0.20218   0.20485   0.20734   0.20952
 Alpha virt. eigenvalues --    0.21475   0.21796   0.21880   0.22610   0.22951
 Alpha virt. eigenvalues --    0.23118   0.23903   0.24581   0.24940   0.25127
 Alpha virt. eigenvalues --    0.25856   0.26571   0.27682   0.28074   0.28446
 Alpha virt. eigenvalues --    0.29968   0.30179   0.30821   0.31607   0.32654
 Alpha virt. eigenvalues --    0.33859   0.34284   0.34483   0.35468   0.36084
 Alpha virt. eigenvalues --    0.37174   0.41153   0.43476   0.48207   0.49656
 Alpha virt. eigenvalues --    0.51668   0.52491   0.53133   0.53628   0.54300
 Alpha virt. eigenvalues --    0.54422   0.55517   0.56087   0.56848   0.58314
 Alpha virt. eigenvalues --    0.58651   0.59489   0.60389   0.60905   0.61468
 Alpha virt. eigenvalues --    0.61810   0.62081   0.63045   0.63678   0.64184
 Alpha virt. eigenvalues --    0.64886   0.65782   0.66148   0.67936   0.68446
 Alpha virt. eigenvalues --    0.68820   0.69060   0.69421   0.71444   0.71739
 Alpha virt. eigenvalues --    0.72798   0.73799   0.74310   0.74727   0.75883
 Alpha virt. eigenvalues --    0.77017   0.78139   0.78751   0.79089   0.81266
 Alpha virt. eigenvalues --    0.82787   0.83053   0.83573   0.83931   0.84971
 Alpha virt. eigenvalues --    0.85413   0.86037   0.86291   0.86622   0.86932
 Alpha virt. eigenvalues --    0.87335   0.87928   0.88708   0.88992   0.89696
 Alpha virt. eigenvalues --    0.90119   0.90428   0.90970   0.92043   0.92546
 Alpha virt. eigenvalues --    0.92981   0.93731   0.93877   0.94021   0.94731
 Alpha virt. eigenvalues --    0.95128   0.96298   0.96603   0.96669   0.97240
 Alpha virt. eigenvalues --    0.97932   0.98311   0.98985   0.99461   1.00624
 Alpha virt. eigenvalues --    1.00917   1.01279   1.01822   1.02994   1.03984
 Alpha virt. eigenvalues --    1.04091   1.05390   1.05709   1.06768   1.07345
 Alpha virt. eigenvalues --    1.08068   1.11032   1.11424   1.12866   1.15528
 Alpha virt. eigenvalues --    1.17293   1.20039   1.20607   1.20643   1.21464
 Alpha virt. eigenvalues --    1.21978   1.24467   1.27961   1.30052   1.31992
 Alpha virt. eigenvalues --    1.33728   1.36519   1.36756   1.42019   1.43271
 Alpha virt. eigenvalues --    1.43807   1.45686   1.47612   1.48754   1.49623
 Alpha virt. eigenvalues --    1.52350   1.54061   1.54829   1.56261   1.58603
 Alpha virt. eigenvalues --    1.61462   1.62614   1.63957   1.66789   1.68237
 Alpha virt. eigenvalues --    1.71130   1.72847   1.74059   1.75853   1.77069
 Alpha virt. eigenvalues --    1.78107   1.78570   1.79961   1.81081   1.83527
 Alpha virt. eigenvalues --    1.84661   1.85018   1.85420   1.85721   1.86965
 Alpha virt. eigenvalues --    1.87926   1.89062   1.89572   1.91264   1.91793
 Alpha virt. eigenvalues --    1.92590   1.93516   1.94186   1.95597   1.96778
 Alpha virt. eigenvalues --    1.99865   2.00789   2.01961   2.02603   2.03768
 Alpha virt. eigenvalues --    2.04818   2.04892   2.05873   2.06768   2.07049
 Alpha virt. eigenvalues --    2.09014   2.10000   2.10260   2.10563   2.10664
 Alpha virt. eigenvalues --    2.11732   2.12637   2.13123   2.13820   2.16453
 Alpha virt. eigenvalues --    2.17494   2.18474   2.19068   2.22276   2.23244
 Alpha virt. eigenvalues --    2.23873   2.26250   2.26633   2.27399   2.28820
 Alpha virt. eigenvalues --    2.29303   2.29595   2.31185   2.32287   2.32711
 Alpha virt. eigenvalues --    2.33023   2.34540   2.36890   2.39783   2.41076
 Alpha virt. eigenvalues --    2.42178   2.42961   2.43607   2.45705   2.47305
 Alpha virt. eigenvalues --    2.48184   2.49512   2.51411   2.52269   2.53481
 Alpha virt. eigenvalues --    2.57011   2.57543   2.58730   2.60156   2.61134
 Alpha virt. eigenvalues --    2.61539   2.64178   2.68131   2.69914   2.70890
 Alpha virt. eigenvalues --    2.72722   2.73351   2.74331   2.75244   2.76531
 Alpha virt. eigenvalues --    2.77375   2.78011   2.81204   2.85910   2.88953
 Alpha virt. eigenvalues --    2.93210   2.97219   3.01793   3.65035   4.01493
 Alpha virt. eigenvalues --    4.08983   4.16200   4.20594   4.22954   4.23835
 Alpha virt. eigenvalues --    4.26963   4.28116   4.28801   4.33105   4.34644
 Alpha virt. eigenvalues --    4.34849   4.39956   4.55435   4.57326   4.57632
 Alpha virt. eigenvalues --    4.58111   4.60067   4.66799   4.75728
          Condensed to atoms (all electrons):
 Mulliken charges:
               1
     1  P    1.005000
     2  N   -0.600395
     3  C    0.259400
     4  C   -0.453420
     5  C   -0.446076
     6  C   -0.460046
     7  N   -0.525956
     8  C   -0.093653
     9  C   -0.288080
    10  C   -0.295929
    11  C   -0.123257
    12  N   -0.523154
    13  C   -0.115005
    14  C   -0.292990
    15  C   -0.299846
    16  C   -0.113370
    17  N   -0.433435
    18  C   -0.137706
    19  C   -0.307112
    20  C   -0.296296
    21  C   -0.187468
    22  H    0.132440
    23  H    0.127693
    24  H    0.122145
    25  H    0.134573
    26  H    0.127909
    27  H    0.142563
    28  H    0.123857
    29  H    0.162536
    30  H    0.119176
    31  H    0.142434
    32  H    0.139444
    33  H    0.133682
    34  H    0.136289
    35  H    0.126458
    36  H    0.133050
    37  H    0.140781
    38  H    0.115723
    39  H    0.179877
    40  H    0.133731
    41  H    0.137470
    42  H    0.129916
    43  H    0.146998
    44  H    0.135617
    45  H    0.146955
    46  H    0.123235
    47  H    0.164044
    48  H    0.201376
    49  H    0.144565
    50  H    0.148044
    51  H    0.140365
    52  H    0.138816
    53  H    0.201040
    54  H    0.195993
 Sum of Mulliken charges =   0.00000
 Mulliken charges with hydrogens summed into heavy atoms:
               1
     1  P    1.005000
     2  N   -0.600395
     3  C    0.259400
     4  C   -0.071143
     5  C   -0.041031
     6  C   -0.054476
     7  N   -0.525956
     8  C    0.188224
     9  C   -0.018109
    10  C   -0.036421
    11  C    0.133247
    12  N   -0.523154
    13  C    0.198602
    14  C   -0.025605
    15  C   -0.017230
    16  C    0.156821
    17  N   -0.433435
    18  C    0.227714
    19  C   -0.014503
    20  C   -0.017116
    21  C    0.209565
 APT charges:
               1
     1  P    0.926976
     2  N   -0.597704
     3  C    0.466805
     4  C   -0.101182
     5  C    0.065155
     6  C   -0.042801
     7  N   -0.781859
     8  C    0.398806
     9  C    0.094840
    10  C    0.095756
    11  C    0.235333
    12  N   -0.505303
    13  C    0.248821
    14  C    0.101278
    15  C    0.065359
    16  C    0.369799
    17  N   -0.503015
    18  C    0.269422
    19  C    0.106720
    20  C    0.071422
    21  C    0.334165
    22  H   -0.031341
    23  H    0.098591
    24  H   -0.074663
    25  H   -0.031455
    26  H   -0.053892
    27  H   -0.006591
    28  H   -0.042585
    29  H    0.036016
    30  H   -0.059350
    31  H   -0.097019
    32  H   -0.020120
    33  H   -0.048776
    34  H   -0.041138
    35  H   -0.053041
    36  H   -0.045877
    37  H    0.135921
    38  H   -0.096780
    39  H   -0.086324
    40  H   -0.025922
    41  H   -0.042524
    42  H   -0.061770
    43  H   -0.039317
    44  H   -0.056976
    45  H   -0.041495
    46  H   -0.112966
    47  H   -0.068367
    48  H   -0.009646
    49  H   -0.045654
    50  H   -0.043451
    51  H   -0.047853
    52  H   -0.054827
    53  H   -0.023693
    54  H   -0.125909
 Sum of APT charges =   0.00000
 APT charges with hydrogens summed into heavy atoms:
               1
     1  P    0.926976
     2  N   -0.597704
     3  C    0.466805
     4  C   -0.108595
     5  C   -0.026784
     6  C   -0.108720
     7  N   -0.781859
     8  C    0.281667
     9  C    0.004926
    10  C   -0.003161
    11  C    0.274474
    12  N   -0.505303
    13  C    0.136575
    14  C   -0.003016
    15  C   -0.030934
    16  C    0.215338
    17  N   -0.503015
    18  C    0.191409
    19  C    0.017615
    20  C   -0.031258
    21  C    0.184564
 Electronic spatial extent (au):  <R**2>=           6335.8066
 Charge=              0.0000 electrons
 Dipole moment (field-independent basis, Debye):
    X=             -1.8687    Y=             -1.7769    Z=             -0.8235  Tot=              2.7069
 Quadrupole moment (field-independent basis, Debye-Ang):
   XX=           -129.2968   YY=           -138.8369   ZZ=           -140.6718
   XY=              0.2410   XZ=              1.7472   YZ=             -1.0288
 Traceless Quadrupole moment (field-independent basis, Debye-Ang):
   XX=              6.9717   YY=             -2.5684   ZZ=             -4.4033
   XY=              0.2410   XZ=              1.7472   YZ=             -1.0288
 Octapole moment (field-independent basis, Debye-Ang**2):
  XXX=            -16.4275  YYY=            -16.4036  ZZZ=              2.6071  XYY=             -6.0134
  XXY=             -3.4013  XXZ=             -1.0533  XZZ=             -3.7482  YZZ=             -7.2354
  YYZ=             -0.7507  XYZ=              0.7064
 Hexadecapole moment (field-independent basis, Debye-Ang**3):
 XXXX=          -4196.8451 YYYY=          -3692.5117 ZZZZ=           -813.8347 XXXY=             -5.1026
 XXXZ=             -9.8179 YYYX=              8.7557 YYYZ=             -2.5775 ZZZX=              3.3547
 ZZZY=             -5.9842 XXYY=          -1305.7892 XXZZ=           -833.9807 YYZZ=           -752.8076
 XXYZ=             -8.2522 YYXZ=             -1.3434 ZZXY=             -5.5049
 N-N= 2.225695873769D+03 E-N=-7.230502890438D+03  KE= 1.182096299132D+03
  Exact polarizability: 279.312  -1.086 247.932  -3.067  12.564 174.616
 Approx polarizability: 415.207  15.588 345.897  -5.074  44.779 336.828
 Calling FoFJK, ICntrl=    100127 FMM=F ISym2X=0 I1Cent= 0 IOpClX= 0 NMat=1 NMatS=1 NMatT=0.
 ***** Axes restored to original set *****
 -------------------------------------------------------------------
 Center     Atomic                   Forces (Hartrees/Bohr)
 Number     Number              X              Y              Z
 -------------------------------------------------------------------
      1       15          -0.021604062    0.063229315    0.016922374
      2        7           0.035383058   -0.009596470    0.117253037
      3        6          -0.034730516    0.003160759   -0.009747355
      4        6           0.000939574   -0.007883315    0.022292936
      5        6          -0.000862302    0.007953406    0.004950665
      6        6           0.005777804   -0.019416135    0.011560857
      7        7           0.011450349    0.011461569   -0.039926714
      8        6          -0.010778620    0.001154243    0.005602102
      9        6          -0.006685504    0.007999683   -0.003563604
     10        6          -0.003380821    0.004367287   -0.006046440
     11        6          -0.021903815    0.039922069   -0.037721817
     12        7          -0.022635179    0.009896825   -0.001838493
     13        6          -0.024851856    0.001565823   -0.001324628
     14        6          -0.010307027   -0.005265839    0.004318548
     15        6          -0.006956911    0.007734680   -0.004310738
     16        6          -0.011283580   -0.026606882   -0.019166309
     17        7          -0.002096473   -0.034692613   -0.031464285
     18        6           0.031603845    0.007287049   -0.019509253
     19        6           0.011160364   -0.003779209    0.000720982
     20        6           0.013322177   -0.010430776   -0.005662175
     21        6           0.068906851   -0.059814889    0.027101836
     22        1           0.000604627    0.006349335   -0.000179357
     23        1          -0.032525216   -0.010615403    0.044212642
     24        1          -0.005293140    0.000628954    0.001217944
     25        1           0.001888436    0.004455175   -0.003622712
     26        1           0.001828817   -0.000976948   -0.002732850
     27        1           0.004688883    0.000307627    0.005352492
     28        1           0.008130566   -0.004277695   -0.008022752
     29        1           0.024251501   -0.022991414    0.010158784
     30        1           0.000791179    0.000634866    0.002232160
     31        1           0.001604045    0.001019777    0.005542628
     32        1           0.008713189   -0.000840736    0.004190843
     33        1          -0.002931585    0.003125604    0.001850289
     34        1          -0.001703842    0.000292144    0.001228189
     35        1           0.003027771    0.000319569   -0.000270387
     36        1           0.002777963    0.000669013   -0.001032770
     37        1          -0.076481472    0.058627706   -0.046016931
     38        1          -0.004057483   -0.005268969   -0.009412221
     39        1           0.005638376   -0.002544908   -0.004132266
     40        1          -0.010123984    0.025956624   -0.007875823
     41        1           0.000219198   -0.001669252    0.003768357
     42        1          -0.002507720   -0.000051552    0.000690561
     43        1          -0.003551383    0.000455707   -0.000977527
     44        1           0.001579771    0.001685052   -0.003382186
     45        1           0.011849901   -0.005163236   -0.006396217
     46        1          -0.001546374   -0.003604987   -0.011364703
     47        1          -0.009248517   -0.007792024   -0.002071315
     48        1           0.013382894    0.010581841   -0.042869255
     49        1           0.001868765    0.001973091    0.002605396
     50        1           0.000702554    0.000383495    0.001594457
     51        1          -0.001115928   -0.000693850   -0.001271523
     52        1           0.000246999   -0.001160042   -0.003127778
     53        1           0.019126870   -0.028057167    0.015004361
     54        1           0.037696983   -0.010003979    0.024667943
 -------------------------------------------------------------------
 Cartesian Forces:  Max     0.117253037 RMS     0.020397809
 FormGI is forming the generalized inverse of G from B-inverse, IUseBI=4.

 GradGradGradGradGradGradGradGradGradGradGradGradGradGradGradGradGradGrad
 Berny optimization.
 Internal  Forces:  Max     0.320172739 RMS     0.046440709
 Search for a local minimum.
 Step number   1 out of a maximum of  324
 All quantities printed in internal units (Hartrees-Bohrs-Radians)
 Mixed Optimization -- RFO/linear search
 Second derivative matrix not updated -- analytic derivatives used.
 ITU=  0
     Eigenvalues ---   -0.34515  -0.22247  -0.13111  -0.12073  -0.09336
     Eigenvalues ---   -0.04369  -0.02089  -0.01587  -0.01082  -0.00826
     Eigenvalues ---   -0.00326   0.00069   0.00172   0.00183   0.00410
     Eigenvalues ---    0.00774   0.01130   0.01400   0.01657   0.02008
     Eigenvalues ---    0.02019   0.02347   0.02593   0.02697   0.03234
     Eigenvalues ---    0.03605   0.03676   0.04009   0.04043   0.04070
     Eigenvalues ---    0.04141   0.04223   0.04249   0.04304   0.04360
     Eigenvalues ---    0.04391   0.04512   0.04634   0.04675   0.04720
     Eigenvalues ---    0.04904   0.04978   0.05049   0.05084   0.05127
     Eigenvalues ---    0.05183   0.05360   0.05687   0.05828   0.05888
     Eigenvalues ---    0.05910   0.06093   0.06202   0.06227   0.06335
     Eigenvalues ---    0.06382   0.06432   0.06549   0.06684   0.06759
     Eigenvalues ---    0.06904   0.06928   0.07282   0.07461   0.07721
     Eigenvalues ---    0.07891   0.08127   0.08856   0.09211   0.09393
     Eigenvalues ---    0.09538   0.09628   0.09678   0.09901   0.10191
     Eigenvalues ---    0.10501   0.10851   0.11681   0.11734   0.12237
     Eigenvalues ---    0.12483   0.13240   0.13668   0.14534   0.14923
     Eigenvalues ---    0.15596   0.15810   0.16113   0.17351   0.18901
     Eigenvalues ---    0.20100   0.20532   0.21170   0.21759   0.22156
     Eigenvalues ---    0.22954   0.23882   0.24453   0.24529   0.25101
     Eigenvalues ---    0.25854   0.26617   0.27009   0.27228   0.27385
     Eigenvalues ---    0.28362   0.29160   0.29468   0.29846   0.30240
     Eigenvalues ---    0.30593   0.30868   0.31454   0.31570   0.32122
     Eigenvalues ---    0.32181   0.32421   0.32835   0.33030   0.33042
     Eigenvalues ---    0.33121   0.33154   0.33190   0.33233   0.33332
     Eigenvalues ---    0.33487   0.33592   0.33600   0.33739   0.33876
     Eigenvalues ---    0.33913   0.34097   0.34137   0.34233   0.34314
     Eigenvalues ---    0.34342   0.34511   0.34639   0.34847   0.34951
     Eigenvalues ---    0.35093   0.35426   0.35559   0.35640   0.35922
     Eigenvalues ---    0.36068   0.36999   0.37303   0.41029   0.45231
     Eigenvalues ---    0.54844   0.61869   0.69649   1.90984   3.14069
     Eigenvalues ---    6.83618
 RFO step:  Lambda=-4.10099974D-01 EMin=-3.45145267D-01
 Linear search not attempted -- first point.
 Maximum step size (   0.300) exceeded in Quadratic search.
    -- Step size scaled by   0.428
 Iteration  1 RMS(Cart)=  0.23176235 RMS(Int)=  0.00717901
 Iteration  2 RMS(Cart)=  0.03410372 RMS(Int)=  0.00057265
 Iteration  3 RMS(Cart)=  0.00039447 RMS(Int)=  0.00055676
 Iteration  4 RMS(Cart)=  0.00000059 RMS(Int)=  0.00055676
 Variable       Old X    -DE/DX   Delta X   Delta X   Delta X     New X
                                 (Linear)    (Quad)   (Total)
    R1        2.93983   0.15818   0.00000   0.03494   0.03494   2.97477
    R2        3.16815   0.17152   0.00000   0.03254   0.03254   3.20069
    R3        3.36371   0.07448   0.00000   0.01301   0.01305   3.37677
    R4        3.36371   0.18556   0.00000  -0.02138  -0.02143   3.34228
    R5        2.84529   0.08841   0.00000  -0.02856  -0.02856   2.81673
    R6        2.90060  -0.00187   0.00000   0.00865   0.00865   2.90925
    R7        2.93808   0.00494   0.00000   0.00218   0.00218   2.94026
    R8        2.93491   0.01647   0.00000  -0.01029  -0.01029   2.92462
    R9        2.06357   0.00533   0.00000   0.00082   0.00082   2.06438
   R10        2.05287  -0.04710   0.00000  -0.00877  -0.00877   2.04410
   R11        2.07583   0.00093   0.00000   0.00006   0.00006   2.07590
   R12        2.06362   0.00364   0.00000   0.00179   0.00179   2.06541
   R13        2.07745  -0.00196   0.00000  -0.00055  -0.00055   2.07690
   R14        2.07030  -0.00592   0.00000  -0.00141  -0.00141   2.06889
   R15        2.04966   0.01097   0.00000   0.00616   0.00616   2.05582
   R16        2.07450  -0.02987   0.00000  -0.00769  -0.00769   2.06681
   R17        2.07356   0.00160   0.00000   0.00176   0.00176   2.07532
   R18        2.75680   0.03119   0.00000   0.00494   0.00495   2.76175
   R19        2.75726   0.05734   0.00000   0.04299   0.04300   2.80026
   R20        2.87454  -0.00799   0.00000   0.00154   0.00152   2.87606
   R21        2.06643   0.00505   0.00000   0.00201   0.00201   2.06843
   R22        2.07159  -0.00666   0.00000  -0.00216  -0.00216   2.06944
   R23        2.85447  -0.01931   0.00000   0.00486   0.00486   2.85933
   R24        2.06240   0.00321   0.00000   0.00137   0.00137   2.06378
   R25        2.07313   0.00065   0.00000   0.00049   0.00049   2.07361
   R26        2.87071   0.00801   0.00000   0.00856   0.00856   2.87926
   R27        2.07154   0.00250   0.00000  -0.00092  -0.00092   2.07062
   R28        2.06730   0.00090   0.00000   0.00055   0.00055   2.06785
   R29        2.06708  -0.09294   0.00000   0.01157   0.01157   2.07865
   R30        2.06516   0.01117   0.00000   0.00110   0.00110   2.06626
   R31        2.79627   0.02077   0.00000  -0.00765  -0.00761   2.78866
   R32        2.75658   0.02706   0.00000   0.01360   0.01363   2.77021
   R33        2.87071   0.01057   0.00000   0.00578   0.00579   2.87650
   R34        2.06923  -0.00066   0.00000  -0.00798  -0.00798   2.06126
   R35        2.06572  -0.02292   0.00000   0.00316   0.00316   2.06888
   R36        2.83778   0.01072   0.00000   0.01079   0.01071   2.84849
   R37        2.06834   0.00076   0.00000   0.00021   0.00021   2.06856
   R38        2.07195   0.00173   0.00000   0.00027   0.00027   2.07222
   R39        2.86821   0.00348   0.00000   0.00337   0.00338   2.87159
   R40        2.06905  -0.00061   0.00000   0.00062   0.00062   2.06967
   R41        2.06997   0.00020   0.00000  -0.00009  -0.00009   2.06988
   R42        2.04322   0.00830   0.00000   0.00316   0.00316   2.04638
   R43        2.06529   0.00711   0.00000   0.00396   0.00396   2.06925
   R44        2.75436   0.01598   0.00000   0.00438   0.00457   2.75893
   R45        2.74927   0.04277   0.00000  -0.01515  -0.01503   2.73424
   R46        2.88126  -0.00360   0.00000   0.00923   0.00921   2.89046
   R47        2.04773   0.00960   0.00000   0.00955   0.00955   2.05728
   R48        2.07998  -0.03063   0.00000  -0.04042  -0.04042   2.03956
   R49        2.85988  -0.03905   0.00000   0.01370   0.01357   2.87345
   R50        2.06976  -0.00003   0.00000  -0.00047  -0.00047   2.06929
   R51        2.06937   0.00109   0.00000   0.00082   0.00082   2.07019
   R52        2.86468   0.00650   0.00000   0.00947   0.00934   2.87402
   R53        2.07166   0.00127   0.00000   0.00073   0.00073   2.07239
   R54        2.06731   0.00147   0.00000   0.00063   0.00063   2.06794
   R55        2.06486  -0.01455   0.00000  -0.00481  -0.00481   2.06004
   R56        2.06909  -0.00362   0.00000  -0.01445  -0.01445   2.05464
    A1        1.82639  -0.00415   0.00000  -0.03494  -0.03684   1.78955
    A2        1.54913   0.04192   0.00000   0.05476   0.05529   1.60442
    A3        1.59246   0.02868   0.00000   0.08971   0.09121   1.68368
    A4        1.59561  -0.25297   0.00000   0.00081   0.00292   1.59853
    A5        1.54598   0.32017   0.00000   0.04619   0.04788   1.59386
    A6        2.23064   0.16606   0.00000   0.14397   0.14397   2.37462
    A7        2.05402   0.06386   0.00000  -0.00733  -0.00741   2.04661
    A8        1.92463  -0.03823   0.00000   0.00608   0.00596   1.93059
    A9        1.90756   0.01347   0.00000  -0.00365  -0.00367   1.90389
   A10        1.83888  -0.03028   0.00000  -0.01855  -0.01857   1.82032
   A11        1.93018  -0.06136   0.00000   0.02450   0.02452   1.95471
   A12        1.78913   0.04917   0.00000  -0.00057  -0.00042   1.78871
   A13        1.94394  -0.00319   0.00000  -0.01246  -0.01241   1.93153
   A14        2.01140   0.02111   0.00000   0.01929   0.01926   2.03066
   A15        1.93356  -0.01398   0.00000   0.00648   0.00642   1.93997
   A16        1.85263   0.00065   0.00000  -0.00845  -0.00838   1.84425
   A17        1.84061   0.00472   0.00000   0.00226   0.00229   1.84290
   A18        1.87167  -0.01018   0.00000  -0.00885  -0.00897   1.86270
   A19        1.96245  -0.00456   0.00000  -0.00234  -0.00234   1.96011
   A20        1.93166  -0.00398   0.00000  -0.00209  -0.00209   1.92956
   A21        1.95474   0.00684   0.00000   0.00171   0.00171   1.95646
   A22        1.84540   0.00411   0.00000   0.00265   0.00265   1.84805
   A23        1.89198  -0.00179   0.00000   0.00072   0.00073   1.89271
   A24        1.87213  -0.00062   0.00000  -0.00050  -0.00050   1.87162
   A25        1.98881  -0.01263   0.00000  -0.00293  -0.00296   1.98585
   A26        1.94470   0.02737   0.00000  -0.01745  -0.01747   1.92723
   A27        1.94504  -0.00497   0.00000   0.00614   0.00615   1.95119
   A28        1.88117  -0.00893   0.00000   0.00865   0.00859   1.88976
   A29        1.82704   0.00501   0.00000   0.00287   0.00287   1.82991
   A30        1.86944  -0.00735   0.00000   0.00453   0.00455   1.87400
   A31        2.20043  -0.22774   0.00000  -0.06295  -0.06296   2.13747
   A32        2.16248   0.29788   0.00000   0.07116   0.07117   2.23365
   A33        1.91464  -0.06683   0.00000  -0.00801  -0.00799   1.90665
   A34        1.82262   0.04630   0.00000   0.00843   0.00841   1.83103
   A35        1.93810  -0.01459   0.00000  -0.00383  -0.00386   1.93424
   A36        1.97226  -0.01489   0.00000  -0.00544  -0.00545   1.96682
   A37        1.92888  -0.00008   0.00000   0.00287   0.00287   1.93175
   A38        1.90993  -0.02029   0.00000  -0.00046  -0.00043   1.90950
   A39        1.89158   0.00413   0.00000  -0.00113  -0.00115   1.89043
   A40        1.80583  -0.00479   0.00000   0.00154   0.00153   1.80736
   A41        1.96735   0.00516   0.00000  -0.00003  -0.00002   1.96733
   A42        1.93299  -0.00465   0.00000  -0.00210  -0.00211   1.93088
   A43        1.95950   0.00307   0.00000   0.00085   0.00085   1.96035
   A44        1.91244   0.00248   0.00000   0.00050   0.00050   1.91294
   A45        1.88529  -0.00138   0.00000  -0.00071  -0.00071   1.88458
   A46        1.81229   0.00249   0.00000   0.00662   0.00660   1.81889
   A47        1.91163   0.00555   0.00000   0.00144   0.00148   1.91311
   A48        1.96305  -0.00523   0.00000  -0.00304  -0.00306   1.95999
   A49        1.92449  -0.00675   0.00000  -0.00306  -0.00308   1.92141
   A50        1.96292   0.00455   0.00000  -0.00196  -0.00194   1.96099
   A51        1.88875  -0.00057   0.00000   0.00012   0.00011   1.88886
   A52        1.85627   0.02794   0.00000  -0.00670  -0.00669   1.84958
   A53        1.98084   0.02156   0.00000   0.02414   0.02411   2.00495
   A54        1.91534  -0.00714   0.00000  -0.00250  -0.00251   1.91283
   A55        1.89960  -0.04374   0.00000  -0.00967  -0.00963   1.88997
   A56        1.93270  -0.00790   0.00000  -0.00106  -0.00111   1.93159
   A57        1.87961   0.00821   0.00000  -0.00438  -0.00445   1.87515
   A58        2.04205   0.06013   0.00000   0.03324   0.03316   2.07521
   A59        2.20216  -0.04466   0.00000  -0.03157  -0.03142   2.17074
   A60        1.84139  -0.02156   0.00000   0.00224   0.00216   1.84355
   A61        1.88928   0.01078   0.00000  -0.00047  -0.00044   1.88884
   A62        1.92342  -0.00489   0.00000  -0.00191  -0.00192   1.92150
   A63        1.95396   0.00485   0.00000  -0.00569  -0.00569   1.94827
   A64        1.90524  -0.00426   0.00000   0.00216   0.00221   1.90745
   A65        1.89223  -0.00755   0.00000   0.00274   0.00266   1.89490
[...]
   188    C   13  S      Ryd( 4S)     0.00003
   189    C   13  px     Val( 2p)     1.10223
   190    C   13  px     Ryd( 3p)     0.00232
   191    C   13  py     Val( 2p)     1.24618
   192    C   13  py     Ryd( 3p)     0.00381
   193    C   13  pz     Val( 2p)     0.85934
   194    C   13  pz     Ryd( 3p)     0.00330
   195    C   13  dxy    Ryd( 3d)     0.00098
   196    C   13  dxz    Ryd( 3d)     0.00072
   197    C   13  dyz    Ryd( 3d)     0.00129
   198    C   13  dx2y2  Ryd( 3d)     0.00063
   199    C   13  dz2    Ryd( 3d)     0.00141
 
   200    C   14  S      Cor( 1S)     1.99933
   201    C   14  S      Val( 2S)     1.04588
   202    C   14  S      Ryd( 3S)     0.00054
   203    C   14  S      Ryd( 4S)     0.00002
   204    C   14  px     Val( 2p)     1.06918
   205    C   14  px     Ryd( 3p)     0.00172
   206    C   14  py     Val( 2p)     1.19711
   207    C   14  py     Ryd( 3p)     0.00283
   208    C   14  pz     Val( 2p)     1.14897
   209    C   14  pz     Ryd( 3p)     0.00291
   210    C   14  dxy    Ryd( 3d)     0.00081
   211    C   14  dxz    Ryd( 3d)     0.00034
   212    C   14  dyz    Ryd( 3d)     0.00078
   213    C   14  dx2y2  Ryd( 3d)     0.00065
   214    C   14  dz2    Ryd( 3d)     0.00091
 
   215    C   15  S      Cor( 1S)     1.99934
   216    C   15  S      Val( 2S)     1.04514
   217    C   15  S      Ryd( 3S)     0.00061
   218    C   15  S      Ryd( 4S)     0.00002
   219    C   15  px     Val( 2p)     1.21497
   220    C   15  px     Ryd( 3p)     0.00437
   221    C   15  py     Val( 2p)     1.17679
   222    C   15  py     Ryd( 3p)     0.00177
   223    C   15  pz     Val( 2p)     1.02010
   224    C   15  pz     Ryd( 3p)     0.00189
   225    C   15  dxy    Ryd( 3d)     0.00057
   226    C   15  dxz    Ryd( 3d)     0.00053
   227    C   15  dyz    Ryd( 3d)     0.00056
   228    C   15  dx2y2  Ryd( 3d)     0.00105
   229    C   15  dz2    Ryd( 3d)     0.00077
 
   230    C   16  S      Cor( 1S)     1.99933
   231    C   16  S      Val( 2S)     1.03114
   232    C   16  S      Ryd( 3S)     0.00176
   233    C   16  S      Ryd( 4S)     0.00004
   234    C   16  px     Val( 2p)     0.92266
   235    C   16  px     Ryd( 3p)     0.00396
   236    C   16  py     Val( 2p)     1.16342
   237    C   16  py     Ryd( 3p)     0.00283
   238    C   16  pz     Val( 2p)     1.12861
   239    C   16  pz     Ryd( 3p)     0.00287
   240    C   16  dxy    Ryd( 3d)     0.00125
   241    C   16  dxz    Ryd( 3d)     0.00096
   242    C   16  dyz    Ryd( 3d)     0.00110
   243    C   16  dx2y2  Ryd( 3d)     0.00091
   244    C   16  dz2    Ryd( 3d)     0.00078
 
   245    N   17  S      Cor( 1S)     1.99943
   246    N   17  S      Val( 2S)     1.32969
   247    N   17  S      Ryd( 3S)     0.00198
   248    N   17  S      Ryd( 4S)     0.00007
   249    N   17  px     Val( 2p)     1.70710
   250    N   17  px     Ryd( 3p)     0.00351
   251    N   17  py     Val( 2p)     1.40284
   252    N   17  py     Ryd( 3p)     0.00263
   253    N   17  pz     Val( 2p)     1.40874
   254    N   17  pz     Ryd( 3p)     0.00197
   255    N   17  dxy    Ryd( 3d)     0.00059
   256    N   17  dxz    Ryd( 3d)     0.00076
   257    N   17  dyz    Ryd( 3d)     0.00058
   258    N   17  dx2y2  Ryd( 3d)     0.00045
   259    N   17  dz2    Ryd( 3d)     0.00038
 
   260    C   18  S      Cor( 1S)     1.99936
   261    C   18  S      Val( 2S)     1.02608
   262    C   18  S      Ryd( 3S)     0.00166
   263    C   18  S      Ryd( 4S)     0.00004
   264    C   18  px     Val( 2p)     1.18058
   265    C   18  px     Ryd( 3p)     0.00312
   266    C   18  py     Val( 2p)     0.90933
   267    C   18  py     Ryd( 3p)     0.00280
   268    C   18  pz     Val( 2p)     1.12690
   269    C   18  pz     Ryd( 3p)     0.00231
   270    C   18  dxy    Ryd( 3d)     0.00120
   271    C   18  dxz    Ryd( 3d)     0.00127
   272    C   18  dyz    Ryd( 3d)     0.00092
   273    C   18  dx2y2  Ryd( 3d)     0.00103
   274    C   18  dz2    Ryd( 3d)     0.00072
 
   275    C   19  S      Cor( 1S)     1.99933
   276    C   19  S      Val( 2S)     1.04548
   277    C   19  S      Ryd( 3S)     0.00061
   278    C   19  S      Ryd( 4S)     0.00002
   279    C   19  px     Val( 2p)     1.16363
   280    C   19  px     Ryd( 3p)     0.00317
   281    C   19  py     Val( 2p)     1.14506
   282    C   19  py     Ryd( 3p)     0.00226
   283    C   19  pz     Val( 2p)     1.10160
   284    C   19  pz     Ryd( 3p)     0.00237
   285    C   19  dxy    Ryd( 3d)     0.00102
   286    C   19  dxz    Ryd( 3d)     0.00097
   287    C   19  dyz    Ryd( 3d)     0.00081
   288    C   19  dx2y2  Ryd( 3d)     0.00034
   289    C   19  dz2    Ryd( 3d)     0.00036
 
   290    C   20  S      Cor( 1S)     1.99933
   291    C   20  S      Val( 2S)     1.04881
   292    C   20  S      Ryd( 3S)     0.00053
   293    C   20  S      Ryd( 4S)     0.00002
   294    C   20  px     Val( 2p)     1.14469
   295    C   20  px     Ryd( 3p)     0.00148
   296    C   20  py     Val( 2p)     1.04797
   297    C   20  py     Ryd( 3p)     0.00182
   298    C   20  pz     Val( 2p)     1.21412
   299    C   20  pz     Ryd( 3p)     0.00401
   300    C   20  dxy    Ryd( 3d)     0.00081
   301    C   20  dxz    Ryd( 3d)     0.00087
   302    C   20  dyz    Ryd( 3d)     0.00053
   303    C   20  dx2y2  Ryd( 3d)     0.00050
   304    C   20  dz2    Ryd( 3d)     0.00080
 
   305    C   21  S      Cor( 1S)     1.99934
   306    C   21  S      Val( 2S)     1.02255
   307    C   21  S      Ryd( 3S)     0.00159
   308    C   21  S      Ryd( 4S)     0.00003
   309    C   21  px     Val( 2p)     1.05809
   310    C   21  px     Ryd( 3p)     0.00361
   311    C   21  py     Val( 2p)     1.18575
   312    C   21  py     Ryd( 3p)     0.00417
   313    C   21  pz     Val( 2p)     0.97037
   314    C   21  pz     Ryd( 3p)     0.00240
   315    C   21  dxy    Ryd( 3d)     0.00076
   316    C   21  dxz    Ryd( 3d)     0.00164
   317    C   21  dyz    Ryd( 3d)     0.00048
   318    C   21  dx2y2  Ryd( 3d)     0.00089
   319    C   21  dz2    Ryd( 3d)     0.00140
 
   320    H   22  S      Val( 1S)     0.79044
   321    H   22  S      Ryd( 2S)     0.01911
 
   322    H   23  S      Val( 1S)     0.77978
   323    H   23  S      Ryd( 2S)     0.01061
 
   324    H   24  S      Val( 1S)     0.77434
   325    H   24  S      Ryd( 2S)     0.00565
 
   326    H   25  S      Val( 1S)     0.78427
   327    H   25  S      Ryd( 2S)     0.02464
 
   328    H   26  S      Val( 1S)     0.76454
   329    H   26  S      Ryd( 2S)     0.00478
 
   330    H   27  S      Val( 1S)     0.77193
   331    H   27  S      Ryd( 2S)     0.00655
 
   332    H   28  S      Val( 1S)     0.77532
   333    H   28  S      Ryd( 2S)     0.00764
 
   334    H   29  S      Val( 1S)     0.77027
   335    H   29  S      Ryd( 2S)     0.00641
 
   336    H   30  S      Val( 1S)     0.76450
   337    H   30  S      Ryd( 2S)     0.00480
 
   338    H   31  S      Val( 1S)     0.78888
   339    H   31  S      Ryd( 2S)     0.02265
 
   340    H   32  S      Val( 1S)     0.78012
   341    H   32  S      Ryd( 2S)     0.01268
 
   342    H   33  S      Val( 1S)     0.76539
   343    H   33  S      Ryd( 2S)     0.00804
 
   344    H   34  S      Val( 1S)     0.76999
   345    H   34  S      Ryd( 2S)     0.00675
 
   346    H   35  S      Val( 1S)     0.78572
   347    H   35  S      Ryd( 2S)     0.03073
 
   348    H   36  S      Val( 1S)     0.76510
   349    H   36  S      Ryd( 2S)     0.00565
 
   350    H   37  S      Val( 1S)     0.77216
   351    H   37  S      Ryd( 2S)     0.01363
 
   352    H   38  S      Val( 1S)     0.77785
   353    H   38  S      Ryd( 2S)     0.01043
 
   354    H   39  S      Val( 1S)     0.76883
   355    H   39  S      Ryd( 2S)     0.00716
 
   356    H   40  S      Val( 1S)     0.75239
   357    H   40  S      Ryd( 2S)     0.00907
 
   358    H   41  S      Val( 1S)     0.75341
   359    H   41  S      Ryd( 2S)     0.00202
 
   360    H   42  S      Val( 1S)     0.76494
   361    H   42  S      Ryd( 2S)     0.00466
 
   362    H   43  S      Val( 1S)     0.76446
   363    H   43  S      Ryd( 2S)     0.00489
 
   364    H   44  S      Val( 1S)     0.75428
   365    H   44  S      Ryd( 2S)     0.00287
 
   366    H   45  S      Val( 1S)     0.76355
   367    H   45  S      Ryd( 2S)     0.01301
 
   368    H   46  S      Val( 1S)     0.78227
   369    H   46  S      Ryd( 2S)     0.01837
 
   370    H   47  S      Val( 1S)     0.79301
   371    H   47  S      Ryd( 2S)     0.01456
 
   372    H   48  S      Val( 1S)     0.78287
   373    H   48  S      Ryd( 2S)     0.01503
 
   374    H   49  S      Val( 1S)     0.75922
   375    H   49  S      Ryd( 2S)     0.00366
 
   376    H   50  S      Val( 1S)     0.76554
   377    H   50  S      Ryd( 2S)     0.00583
 
   378    H   51  S      Val( 1S)     0.77607
   379    H   51  S      Ryd( 2S)     0.01027
 
   380    H   52  S      Val( 1S)     0.76201
   381    H   52  S      Ryd( 2S)     0.00527
 
   382    H   53  S      Val( 1S)     0.77235
   383    H   53  S      Ryd( 2S)     0.00936
 
   384    H   54  S      Val( 1S)     0.78055
   385    H   54  S      Ryd( 2S)     0.00837

 WARNING:  1 low occupancy (<1.9990e) core orbital  found on  P    1


 Summary of Natural Population Analysis:                  
                                                          
                                       Natural Population 
                Natural  -----------------------------------------------
    Atom  No    Charge         Core      Valence    Rydberg      Total
 -----------------------------------------------------------------------
      P    1    2.32358      9.99765     2.53641    0.14236    12.67642
      N    2   -0.81108      1.99938     5.79817    0.01353     7.81108
      C    3    0.11539      1.99912     3.86696    0.01853     5.88461
      C    4   -0.69292      1.99935     4.68280    0.01077     6.69292
      C    5   -0.66744      1.99931     4.65695    0.01119     6.66744
      C    6   -0.66231      1.99932     4.65221    0.01077     6.66231
      N    7   -0.78530      1.99946     5.77285    0.01300     7.78530
      C    8   -0.26422      1.99935     4.24893    0.01593     6.26422
      C    9   -0.46918      1.99934     4.45743    0.01242     6.46918
      C   10   -0.47080      1.99933     4.45969    0.01179     6.47080
      C   11   -0.26488      1.99933     4.24683    0.01872     6.26488
      N   12   -0.78251      1.99942     5.76776    0.01533     7.78251
      C   13   -0.25030      1.99935     4.23464    0.01631     6.25030
      C   14   -0.47199      1.99933     4.46114    0.01152     6.47199
      C   15   -0.46848      1.99934     4.45699    0.01215     6.46848
      C   16   -0.26163      1.99933     4.24583    0.01647     6.26163
      N   17   -0.86071      1.99943     5.84837    0.01291     7.86071
      C   18   -0.25732      1.99936     4.24289    0.01507     6.25732
      C   19   -0.46702      1.99933     4.45576    0.01193     6.46702
      C   20   -0.46628      1.99933     4.45560    0.01136     6.46628
      C   21   -0.25308      1.99934     4.23676    0.01698     6.25308
      H   22    0.19045      0.00000     0.79044    0.01911     0.80955
      H   23    0.20961      0.00000     0.77978    0.01061     0.79039
      H   24    0.22000      0.00000     0.77434    0.00565     0.78000
      H   25    0.19109      0.00000     0.78427    0.02464     0.80891
      H   26    0.23068      0.00000     0.76454    0.00478     0.76932
      H   27    0.22152      0.00000     0.77193    0.00655     0.77848
      H   28    0.21704      0.00000     0.77532    0.00764     0.78296
      H   29    0.22332      0.00000     0.77027    0.00641     0.77668
      H   30    0.23071      0.00000     0.76450    0.00480     0.76929
      H   31    0.18846      0.00000     0.78888    0.02265     0.81154
      H   32    0.20720      0.00000     0.78012    0.01268     0.79280
      H   33    0.22657      0.00000     0.76539    0.00804     0.77343
      H   34    0.22325      0.00000     0.76999    0.00675     0.77675
      H   35    0.18355      0.00000     0.78572    0.03073     0.81645
      H   36    0.22925      0.00000     0.76510    0.00565     0.77075
      H   37    0.21421      0.00000     0.77216    0.01363     0.78579
      H   38    0.21172      0.00000     0.77785    0.01043     0.78828
      H   39    0.22400      0.00000     0.76883    0.00716     0.77600
      H   40    0.23854      0.00000     0.75239    0.00907     0.76146
      H   41    0.24457      0.00000     0.75341    0.00202     0.75543
      H   42    0.23041      0.00000     0.76494    0.00466     0.76959
      H   43    0.23065      0.00000     0.76446    0.00489     0.76935
      H   44    0.24285      0.00000     0.75428    0.00287     0.75715
      H   45    0.22344      0.00000     0.76355    0.01301     0.77656
      H   46    0.19937      0.00000     0.78227    0.01837     0.80063
      H   47    0.19242      0.00000     0.79301    0.01456     0.80758
      H   48    0.20210      0.00000     0.78287    0.01503     0.79790
      H   49    0.23712      0.00000     0.75922    0.00366     0.76288
      H   50    0.22863      0.00000     0.76554    0.00583     0.77137
      H   51    0.21365      0.00000     0.77607    0.01027     0.78635
      H   52    0.23272      0.00000     0.76201    0.00527     0.76728
      H   53    0.21829      0.00000     0.77235    0.00936     0.78171
      H   54    0.21108      0.00000     0.78055    0.00837     0.78892
 =======================================================================
   * Total *    0.00000     49.98449   121.26132    0.75418   172.00000

                                 Natural Population      
 --------------------------------------------------------
   Core                      49.98449 ( 99.9690% of  50)
   Valence                  121.26132 ( 99.3945% of 122)
   Natural Minimal Basis    171.24582 ( 99.5615% of 172)
   Natural Rydberg Basis      0.75418 (  0.4385% of 172)
 --------------------------------------------------------

    Atom  No          Natural Electron Configuration
 ----------------------------------------------------------------------------
      P    1      [core]3S( 0.80)3p( 1.74)4S( 0.03)3d( 0.09)4p( 0.02)
      N    2      [core]2S( 1.42)2p( 4.37)3p( 0.01)
      C    3      [core]2S( 0.90)2p( 2.97)3p( 0.01)3d( 0.01)
      C    4      [core]2S( 1.11)2p( 3.58)3p( 0.01)
      C    5      [core]2S( 1.11)2p( 3.55)3p( 0.01)
      C    6      [core]2S( 1.11)2p( 3.55)3p( 0.01)
      N    7      [core]2S( 1.36)2p( 4.42)3p( 0.01)
      C    8      [core]2S( 1.03)2p( 3.22)3p( 0.01)3d( 0.01)
      C    9      [core]2S( 1.05)2p( 3.41)3p( 0.01)
      C   10      [core]2S( 1.05)2p( 3.41)3p( 0.01)
      C   11      [core]2S( 1.03)2p( 3.22)3p( 0.01)3d( 0.01)
      N   12      [core]2S( 1.32)2p( 4.45)3p( 0.01)
      C   13      [core]2S( 1.03)2p( 3.21)3p( 0.01)3d( 0.01)
      C   14      [core]2S( 1.05)2p( 3.42)3p( 0.01)
      C   15      [core]2S( 1.05)2p( 3.41)3p( 0.01)
      C   16      [core]2S( 1.03)2p( 3.21)3p( 0.01)3d( 0.01)
      N   17      [core]2S( 1.33)2p( 4.52)3p( 0.01)
      C   18      [core]2S( 1.03)2p( 3.22)3p( 0.01)3d( 0.01)
      C   19      [core]2S( 1.05)2p( 3.41)3p( 0.01)
      C   20      [core]2S( 1.05)2p( 3.41)3p( 0.01)
      C   21      [core]2S( 1.02)2p( 3.21)3p( 0.01)3d( 0.01)
      H   22            1S( 0.79)2S( 0.02)
      H   23            1S( 0.78)2S( 0.01)
      H   24            1S( 0.77)2S( 0.01)
      H   25            1S( 0.78)2S( 0.02)
      H   26            1S( 0.76)
      H   27            1S( 0.77)2S( 0.01)
      H   28            1S( 0.78)2S( 0.01)
      H   29            1S( 0.77)2S( 0.01)
      H   30            1S( 0.76)
      H   31            1S( 0.79)2S( 0.02)
      H   32            1S( 0.78)2S( 0.01)
      H   33            1S( 0.77)2S( 0.01)
      H   34            1S( 0.77)2S( 0.01)
      H   35            1S( 0.79)2S( 0.03)
      H   36            1S( 0.77)2S( 0.01)
      H   37            1S( 0.77)2S( 0.01)
      H   38            1S( 0.78)2S( 0.01)
      H   39            1S( 0.77)2S( 0.01)
      H   40            1S( 0.75)2S( 0.01)
      H   41            1S( 0.75)
      H   42            1S( 0.76)
      H   43            1S( 0.76)
      H   44            1S( 0.75)
      H   45            1S( 0.76)2S( 0.01)
      H   46            1S( 0.78)2S( 0.02)
      H   47            1S( 0.79)2S( 0.01)
      H   48            1S( 0.78)2S( 0.02)
      H   49            1S( 0.76)
      H   50            1S( 0.77)2S( 0.01)
      H   51            1S( 0.78)2S( 0.01)
      H   52            1S( 0.76)2S( 0.01)
      H   53            1S( 0.77)2S( 0.01)
      H   54            1S( 0.78)2S( 0.01)


 NBO analysis skipped by request.
 1\1\GINC-DELLA-R1C3N1\SP\RB3LYP TD-FC\6-31G(d)\C16H33N4P1\BJS4\24-Aug-
 2020\0\\# TD(NStates=10, Root=1) B3LYP/6-31G* scf=qc volume pop=NPA de
 nsity=current Geom=AllCheck Guess=Read\\Title Card Required\\0,1\P,0,0
 .976646655,0.4689909971,0.3314847913\N,0,0.7944430965,0.4520073638,1.8
 687687943\C,0,1.5213904042,0.8595353691,3.0573625264\C,0,3.0125773906,
 1.185508942,2.820917416\C,0,0.831429091,2.1053313017,3.6576000156\C,0,
 1.4249213209,-0.2948493068,4.0801594667\N,0,1.2298449487,1.8792826115,
 -0.6001618597\C,0,0.148980779,2.8955673126,-0.5776543014\C,0,0.8489048
 839,4.2112223768,-0.9539772025\C,0,2.265777006,4.0225447901,-0.3947303
 662\C,0,2.5471602271,2.5466866449,-0.7058056758\N,0,-0.5008619787,-0.0
 622720372,-0.2803815052\C,0,-1.6606467001,-0.4243730947,0.5566999588\C
 ,0,-2.5557789581,-1.2320000767,-0.3961322975\C,0,-2.2457809384,-0.6231
 134724,-1.7719479361\C,0,-0.7322731161,-0.3688215778,-1.6968638508\N,0
 ,2.2470989479,-0.4885927079,-0.2677392329\C,0,2.4698630996,-1.80890127
 37,0.366161387\C,0,3.4339260256,-2.5279163219,-0.5888867755\C,0,3.0402
 428518,-1.9689592598,-1.9631110287\C,0,2.7652475984,-0.4905998958,-1.6
 550548593\H,0,3.1227768239,2.059222114,2.1679896515\H,0,3.5320893069,0
 .3425332818,2.3524522679\H,0,3.5203424924,1.4143319428,3.7665443955\H,
 0,0.8948356671,2.9508661233,2.9620021404\H,0,1.293627903,2.4071805927,
 4.6067944027\H,0,-0.2285204563,1.8966281892,3.8369582043\H,0,1.9258046
 373,-1.1912524867,3.6969563226\H,0,0.3749280276,-0.5490351074,4.259325
 9566\H,0,1.8872525092,-0.0239884881,5.0380584899\H,0,-0.3018393752,2.9
 705164204,0.4221221589\H,0,-0.6493939257,2.6331979072,-1.2809485736\H,
 0,0.3310464588,5.0861799743,-0.5483697222\H,0,0.8882357499,4.321722547
 9,-2.0449406467\H,0,2.2678836141,4.1864666963,0.6902494149\H,0,3.00465
 90411,4.6968869167,-0.840288279\H,0,3.2798970848,2.0984161577,-0.02920
 87265\H,0,2.9407466301,2.4436813007,-1.7279646308\H,0,-2.1791271617,0.
 4769897335,0.915062577\H,0,-1.3470975426,-0.9869563883,1.4382351524\H,
 0,-3.61493435,-1.1740141109,-0.1250779744\H,0,-2.263792828,-2.28981307
 27,-0.3819534062\H,0,-2.7784724635,0.3286964733,-1.8906948147\H,0,-2.5
 216330026,-1.2697215412,-2.611370918\H,0,-0.4123481912,0.458758686,-2.
 3421274814\H,0,-0.1770166335,-1.2669283706,-2.014961574\H,0,1.52664985
 23,-2.3678495848,0.4587235888\H,0,2.8823243182,-1.6983522664,1.3733803
 064\H,0,3.3523830884,-3.6172553612,-0.5190391621\H,0,4.470464673,-2.25
 37165468,-0.3561687873\H,0,2.1246955789,-2.4577843845,-2.3201465215\H,
 0,3.8130955681,-2.102561868,-2.7273569071\H,0,2.0574826419,-0.03226655
 75,-2.3507467507\H,0,3.6996016285,0.0870723922,-1.7125676182\\Version=
 ES64L-G16RevA.03\State=1-A\HF=-1189.9307417\RMSD=1.700e-09\Dipole=-0.6
 728468,-0.661216,-0.7118897\Quadrupole=2.7026759,-1.8305497,-0.8721262
 ,0.2947005,0.172315,-0.354766\PG=C01 [X(C16H33N4P1)]\\@


 LIFE IS SO UNCERTAIN - EAT DESSERT FIRST.
 Job cpu time:       0 days  2 hours  6 minutes 28.1 seconds.
 Elapsed time:       0 days  0 hours 18 minutes  5.7 seconds.
 File lengths (MBytes):  RWF=   1207 Int=      0 D2E=      0 Chk=    268 Scr=      1
 Normal termination of Gaussian 16 at Mon Aug 24 19:54:52 2020.
