 Entering Gaussian System, Link 0=g16
 Input=base_9_conf23123.com
 Output=base_9_conf23123.log
 Initial command:
 /opt/export//g16/l1.exe "/scratch/bjs4/job.21582/Gau-21584.inp" -scrdir="/scratch/bjs4/job.21582/"
 Entering Link 1 = /opt/export//g16/l1.exe PID=     21585.
  
 Copyright (c) 1988,1990,1992,1993,1995,1998,2003,2009,2016,
            Gaussian, Inc.  All Rights Reserved.
  
 This is part of the Gaussian(R) 16 program.  It is based on
 the Gaussian(R) 09 system (copyright 2009, Gaussian, Inc.),
 the Gaussian(R) 03 system (copyright 2003, Gaussian, Inc.),
 the Gaussian(R) 98 system (copyright 1998, Gaussian, Inc.),
 the Gaussian(R) 94 system (copyright 1995, Gaussian, Inc.),
 the Gaussian 92(TM) system (copyright 1992, Gaussian, Inc.),
 the Gaussian 90(TM) system (copyright 1990, Gaussian, Inc.),
 the Gaussian 88(TM) system (copyright 1988, Gaussian, Inc.),
 the Gaussian 86(TM) system (copyright 1986, Carnegie Mellon
 University), and the Gaussian 82(TM) system (copyright 1983,
 Carnegie Mellon University). Gaussian is a federally registered
 trademark of Gaussian, Inc.
  
 This software contains proprietary and confidential information,
 including trade secrets, belonging to Gaussian, Inc.
  
 This software is provided under written license and may be
 used, copied, transmitted, or stored only in accord with that
 written license.
  
 The following legend is applicable only to US Government
 contracts under FAR:
  
                    RESTRICTED RIGHTS LEGEND
  
 Use, reproduction and disclosure by the US Government is
 subject to restrictions as set forth in subparagraphs (a)
 and (c) of the Commercial Computer Software - Restricted
 Rights clause in FAR 52.227-19.
  
 Gaussian, Inc.
 340 Quinnipiac St., Bldg. 40, Wallingford CT 06492
  
  
 ---------------------------------------------------------------
 Warning -- This program may not be used in any manner that
 competes with the business of Gaussian, Inc. or will provide
 assistance to any competitor of Gaussian, Inc.  The licensee
 of this program is prohibited from giving any competitor of
 Gaussian, Inc. access to this program.  By using this program,
 the user acknowledges that Gaussian, Inc. is engaged in the
 business of creating and licensing software in the field of
 computational chemistry and represents and warrants to the
 licensee that it is not a competitor of Gaussian, Inc. and that
 it will not use this program in any manner prohibited above.
 ---------------------------------------------------------------
  

 Cite this work as:
 Gaussian 16, Revision A.03,
 M. J. Frisch, G. W. Trucks, H. B. Schlegel, G. E. Scuseria, 
 M. A. Robb, J. R. Cheeseman, G. Scalmani, V. Barone, 
 G. A. Petersson, H. Nakatsuji, X. Li, M. Caricato, A. V. Marenich, 
 J. Bloino, B. G. Janesko, R. Gomperts, B. Mennucci, H. P. Hratchian, 
 J. V. Ortiz, A. F. Izmaylov, J. L. Sonnenberg, D. Williams-Young, 
 F. Ding, F. Lipparini, F. Egidi, J. Goings, B. Peng, A. Petrone, 
 T. Henderson, D. Ranasinghe, V. G. Zakrzewski, J. Gao, N. Rega, 
 G. Zheng, W. Liang, M. Hada, M. Ehara, K. Toyota, R. Fukuda, 
 J. Hasegawa, M. Ishida, T. Nakajima, Y. Honda, O. Kitao, H. Nakai, 
 T. Vreven, K. Throssell, J. A. Montgomery, Jr., J. E. Peralta, 
 F. Ogliaro, M. J. Bearpark, J. J. Heyd, E. N. Brothers, K. N. Kudin, 
 V. N. Staroverov, T. A. Keith, R. Kobayashi, J. Normand, 
 K. Raghavachari, A. P. Rendell, J. C. Burant, S. S. Iyengar, 
 J. Tomasi, M. Cossi, J. M. Millam, M. Klene, C. Adamo, R. Cammi, 
 J. W. Ochterski, R. L. Martin, K. Morokuma, O. Farkas, 
 J. B. Foresman, and D. J. Fox, Gaussian, Inc., Wallingford CT, 2016.
 
 ******************************************
 Gaussian 16:  ES64L-G16RevA.03 25-Dec-2016
                24-Aug-2020 
 ******************************************
 %nprocshared=7
 Will use up to    7 processors via shared memory.
 %Mem=14GB
 %Chk=base_9_conf231.chk
 ---------------------------------
 # opt=CalcAll B3LYP/6-31G* scf=qc
 ---------------------------------
 1/10=4,18=20,19=15,26=3,38=1/1,3;
 2/9=110,12=2,17=6,18=5,40=1/2;
 3/5=1,6=6,7=1,11=2,25=1,30=1,71=2,74=-5,140=1/1,2,3;
 4//1;
 5/5=2,8=3,38=5/8;
 8/6=4,10=90,11=11/1;
 11/6=1,8=1,9=11,15=111,16=1/1,2,10;
 10/6=1/2;
 6/7=2,8=2,9=2,10=2,18=1,28=1/1;
 7/10=1,25=1/1,2,3,16;
 1/10=4,18=20,19=15,26=3/3(3);
 2/9=110/2;
 7/8=1,9=1,25=1,44=-1/16;
 99//99;
 2/9=110/2;
 3/5=1,6=6,7=1,11=2,25=1,30=1,71=2,74=-5,140=1/1,2,3;
 4/5=5,16=3,69=1/1;
 5/5=2,8=3,38=5/8;
 8/6=4,10=90,11=11/1;
 11/6=1,8=1,9=11,15=111,16=1/1,2,10;
 10/6=1/2;
 7/10=1,25=1/1,2,3,16;
 1/10=4,18=20,19=15,26=3/3(-8);
 2/9=110/2;
 6/7=2,8=2,9=2,10=2,18=1,19=2,28=1/1;
 7/8=1,9=1,25=1,44=-1/16;
 99//99;
 -------------------
 Title Card Required
 -------------------
 Symbolic Z-matrix:
 Charge =  0 Multiplicity = 1
 P                     1.082    -0.0564    0.0094 
 N1                    1.0483    0.5576    1.4384 
 C                     1.0614   -0.1704    2.7563 
 C                     2.42563  -0.46155   3.39671 
 C                     0.26847   0.63454   3.8243 
 C                     0.22756  -1.47461   2.63046 
 N                     1.1236    1.2666   -1.0195 
 C                     1.14915   1.22057  -2.47739 
 C                     1.53438   2.63177  -2.89446 
 C                     0.90259   3.49789  -1.83035 
 C                     0.98755   2.64911  -0.57335 
 N                    -0.698    -0.0564    0.0094 
 C                    -1.3698    1.15172  -0.51853 
 C                    -2.7694    0.7621   -0.9624 
 C                    -2.6177   -0.6855   -1.3319 
 C                    -1.559    -1.17435  -0.36037 
 N                     2.862    -0.0564    0.0094 
 C                     3.6924    0.66028  -0.95041 
 C                     5.0651    0.76992  -0.29591 
 C                     4.7644    0.74245   1.18704 
 C                     3.5367   -0.14016   1.29561 
 H                     2.84044   0.42961   3.87233 
 H                     3.18982  -0.82348   2.7147 
 H                     2.32847  -1.20405   4.2004 
 H                     0.78261   1.55069   4.12236 
 H                     0.15026   0.04593   4.74523 
 H                    -0.73609   0.89923   3.47639 
 H                     0.71779  -2.25751   2.06198 
 H                    -0.74822  -1.28335   2.16528 
 H                     0.03443  -1.9236    3.61287 
 H                     0.16694   0.95682  -2.87921 
 H                     1.88563   0.51018  -2.8707 
 H                     1.18391   2.8857   -3.89637 
 H                     2.62376   2.7596   -2.87346 
 H                    -0.14529   3.68998  -2.08869 
 H                     1.40958   4.46094  -1.71957 
 H                     0.09452   2.82573   0.03313 
 H                     1.85699   2.93091   0.02577 
 H                    -0.8173    1.54683  -1.37739 
 H                    -1.4533    1.93641   0.23793 
 H                    -3.1286    1.36737  -1.8006 
 H                    -3.4816    0.86709  -0.13541 
 H                    -2.272    -0.78853  -2.36566 
 H                    -3.5571   -1.23875  -1.22561 
 H                    -1.0583   -2.01996  -0.81124 
 H                    -2.0907   -1.49509   0.53899 
 H                     3.3475    1.65744  -1.19728 
 H                     3.7732    0.11895  -1.90537 
 H                     5.5891    1.68631  -0.58796 
 H                     5.6907   -0.08622  -0.56942 
 H                     4.5443    1.75443   1.54659 
 H                     5.6076    0.35902   1.76908 
 H                     2.9026    0.1609    2.133 
 H                     3.8322   -1.17912   1.4747 
 

 GradGradGradGradGradGradGradGradGradGradGradGradGradGradGradGradGradGrad
 Berny optimization.
 Initialization pass.
                           ----------------------------
                           !    Initial Parameters    !
                           ! (Angstroms and Degrees)  !
 --------------------------                            --------------------------
 ! Name  Definition              Value          Derivative Info.                !
 --------------------------------------------------------------------------------
 ! R1    R(1,2)                  1.5557         calculate D2E/DX2 analytically  !
 ! R2    R(1,7)                  1.6765         calculate D2E/DX2 analytically  !
 ! R3    R(1,12)                 1.78           calculate D2E/DX2 analytically  !
 ! R4    R(1,17)                 1.78           calculate D2E/DX2 analytically  !
 ! R5    R(2,3)                  1.5057         calculate D2E/DX2 analytically  !
 ! R6    R(3,4)                  1.5349         calculate D2E/DX2 analytically  !
 ! R7    R(3,5)                  1.5548         calculate D2E/DX2 analytically  !
 ! R8    R(3,6)                  1.5531         calculate D2E/DX2 analytically  !
 ! R9    R(4,22)                 1.092          calculate D2E/DX2 analytically  !
 ! R10   R(4,23)                 1.0863         calculate D2E/DX2 analytically  !
 ! R11   R(4,24)                 1.0985         calculate D2E/DX2 analytically  !
 ! R12   R(5,25)                 1.092          calculate D2E/DX2 analytically  !
 ! R13   R(5,26)                 1.0993         calculate D2E/DX2 analytically  !
 ! R14   R(5,27)                 1.0956         calculate D2E/DX2 analytically  !
 ! R15   R(6,28)                 1.0846         calculate D2E/DX2 analytically  !
 ! R16   R(6,29)                 1.0978         calculate D2E/DX2 analytically  !
 ! R17   R(6,30)                 1.0973         calculate D2E/DX2 analytically  !
 ! R18   R(7,8)                  1.4588         calculate D2E/DX2 analytically  !
 ! R19   R(7,11)                 1.4591         calculate D2E/DX2 analytically  !
 ! R20   R(8,9)                  1.5211         calculate D2E/DX2 analytically  !
 ! R21   R(8,31)                 1.0935         calculate D2E/DX2 analytically  !
 ! R22   R(8,32)                 1.0962         calculate D2E/DX2 analytically  !
 ! R23   R(9,10)                 1.5105         calculate D2E/DX2 analytically  !
 ! R24   R(9,33)                 1.0914         calculate D2E/DX2 analytically  !
 ! R25   R(9,34)                 1.0971         calculate D2E/DX2 analytically  !
 ! R26   R(10,11)                1.5191         calculate D2E/DX2 analytically  !
 ! R27   R(10,35)                1.0962         calculate D2E/DX2 analytically  !
 ! R28   R(10,36)                1.094          calculate D2E/DX2 analytically  !
 ! R29   R(11,37)                1.0939         calculate D2E/DX2 analytically  !
 ! R30   R(11,38)                1.0928         calculate D2E/DX2 analytically  !
 ! R31   R(12,13)                1.4797         calculate D2E/DX2 analytically  !
 ! R32   R(12,16)                1.4587         calculate D2E/DX2 analytically  !
 ! R33   R(13,14)                1.5191         calculate D2E/DX2 analytically  !
 ! R34   R(13,39)                1.095          calculate D2E/DX2 analytically  !
 ! R35   R(13,40)                1.0931         calculate D2E/DX2 analytically  !
 ! R36   R(14,15)                1.5017         calculate D2E/DX2 analytically  !
 ! R37   R(14,41)                1.0945         calculate D2E/DX2 analytically  !
 ! R38   R(14,42)                1.0964         calculate D2E/DX2 analytically  !
 ! R39   R(15,16)                1.5178         calculate D2E/DX2 analytically  !
 ! R40   R(15,43)                1.0949         calculate D2E/DX2 analytically  !
 ! R41   R(15,44)                1.0954         calculate D2E/DX2 analytically  !
 ! R42   R(16,45)                1.0812         calculate D2E/DX2 analytically  !
 ! R43   R(16,46)                1.0929         calculate D2E/DX2 analytically  !
 ! R44   R(17,18)                1.4575         calculate D2E/DX2 analytically  !
 ! R45   R(17,21)                1.4548         calculate D2E/DX2 analytically  !
 ! R46   R(18,19)                1.5247         calculate D2E/DX2 analytically  !
 ! R47   R(18,47)                1.0836         calculate D2E/DX2 analytically  !
 ! R48   R(18,48)                1.1007         calculate D2E/DX2 analytically  !
 ! R49   R(19,20)                1.5134         calculate D2E/DX2 analytically  !
 ! R50   R(19,49)                1.0953         calculate D2E/DX2 analytically  !
 ! R51   R(19,50)                1.0951         calculate D2E/DX2 analytically  !
 ! R52   R(20,21)                1.5159         calculate D2E/DX2 analytically  !
 ! R53   R(20,51)                1.0963         calculate D2E/DX2 analytically  !
 ! R54   R(20,52)                1.094          calculate D2E/DX2 analytically  !
 ! R55   R(21,53)                1.0927         calculate D2E/DX2 analytically  !
 ! R56   R(21,54)                1.0949         calculate D2E/DX2 analytically  !
 ! A1    A(2,1,7)              104.6442         calculate D2E/DX2 analytically  !
 ! A2    A(2,1,12)              88.7587         calculate D2E/DX2 analytically  !
 ! A3    A(2,1,17)              91.2413         calculate D2E/DX2 analytically  !
 ! A4    A(7,1,12)              91.4218         calculate D2E/DX2 analytically  !
 ! A5    A(7,1,17)              88.5782         calculate D2E/DX2 analytically  !
 ! A6    A(1,2,3)              127.8064         calculate D2E/DX2 analytically  !
 ! A7    A(2,3,4)              117.687          calculate D2E/DX2 analytically  !
 ! A8    A(2,3,5)              110.2733         calculate D2E/DX2 analytically  !
 ! A9    A(2,3,6)              109.2951         calculate D2E/DX2 analytically  !
 ! A10   A(4,3,5)              105.3602         calculate D2E/DX2 analytically  !
 ! A11   A(4,3,6)              110.5914         calculate D2E/DX2 analytically  !
 ! A12   A(5,3,6)              102.5096         calculate D2E/DX2 analytically  !
 ! A13   A(3,4,22)             111.3796         calculate D2E/DX2 analytically  !
 ! A14   A(3,4,23)             115.2447         calculate D2E/DX2 analytically  !
 ! A15   A(3,4,24)             110.7846         calculate D2E/DX2 analytically  !
 ! A16   A(22,4,23)            106.1479         calculate D2E/DX2 analytically  !
 ! A17   A(22,4,24)            105.4592         calculate D2E/DX2 analytically  !
 ! A18   A(23,4,24)            107.2385         calculate D2E/DX2 analytically  !
 ! A19   A(3,5,25)             112.4402         calculate D2E/DX2 analytically  !
 ! A20   A(3,5,26)             110.6758         calculate D2E/DX2 analytically  !
 ! A21   A(3,5,27)             111.9985         calculate D2E/DX2 analytically  !
 ! A22   A(25,5,26)            105.7338         calculate D2E/DX2 analytically  !
 ! A23   A(25,5,27)            108.4027         calculate D2E/DX2 analytically  !
 ! A24   A(26,5,27)            107.2649         calculate D2E/DX2 analytically  !
 ! A25   A(3,6,28)             113.9505         calculate D2E/DX2 analytically  !
 ! A26   A(3,6,29)             111.4232         calculate D2E/DX2 analytically  !
 ! A27   A(3,6,30)             111.4425         calculate D2E/DX2 analytically  !
 ! A28   A(28,6,29)            107.7829         calculate D2E/DX2 analytically  !
 ! A29   A(28,6,30)            104.6819         calculate D2E/DX2 analytically  !
 ! A30   A(29,6,30)            107.1113         calculate D2E/DX2 analytically  !
 ! A31   A(1,7,8)              126.0754         calculate D2E/DX2 analytically  !
 ! A32   A(1,7,11)             123.9008         calculate D2E/DX2 analytically  !
 ! A33   A(8,7,11)             109.7007         calculate D2E/DX2 analytically  !
 ! A34   A(7,8,9)              104.4283         calculate D2E/DX2 analytically  !
 ! A35   A(7,8,31)             111.0449         calculate D2E/DX2 analytically  !
 ! A36   A(7,8,32)             113.0017         calculate D2E/DX2 analytically  !
 ! A37   A(9,8,31)             110.5173         calculate D2E/DX2 analytically  !
 ! A38   A(9,8,32)             109.4314         calculate D2E/DX2 analytically  !
 ! A39   A(31,8,32)            108.3793         calculate D2E/DX2 analytically  !
 ! A40   A(8,9,10)             103.4664         calculate D2E/DX2 analytically  !
 ! A41   A(8,9,33)             112.7202         calculate D2E/DX2 analytically  !
 ! A42   A(8,9,34)             110.7525         calculate D2E/DX2 analytically  !
 ! A43   A(10,9,33)            112.271          calculate D2E/DX2 analytically  !
 ! A44   A(10,9,34)            109.5748         calculate D2E/DX2 analytically  !
 ! A45   A(33,9,34)            108.0193         calculate D2E/DX2 analytically  !
 ! A46   A(9,10,11)            103.8364         calculate D2E/DX2 analytically  !
 ! A47   A(9,10,35)            109.5285         calculate D2E/DX2 analytically  !
 ! A48   A(9,10,36)            112.4744         calculate D2E/DX2 analytically  !
 ! A49   A(11,10,35)           110.2655         calculate D2E/DX2 analytically  !
 ! A50   A(11,10,36)           112.4674         calculate D2E/DX2 analytically  !
 ! A51   A(35,10,36)           108.2166         calculate D2E/DX2 analytically  !
 ! A52   A(7,11,10)            106.3566         calculate D2E/DX2 analytically  !
 ! A53   A(7,11,37)            113.4941         calculate D2E/DX2 analytically  !
 ! A54   A(7,11,38)            109.7418         calculate D2E/DX2 analytically  !
 ! A55   A(10,11,37)           108.8386         calculate D2E/DX2 analytically  !
 ! A56   A(10,11,38)           110.7354         calculate D2E/DX2 analytically  !
 ! A57   A(37,11,38)           107.6934         calculate D2E/DX2 analytically  !
 ! A58   A(1,12,13)            117.0009         calculate D2E/DX2 analytically  !
 ! A59   A(1,12,16)            126.1743         calculate D2E/DX2 analytically  !
 ! A60   A(13,12,16)           105.5042         calculate D2E/DX2 analytically  !
 ! A61   A(12,13,14)           108.248          calculate D2E/DX2 analytically  !
 ! A62   A(12,13,39)           110.204          calculate D2E/DX2 analytically  !
 ! A63   A(12,13,40)           111.9541         calculate D2E/DX2 analytically  !
 ! A64   A(14,13,39)           109.162          calculate D2E/DX2 analytically  !
 ! A65   A(14,13,40)           108.4171         calculate D2E/DX2 analytically  !
 ! A66   A(39,13,40)           108.8023         calculate D2E/DX2 analytically  !
 ! A67   A(13,14,15)           103.0654         calculate D2E/DX2 analytically  !
 ! A68   A(13,14,41)           112.6            calculate D2E/DX2 analytically  !
 ! A69   A(13,14,42)           110.7023         calculate D2E/DX2 analytically  !
 ! A70   A(15,14,41)           112.1976         calculate D2E/DX2 analytically  !
 ! A71   A(15,14,42)           110.0911         calculate D2E/DX2 analytically  !
 ! A72   A(41,14,42)           108.1494         calculate D2E/DX2 analytically  !
 ! A73   A(14,15,16)           102.9113         calculate D2E/DX2 analytically  !
 ! A74   A(14,15,43)           110.7888         calculate D2E/DX2 analytically  !
 ! A75   A(14,15,44)           112.1091         calculate D2E/DX2 analytically  !
 ! A76   A(16,15,43)           110.7207         calculate D2E/DX2 analytically  !
 ! A77   A(16,15,44)           111.9263         calculate D2E/DX2 analytically  !
 ! A78   A(43,15,44)           108.3529         calculate D2E/DX2 analytically  !
 ! A79   A(12,16,15)           109.0946         calculate D2E/DX2 analytically  !
 ! A80   A(12,16,45)           115.579          calculate D2E/DX2 analytically  !
 ! A81   A(12,16,46)           107.6664         calculate D2E/DX2 analytically  !
 ! A82   A(15,16,45)           107.9382         calculate D2E/DX2 analytically  !
 ! A83   A(15,16,46)           106.3745         calculate D2E/DX2 analytically  !
 ! A84   A(45,16,46)           109.8114         calculate D2E/DX2 analytically  !
 ! A85   A(1,17,18)            124.7311         calculate D2E/DX2 analytically  !
 ! A86   A(1,17,21)            117.6301         calculate D2E/DX2 analytically  !
 ! A87   A(18,17,21)           110.2597         calculate D2E/DX2 analytically  !
 ! A88   A(17,18,19)           105.4033         calculate D2E/DX2 analytically  !
 ! A89   A(17,18,47)           114.9078         calculate D2E/DX2 analytically  !
 ! A90   A(17,18,48)           111.7973         calculate D2E/DX2 analytically  !
 ! A91   A(19,18,47)           108.5529         calculate D2E/DX2 analytically  !
 ! A92   A(19,18,48)           109.9809         calculate D2E/DX2 analytically  !
 ! A93   A(47,18,48)           106.1575         calculate D2E/DX2 analytically  !
 ! A94   A(18,19,20)           103.9127         calculate D2E/DX2 analytically  !
 ! A95   A(18,19,49)           112.1125         calculate D2E/DX2 analytically  !
 ! A96   A(18,19,50)           110.5426         calculate D2E/DX2 analytically  !
 ! A97   A(20,19,49)           111.8099         calculate D2E/DX2 analytically  !
 ! A98   A(20,19,50)           110.1248         calculate D2E/DX2 analytically  !
 ! A99   A(49,19,50)           108.3132         calculate D2E/DX2 analytically  !
 ! A100  A(19,20,21)           103.9848         calculate D2E/DX2 analytically  !
 ! A101  A(19,20,51)           110.1522         calculate D2E/DX2 analytically  !
 ! A102  A(19,20,52)           111.9971         calculate D2E/DX2 analytically  !
 ! A103  A(21,20,51)           110.571          calculate D2E/DX2 analytically  !
 ! A104  A(21,20,52)           112.4607         calculate D2E/DX2 analytically  !
 ! A105  A(51,20,52)           107.6856         calculate D2E/DX2 analytically  !
 ! A106  A(17,21,20)           106.1854         calculate D2E/DX2 analytically  !
 ! A107  A(17,21,53)           113.1128         calculate D2E/DX2 analytically  !
 ! A108  A(17,21,54)           108.9292         calculate D2E/DX2 analytically  !
 ! A109  A(20,21,53)           111.3737         calculate D2E/DX2 analytically  !
 ! A110  A(20,21,54)           110.2194         calculate D2E/DX2 analytically  !
 ! A111  A(53,21,54)           107.0205         calculate D2E/DX2 analytically  !
 ! A112  L(12,1,17,2,-1)       180.0            calculate D2E/DX2 analytically  !
 ! A113  L(12,1,17,2,-2)       180.0            calculate D2E/DX2 analytically  !
 ! D1    D(7,1,2,3)           -177.26           calculate D2E/DX2 analytically  !
 ! D2    D(12,1,2,3)            91.5945         calculate D2E/DX2 analytically  !
 ! D3    D(17,1,2,3)           -88.4055         calculate D2E/DX2 analytically  !
 ! D4    D(2,1,7,8)           -179.2942         calculate D2E/DX2 analytically  !
 ! D5    D(2,1,7,11)            -6.5034         calculate D2E/DX2 analytically  !
 ! D6    D(12,1,7,8)           -90.2058         calculate D2E/DX2 analytically  !
 ! D7    D(12,1,7,11)           82.585          calculate D2E/DX2 analytically  !
 ! D8    D(17,1,7,8)            89.7942         calculate D2E/DX2 analytically  !
 ! D9    D(17,1,7,11)          -97.415          calculate D2E/DX2 analytically  !
 ! D10   D(2,1,12,13)           90.3528         calculate D2E/DX2 analytically  !
 ! D11   D(2,1,12,16)         -131.5538         calculate D2E/DX2 analytically  !
 ! D12   D(7,1,12,13)          -14.2677         calculate D2E/DX2 analytically  !
 ! D13   D(7,1,12,16)          123.8257         calculate D2E/DX2 analytically  !
 ! D14   D(13,12,17,18)        -29.6471         calculate D2E/DX2 analytically  !
 ! D15   D(13,12,17,21)        117.3305         calculate D2E/DX2 analytically  !
 ! D16   D(16,12,17,18)        108.4463         calculate D2E/DX2 analytically  !
 ! D17   D(16,12,17,21)       -104.5761         calculate D2E/DX2 analytically  !
 ! D18   D(2,1,17,18)         -119.9999         calculate D2E/DX2 analytically  !
 ! D19   D(2,1,17,21)           26.9777         calculate D2E/DX2 analytically  !
 ! D20   D(7,1,17,18)          -15.3794         calculate D2E/DX2 analytically  !
 ! D21   D(7,1,17,21)          131.5982         calculate D2E/DX2 analytically  !
 ! D22   D(1,2,3,4)             90.3527         calculate D2E/DX2 analytically  !
 ! D23   D(1,2,3,5)           -148.8025         calculate D2E/DX2 analytically  !
 ! D24   D(1,2,3,6)            -36.8418         calculate D2E/DX2 analytically  !
 ! D25   D(2,3,4,22)            77.4319         calculate D2E/DX2 analytically  !
 ! D26   D(2,3,4,23)           -43.5521         calculate D2E/DX2 analytically  !
 ! D27   D(2,3,4,24)          -165.5181         calculate D2E/DX2 analytically  !
 ! D28   D(5,3,4,22)           -45.9308         calculate D2E/DX2 analytically  !
 ! D29   D(5,3,4,23)          -166.9148         calculate D2E/DX2 analytically  !
 ! D30   D(5,3,4,24)            71.1191         calculate D2E/DX2 analytically  !
 ! D31   D(6,3,4,22)          -156.0005         calculate D2E/DX2 analytically  !
 ! D32   D(6,3,4,23)            83.0155         calculate D2E/DX2 analytically  !
 ! D33   D(6,3,4,24)           -38.9506         calculate D2E/DX2 analytically  !
 ! D34   D(2,3,5,25)           -70.1151         calculate D2E/DX2 analytically  !
 ! D35   D(2,3,5,26)           171.887          calculate D2E/DX2 analytically  !
 ! D36   D(2,3,5,27)            52.244          calculate D2E/DX2 analytically  !
 ! D37   D(4,3,5,25)            57.8472         calculate D2E/DX2 analytically  !
 ! D38   D(4,3,5,26)           -60.1507         calculate D2E/DX2 analytically  !
 ! D39   D(4,3,5,27)          -179.7937         calculate D2E/DX2 analytically  !
 ! D40   D(6,3,5,25)           173.6037         calculate D2E/DX2 analytically  !
 ! D41   D(6,3,5,26)            55.6058         calculate D2E/DX2 analytically  !
 ! D42   D(6,3,5,27)           -64.0372         calculate D2E/DX2 analytically  !
 ! D43   D(2,3,6,28)            73.8471         calculate D2E/DX2 analytically  !
 ! D44   D(2,3,6,29)           -48.3798         calculate D2E/DX2 analytically  !
 ! D45   D(2,3,6,30)          -167.962          calculate D2E/DX2 analytically  !
 ! D46   D(4,3,6,28)           -57.2568         calculate D2E/DX2 analytically  !
 ! D47   D(4,3,6,29)          -179.4837         calculate D2E/DX2 analytically  !
 ! D48   D(4,3,6,30)            60.9342         calculate D2E/DX2 analytically  !
 ! D49   D(5,3,6,28)          -169.1701         calculate D2E/DX2 analytically  !
 ! D50   D(5,3,6,29)            68.603          calculate D2E/DX2 analytically  !
 ! D51   D(5,3,6,30)           -50.9791         calculate D2E/DX2 analytically  !
 ! D52   D(1,7,8,9)           -166.134          calculate D2E/DX2 analytically  !
 ! D53   D(1,7,8,31)            74.738          calculate D2E/DX2 analytically  !
 ! D54   D(1,7,8,32)           -47.2915         calculate D2E/DX2 analytically  !
 ! D55   D(11,7,8,9)            20.2179         calculate D2E/DX2 analytically  !
 ! D56   D(11,7,8,31)          -98.9101         calculate D2E/DX2 analytically  !
 ! D57   D(11,7,8,32)          139.0604         calculate D2E/DX2 analytically  !
 ! D58   D(1,7,11,10)         -172.8865         calculate D2E/DX2 analytically  !
 ! D59   D(1,7,11,37)          -53.2484         calculate D2E/DX2 analytically  !
 ! D60   D(1,7,11,38)           67.2883         calculate D2E/DX2 analytically  !
 ! D61   D(8,7,11,10)            0.9288         calculate D2E/DX2 analytically  !
 ! D62   D(8,7,11,37)          120.5668         calculate D2E/DX2 analytically  !
 ! D63   D(8,7,11,38)         -118.8965         calculate D2E/DX2 analytically  !
 ! D64   D(7,8,9,10)           -33.271          calculate D2E/DX2 analytically  !
 ! D65   D(7,8,9,33)          -154.7882         calculate D2E/DX2 analytically  !
 ! D66   D(7,8,9,34)            84.0611         calculate D2E/DX2 analytically  !
 ! D67   D(31,8,9,10)           86.2136         calculate D2E/DX2 analytically  !
 ! D68   D(31,8,9,33)          -35.3035         calculate D2E/DX2 analytically  !
 ! D69   D(31,8,9,34)         -156.4542         calculate D2E/DX2 analytically  !
 ! D70   D(32,8,9,10)         -154.5106         calculate D2E/DX2 analytically  !
 ! D71   D(32,8,9,33)           83.9722         calculate D2E/DX2 analytically  !
 ! D72   D(32,8,9,34)          -37.1785         calculate D2E/DX2 analytically  !
 ! D73   D(8,9,10,11)           33.5732         calculate D2E/DX2 analytically  !
 ! D74   D(8,9,10,35)          -84.1922         calculate D2E/DX2 analytically  !
 ! D75   D(8,9,10,36)          155.4313         calculate D2E/DX2 analytically  !
 ! D76   D(33,9,10,11)         155.3919         calculate D2E/DX2 analytically  !
 ! D77   D(33,9,10,35)          37.6265         calculate D2E/DX2 analytically  !
 ! D78   D(33,9,10,36)         -82.75           calculate D2E/DX2 analytically  !
 ! D79   D(34,9,10,11)         -84.5812         calculate D2E/DX2 analytically  !
 ! D80   D(34,9,10,35)         157.6534         calculate D2E/DX2 analytically  !
 ! D81   D(34,9,10,36)          37.277          calculate D2E/DX2 analytically  !
 ! D82   D(9,10,11,7)          -21.7985         calculate D2E/DX2 analytically  !
 ! D83   D(9,10,11,37)        -144.4222         calculate D2E/DX2 analytically  !
 ! D84   D(9,10,11,38)          97.3792         calculate D2E/DX2 analytically  !
 ! D85   D(35,10,11,7)          95.4546         calculate D2E/DX2 analytically  !
 ! D86   D(35,10,11,37)        -27.169          calculate D2E/DX2 analytically  !
 ! D87   D(35,10,11,38)       -145.3676         calculate D2E/DX2 analytically  !
 ! D88   D(36,10,11,7)        -143.6614         calculate D2E/DX2 analytically  !
 ! D89   D(36,10,11,37)         93.715          calculate D2E/DX2 analytically  !
 ! D90   D(36,10,11,38)        -24.4836         calculate D2E/DX2 analytically  !
 ! D91   D(1,12,13,14)         157.0418         calculate D2E/DX2 analytically  !
 ! D92   D(1,12,13,39)          37.7263         calculate D2E/DX2 analytically  !
 ! D93   D(1,12,13,40)         -83.514          calculate D2E/DX2 analytically  !
 ! D94   D(16,12,13,14)         11.0645         calculate D2E/DX2 analytically  !
 ! D95   D(16,12,13,39)       -108.251          calculate D2E/DX2 analytically  !
 ! D96   D(16,12,13,40)        130.5087         calculate D2E/DX2 analytically  !
 ! D97   D(1,12,16,15)        -131.3985         calculate D2E/DX2 analytically  !
 ! D98   D(1,12,16,45)          -9.5927         calculate D2E/DX2 analytically  !
 ! D99   D(1,12,16,46)         113.5553         calculate D2E/DX2 analytically  !
 ! D100  D(13,12,16,15)         10.4613         calculate D2E/DX2 analytically  !
 ! D101  D(13,12,16,45)        132.267          calculate D2E/DX2 analytically  !
 ! D102  D(13,12,16,46)       -104.585          calculate D2E/DX2 analytically  !
 ! D103  D(12,13,14,15)        -28.1229         calculate D2E/DX2 analytically  !
 ! D104  D(12,13,14,41)       -149.2343         calculate D2E/DX2 analytically  !
 ! D105  D(12,13,14,42)         89.5671         calculate D2E/DX2 analytically  !
 ! D106  D(39,13,14,15)         91.8477         calculate D2E/DX2 analytically  !
 ! D107  D(39,13,14,41)        -29.2637         calculate D2E/DX2 analytically  !
 ! D108  D(39,13,14,42)       -150.4624         calculate D2E/DX2 analytically  !
 ! D109  D(40,13,14,15)       -149.771          calculate D2E/DX2 analytically  !
 ! D110  D(40,13,14,41)         89.1176         calculate D2E/DX2 analytically  !
 ! D111  D(40,13,14,42)        -32.0811         calculate D2E/DX2 analytically  !
 ! D112  D(13,14,15,16)         32.8579         calculate D2E/DX2 analytically  !
 ! D113  D(13,14,15,43)        -85.5208         calculate D2E/DX2 analytically  !
 ! D114  D(13,14,15,44)        153.2976         calculate D2E/DX2 analytically  !
 ! D115  D(41,14,15,16)        154.2426         calculate D2E/DX2 analytically  !
 ! D116  D(41,14,15,43)         35.8639         calculate D2E/DX2 analytically  !
 ! D117  D(41,14,15,44)        -85.3177         calculate D2E/DX2 analytically  !
 ! D118  D(42,14,15,16)        -85.2613         calculate D2E/DX2 analytically  !
 ! D119  D(42,14,15,43)        156.3601         calculate D2E/DX2 analytically  !
 ! D120  D(42,14,15,44)         35.1785         calculate D2E/DX2 analytically  !
 ! D121  D(14,15,16,12)        -27.8203         calculate D2E/DX2 analytically  !
 ! D122  D(14,15,16,45)       -154.1411         calculate D2E/DX2 analytically  !
 ! D123  D(14,15,16,46)         88.0565         calculate D2E/DX2 analytically  !
 ! D124  D(43,15,16,12)         90.6061         calculate D2E/DX2 analytically  !
 ! D125  D(43,15,16,45)        -35.7147         calculate D2E/DX2 analytically  !
 ! D126  D(43,15,16,46)       -153.5171         calculate D2E/DX2 analytically  !
 ! D127  D(44,15,16,12)       -148.3855         calculate D2E/DX2 analytically  !
 ! D128  D(44,15,16,45)         85.2937         calculate D2E/DX2 analytically  !
 ! D129  D(44,15,16,46)        -32.5087         calculate D2E/DX2 analytically  !
 ! D130  D(1,17,18,19)         160.9638         calculate D2E/DX2 analytically  !
 ! D131  D(1,17,18,47)          41.5041         calculate D2E/DX2 analytically  !
 ! D132  D(1,17,18,48)         -79.5699         calculate D2E/DX2 analytically  !
 ! D133  D(21,17,18,19)         11.9385         calculate D2E/DX2 analytically  !
 ! D134  D(21,17,18,47)       -107.5213         calculate D2E/DX2 analytically  !
 ! D135  D(21,17,18,48)        131.4048         calculate D2E/DX2 analytically  !
 ! D136  D(1,17,21,20)        -143.1211         calculate D2E/DX2 analytically  !
 ! D137  D(1,17,21,53)         -20.6761         calculate D2E/DX2 analytically  !
 ! D138  D(1,17,21,54)          98.1939         calculate D2E/DX2 analytically  !
 ! D139  D(18,17,21,20)          8.3627         calculate D2E/DX2 analytically  !
 ! D140  D(18,17,21,53)        130.8076         calculate D2E/DX2 analytically  !
 ! D141  D(18,17,21,54)       -110.3224         calculate D2E/DX2 analytically  !
 ! D142  D(17,18,19,20)        -27.3403         calculate D2E/DX2 analytically  !
 ! D143  D(17,18,19,49)       -148.2571         calculate D2E/DX2 analytically  !
 ! D144  D(17,18,19,50)         90.7823         calculate D2E/DX2 analytically  !
 ! D145  D(47,18,19,20)         96.251          calculate D2E/DX2 analytically  !
 ! D146  D(47,18,19,49)        -24.6658         calculate D2E/DX2 analytically  !
 ! D147  D(47,18,19,50)       -145.6263         calculate D2E/DX2 analytically  !
 ! D148  D(48,18,19,20)       -148.0042         calculate D2E/DX2 analytically  !
 ! D149  D(48,18,19,49)         91.079          calculate D2E/DX2 analytically  !
 ! D150  D(48,18,19,50)        -29.8816         calculate D2E/DX2 analytically  !
 ! D151  D(18,19,20,21)         32.0468         calculate D2E/DX2 analytically  !
 ! D152  D(18,19,20,51)        -86.45           calculate D2E/DX2 analytically  !
 ! D153  D(18,19,20,52)        153.7311         calculate D2E/DX2 analytically  !
 ! D154  D(49,19,20,21)        153.1666         calculate D2E/DX2 analytically  !
 ! D155  D(49,19,20,51)         34.6698         calculate D2E/DX2 analytically  !
 ! D156  D(49,19,20,52)        -85.1492         calculate D2E/DX2 analytically  !
 ! D157  D(50,19,20,21)        -86.3638         calculate D2E/DX2 analytically  !
 ! D158  D(50,19,20,51)        155.1394         calculate D2E/DX2 analytically  !
 ! D159  D(50,19,20,52)         35.3205         calculate D2E/DX2 analytically  !
 ! D160  D(19,20,21,17)        -25.2915         calculate D2E/DX2 analytically  !
 ! D161  D(19,20,21,53)       -148.832          calculate D2E/DX2 analytically  !
 ! D162  D(19,20,21,54)         92.54           calculate D2E/DX2 analytically  !
 ! D163  D(51,20,21,17)         92.9172         calculate D2E/DX2 analytically  !
 ! D164  D(51,20,21,53)        -30.6233         calculate D2E/DX2 analytically  !
 ! D165  D(51,20,21,54)       -149.2513         calculate D2E/DX2 analytically  !
 ! D166  D(52,20,21,17)       -146.667          calculate D2E/DX2 analytically  !
 ! D167  D(52,20,21,53)         89.7925         calculate D2E/DX2 analytically  !
 ! D168  D(52,20,21,54)        -28.8354         calculate D2E/DX2 analytically  !
 --------------------------------------------------------------------------------
 Trust Radius=3.00D-01 FncErr=1.00D-07 GrdErr=1.00D-06 EigMax=2.50D+02 EigMin=1.00D-04
 Number of steps in this run=    324 maximum allowed number of steps=    324.
 GradGradGradGradGradGradGradGradGradGradGradGradGradGradGradGradGradGrad

 Stoichiometry    C16H33N4P
 Framework group  C1[X(C16H33N4P)]
 Deg. of freedom   156
 Full point group                 C1      NOp   1
 Largest Abelian subgroup         C1      NOp   1
 Largest concise Abelian subgroup C1      NOp   1
                         Standard orientation:                         
 ---------------------------------------------------------------------
 Center     Atomic      Atomic             Coordinates (Angstroms)
 Number     Number       Type             X           Y           Z
 ---------------------------------------------------------------------
      1         15           0       -0.032765   -0.158880   -0.616405
      2          7           0        0.550447   -0.976898    0.571401
      3          6           0        1.216332   -2.326473    0.523848
      4          6           0        2.738710   -2.364229    0.331603
      5          6           0        0.948210   -3.106238    1.841940
      6          6           0        0.509382   -3.210360   -0.539662
      7          7           0       -0.558527    1.275380    0.074368
      8          6           0       -1.201207    2.381577   -0.626707
      9          6           0       -1.148021    3.537828    0.360254
     10          6           0       -1.279354    2.859900    1.703688
     11          6           0       -0.569430    1.530793    1.510870
     12          7           0       -1.609890   -0.930111   -0.322667
     13          6           0       -2.530146   -0.243297    0.610604
     14          6           0       -3.946998   -0.694561    0.299808
     15          6           0       -3.882614   -1.032812   -1.161879
     16          6           0       -2.465541   -1.550472   -1.328089
     17          7           0        1.544359    0.612351   -0.910143
     18          6           0        1.790806    2.047667   -0.850477
     19          6           0        3.299629    2.193013   -0.686081
     20          6           0        3.715057    0.913515    0.007187
     21          6           0        2.737671   -0.120513   -0.515821
     22          1           0        3.263134   -2.125930    1.259311
     23          1           0        3.127935   -1.682380   -0.419198
     24          1           0        3.072119   -3.374493    0.057981
     25          1           0        1.477511   -2.677002    2.695232
     26          1           0        1.306159   -4.142405    1.759622
     27          1           0       -0.119556   -3.149305    2.083322
     28          1           0        0.736834   -2.933998   -1.563536
     29          1           0       -0.581612   -3.185962   -0.420270
     30          1           0        0.819554   -4.259824   -0.459417
     31          1           0       -2.237604    2.138684   -0.876996
     32          1           0       -0.680231    2.664841   -1.548712
     33          1           0       -1.935383    4.274122    0.189767
     34          1           0       -0.181952    4.054413    0.302110
     35          1           0       -2.339447    2.694980    1.928844
     36          1           0       -0.845481    3.451784    2.514986
     37          1           0       -1.094718    0.763035    2.086313
     38          1           0        0.456277    1.582231    1.884449
     39          1           0       -2.461556    0.841642    0.479408
     40          1           0       -2.311154   -0.486606    1.653574
     41          1           0       -4.691155    0.079280    0.512780
     42          1           0       -4.206039   -1.586913    0.881846
     43          1           0       -4.043245   -0.139907   -1.774823
     44          1           0       -4.628220   -1.783856   -1.444476
     45          1           0       -2.170580   -1.389445   -2.355761
     46          1           0       -2.502238   -2.622130   -1.116829
     47          1           0        1.303550    2.560654   -0.029712
     48          1           0        1.461695    2.557394   -1.768833
     49          1           0        3.567070    3.078752   -0.099923
     50          1           0        3.787302    2.267272   -1.663741
     51          1           0        3.615418    1.022995    1.093424
     52          1           0        4.755361    0.650931   -0.206336
     53          1           0        2.539134   -0.893934    0.230064
     54          1           0        3.152949   -0.622814   -1.395634
 ---------------------------------------------------------------------
 Rotational constants (GHZ):           0.3569489           0.2956560           0.1960039
 Standard basis: 6-31G(d) (6D, 7F)
 There are   385 symmetry adapted cartesian basis functions of A   symmetry.
 There are   385 symmetry adapted basis functions of A   symmetry.
   385 basis functions,   744 primitive gaussians,   385 cartesian basis functions
    86 alpha electrons       86 beta electrons
       nuclear repulsion energy      2223.1793884658 Hartrees.
 NAtoms=   54 NActive=   54 NUniq=   54 SFac= 1.00D+00 NAtFMM=   60 NAOKFM=F Big=F
 Integral buffers will be    131072 words long.
 Raffenetti 2 integral format.
 Two-electron integral symmetry is turned on.
 One-electron integrals computed using PRISM.
 NBasis=   385 RedAO= T EigKep=  1.78D-03  NBF=   385
 NBsUse=   385 1.00D-06 EigRej= -1.00D+00 NBFU=   385
 ExpMin= 9.98D-02 ExpMax= 1.94D+04 ExpMxC= 2.91D+03 IAcc=3 IRadAn=         5 AccDes= 0.00D+00
 Harris functional with IExCor=  402 and IRadAn=       5 diagonalized for initial guess.
 HarFok:  IExCor=  402 AccDes= 0.00D+00 IRadAn=         5 IDoV= 1 UseB2=F ITyADJ=14
 ICtDFT=  3500011 ScaDFX=  1.000000  1.000000  1.000000  1.000000
 FoFCou: FMM=F IPFlag=           0 FMFlag=      100000 FMFlg1=           0
         NFxFlg=           0 DoJE=T BraDBF=F KetDBF=T FulRan=T
         wScrn=  0.000000 ICntrl=       500 IOpCl=  0 I1Cent=   200000004 NGrid=           0
         NMat0=    1 NMatS0=      1 NMatT0=    0 NMatD0=    1 NMtDS0=    0 NMtDT0=    0
 Petite list used in FoFCou.
 Gradient too large for Newton-Raphson -- use scaled steepest descent instead.
 Alpha Gap=    -0.199 HL deriv= 4.12D-03 Rot set to   1.08D+00
     Minimum is close to point  2 DX=  1.95D-02 DF= -2.95D-03 DXR=  6.10D-02 DFR=  3.74D-03 which will be used.
 Gradient too large for Newton-Raphson -- use scaled steepest descent instead.
     Minimum is close to point  3 DX=  3.10D-02 DF= -3.48D-04 DXR=  5.83D-02 DFR=  3.44D-03 which will be used.
 Gradient too large for Newton-Raphson -- use scaled steepest descent instead.
     Minimum is close to point  2 DX=  3.91D-02 DF= -1.26D-04 DXR=  8.90D-02 DFR=  7.98D-03 which will be used.
 Gradient too large for Newton-Raphson -- use scaled steepest descent instead.
     Accept linear search using points  1 and  2.
 Gradient too large for Newton-Raphson -- use scaled steepest descent instead.
     Minimum is close to point  3 DX=  6.52D-02 DF= -2.62D-05 DXR=  8.52D-02 DFR=  7.42D-03 which will be used.
 Gradient too large for Newton-Raphson -- use scaled steepest descent instead.
     Accept linear search using points  1 and  2.
 Gradient too large for Newton-Raphson -- use scaled steepest descent instead.
     Accept linear search using points  2 and  3.
 Gradient too large for Newton-Raphson -- use scaled steepest descent instead.
 Restarting incremental Fock formation.
 LinEq1:  Iter=  0 NonCon=     1 RMS=1.42D-04 Max=1.99D-02 NDo=     1
 AX will form     1 AO Fock derivatives at one time.
 LinEq1:  Iter=  1 NonCon=     1 RMS=2.03D-04 Max=2.81D-02 NDo=     1
 LinEq1:  Iter=  2 NonCon=     1 RMS=7.58D-05 Max=8.85D-03 NDo=     1
 LinEq1:  Iter=  3 NonCon=     1 RMS=1.18D-04 Max=1.20D-02 NDo=     1
 LinEq1:  Iter=  4 NonCon=     1 RMS=7.74D-05 Max=7.15D-03 NDo=     1
 LinEq1:  Iter=  5 NonCon=     1 RMS=6.45D-05 Max=3.31D-03 NDo=     1
 LinEq1:  Iter=  6 NonCon=     1 RMS=3.44D-05 Max=2.32D-03 NDo=     1
 LinEq1:  Iter=  7 NonCon=     1 RMS=2.62D-05 Max=1.07D-03 NDo=     1
 LinEq1:  Iter=  8 NonCon=     1 RMS=1.51D-05 Max=7.55D-04 NDo=     1
 LinEq1:  Iter=  9 NonCon=     1 RMS=6.68D-06 Max=1.19D-04 NDo=     1
 LinEq1:  Iter= 10 NonCon=     1 RMS=3.95D-06 Max=1.31D-04 NDo=     1
 LinEq1:  Iter= 11 NonCon=     1 RMS=2.10D-06 Max=8.41D-05 NDo=     1
 LinEq1:  Iter= 12 NonCon=     1 RMS=1.14D-06 Max=4.98D-05 NDo=     1
 LinEq1:  Iter= 13 NonCon=     1 RMS=5.06D-07 Max=2.12D-05 NDo=     1
 LinEq1:  Iter= 14 NonCon=     1 RMS=1.95D-07 Max=7.60D-06 NDo=     1
 LinEq1:  Iter= 15 NonCon=     1 RMS=1.08D-07 Max=2.36D-06 NDo=     1
 LinEq1:  Iter= 16 NonCon=     1 RMS=4.10D-08 Max=8.49D-07 NDo=     1
 LinEq1:  Iter= 17 NonCon=     1 RMS=2.02D-08 Max=4.93D-07 NDo=     1
 LinEq1:  Iter= 18 NonCon=     1 RMS=1.01D-08 Max=3.49D-07 NDo=     1
 LinEq1:  Iter= 19 NonCon=     0 RMS=4.43D-09 Max=1.99D-07 NDo=     1
 Linear equations converged to 2.268D-08 2.268D-07 after    19 iterations.
     Accept linear search using points  1 and  2.
     Minimum is close to point  2 DX= -2.99D-02 DF= -1.75D-07 DXR=  3.08D-02 DFR=  9.74D-04 which will be used.
 LinEq1:  Iter=  0 NonCon=     1 RMS=1.71D-05 Max=1.60D-03 NDo=     1
 LinEq1:  Iter=  1 NonCon=     1 RMS=1.77D-05 Max=1.59D-03 NDo=     1
 LinEq1:  Iter=  2 NonCon=     1 RMS=2.75D-05 Max=2.70D-03 NDo=     1
 LinEq1:  Iter=  3 NonCon=     1 RMS=3.12D-05 Max=3.78D-03 NDo=     1
 LinEq1:  Iter=  4 NonCon=     1 RMS=3.10D-05 Max=1.95D-03 NDo=     1
 LinEq1:  Iter=  5 NonCon=     1 RMS=2.16D-05 Max=1.19D-03 NDo=     1
 LinEq1:  Iter=  6 NonCon=     1 RMS=1.57D-05 Max=6.35D-04 NDo=     1
 LinEq1:  Iter=  7 NonCon=     1 RMS=9.46D-06 Max=5.27D-04 NDo=     1
 LinEq1:  Iter=  8 NonCon=     1 RMS=6.53D-06 Max=3.55D-04 NDo=     1
 LinEq1:  Iter=  9 NonCon=     1 RMS=3.47D-06 Max=1.48D-04 NDo=     1
 LinEq1:  Iter= 10 NonCon=     1 RMS=2.46D-06 Max=1.02D-04 NDo=     1
 LinEq1:  Iter= 11 NonCon=     1 RMS=1.01D-06 Max=2.89D-05 NDo=     1
 LinEq1:  Iter= 12 NonCon=     1 RMS=4.40D-07 Max=8.84D-06 NDo=     1
 LinEq1:  Iter= 13 NonCon=     1 RMS=2.05D-07 Max=4.38D-06 NDo=     1
 LinEq1:  Iter= 14 NonCon=     1 RMS=9.69D-08 Max=2.94D-06 NDo=     1
 LinEq1:  Iter= 15 NonCon=     1 RMS=4.03D-08 Max=1.32D-06 NDo=     1
 LinEq1:  Iter= 16 NonCon=     1 RMS=1.99D-08 Max=5.37D-07 NDo=     1
 LinEq1:  Iter= 17 NonCon=     1 RMS=9.06D-09 Max=2.18D-07 NDo=     1
 LinEq1:  Iter= 18 NonCon=     0 RMS=3.33D-09 Max=8.25D-08 NDo=     1
 Linear equations converged to 1.390D-08 1.390D-07 after    18 iterations.
     Minimum is close to point  2 DX=  4.76D-03 DF= -2.68D-11 DXR=  4.74D-03 DFR=  2.23D-05 which will be used.
 LinEq1:  Iter=  0 NonCon=     1 RMS=8.97D-08 Max=8.30D-06 NDo=     1
 LinEq1:  Iter=  1 NonCon=     1 RMS=8.51D-08 Max=6.53D-06 NDo=     1
 LinEq1:  Iter=  2 NonCon=     1 RMS=1.29D-07 Max=1.53D-05 NDo=     1
 LinEq1:  Iter=  3 NonCon=     1 RMS=1.08D-07 Max=1.23D-05 NDo=     1
 LinEq1:  Iter=  4 NonCon=     1 RMS=2.03D-07 Max=1.48D-05 NDo=     1
 LinEq1:  Iter=  5 NonCon=     1 RMS=1.22D-07 Max=6.35D-06 NDo=     1
 LinEq1:  Iter=  6 NonCon=     1 RMS=9.09D-08 Max=4.46D-06 NDo=     1
 LinEq1:  Iter=  7 NonCon=     1 RMS=5.26D-08 Max=2.10D-06 NDo=     1
 LinEq1:  Iter=  8 NonCon=     1 RMS=2.56D-08 Max=9.24D-07 NDo=     1
 LinEq1:  Iter=  9 NonCon=     1 RMS=1.42D-08 Max=5.18D-07 NDo=     1
 LinEq1:  Iter= 10 NonCon=     1 RMS=5.65D-09 Max=1.80D-07 NDo=     1
 LinEq1:  Iter= 11 NonCon=     1 RMS=3.37D-09 Max=7.43D-08 NDo=     1
 LinEq1:  Iter= 12 NonCon=     1 RMS=1.59D-09 Max=7.42D-08 NDo=     1
 LinEq1:  Iter= 13 NonCon=     1 RMS=7.63D-10 Max=3.68D-08 NDo=     1
 LinEq1:  Iter= 14 NonCon=     1 RMS=4.12D-10 Max=1.74D-08 NDo=     1
 LinEq1:  Iter= 15 NonCon=     1 RMS=1.59D-10 Max=3.35D-09 NDo=     1
 LinEq1:  Iter= 16 NonCon=     1 RMS=6.78D-11 Max=1.29D-09 NDo=     1
 LinEq1:  Iter= 17 NonCon=     1 RMS=3.62D-11 Max=8.55D-10 NDo=     1
 LinEq1:  Iter= 18 NonCon=     1 RMS=1.30D-11 Max=5.00D-10 NDo=     1
 LinEq1:  Iter= 19 NonCon=     0 RMS=6.35D-12 Max=2.03D-10 NDo=     1
 Linear equations converged to 2.878D-11 2.878D-10 after    19 iterations.
 SCF Done:  E(RB3LYP) =  -1189.56816987     a.u. after   12 cycles
            Convg  =    0.8636D-09                    81 Fock formations.
              S**2 =  0.0000                  -V/T =  2.0065
 DoSCS=F DFT=T ScalE2(SS,OS)=  1.000000  1.000000
 Range of M.O.s used for correlation:     1   385
 NBasis=   385 NAE=    86 NBE=    86 NFC=     0 NFV=     0
 NROrb=    385 NOA=    86 NOB=    86 NVA=   299 NVB=   299

 **** Warning!!: The smallest alpha delta epsilon is  0.35427319D-01

 Symmetrizing basis deriv contribution to polar:
 IMax=3 JMax=2 DiffMx= 0.00D+00
 G2DrvN: will do    55 centers at a time, making    1 passes.
 Calling FoFCou, ICntrl=  3107 FMM=F I1Cent=   0 AccDes= 0.00D+00.
 End of G2Drv F.D. properties file   721 does not exist.
 End of G2Drv F.D. properties file   722 does not exist.
 End of G2Drv F.D. properties file   788 does not exist.
          IDoAtm=11111111111111111111111111111111111111111111111111
          IDoAtm=1111
          Differentiating once with respect to electric field.
                with respect to dipole field.
          Differentiating once with respect to nuclear coordinates.
 CalDSu exits because no D1Ps are significant.
          There are   165 degrees of freedom in the 1st order CPHF.  IDoFFX=6 NUNeed=     3.
    162 vectors produced by pass  0 Test12= 2.57D-14 1.00D-09 XBig12= 4.27D+02 1.40D+01.
 AX will form   162 AO Fock derivatives at one time.
    162 vectors produced by pass  1 Test12= 2.57D-14 1.00D-09 XBig12= 7.51D+01 1.71D+00.
    162 vectors produced by pass  2 Test12= 2.57D-14 1.00D-09 XBig12= 6.64D-01 6.95D-02.
    162 vectors produced by pass  3 Test12= 2.57D-14 1.00D-09 XBig12= 1.58D-03 3.31D-03.
    162 vectors produced by pass  4 Test12= 2.57D-14 1.00D-09 XBig12= 1.57D-06 8.30D-05.
     83 vectors produced by pass  5 Test12= 2.57D-14 1.00D-09 XBig12= 1.21D-09 3.01D-06.
      6 vectors produced by pass  6 Test12= 2.57D-14 1.00D-09 XBig12= 8.23D-13 6.53D-08.
      3 vectors produced by pass  7 Test12= 2.57D-14 1.00D-09 XBig12= 7.28D-16 2.28D-09.
 InvSVY:  IOpt=1 It=  1 EMax= 2.49D-14
 Solved reduced A of dimension   902 with   165 vectors.
 Isotropic polarizability for W=    0.000000      241.66 Bohr**3.
 End of Minotr F.D. properties file   721 does not exist.
 End of Minotr F.D. properties file   722 does not exist.
 End of Minotr F.D. properties file   788 does not exist.

 **********************************************************************

            Population analysis using the SCF density.

 **********************************************************************

 Orbital symmetries:
       Occupied  (A) (A) (A) (A) (A) (A) (A) (A) (A) (A) (A) (A)
                 (A) (A) (A) (A) (A) (A) (A) (A) (A) (A) (A) (A)
                 (A) (A) (A) (A) (A) (A) (A) (A) (A) (A) (A) (A)
                 (A) (A) (A) (A) (A) (A) (A) (A) (A) (A) (A) (A)
                 (A) (A) (A) (A) (A) (A) (A) (A) (A) (A) (A) (A)
                 (A) (A) (A) (A) (A) (A) (A) (A) (A) (A) (A) (A)
                 (A) (A) (A) (A) (A) (A) (A) (A) (A) (A) (A) (A)
                 (A) (A)
       Virtual   (A) (A) (A) (A) (A) (A) (A) (A) (A) (A) (A) (A)
                 (A) (A) (A) (A) (A) (A) (A) (A) (A) (A) (A) (A)
                 (A) (A) (A) (A) (A) (A) (A) (A) (A) (A) (A) (A)
                 (A) (A) (A) (A) (A) (A) (A) (A) (A) (A) (A) (A)
                 (A) (A) (A) (A) (A) (A) (A) (A) (A) (A) (A) (A)
                 (A) (A) (A) (A) (A) (A) (A) (A) (A) (A) (A) (A)
                 (A) (A) (A) (A) (A) (A) (A) (A) (A) (A) (A) (A)
                 (A) (A) (A) (A) (A) (A) (A) (A) (A) (A) (A) (A)
                 (A) (A) (A) (A) (A) (A) (A) (A) (A) (A) (A) (A)
                 (A) (A) (A) (A) (A) (A) (A) (A) (A) (A) (A) (A)
                 (A) (A) (A) (A) (A) (A) (A) (A) (A) (A) (A) (A)
                 (A) (A) (A) (A) (A) (A) (A) (A) (A) (A) (A) (A)
                 (A) (A) (A) (A) (A) (A) (A) (A) (A) (A) (A) (A)
                 (A) (A) (A) (A) (A) (A) (A) (A) (A) (A) (A) (A)
                 (A) (A) (A) (A) (A) (A) (A) (A) (A) (A) (A) (A)
                 (A) (A) (A) (A) (A) (A) (A) (A) (A) (A) (A) (A)
                 (A) (A) (A) (A) (A) (A) (A) (A) (A) (A) (A) (A)
                 (A) (A) (A) (A) (A) (A) (A) (A) (A) (A) (A) (A)
                 (A) (A) (A) (A) (A) (A) (A) (A) (A) (A) (A) (A)
                 (A) (A) (A) (A) (A) (A) (A) (A) (A) (A) (A) (A)
                 (A) (A) (A) (A) (A) (A) (A) (A) (A) (A) (A) (A)
                 (A) (A) (A) (A) (A) (A) (A) (A) (A) (A) (A) (A)
                 (A) (A) (A) (A) (A) (A) (A) (A) (A) (A) (A) (A)
                 (A) (A) (A) (A) (A) (A) (A) (A) (A) (A) (A) (A)
                 (A) (A) (A) (A) (A) (A) (A) (A) (A) (A) (A)
 The electronic state is 1-A.
 Alpha  occ. eigenvalues --  -77.15700 -14.32564 -14.30203 -14.28951 -14.24262
 Alpha  occ. eigenvalues --  -10.21137 -10.20535 -10.20395 -10.19493 -10.19058
 Alpha  occ. eigenvalues --  -10.18910 -10.17916 -10.17899 -10.17673 -10.17664
 Alpha  occ. eigenvalues --  -10.17010 -10.16880 -10.16567 -10.15587 -10.14767
 Alpha  occ. eigenvalues --  -10.13581  -6.60834  -4.77247  -4.77039  -4.76988
 Alpha  occ. eigenvalues --   -0.94455  -0.90806  -0.89380  -0.84201  -0.79534
 Alpha  occ. eigenvalues --   -0.76257  -0.75219  -0.73888  -0.73336  -0.72465
 Alpha  occ. eigenvalues --   -0.71899  -0.67680  -0.65911  -0.62880  -0.58512
 Alpha  occ. eigenvalues --   -0.58273  -0.58063  -0.57215  -0.56823  -0.55702
 Alpha  occ. eigenvalues --   -0.52302  -0.50941  -0.49605  -0.48334  -0.48025
 Alpha  occ. eigenvalues --   -0.47836  -0.45942  -0.43174  -0.42945  -0.42861
 Alpha  occ. eigenvalues --   -0.42197  -0.41581  -0.41418  -0.41140  -0.40629
 Alpha  occ. eigenvalues --   -0.39560  -0.38534  -0.38487  -0.37589  -0.37499
 Alpha  occ. eigenvalues --   -0.36411  -0.35884  -0.34875  -0.34422  -0.34268
 Alpha  occ. eigenvalues --   -0.34198  -0.33815  -0.33320  -0.32922  -0.32749
 Alpha  occ. eigenvalues --   -0.32180  -0.31970  -0.31407  -0.31197  -0.30371
 Alpha  occ. eigenvalues --   -0.25191  -0.23353  -0.21729  -0.20752  -0.18287
 Alpha  occ. eigenvalues --   -0.13921
 Alpha virt. eigenvalues --   -0.10378   0.05879   0.07540   0.08101   0.09640
 Alpha virt. eigenvalues --    0.10567   0.11109   0.11673   0.11920   0.12589
 Alpha virt. eigenvalues --    0.13664   0.13955   0.14017   0.14624   0.15173
 Alpha virt. eigenvalues --    0.15351   0.15812   0.16428   0.16842   0.17161
 Alpha virt. eigenvalues --    0.17539   0.17921   0.18309   0.18644   0.18931
 Alpha virt. eigenvalues --    0.18980   0.19636   0.19926   0.20095   0.20724
 Alpha virt. eigenvalues --    0.20944   0.21451   0.22077   0.22382   0.23035
 Alpha virt. eigenvalues --    0.23572   0.23679   0.24197   0.25542   0.25769
 Alpha virt. eigenvalues --    0.26647   0.26888   0.27313   0.27712   0.28325
 Alpha virt. eigenvalues --    0.28928   0.29859   0.30651   0.31292   0.31861
 Alpha virt. eigenvalues --    0.32241   0.33228   0.34328   0.35960   0.36877
 Alpha virt. eigenvalues --    0.40717   0.42376   0.44480   0.46773   0.48431
 Alpha virt. eigenvalues --    0.51580   0.52370   0.53486   0.53747   0.54409
 Alpha virt. eigenvalues --    0.54842   0.55098   0.55202   0.56186   0.56925
 Alpha virt. eigenvalues --    0.56961   0.58239   0.58714   0.59807   0.60822
 Alpha virt. eigenvalues --    0.61457   0.62107   0.62387   0.62930   0.64803
 Alpha virt. eigenvalues --    0.65784   0.66402   0.66969   0.67492   0.67573
 Alpha virt. eigenvalues --    0.68035   0.68563   0.69317   0.70076   0.71139
 Alpha virt. eigenvalues --    0.71613   0.72753   0.73301   0.74046   0.75790
 Alpha virt. eigenvalues --    0.77510   0.78199   0.79377   0.79918   0.80786
 Alpha virt. eigenvalues --    0.81517   0.81762   0.82454   0.83341   0.84207
 Alpha virt. eigenvalues --    0.84555   0.85183   0.85485   0.86491   0.86885
 Alpha virt. eigenvalues --    0.87340   0.87621   0.88321   0.88556   0.89030
 Alpha virt. eigenvalues --    0.89292   0.89995   0.91144   0.91429   0.92379
 Alpha virt. eigenvalues --    0.93009   0.93348   0.93444   0.93664   0.94523
 Alpha virt. eigenvalues --    0.94616   0.95135   0.95706   0.96255   0.96531
 Alpha virt. eigenvalues --    0.96919   0.97683   0.98219   0.98907   0.99303
 Alpha virt. eigenvalues --    0.99722   1.00595   1.01497   1.02402   1.02632
 Alpha virt. eigenvalues --    1.03773   1.04827   1.06012   1.07427   1.07852
 Alpha virt. eigenvalues --    1.08796   1.10851   1.11747   1.12672   1.13475
 Alpha virt. eigenvalues --    1.16016   1.17168   1.18475   1.19485   1.20624
 Alpha virt. eigenvalues --    1.23712   1.25403   1.26665   1.29605   1.31287
 Alpha virt. eigenvalues --    1.34442   1.37140   1.39581   1.41171   1.43439
 Alpha virt. eigenvalues --    1.44529   1.45819   1.47317   1.48238   1.49584
 Alpha virt. eigenvalues --    1.50993   1.54215   1.55341   1.55839   1.60133
 Alpha virt. eigenvalues --    1.63474   1.63733   1.65956   1.67617   1.70522
 Alpha virt. eigenvalues --    1.70849   1.73188   1.73875   1.76499   1.77437
 Alpha virt. eigenvalues --    1.77756   1.78591   1.79612   1.81782   1.82827
 Alpha virt. eigenvalues --    1.84389   1.84842   1.85342   1.86431   1.86754
 Alpha virt. eigenvalues --    1.87734   1.88659   1.89434   1.90816   1.91041
 Alpha virt. eigenvalues --    1.92210   1.92701   1.94903   1.95540   1.98048
 Alpha virt. eigenvalues --    1.98424   2.01049   2.01827   2.03429   2.04035
 Alpha virt. eigenvalues --    2.04228   2.04814   2.06076   2.06513   2.07232
 Alpha virt. eigenvalues --    2.07571   2.09155   2.09677   2.10392   2.10894
 Alpha virt. eigenvalues --    2.11572   2.13090   2.14339   2.15099   2.15837
 Alpha virt. eigenvalues --    2.17548   2.19133   2.19714   2.21888   2.22910
 Alpha virt. eigenvalues --    2.24023   2.25824   2.27223   2.27534   2.27971
 Alpha virt. eigenvalues --    2.28800   2.29551   2.29938   2.31704   2.32078
 Alpha virt. eigenvalues --    2.33449   2.34715   2.36797   2.38050   2.39883
 Alpha virt. eigenvalues --    2.40405   2.40650   2.43243   2.46182   2.48479
 Alpha virt. eigenvalues --    2.48910   2.49985   2.50780   2.52454   2.53858
 Alpha virt. eigenvalues --    2.54791   2.56992   2.58720   2.59171   2.60140
 Alpha virt. eigenvalues --    2.61490   2.63602   2.65404   2.68307   2.69402
 Alpha virt. eigenvalues --    2.70327   2.72014   2.73223   2.74338   2.75764
 Alpha virt. eigenvalues --    2.76767   2.78738   2.80296   2.85952   2.87460
 Alpha virt. eigenvalues --    2.92385   2.96539   2.97864   3.64578   4.06264
 Alpha virt. eigenvalues --    4.12506   4.17333   4.21318   4.22727   4.23156
 Alpha virt. eigenvalues --    4.26474   4.29233   4.31001   4.33544   4.34317
 Alpha virt. eigenvalues --    4.37495   4.42605   4.53820   4.54929   4.56304
 Alpha virt. eigenvalues --    4.61804   4.63779   4.66399   4.74117
          Condensed to atoms (all electrons):
 Mulliken charges:
               1
     1  P    1.027896
     2  N   -0.583306
     3  C    0.236811
     4  C   -0.564522
     5  C   -0.423119
     6  C   -0.462527
     7  N   -0.562526
     8  C   -0.117994
     9  C   -0.280337
    10  C   -0.301351
    11  C   -0.082338
    12  N   -0.448267
    13  C   -0.137866
    14  C   -0.294553
    15  C   -0.288124
    16  C   -0.138093
    17  N   -0.498687
    18  C   -0.095785
    19  C   -0.292692
    20  C   -0.290628
    21  C   -0.175872
    22  H    0.151092
    23  H    0.207074
    24  H    0.117554
    25  H    0.130223
    26  H    0.123988
    27  H    0.136064
    28  H    0.132058
    29  H    0.167676
    30  H    0.128412
    31  H    0.117246
    32  H    0.139420
    33  H    0.135983
    34  H    0.148667
    35  H    0.137011
    36  H    0.144650
    37  H    0.143751
    38  H    0.133035
    39  H    0.170397
    40  H    0.163070
    41  H    0.139954
    42  H    0.138611
    43  H    0.136410
    44  H    0.140228
    45  H    0.151548
    46  H    0.140854
    47  H    0.138848
    48  H    0.120665
    49  H    0.132595
    50  H    0.135830
    51  H    0.143991
    52  H    0.136735
    53  H    0.251277
    54  H    0.138963
 Sum of Mulliken charges =   0.00000
 Mulliken charges with hydrogens summed into heavy atoms:
               1
     1  P    1.027896
     2  N   -0.583306
     3  C    0.236811
     4  C   -0.088802
     5  C   -0.032844
     6  C   -0.034381
     7  N   -0.562526
     8  C    0.138672
     9  C    0.004312
    10  C   -0.019690
    11  C    0.194449
    12  N   -0.448267
    13  C    0.195601
    14  C   -0.015988
    15  C   -0.011486
    16  C    0.154310
    17  N   -0.498687
    18  C    0.163729
    19  C   -0.024266
    20  C   -0.009903
    21  C    0.214368
 APT charges:
               1
     1  P    0.620760
     2  N   -0.305134
     3  C    0.538443
     4  C   -0.097886
     5  C    0.030245
     6  C   -0.069246
     7  N   -0.763448
     8  C    0.353131
     9  C    0.097477
    10  C    0.069821
    11  C    0.298285
    12  N   -0.602186
    13  C    0.382456
    14  C    0.094357
    15  C    0.086312
    16  C    0.476208
    17  N   -0.797910
    18  C    0.601976
    19  C    0.161173
    20  C    0.122480
    21  C    0.179459
    22  H   -0.010186
    23  H    0.066343
    24  H   -0.070761
    25  H   -0.028240
    26  H   -0.052902
    27  H   -0.018846
    28  H   -0.032131
    29  H    0.010099
    30  H   -0.057628
    31  H   -0.107537
    32  H   -0.036699
    33  H   -0.041600
    34  H   -0.023114
    35  H   -0.033452
    36  H   -0.027378
    37  H   -0.032443
    38  H   -0.058898
    39  H   -0.028260
    40  H   -0.086595
    41  H   -0.041109
    42  H   -0.056546
    43  H   -0.042971
    44  H   -0.059073
    45  H   -0.050499
    46  H   -0.093667
    47  H   -0.140100
    48  H   -0.114286
    49  H   -0.050530
    50  H   -0.058895
    51  H   -0.047753
    52  H   -0.062851
    53  H    0.092367
    54  H   -0.080630
 Sum of APT charges =   0.00000
 APT charges with hydrogens summed into heavy atoms:
               1
     1  P    0.620760
     2  N   -0.305134
     3  C    0.538443
     4  C   -0.112491
     5  C   -0.069744
     6  C   -0.148906
     7  N   -0.763448
     8  C    0.208895
     9  C    0.032763
    10  C    0.008990
    11  C    0.206944
    12  N   -0.602186
    13  C    0.267601
    14  C   -0.003299
    15  C   -0.015733
    16  C    0.332043
    17  N   -0.797910
    18  C    0.347589
    19  C    0.051748
    20  C    0.011877
    21  C    0.191197
 Electronic spatial extent (au):  <R**2>=           6290.3731
 Charge=              0.0000 electrons
 Dipole moment (field-independent basis, Debye):
    X=             -1.7370    Y=              1.5751    Z=             -0.9154  Tot=              2.5171
 Quadrupole moment (field-independent basis, Debye-Ang):
   XX=           -132.5911   YY=           -137.7097   ZZ=           -138.8260
   XY=              1.7076   XZ=              0.5305   YZ=              3.0397
 Traceless Quadrupole moment (field-independent basis, Debye-Ang):
   XX=              3.7845   YY=             -1.3341   ZZ=             -2.4504
   XY=              1.7076   XZ=              0.5305   YZ=              3.0397
 Octapole moment (field-independent basis, Debye-Ang**2):
  XXX=            -11.2661  YYY=             17.7865  ZZZ=             -2.1225  XYY=             -9.8094
  XXY=              1.9280  XXZ=             -0.3740  XZZ=             -5.1341  YZZ=              4.9305
  YYZ=             -0.8294  XYZ=              0.1800
 Hexadecapole moment (field-independent basis, Debye-Ang**3):
 XXXX=          -4192.7752 YYYY=          -3463.8078 ZZZZ=           -968.4811 XXXY=             33.2287
 XXXZ=             -8.8011 YYYX=             26.3127 YYYZ=             19.9304 ZZZX=              4.0135
 ZZZY=             12.9097 XXYY=          -1278.6962 XXZZ=           -861.1517 YYZZ=           -742.4238
 XXYZ=              7.8797 YYXZ=              2.4408 ZZXY=              9.0305
 N-N= 2.223179388466D+03 E-N=-7.225485766452D+03  KE= 1.181882414089D+03
  Exact polarizability: 279.487  20.725 266.097  -2.642 -18.267 179.391
 Approx polarizability: 405.261  36.785 364.331  -8.766 -57.593 343.142
 Calling FoFJK, ICntrl=    100127 FMM=F ISym2X=0 I1Cent= 0 IOpClX= 0 NMat=1 NMatS=1 NMatT=0.
 ***** Axes restored to original set *****
 -------------------------------------------------------------------
 Center     Atomic                   Forces (Hartrees/Bohr)
 Number     Number              X              Y              Z
 -------------------------------------------------------------------
      1       15           0.031083138    0.064099761    0.000362762
      2        7          -0.012256688   -0.015662213    0.115302221
      3        6          -0.034698525    0.011102997   -0.003528454
      4        6          -0.005310367   -0.039697632    0.069166646
      5        6          -0.000807942    0.005670248    0.001706275
      6        6          -0.005197629   -0.005810127    0.005014431
      7        7           0.003463605    0.032882707   -0.041541112
      8        6           0.006772857   -0.006494128    0.002688889
      9        6           0.005371057    0.004003224   -0.010592516
     10        6          -0.004019838    0.005982194   -0.003134226
     11        6           0.010854366    0.008006429    0.017150716
     12        7          -0.037371852   -0.023794575   -0.048170383
     13        6          -0.015272767    0.004892728   -0.009998775
     14        6          -0.010915599    0.004339689    0.002567462
     15        6          -0.007945615   -0.007254211   -0.010458191
     16        6          -0.016771762   -0.013134135    0.008645428
     17        7           0.025294618   -0.015065762   -0.019398584
     18        6           0.013460221   -0.014865227   -0.015960172
     19        6           0.009508192   -0.002591923   -0.006625125
     20        6           0.009224747    0.002754199    0.003769544
     21        6           0.019615793    0.018622143   -0.059761990
     22        1           0.001250722    0.004971676    0.002103599
     23        1          -0.021665661   -0.039104252    0.067298857
     24        1          -0.009631561    0.001439158    0.007222597
     25        1           0.001584383    0.004530415   -0.003402199
     26        1           0.001574392   -0.000656109   -0.002026378
     27        1           0.001453886   -0.000106626   -0.003094149
     28        1           0.007771675   -0.003396099   -0.009398713
     29        1           0.005541642    0.002443244    0.003066341
     30        1           0.001219619    0.001848631    0.002027198
     31        1          -0.006349139   -0.004143558   -0.008350312
     32        1          -0.003065438   -0.004617500    0.001157087
     33        1           0.000933253   -0.001014403   -0.003822123
     34        1          -0.000505329   -0.002139204   -0.001916609
     35        1          -0.000929644    0.002341073    0.000234503
     36        1          -0.002061557    0.001267350    0.001170841
     37        1           0.008692051   -0.000322680    0.004592076
     38        1           0.002576734    0.002343751    0.004808182
     39        1          -0.012409874   -0.002669386    0.008508970
     40        1           0.007398291   -0.003175861    0.004223077
     41        1          -0.000480869    0.003058889    0.001693018
     42        1          -0.001472513    0.000798721    0.000069303
     43        1           0.000357898   -0.000453286   -0.002228563
     44        1           0.000967101   -0.002824124   -0.002851629
     45        1           0.010753816   -0.007486426    0.005692048
     46        1          -0.000154674   -0.008489817    0.005035804
     47        1          -0.007498199    0.004779914    0.003459555
     48        1           0.000379856    0.000996747   -0.001122171
     49        1           0.001053074   -0.001018534   -0.003234889
     50        1           0.001653332   -0.000553597   -0.000484915
     51        1          -0.002305416   -0.000107308    0.001083857
     52        1           0.000504499    0.001168582    0.002278085
     53        1           0.023000744    0.037836769   -0.079589626
     54        1           0.005782895   -0.005532537   -0.001407569
 -------------------------------------------------------------------
 Cartesian Forces:  Max     0.115302221 RMS     0.019028332
 FormGI is forming the generalized inverse of G from B-inverse, IUseBI=4.

 GradGradGradGradGradGradGradGradGradGradGradGradGradGradGradGradGradGrad
 Berny optimization.
 Internal  Forces:  Max     0.271359805 RMS     0.044225722
 Search for a local minimum.
 Step number   1 out of a maximum of  324
 All quantities printed in internal units (Hartrees-Bohrs-Radians)
 Mixed Optimization -- RFO/linear search
 Second derivative matrix not updated -- analytic derivatives used.
 ITU=  0
     Eigenvalues ---   -0.79137  -0.30224  -0.15670  -0.06060  -0.02927
     Eigenvalues ---   -0.01019  -0.00730   0.00055   0.00175   0.00200
     Eigenvalues ---    0.00244   0.00274   0.00435   0.00520   0.00572
     Eigenvalues ---    0.00828   0.01283   0.01477   0.01993   0.02121
     Eigenvalues ---    0.02185   0.02358   0.02541   0.02720   0.03065
     Eigenvalues ---    0.03214   0.03817   0.03921   0.04113   0.04199
     Eigenvalues ---    0.04235   0.04311   0.04356   0.04391   0.04434
     Eigenvalues ---    0.04499   0.04537   0.04771   0.04864   0.04901
     Eigenvalues ---    0.04967   0.04982   0.05025   0.05158   0.05211
     Eigenvalues ---    0.05378   0.05516   0.05529   0.05766   0.05913
     Eigenvalues ---    0.06045   0.06333   0.06338   0.06382   0.06497
     Eigenvalues ---    0.06581   0.06812   0.06928   0.07097   0.07176
     Eigenvalues ---    0.07360   0.07421   0.07807   0.08095   0.08224
     Eigenvalues ---    0.08343   0.08505   0.09163   0.09359   0.09487
     Eigenvalues ---    0.09576   0.09705   0.10017   0.10041   0.10145
     Eigenvalues ---    0.10687   0.10937   0.11324   0.11562   0.12188
     Eigenvalues ---    0.12660   0.13121   0.13288   0.14286   0.14819
     Eigenvalues ---    0.14870   0.15000   0.15075   0.15829   0.16728
     Eigenvalues ---    0.18911   0.19046   0.20689   0.22125   0.22455
     Eigenvalues ---    0.22629   0.23021   0.23522   0.24794   0.24972
     Eigenvalues ---    0.25515   0.26097   0.26722   0.26974   0.27281
     Eigenvalues ---    0.27689   0.29086   0.29570   0.29836   0.30233
     Eigenvalues ---    0.30831   0.31287   0.31469   0.31709   0.31859
     Eigenvalues ---    0.32100   0.32381   0.32527   0.32688   0.32961
     Eigenvalues ---    0.33012   0.33034   0.33107   0.33194   0.33288
     Eigenvalues ---    0.33443   0.33490   0.33521   0.33584   0.33797
     Eigenvalues ---    0.33938   0.33970   0.34088   0.34125   0.34143
     Eigenvalues ---    0.34282   0.34291   0.34442   0.34656   0.34817
     Eigenvalues ---    0.34859   0.34946   0.35249   0.35694   0.36076
     Eigenvalues ---    0.36246   0.36460   0.36535   0.36861   0.37596
     Eigenvalues ---    0.50604   0.56984   0.68340   0.70179   1.46301
     Eigenvalues ---    4.57577
 RFO step:  Lambda=-7.91404587D-01 EMin=-7.91368069D-01
 I=     1 Eig=   -7.91D-01 Dot1= -2.84D-03
 I=     1 Stepn= -6.00D-01 RXN=   6.00D-01 EDone=F
 I=     2 Eig=   -3.02D-01 Dot1=  2.92D-02
 I=     2 Stepn=  3.00D-01 RXN=   6.71D-01 EDone=F
 I=     3 Eig=   -1.57D-01 Dot1=  1.99D-04
 I=     3 Stepn=  1.50D-01 RXN=   6.87D-01 EDone=F
 Mixed    3 eigenvectors in step.  Raw Step.Grad=  3.22D-02.
 RFO eigenvector is Hessian eigenvector with negative curvature.
 Taking step of  6.00D-01 in eigenvector direction(s).  Step.Grad=  7.84D-03.
 Linear search not attempted -- first point.
 Maximum step size (   0.300) exceeded in Quadratic search.
    -- Step size not scaled.
 Iteration  1 RMS(Cart)=  0.23925296 RMS(Int)=  0.01206315
 Iteration  2 RMS(Cart)=  0.10486420 RMS(Int)=  0.00222663
 Iteration  3 RMS(Cart)=  0.00477245 RMS(Int)=  0.00094741
 Iteration  4 RMS(Cart)=  0.00000807 RMS(Int)=  0.00094741
 Iteration  5 RMS(Cart)=  0.00000003 RMS(Int)=  0.00094741
 Variable       Old X    -DE/DX   Delta X   Delta X   Delta X     New X
                                 (Linear)    (Quad)   (Total)
    R1        2.93983   0.20389   0.00000   0.02333   0.02333   2.96316
    R2        3.16815   0.05365   0.00000  -0.00829  -0.00829   3.15986
    R3        3.36371   0.08332   0.00000  -0.01062  -0.01072   3.35299
    R4        3.36371   0.09967   0.00000  -0.12077  -0.12066   3.24305
    R5        2.84529   0.14613   0.00000  -0.02664  -0.02664   2.81865
    R6        2.90060   0.04313   0.00000   0.07992   0.07992   2.98052
    R7        2.93808  -0.00174   0.00000  -0.00061  -0.00061   2.93747
    R8        2.93491  -0.00094   0.00000   0.00471   0.00471   2.93962
    R9        2.06357   0.00545   0.00000  -0.00170  -0.00170   2.06187
   R10        2.05287  -0.04446   0.00000   0.01647   0.01647   2.06934
   R11        2.07583   0.00516   0.00000  -0.00260  -0.00260   2.07323
   R12        2.06362   0.00362   0.00000   0.00012   0.00012   2.06375
   R13        2.07745  -0.00152   0.00000  -0.00017  -0.00017   2.07728
   R14        2.07030  -0.00038   0.00000  -0.00107  -0.00107   2.06923
   R15        2.04966   0.01089   0.00000  -0.00006  -0.00006   2.04960
   R16        2.07450  -0.00580   0.00000   0.00702   0.00702   2.08153
   R17        2.07356   0.00084   0.00000   0.00211   0.00211   2.07567
   R18        2.75681   0.00605   0.00000   0.00033   0.00033   2.75714
   R19        2.75725   0.01329   0.00000  -0.00260  -0.00260   2.75465
   R20        2.87452   0.00760   0.00000  -0.00003  -0.00003   2.87449
   R21        2.06643   0.00977   0.00000  -0.00023  -0.00023   2.06620
   R22        2.07160   0.00052   0.00000   0.00033   0.00033   2.07193
   R23        2.85446   0.01660   0.00000   0.00016   0.00016   2.85461
   R24        2.06243   0.00297   0.00000  -0.00006  -0.00006   2.06237
   R25        2.07313  -0.00079   0.00000   0.00115   0.00115   2.07428
   R26        2.87070   0.01551   0.00000  -0.00072  -0.00072   2.86998
   R27        2.07155   0.00124   0.00000  -0.00064  -0.00064   2.07091
   R28        2.06731   0.00028   0.00000  -0.00014  -0.00014   2.06717
   R29        2.06708  -0.00460   0.00000   0.00260   0.00260   2.06968
   R30        2.06515   0.00529   0.00000  -0.00245  -0.00245   2.06270
   R31        2.79627   0.00664   0.00000  -0.01139  -0.01115   2.78512
   R32        2.75658   0.02309   0.00000  -0.00451  -0.00430   2.75228
   R33        2.87071   0.01265   0.00000   0.00219   0.00211   2.87282
   R34        2.06924  -0.01390   0.00000   0.00038   0.00038   2.06962
   R35        2.06572   0.00008   0.00000   0.00506   0.00506   2.07078
   R36        2.83779   0.01997   0.00000   0.00434   0.00411   2.84190
   R37        2.06833   0.00055   0.00000  -0.00007  -0.00007   2.06825
   R38        2.07196   0.00109   0.00000  -0.00030  -0.00030   2.07166
   R39        2.86821   0.01209   0.00000  -0.00040  -0.00052   2.86769
   R40        2.06904   0.00226   0.00000   0.00049   0.00049   2.06953
   R41        2.06997   0.00032   0.00000   0.00077   0.00077   2.07074
   R42        2.04321   0.00846   0.00000   0.00251   0.00251   2.04572
   R43        2.06528   0.00671   0.00000   0.00304   0.00304   2.06832
   R44        2.75436   0.03721   0.00000  -0.00641  -0.00629   2.74807
   R45        2.74926  -0.07430   0.00000  -0.10712  -0.10720   2.64206
   R46        2.88126  -0.00200   0.00000   0.01071   0.01100   2.89226
   R47        2.04774   0.00600   0.00000   0.00315   0.00315   2.05089
   R48        2.08000   0.00051   0.00000  -0.00351  -0.00351   2.07649
   R49        2.85987  -0.02599   0.00000   0.02008   0.01983   2.87970
   R50        2.06978   0.00051   0.00000   0.00019   0.00019   2.06997
   R51        2.06937   0.00150   0.00000  -0.00032  -0.00032   2.06905
   R52        2.86469   0.00502   0.00000   0.00039   0.00030   2.86499
   R53        2.07166   0.00072   0.00000   0.00083   0.00083   2.07249
   R54        2.06731   0.00119   0.00000  -0.00174  -0.00174   2.06557
   R55        2.06486  -0.06392   0.00000  -0.06232  -0.06232   2.00253
   R56        2.06908   0.00658   0.00000   0.01023   0.01023   2.07931
    A1        1.82639   0.06217   0.00000  -0.06421  -0.06674   1.75964
    A2        1.54913  -0.10253   0.00000   0.02270   0.02315   1.57228
    A3        1.59246   0.27136   0.00000   0.09660   0.09882   1.69128
    A4        1.59561   0.10006   0.00000   0.02604   0.02945   1.62507
    A5        1.54598  -0.18041   0.00000   0.06021   0.06376   1.60974
    A6        2.23064   0.20394   0.00000   0.28896   0.28896   2.51960
    A7        2.05402   0.17103   0.00000   0.02966   0.02958   2.08361
    A8        1.92463  -0.07378   0.00000  -0.00482  -0.00462   1.92001
    A9        1.90756  -0.04771   0.00000  -0.02160  -0.02191   1.88565
   A10        1.83888  -0.05926   0.00000  -0.03293  -0.03282   1.80606
   A11        1.93018  -0.06979   0.00000   0.01773   0.01772   1.94790
   A12        1.78913   0.06550   0.00000   0.00915   0.00929   1.79842
   A13        1.94394  -0.00391   0.00000  -0.01646  -0.01655   1.92739
   A14        2.01140   0.06058   0.00000   0.07615   0.07618   2.08758
   A15        1.93356  -0.03089   0.00000  -0.01510  -0.01518   1.91838
   A16        1.85263  -0.00722   0.00000  -0.02691  -0.02688   1.82575
   A17        1.84061   0.00483   0.00000   0.00738   0.00716   1.84777
   A18        1.87167  -0.02747   0.00000  -0.03111  -0.03106   1.84060
   A19        1.96245  -0.00240   0.00000  -0.00038  -0.00038   1.96207
   A20        1.93166  -0.00104   0.00000   0.00087   0.00087   1.93253
   A21        1.95474  -0.00372   0.00000  -0.00263  -0.00263   1.95211
   A22        1.84540   0.00321   0.00000  -0.00011  -0.00011   1.84529
   A23        1.89198   0.00146   0.00000   0.00170   0.00170   1.89369
   A24        1.87213   0.00316   0.00000   0.00076   0.00076   1.87289
   A25        1.98881  -0.00611   0.00000  -0.00213  -0.00214   1.98667
   A26        1.94470  -0.00317   0.00000  -0.00392  -0.00393   1.94078
   A27        1.94504  -0.00165   0.00000   0.00636   0.00636   1.95140
   A28        1.88117   0.00412   0.00000  -0.00127  -0.00129   1.87988
   A29        1.82704   0.00517   0.00000  -0.00105  -0.00105   1.82599
   A30        1.86944   0.00275   0.00000   0.00231   0.00231   1.87175
   A31        2.20043  -0.01417   0.00000   0.01008   0.01008   2.21051
   A32        2.16248   0.00662   0.00000  -0.01089  -0.01089   2.15159
   A33        1.91464   0.00801   0.00000   0.00066   0.00066   1.91530
   A34        1.82262  -0.00082   0.00000  -0.00079  -0.00079   1.82183
   A35        1.93810   0.00172   0.00000   0.00014   0.00014   1.93824
   A36        1.97225  -0.00071   0.00000   0.00058   0.00058   1.97283
   A37        1.92889  -0.00049   0.00000   0.00074   0.00074   1.92963
   A38        1.90994   0.00328   0.00000  -0.00101  -0.00101   1.90893
   A39        1.89157  -0.00281   0.00000   0.00031   0.00031   1.89189
   A40        1.80583  -0.00056   0.00000  -0.00109  -0.00109   1.80474
   A41        1.96734  -0.00117   0.00000   0.00001   0.00001   1.96735
   A42        1.93300  -0.00047   0.00000   0.00061   0.00061   1.93361
   A43        1.95950   0.00357   0.00000  -0.00028  -0.00028   1.95922
   A44        1.91244  -0.00046   0.00000   0.00079   0.00079   1.91323
   A45        1.88529  -0.00088   0.00000  -0.00001  -0.00001   1.88528
   A46        1.81229   0.00240   0.00000   0.00026   0.00026   1.81255
   A47        1.91163   0.00062   0.00000  -0.00129  -0.00129   1.91034
   A48        1.96305  -0.00028   0.00000   0.00073   0.00073   1.96378
   A49        1.92450   0.00020   0.00000   0.00097   0.00098   1.92547
   A50        1.96293  -0.00201   0.00000  -0.00099  -0.00099   1.96194
[...]
   188    C   13  S      Ryd( 4S)     0.00003
   189    C   13  px     Val( 2p)     1.15708
   190    C   13  px     Ryd( 3p)     0.00301
   191    C   13  py     Val( 2p)     0.92593
   192    C   13  py     Ryd( 3p)     0.00286
   193    C   13  pz     Val( 2p)     1.13498
   194    C   13  pz     Ryd( 3p)     0.00231
   195    C   13  dxy    Ryd( 3d)     0.00136
   196    C   13  dxz    Ryd( 3d)     0.00123
   197    C   13  dyz    Ryd( 3d)     0.00083
   198    C   13  dx2y2  Ryd( 3d)     0.00097
   199    C   13  dz2    Ryd( 3d)     0.00077
 
   200    C   14  S      Cor( 1S)     1.99933
   201    C   14  S      Val( 2S)     1.04589
   202    C   14  S      Ryd( 3S)     0.00061
   203    C   14  S      Ryd( 4S)     0.00002
   204    C   14  px     Val( 2p)     1.17100
   205    C   14  px     Ryd( 3p)     0.00337
   206    C   14  py     Val( 2p)     1.13907
   207    C   14  py     Ryd( 3p)     0.00217
   208    C   14  pz     Val( 2p)     1.10002
   209    C   14  pz     Ryd( 3p)     0.00222
   210    C   14  dxy    Ryd( 3d)     0.00104
   211    C   14  dxz    Ryd( 3d)     0.00096
   212    C   14  dyz    Ryd( 3d)     0.00073
   213    C   14  dx2y2  Ryd( 3d)     0.00034
   214    C   14  dz2    Ryd( 3d)     0.00043
 
   215    C   15  S      Cor( 1S)     1.99933
   216    C   15  S      Val( 2S)     1.04766
   217    C   15  S      Ryd( 3S)     0.00052
   218    C   15  S      Ryd( 4S)     0.00002
   219    C   15  px     Val( 2p)     1.14009
   220    C   15  px     Ryd( 3p)     0.00154
   221    C   15  py     Val( 2p)     1.04480
   222    C   15  py     Ryd( 3p)     0.00164
   223    C   15  pz     Val( 2p)     1.22302
   224    C   15  pz     Ryd( 3p)     0.00415
   225    C   15  dxy    Ryd( 3d)     0.00080
   226    C   15  dxz    Ryd( 3d)     0.00086
   227    C   15  dyz    Ryd( 3d)     0.00047
   228    C   15  dx2y2  Ryd( 3d)     0.00051
   229    C   15  dz2    Ryd( 3d)     0.00086
 
   230    C   16  S      Cor( 1S)     1.99934
   231    C   16  S      Val( 2S)     1.02381
   232    C   16  S      Ryd( 3S)     0.00164
   233    C   16  S      Ryd( 4S)     0.00004
   234    C   16  px     Val( 2p)     1.05388
   235    C   16  px     Ryd( 3p)     0.00334
   236    C   16  py     Val( 2p)     1.18805
   237    C   16  py     Ryd( 3p)     0.00410
   238    C   16  pz     Val( 2p)     0.97053
   239    C   16  pz     Ryd( 3p)     0.00244
   240    C   16  dxy    Ryd( 3d)     0.00072
   241    C   16  dxz    Ryd( 3d)     0.00159
   242    C   16  dyz    Ryd( 3d)     0.00049
   243    C   16  dx2y2  Ryd( 3d)     0.00094
   244    C   16  dz2    Ryd( 3d)     0.00143
 
   245    N   17  S      Cor( 1S)     1.99945
   246    N   17  S      Val( 2S)     1.35425
   247    N   17  S      Ryd( 3S)     0.00171
   248    N   17  S      Ryd( 4S)     0.00008
   249    N   17  px     Val( 2p)     1.64436
   250    N   17  px     Ryd( 3p)     0.00338
   251    N   17  py     Val( 2p)     1.36715
   252    N   17  py     Ryd( 3p)     0.00241
   253    N   17  pz     Val( 2p)     1.41401
   254    N   17  pz     Ryd( 3p)     0.00224
   255    N   17  dxy    Ryd( 3d)     0.00060
   256    N   17  dxz    Ryd( 3d)     0.00090
   257    N   17  dyz    Ryd( 3d)     0.00070
   258    N   17  dx2y2  Ryd( 3d)     0.00050
   259    N   17  dz2    Ryd( 3d)     0.00040
 
   260    C   18  S      Cor( 1S)     1.99934
   261    C   18  S      Val( 2S)     1.02894
   262    C   18  S      Ryd( 3S)     0.00171
   263    C   18  S      Ryd( 4S)     0.00004
   264    C   18  px     Val( 2p)     1.20316
   265    C   18  px     Ryd( 3p)     0.00359
   266    C   18  py     Val( 2p)     0.87452
   267    C   18  py     Ryd( 3p)     0.00250
   268    C   18  pz     Val( 2p)     1.13961
   269    C   18  pz     Ryd( 3p)     0.00247
   270    C   18  dxy    Ryd( 3d)     0.00106
   271    C   18  dxz    Ryd( 3d)     0.00121
   272    C   18  dyz    Ryd( 3d)     0.00090
   273    C   18  dx2y2  Ryd( 3d)     0.00118
   274    C   18  dz2    Ryd( 3d)     0.00077
 
   275    C   19  S      Cor( 1S)     1.99933
   276    C   19  S      Val( 2S)     1.04743
   277    C   19  S      Ryd( 3S)     0.00061
   278    C   19  S      Ryd( 4S)     0.00002
   279    C   19  px     Val( 2p)     1.14917
   280    C   19  px     Ryd( 3p)     0.00290
   281    C   19  py     Val( 2p)     1.15373
   282    C   19  py     Ryd( 3p)     0.00281
   283    C   19  pz     Val( 2p)     1.10419
   284    C   19  pz     Ryd( 3p)     0.00243
   285    C   19  dxy    Ryd( 3d)     0.00089
   286    C   19  dxz    Ryd( 3d)     0.00101
   287    C   19  dyz    Ryd( 3d)     0.00070
   288    C   19  dx2y2  Ryd( 3d)     0.00049
   289    C   19  dz2    Ryd( 3d)     0.00041
 
   290    C   20  S      Cor( 1S)     1.99934
   291    C   20  S      Val( 2S)     1.04859
   292    C   20  S      Ryd( 3S)     0.00055
   293    C   20  S      Ryd( 4S)     0.00003
   294    C   20  px     Val( 2p)     1.15740
   295    C   20  px     Ryd( 3p)     0.00151
   296    C   20  py     Val( 2p)     1.02523
   297    C   20  py     Ryd( 3p)     0.00181
   298    C   20  pz     Val( 2p)     1.22643
   299    C   20  pz     Ryd( 3p)     0.00419
   300    C   20  dxy    Ryd( 3d)     0.00070
   301    C   20  dxz    Ryd( 3d)     0.00096
   302    C   20  dyz    Ryd( 3d)     0.00040
   303    C   20  dx2y2  Ryd( 3d)     0.00059
   304    C   20  dz2    Ryd( 3d)     0.00081
 
   305    C   21  S      Cor( 1S)     1.99933
   306    C   21  S      Val( 2S)     1.03595
   307    C   21  S      Ryd( 3S)     0.00174
   308    C   21  S      Ryd( 4S)     0.00004
   309    C   21  px     Val( 2p)     1.03686
   310    C   21  px     Ryd( 3p)     0.00400
   311    C   21  py     Val( 2p)     1.17448
   312    C   21  py     Ryd( 3p)     0.00395
   313    C   21  pz     Val( 2p)     1.00034
   314    C   21  pz     Ryd( 3p)     0.00315
   315    C   21  dxy    Ryd( 3d)     0.00088
   316    C   21  dxz    Ryd( 3d)     0.00156
   317    C   21  dyz    Ryd( 3d)     0.00044
   318    C   21  dx2y2  Ryd( 3d)     0.00080
   319    C   21  dz2    Ryd( 3d)     0.00124
 
   320    H   22  S      Val( 1S)     0.77766
   321    H   22  S      Ryd( 2S)     0.01038
 
   322    H   23  S      Val( 1S)     0.78477
   323    H   23  S      Ryd( 2S)     0.02003
 
   324    H   24  S      Val( 1S)     0.76198
   325    H   24  S      Ryd( 2S)     0.00484
 
   326    H   25  S      Val( 1S)     0.77085
   327    H   25  S      Ryd( 2S)     0.00501
 
   328    H   26  S      Val( 1S)     0.77160
   329    H   26  S      Ryd( 2S)     0.00450
 
   330    H   27  S      Val( 1S)     0.77242
   331    H   27  S      Ryd( 2S)     0.00588
 
   332    H   28  S      Val( 1S)     0.77943
   333    H   28  S      Ryd( 2S)     0.01771
 
   334    H   29  S      Val( 1S)     0.78456
   335    H   29  S      Ryd( 2S)     0.00820
 
   336    H   30  S      Val( 1S)     0.76890
   337    H   30  S      Ryd( 2S)     0.00471
 
   338    H   31  S      Val( 1S)     0.78199
   339    H   31  S      Ryd( 2S)     0.01774
 
   340    H   32  S      Val( 1S)     0.76906
   341    H   32  S      Ryd( 2S)     0.01527
 
   342    H   33  S      Val( 1S)     0.75455
   343    H   33  S      Ryd( 2S)     0.00291
 
   344    H   34  S      Val( 1S)     0.76557
   345    H   34  S      Ryd( 2S)     0.00551
 
   346    H   35  S      Val( 1S)     0.76504
   347    H   35  S      Ryd( 2S)     0.00459
 
   348    H   36  S      Val( 1S)     0.75456
   349    H   36  S      Ryd( 2S)     0.00230
 
   350    H   37  S      Val( 1S)     0.74841
   351    H   37  S      Ryd( 2S)     0.00774
 
   352    H   38  S      Val( 1S)     0.77376
   353    H   38  S      Ryd( 2S)     0.00775
 
   354    H   39  S      Val( 1S)     0.79159
   355    H   39  S      Ryd( 2S)     0.01241
 
   356    H   40  S      Val( 1S)     0.77720
   357    H   40  S      Ryd( 2S)     0.01096
 
   358    H   41  S      Val( 1S)     0.75945
   359    H   41  S      Ryd( 2S)     0.00344
 
   360    H   42  S      Val( 1S)     0.76487
   361    H   42  S      Ryd( 2S)     0.00546
 
   362    H   43  S      Val( 1S)     0.77615
   363    H   43  S      Ryd( 2S)     0.00881
 
   364    H   44  S      Val( 1S)     0.76167
   365    H   44  S      Ryd( 2S)     0.00543
 
   366    H   45  S      Val( 1S)     0.77156
   367    H   45  S      Ryd( 2S)     0.01078
 
   368    H   46  S      Val( 1S)     0.78306
   369    H   46  S      Ryd( 2S)     0.01055
 
   370    H   47  S      Val( 1S)     0.79002
   371    H   47  S      Ryd( 2S)     0.01886
 
   372    H   48  S      Val( 1S)     0.77869
   373    H   48  S      Ryd( 2S)     0.01350
 
   374    H   49  S      Val( 1S)     0.76790
   375    H   49  S      Ryd( 2S)     0.00783
 
   376    H   50  S      Val( 1S)     0.76859
   377    H   50  S      Ryd( 2S)     0.00756
 
   378    H   51  S      Val( 1S)     0.77994
   379    H   51  S      Ryd( 2S)     0.01430
 
   380    H   52  S      Val( 1S)     0.76202
   381    H   52  S      Ryd( 2S)     0.00458
 
   382    H   53  S      Val( 1S)     0.79665
   383    H   53  S      Ryd( 2S)     0.02957
 
   384    H   54  S      Val( 1S)     0.78118
   385    H   54  S      Ryd( 2S)     0.01117

 WARNING:  1 low occupancy (<1.9990e) core orbital  found on  P    1


 Summary of Natural Population Analysis:                  
                                                          
                                       Natural Population 
                Natural  -----------------------------------------------
    Atom  No    Charge         Core      Valence    Rydberg      Total
 -----------------------------------------------------------------------
      P    1    2.31537      9.99766     2.54473    0.14223    12.68463
      N    2   -0.80047      1.99939     5.78770    0.01339     7.80047
      C    3    0.11333      1.99912     3.86943    0.01813     5.88667
      C    4   -0.66973      1.99930     4.66011    0.01032     6.66973
      C    5   -0.66758      1.99936     4.65695    0.01127     6.66758
      C    6   -0.68138      1.99933     4.67142    0.01063     6.68138
      N    7   -0.79175      1.99943     5.77710    0.01523     7.79175
      C    8   -0.26038      1.99934     4.24448    0.01656     6.26038
      C    9   -0.46878      1.99934     4.45735    0.01209     6.46878
      C   10   -0.47142      1.99933     4.46053    0.01155     6.47142
      C   11   -0.25007      1.99934     4.23449    0.01623     6.25007
      N   12   -0.85667      1.99943     5.84424    0.01300     7.85667
      C   13   -0.25616      1.99936     4.24181    0.01499     6.25616
      C   14   -0.46721      1.99933     4.45598    0.01189     6.46721
      C   15   -0.46626      1.99933     4.45555    0.01138     6.46626
      C   16   -0.25234      1.99934     4.23627    0.01673     6.25234
      N   17   -0.79215      1.99945     5.77977    0.01293     7.79215
      C   18   -0.26099      1.99934     4.24623    0.01542     6.26099
      C   19   -0.46612      1.99933     4.45452    0.01227     6.46612
      C   20   -0.46854      1.99934     4.45765    0.01155     6.46854
      C   21   -0.26477      1.99933     4.24763    0.01780     6.26477
      H   22    0.21196      0.00000     0.77766    0.01038     0.78804
      H   23    0.19520      0.00000     0.78477    0.02003     0.80480
      H   24    0.23318      0.00000     0.76198    0.00484     0.76682
      H   25    0.22414      0.00000     0.77085    0.00501     0.77586
      H   26    0.22390      0.00000     0.77160    0.00450     0.77610
      H   27    0.22171      0.00000     0.77242    0.00588     0.77829
      H   28    0.20285      0.00000     0.77943    0.01771     0.79715
      H   29    0.20723      0.00000     0.78456    0.00820     0.79277
      H   30    0.22639      0.00000     0.76890    0.00471     0.77361
      H   31    0.20028      0.00000     0.78199    0.01774     0.79972
      H   32    0.21568      0.00000     0.76906    0.01527     0.78432
      H   33    0.24254      0.00000     0.75455    0.00291     0.75746
      H   34    0.22892      0.00000     0.76557    0.00551     0.77108
      H   35    0.23036      0.00000     0.76504    0.00459     0.76964
      H   36    0.24314      0.00000     0.75456    0.00230     0.75686
      H   37    0.24385      0.00000     0.74841    0.00774     0.75615
      H   38    0.21850      0.00000     0.77376    0.00775     0.78150
      H   39    0.19601      0.00000     0.79159    0.01241     0.80399
      H   40    0.21183      0.00000     0.77720    0.01096     0.78817
      H   41    0.23711      0.00000     0.75945    0.00344     0.76289
      H   42    0.22967      0.00000     0.76487    0.00546     0.77033
      H   43    0.21504      0.00000     0.77615    0.00881     0.78496
      H   44    0.23291      0.00000     0.76167    0.00543     0.76709
      H   45    0.21766      0.00000     0.77156    0.01078     0.78234
      H   46    0.20639      0.00000     0.78306    0.01055     0.79361
      H   47    0.19112      0.00000     0.79002    0.01886     0.80888
      H   48    0.20781      0.00000     0.77869    0.01350     0.79219
      H   49    0.22427      0.00000     0.76790    0.00783     0.77573
      H   50    0.22386      0.00000     0.76859    0.00756     0.77614
      H   51    0.20575      0.00000     0.77994    0.01430     0.79425
      H   52    0.23339      0.00000     0.76202    0.00458     0.76661
      H   53    0.17377      0.00000     0.79665    0.02957     0.82623
      H   54    0.20765      0.00000     0.78118    0.01117     0.79235
 =======================================================================
   * Total *   -0.00000     49.98450   121.27961    0.73589   172.00000

                                 Natural Population      
 --------------------------------------------------------
   Core                      49.98450 ( 99.9690% of  50)
   Valence                  121.27961 ( 99.4095% of 122)
   Natural Minimal Basis    171.26411 ( 99.5722% of 172)
   Natural Rydberg Basis      0.73589 (  0.4278% of 172)
 --------------------------------------------------------

    Atom  No          Natural Electron Configuration
 ----------------------------------------------------------------------------
      P    1      [core]3S( 0.80)3p( 1.74)4S( 0.03)3d( 0.09)4p( 0.02)
      N    2      [core]2S( 1.43)2p( 4.36)3p( 0.01)
      C    3      [core]2S( 0.90)2p( 2.97)3p( 0.01)3d( 0.01)
      C    4      [core]2S( 1.11)2p( 3.55)3p( 0.01)
      C    5      [core]2S( 1.10)2p( 3.55)3p( 0.01)
      C    6      [core]2S( 1.11)2p( 3.56)3p( 0.01)
      N    7      [core]2S( 1.32)2p( 4.46)3p( 0.01)
      C    8      [core]2S( 1.03)2p( 3.21)3p( 0.01)
      C    9      [core]2S( 1.05)2p( 3.41)3p( 0.01)
      C   10      [core]2S( 1.05)2p( 3.41)3p( 0.01)
      C   11      [core]2S( 1.03)2p( 3.21)3p( 0.01)3d( 0.01)
      N   12      [core]2S( 1.33)2p( 4.52)3p( 0.01)
      C   13      [core]2S( 1.02)2p( 3.22)3p( 0.01)3d( 0.01)
      C   14      [core]2S( 1.05)2p( 3.41)3p( 0.01)
      C   15      [core]2S( 1.05)2p( 3.41)3p( 0.01)
      C   16      [core]2S( 1.02)2p( 3.21)3p( 0.01)3d( 0.01)
      N   17      [core]2S( 1.35)2p( 4.43)3p( 0.01)
      C   18      [core]2S( 1.03)2p( 3.22)3p( 0.01)3d( 0.01)
      C   19      [core]2S( 1.05)2p( 3.41)3p( 0.01)
      C   20      [core]2S( 1.05)2p( 3.41)3p( 0.01)
      C   21      [core]2S( 1.04)2p( 3.21)3p( 0.01)
      H   22            1S( 0.78)2S( 0.01)
      H   23            1S( 0.78)2S( 0.02)
      H   24            1S( 0.76)
      H   25            1S( 0.77)2S( 0.01)
      H   26            1S( 0.77)
      H   27            1S( 0.77)2S( 0.01)
      H   28            1S( 0.78)2S( 0.02)
      H   29            1S( 0.78)2S( 0.01)
      H   30            1S( 0.77)
      H   31            1S( 0.78)2S( 0.02)
      H   32            1S( 0.77)2S( 0.02)
      H   33            1S( 0.75)
      H   34            1S( 0.77)2S( 0.01)
      H   35            1S( 0.77)
      H   36            1S( 0.75)
      H   37            1S( 0.75)2S( 0.01)
      H   38            1S( 0.77)2S( 0.01)
      H   39            1S( 0.79)2S( 0.01)
      H   40            1S( 0.78)2S( 0.01)
      H   41            1S( 0.76)
      H   42            1S( 0.76)2S( 0.01)
      H   43            1S( 0.78)2S( 0.01)
      H   44            1S( 0.76)2S( 0.01)
      H   45            1S( 0.77)2S( 0.01)
      H   46            1S( 0.78)2S( 0.01)
      H   47            1S( 0.79)2S( 0.02)
      H   48            1S( 0.78)2S( 0.01)
      H   49            1S( 0.77)2S( 0.01)
      H   50            1S( 0.77)2S( 0.01)
      H   51            1S( 0.78)2S( 0.01)
      H   52            1S( 0.76)
      H   53            1S( 0.80)2S( 0.03)
      H   54            1S( 0.78)2S( 0.01)


 NBO analysis skipped by request.
 1\1\GINC-DELLA-R1C4N9\SP\RB3LYP TD-FC\6-31G(d)\C16H33N4P1\BJS4\24-Aug-
 2020\0\\# TD(NStates=10, Root=1) B3LYP/6-31G* scf=qc volume pop=NPA de
 nsity=current Geom=AllCheck Guess=Read\\Title Card Required\\0,1\P,0,1
 .0206285547,0.7403562275,0.2765350165\N,0,0.8084438376,1.3444794332,1.
 6881911996\C,0,0.9115475635,0.9045780381,3.0679841812\C,0,2.3823700268
 ,0.6368281207,3.4600683839\C,0,0.3794467505,2.0622096986,3.9405493906\
 C,0,0.0727772693,-0.3580356972,3.3678407063\N,0,1.0673031157,2.0634557
 025,-0.7654717228\C,0,0.96213421,1.949430836,-2.2255045624\C,0,1.16634
 3243,3.3901191545,-2.7229140648\C,0,0.5972769318,4.2345759649,-1.57271
 22081\C,0,1.0530167444,3.46969204,-0.3216975241\N,0,-0.1816034296,-0.3
 418405463,-0.2469752997\C,0,-1.5927424947,0.0059138281,0.0415026311\C,
 0,-2.4065727885,-0.982614584,-0.8061612995\C,0,-1.509526735,-1.2097265
 633,-2.0306442687\C,0,-0.1052997063,-1.25191466,-1.4119398286\N,0,2.40
 89734699,-0.133202916,-0.2007750523\C,0,3.6876821915,0.5987341849,-0.3
 368377854\C,0,4.7353139824,-0.5159331415,-0.4412035037\C,0,4.176815752
 ,-1.5914134792,0.5008402191\C,0,2.6609197671,-1.5237069047,0.247444976
 \H,0,2.9975330752,1.5140163299,3.2314979351\H,0,2.786669491,-0.2173809
 098,2.9050483984\H,0,2.4790715439,0.4160786745,4.5311267111\H,0,0.9705
 487077,2.9678194515,3.7662264009\H,0,0.4254033342,1.8151267122,5.00882
 4116\H,0,-0.6607495803,2.2844533067,3.6783491686\H,0,0.3886827097,-1.2
 018686956,2.7431443856\H,0,-0.98817133,-0.1704487849,3.1701826116\H,0,
 0.1703364557,-0.6589800513,4.4189107502\H,0,-0.0271651452,1.5722975842
 ,-2.5305084846\H,0,1.7132142967,1.2594183321,-2.6320266946\H,0,0.67939
 7041,3.572770186,-3.6863669572\H,0,2.2373294942,3.5954595891,-2.844230
 2048\H,0,-0.4987400388,4.2500051216,-1.625753688\H,0,0.9484641743,5.27
 15091648,-1.582175253\H,0,0.3901419283,3.5957493725,0.5359203668\H,0,2
 .0579317155,3.7944462034,-0.0109552448\H,0,-1.8109427049,1.0432594045,
 -0.2547599209\H,0,-1.8087404222,-0.0803429798,1.1090645336\H,0,-3.3997
 286798,-0.5961327248,-1.0563111662\H,0,-2.5413134022,-1.9249398807,-0.
 2606500671\H,0,-1.5943604055,-0.3619133782,-2.7223758414\H,0,-1.750709
 7722,-2.1220548301,-2.586332723\H,0,0.680624249,-0.9500380792,-2.10920
 30597\H,0,0.126528875,-2.2748988551,-1.0802251494\H,0,3.8899745471,1.2
 341177138,0.5388489838\H,0,3.670756318,1.2465925379,-1.2190300355\H,0,
 5.7377817625,-0.1736195721,-0.1650163929\H,0,4.7790372645,-0.896581811
 ,-1.4692844558\H,0,4.3994694346,-1.3257896076,1.5411864566\H,0,4.58593
 1624,-2.5899606097,0.3159068847\H,0,2.0813359218,-1.7786610939,1.14195
 20084\H,0,2.3703892613,-2.2323025575,-0.5398639565\\Version=ES64L-G16R
 evA.03\State=1-A\HF=-1189.9309632\RMSD=2.086e-09\Dipole=-0.1995983,0.5
 994431,-0.8075086\Quadrupole=-0.5285292,1.2706587,-0.7421294,0.6994464
 ,0.6276558,-1.3647159\PG=C01 [X(C16H33N4P1)]\\@


 ERROR IS A HARDY PLANT... IT FLOURISHETH IN EVERY SOIL.
            MARTIN FARQUHAR TUPPER
 Job cpu time:       0 days  2 hours  7 minutes 25.2 seconds.
 Elapsed time:       0 days  0 hours 18 minutes 12.9 seconds.
 File lengths (MBytes):  RWF=   1207 Int=      0 D2E=      0 Chk=    268 Scr=      1
 Normal termination of Gaussian 16 at Mon Aug 24 17:01:58 2020.
