 Entering Gaussian System, Link 0=g16
 Input=base_4_conf6123.com
 Output=base_4_conf6123.log
 Initial command:
 /opt/export//g16/l1.exe "/scratch/bjs4/job.1032/Gau-1036.inp" -scrdir="/scratch/bjs4/job.1032/"
 Entering Link 1 = /opt/export//g16/l1.exe PID=      1038.
  
 Copyright (c) 1988,1990,1992,1993,1995,1998,2003,2009,2016,
            Gaussian, Inc.  All Rights Reserved.
  
 This is part of the Gaussian(R) 16 program.  It is based on
 the Gaussian(R) 09 system (copyright 2009, Gaussian, Inc.),
 the Gaussian(R) 03 system (copyright 2003, Gaussian, Inc.),
 the Gaussian(R) 98 system (copyright 1998, Gaussian, Inc.),
 the Gaussian(R) 94 system (copyright 1995, Gaussian, Inc.),
 the Gaussian 92(TM) system (copyright 1992, Gaussian, Inc.),
 the Gaussian 90(TM) system (copyright 1990, Gaussian, Inc.),
 the Gaussian 88(TM) system (copyright 1988, Gaussian, Inc.),
 the Gaussian 86(TM) system (copyright 1986, Carnegie Mellon
 University), and the Gaussian 82(TM) system (copyright 1983,
 Carnegie Mellon University). Gaussian is a federally registered
 trademark of Gaussian, Inc.
  
 This software contains proprietary and confidential information,
 including trade secrets, belonging to Gaussian, Inc.
  
 This software is provided under written license and may be
 used, copied, transmitted, or stored only in accord with that
 written license.
  
 The following legend is applicable only to US Government
 contracts under FAR:
  
                    RESTRICTED RIGHTS LEGEND
  
 Use, reproduction and disclosure by the US Government is
 subject to restrictions as set forth in subparagraphs (a)
 and (c) of the Commercial Computer Software - Restricted
 Rights clause in FAR 52.227-19.
  
 Gaussian, Inc.
 340 Quinnipiac St., Bldg. 40, Wallingford CT 06492
  
  
 ---------------------------------------------------------------
 Warning -- This program may not be used in any manner that
 competes with the business of Gaussian, Inc. or will provide
 assistance to any competitor of Gaussian, Inc.  The licensee
 of this program is prohibited from giving any competitor of
 Gaussian, Inc. access to this program.  By using this program,
 the user acknowledges that Gaussian, Inc. is engaged in the
 business of creating and licensing software in the field of
 computational chemistry and represents and warrants to the
 licensee that it is not a competitor of Gaussian, Inc. and that
 it will not use this program in any manner prohibited above.
 ---------------------------------------------------------------
  

 Cite this work as:
 Gaussian 16, Revision A.03,
 M. J. Frisch, G. W. Trucks, H. B. Schlegel, G. E. Scuseria, 
 M. A. Robb, J. R. Cheeseman, G. Scalmani, V. Barone, 
 G. A. Petersson, H. Nakatsuji, X. Li, M. Caricato, A. V. Marenich, 
 J. Bloino, B. G. Janesko, R. Gomperts, B. Mennucci, H. P. Hratchian, 
 J. V. Ortiz, A. F. Izmaylov, J. L. Sonnenberg, D. Williams-Young, 
 F. Ding, F. Lipparini, F. Egidi, J. Goings, B. Peng, A. Petrone, 
 T. Henderson, D. Ranasinghe, V. G. Zakrzewski, J. Gao, N. Rega, 
 G. Zheng, W. Liang, M. Hada, M. Ehara, K. Toyota, R. Fukuda, 
 J. Hasegawa, M. Ishida, T. Nakajima, Y. Honda, O. Kitao, H. Nakai, 
 T. Vreven, K. Throssell, J. A. Montgomery, Jr., J. E. Peralta, 
 F. Ogliaro, M. J. Bearpark, J. J. Heyd, E. N. Brothers, K. N. Kudin, 
 V. N. Staroverov, T. A. Keith, R. Kobayashi, J. Normand, 
 K. Raghavachari, A. P. Rendell, J. C. Burant, S. S. Iyengar, 
 J. Tomasi, M. Cossi, J. M. Millam, M. Klene, C. Adamo, R. Cammi, 
 J. W. Ochterski, R. L. Martin, K. Morokuma, O. Farkas, 
 J. B. Foresman, and D. J. Fox, Gaussian, Inc., Wallingford CT, 2016.
 
 ******************************************
 Gaussian 16:  ES64L-G16RevA.03 25-Dec-2016
                24-Aug-2020 
 ******************************************
 %nprocshared=3
 Will use up to    3 processors via shared memory.
 %Mem=6GB
 %Chk=base_4_conf61.chk
 ---------------------------------
 # opt=CalcAll B3LYP/6-31G* scf=qc
 ---------------------------------
 1/10=4,18=20,19=15,26=3,38=1/1,3;
 2/9=110,12=2,17=6,18=5,40=1/2;
 3/5=1,6=6,7=1,11=2,25=1,30=1,71=2,74=-5,140=1/1,2,3;
 4//1;
 5/5=2,8=3,38=5/8;
 8/6=4,10=90,11=11/1;
 11/6=1,8=1,9=11,15=111,16=1/1,2,10;
 10/6=1/2;
 6/7=2,8=2,9=2,10=2,18=1,28=1/1;
 7/10=1,25=1/1,2,3,16;
 1/10=4,18=20,19=15,26=3/3(3);
 2/9=110/2;
 7/8=1,9=1,25=1,44=-1/16;
 99//99;
 2/9=110/2;
 3/5=1,6=6,7=1,11=2,25=1,30=1,71=2,74=-5,140=1/1,2,3;
 4/5=5,16=3,69=1/1;
 5/5=2,8=3,38=5/8;
 8/6=4,10=90,11=11/1;
 11/6=1,8=1,9=11,15=111,16=1/1,2,10;
 10/6=1/2;
 7/10=1,25=1/1,2,3,16;
 1/10=4,18=20,19=15,26=3/3(-8);
 2/9=110/2;
 6/7=2,8=2,9=2,10=2,18=1,19=2,28=1/1;
 7/8=1,9=1,25=1,44=-1/16;
 99//99;
 -------------------
 Title Card Required
 -------------------
 Symbolic Z-matrix:
 Charge =  0 Multiplicity = 1
 C                     2.918    -1.01139   1.0436 
 C                     2.5217    0.0373    0.0088 
 N1                    2.953     1.4118    0.3252 
 C                     2.4005    1.9412    1.5807 
 C                     2.80132   3.36575   1.94774 
 C                     4.4213    1.4981    0.2306 
 C                     4.99746   2.87277   0.55323 
 H                     2.39542  -1.95184   0.83879 
 H                     2.65035  -0.69324   2.05611 
 H                     3.99144  -1.22382   1.01359 
 H                     1.42555   0.02505  -0.04781 
 H                     2.88922  -0.27575  -0.97602 
 H                     2.66431   1.2748    2.41083 
 H                     1.30586   1.88195   1.54709 
 H                     3.88652   3.49944   1.94964 
 H                     2.4394    3.60301   2.95365 
 H                     2.36203   4.09471   1.25997 
 H                     4.71863   1.26584  -0.80068 
 H                     4.90215   0.74655   0.86972 
 H                     4.51659   3.65247  -0.04502 
 H                     6.06844   2.88768   0.32593 
 H                     4.88646   3.12439   1.61218 
 

 GradGradGradGradGradGradGradGradGradGradGradGradGradGradGradGradGradGrad
 Berny optimization.
 Initialization pass.
                           ----------------------------
                           !    Initial Parameters    !
                           ! (Angstroms and Degrees)  !
 --------------------------                            --------------------------
 ! Name  Definition              Value          Derivative Info.                !
 --------------------------------------------------------------------------------
 ! R1    R(1,2)                  1.5257         calculate D2E/DX2 analytically  !
 ! R2    R(1,8)                  1.0952         calculate D2E/DX2 analytically  !
 ! R3    R(1,9)                  1.0945         calculate D2E/DX2 analytically  !
 ! R4    R(1,10)                 1.0947         calculate D2E/DX2 analytically  !
 ! R5    R(2,3)                  1.4749         calculate D2E/DX2 analytically  !
 ! R6    R(2,11)                 1.0977         calculate D2E/DX2 analytically  !
 ! R7    R(2,12)                 1.0968         calculate D2E/DX2 analytically  !
 ! R8    R(3,4)                  1.4703         calculate D2E/DX2 analytically  !
 ! R9    R(3,6)                  1.4739         calculate D2E/DX2 analytically  !
 ! R10   R(4,5)                  1.5247         calculate D2E/DX2 analytically  !
 ! R11   R(4,13)                 1.0967         calculate D2E/DX2 analytically  !
 ! R12   R(4,14)                 1.0968         calculate D2E/DX2 analytically  !
 ! R13   R(5,15)                 1.0934         calculate D2E/DX2 analytically  !
 ! R14   R(5,16)                 1.095          calculate D2E/DX2 analytically  !
 ! R15   R(5,17)                 1.0943         calculate D2E/DX2 analytically  !
 ! R16   R(6,7)                  1.525          calculate D2E/DX2 analytically  !
 ! R17   R(6,18)                 1.0981         calculate D2E/DX2 analytically  !
 ! R18   R(6,19)                 1.0975         calculate D2E/DX2 analytically  !
 ! R19   R(7,20)                 1.0941         calculate D2E/DX2 analytically  !
 ! R20   R(7,21)                 1.0949         calculate D2E/DX2 analytically  !
 ! R21   R(7,22)                 1.0941         calculate D2E/DX2 analytically  !
 ! A1    A(2,1,8)              109.8439         calculate D2E/DX2 analytically  !
 ! A2    A(2,1,9)              111.3531         calculate D2E/DX2 analytically  !
 ! A3    A(2,1,10)             111.6858         calculate D2E/DX2 analytically  !
 ! A4    A(8,1,9)              107.8127         calculate D2E/DX2 analytically  !
 ! A5    A(8,1,10)             107.2255         calculate D2E/DX2 analytically  !
 ! A6    A(9,1,10)             108.757          calculate D2E/DX2 analytically  !
 ! A7    A(1,2,3)              114.7785         calculate D2E/DX2 analytically  !
 ! A8    A(1,2,11)             106.6608         calculate D2E/DX2 analytically  !
 ! A9    A(1,2,12)             109.0135         calculate D2E/DX2 analytically  !
 ! A10   A(3,2,11)             108.269          calculate D2E/DX2 analytically  !
 ! A11   A(3,2,12)             111.1386         calculate D2E/DX2 analytically  !
 ! A12   A(11,2,12)            106.5665         calculate D2E/DX2 analytically  !
 ! A13   A(2,3,4)              114.1321         calculate D2E/DX2 analytically  !
 ! A14   A(2,3,6)              109.3972         calculate D2E/DX2 analytically  !
 ! A15   A(4,3,6)              114.084          calculate D2E/DX2 analytically  !
 ! A16   A(3,4,5)              116.3073         calculate D2E/DX2 analytically  !
 ! A17   A(3,4,13)             109.7041         calculate D2E/DX2 analytically  !
 ! A18   A(3,4,14)             109.234          calculate D2E/DX2 analytically  !
 ! A19   A(5,4,13)             108.8001         calculate D2E/DX2 analytically  !
 ! A20   A(5,4,14)             108.6767         calculate D2E/DX2 analytically  !
 ! A21   A(13,4,14)            103.3235         calculate D2E/DX2 analytically  !
 ! A22   A(4,5,15)             112.0594         calculate D2E/DX2 analytically  !
 ! A23   A(4,5,16)             109.6749         calculate D2E/DX2 analytically  !
 ! A24   A(4,5,17)             111.4428         calculate D2E/DX2 analytically  !
 ! A25   A(15,5,16)            107.4538         calculate D2E/DX2 analytically  !
 ! A26   A(15,5,17)            108.5468         calculate D2E/DX2 analytically  !
 ! A27   A(16,5,17)            107.4785         calculate D2E/DX2 analytically  !
 ! A28   A(3,6,7)              114.5553         calculate D2E/DX2 analytically  !
 ! A29   A(3,6,18)             108.5196         calculate D2E/DX2 analytically  !
 ! A30   A(3,6,19)             111.0388         calculate D2E/DX2 analytically  !
 ! A31   A(7,6,18)             106.6804         calculate D2E/DX2 analytically  !
 ! A32   A(7,6,19)             109.18           calculate D2E/DX2 analytically  !
 ! A33   A(18,6,19)            106.4648         calculate D2E/DX2 analytically  !
 ! A34   A(6,7,20)             111.1398         calculate D2E/DX2 analytically  !
 ! A35   A(6,7,21)             109.7484         calculate D2E/DX2 analytically  !
 ! A36   A(6,7,22)             111.9463         calculate D2E/DX2 analytically  !
 ! A37   A(20,7,21)            107.8592         calculate D2E/DX2 analytically  !
 ! A38   A(20,7,22)            108.7084         calculate D2E/DX2 analytically  !
 ! A39   A(21,7,22)            107.2793         calculate D2E/DX2 analytically  !
 ! D1    D(8,1,2,3)            168.7482         calculate D2E/DX2 analytically  !
 ! D2    D(8,1,2,11)            48.8447         calculate D2E/DX2 analytically  !
 ! D3    D(8,1,2,12)           -65.8588         calculate D2E/DX2 analytically  !
 ! D4    D(9,1,2,3)             49.3894         calculate D2E/DX2 analytically  !
 ! D5    D(9,1,2,11)           -70.5142         calculate D2E/DX2 analytically  !
 ! D6    D(9,1,2,12)           174.7823         calculate D2E/DX2 analytically  !
 ! D7    D(10,1,2,3)           -72.4149         calculate D2E/DX2 analytically  !
 ! D8    D(10,1,2,11)          167.6816         calculate D2E/DX2 analytically  !
 ! D9    D(10,1,2,12)           52.9781         calculate D2E/DX2 analytically  !
 ! D10   D(1,2,3,4)            -60.706          calculate D2E/DX2 analytically  !
 ! D11   D(1,2,3,6)             68.4773         calculate D2E/DX2 analytically  !
 ! D12   D(11,2,3,4)            58.3016         calculate D2E/DX2 analytically  !
 ! D13   D(11,2,3,6)          -172.5151         calculate D2E/DX2 analytically  !
 ! D14   D(12,2,3,4)           175.0172         calculate D2E/DX2 analytically  !
 ! D15   D(12,2,3,6)           -55.7995         calculate D2E/DX2 analytically  !
 ! D16   D(2,3,4,5)           -179.2941         calculate D2E/DX2 analytically  !
 ! D17   D(2,3,4,13)            56.7249         calculate D2E/DX2 analytically  !
 ! D18   D(2,3,4,14)           -55.8696         calculate D2E/DX2 analytically  !
 ! D19   D(6,3,4,5)             53.917          calculate D2E/DX2 analytically  !
 ! D20   D(6,3,4,13)           -70.064          calculate D2E/DX2 analytically  !
 ! D21   D(6,3,4,14)           177.3415         calculate D2E/DX2 analytically  !
 ! D22   D(2,3,6,7)           -179.294          calculate D2E/DX2 analytically  !
 ! D23   D(2,3,6,18)            61.6375         calculate D2E/DX2 analytically  !
 ! D24   D(2,3,6,19)           -55.0484         calculate D2E/DX2 analytically  !
 ! D25   D(4,3,6,7)            -50.0843         calculate D2E/DX2 analytically  !
 ! D26   D(4,3,6,18)          -169.1528         calculate D2E/DX2 analytically  !
 ! D27   D(4,3,6,19)            74.1613         calculate D2E/DX2 analytically  !
 ! D28   D(3,4,5,15)           -53.5252         calculate D2E/DX2 analytically  !
 ! D29   D(3,4,5,16)          -172.773          calculate D2E/DX2 analytically  !
 ! D30   D(3,4,5,17)            68.3374         calculate D2E/DX2 analytically  !
 ! D31   D(13,4,5,15)           70.9201         calculate D2E/DX2 analytically  !
 ! D32   D(13,4,5,16)          -48.3277         calculate D2E/DX2 analytically  !
 ! D33   D(13,4,5,17)         -167.2172         calculate D2E/DX2 analytically  !
 ! D34   D(14,4,5,15)         -177.2381         calculate D2E/DX2 analytically  !
 ! D35   D(14,4,5,16)           63.5141         calculate D2E/DX2 analytically  !
 ! D36   D(14,4,5,17)          -55.3755         calculate D2E/DX2 analytically  !
 ! D37   D(3,6,7,20)           -52.9706         calculate D2E/DX2 analytically  !
 ! D38   D(3,6,7,21)          -172.1909         calculate D2E/DX2 analytically  !
 ! D39   D(3,6,7,22)            68.803          calculate D2E/DX2 analytically  !
 ! D40   D(18,6,7,20)           67.1257         calculate D2E/DX2 analytically  !
 ! D41   D(18,6,7,21)          -52.0945         calculate D2E/DX2 analytically  !
 ! D42   D(18,6,7,22)         -171.1007         calculate D2E/DX2 analytically  !
 ! D43   D(19,6,7,20)         -178.1978         calculate D2E/DX2 analytically  !
 ! D44   D(19,6,7,21)           62.5819         calculate D2E/DX2 analytically  !
 ! D45   D(19,6,7,22)          -56.4242         calculate D2E/DX2 analytically  !
 --------------------------------------------------------------------------------
 Trust Radius=3.00D-01 FncErr=1.00D-07 GrdErr=1.00D-06 EigMax=2.50D+02 EigMin=1.00D-04
 Number of steps in this run=    115 maximum allowed number of steps=    132.
 GradGradGradGradGradGradGradGradGradGradGradGradGradGradGradGradGradGrad

                          Input orientation:                          
 ---------------------------------------------------------------------
 Center     Atomic      Atomic             Coordinates (Angstroms)
 Number     Number       Type             X           Y           Z
 ---------------------------------------------------------------------
      1          6           0        2.918000   -1.011390    1.043600
      2          6           0        2.521700    0.037300    0.008800
      3          7           0        2.953000    1.411800    0.325200
      4          6           0        2.400500    1.941200    1.580700
      5          6           0        2.801320    3.365750    1.947740
      6          6           0        4.421300    1.498100    0.230600
      7          6           0        4.997460    2.872770    0.553230
      8          1           0        2.395420   -1.951840    0.838790
      9          1           0        2.650350   -0.693240    2.056110
     10          1           0        3.991440   -1.223820    1.013590
     11          1           0        1.425550    0.025050   -0.047810
     12          1           0        2.889220   -0.275750   -0.976020
     13          1           0        2.664310    1.274800    2.410830
     14          1           0        1.305860    1.881950    1.547090
     15          1           0        3.886520    3.499440    1.949640
     16          1           0        2.439400    3.603010    2.953650
     17          1           0        2.362030    4.094710    1.259970
     18          1           0        4.718630    1.265840   -0.800680
     19          1           0        4.902150    0.746550    0.869720
     20          1           0        4.516590    3.652470   -0.045020
     21          1           0        6.068440    2.887680    0.325930
     22          1           0        4.886460    3.124390    1.612180
 ---------------------------------------------------------------------
                    Distance matrix (angstroms):
                    1          2          3          4          5
     1  C    0.000000
     2  C    1.525652   0.000000
     3  N    2.527681   1.474917   0.000000
     4  C    3.045336   2.471921   1.470306   0.000000
     5  C    4.471067   3.862157   2.544320   1.524703   0.000000
     6  C    3.036185   2.406577   1.473873   2.470372   3.010153
     7  C    4.432980   3.803378   2.523142   2.944099   2.647776
     8  H    1.095209   2.159053   3.448006   3.963107   5.447136
     9  H    1.094547   2.177549   2.742050   2.688627   4.063242
    10  H    1.094669   2.181780   2.915258   3.587486   4.832512
    11  H    2.119620   1.097679   2.096501   2.697073   4.127377
    12  H    2.149618   1.096787   2.131916   3.419142   4.670827
    13  H    2.675881   2.705826   2.109968   1.096723   2.145995
    14  H    3.350211   2.692088   2.104074   1.096757   2.144431
    15  H    4.701758   4.197143   2.805086   2.184602   1.093406
    16  H    5.016975   4.625279   3.460338   2.155949   1.095049
    17  H    5.140834   4.248941   2.901904   2.177603   1.094251
    18  H    3.439391   2.644063   2.099133   3.391284   3.954682
    19  H    2.656584   2.628833   2.130316   2.861981   3.526446
    20  H    5.048977   4.129399   2.757259   3.170055   2.644892
    21  H    5.063899   4.561206   3.447345   3.990496   3.678708
    22  H    4.615495   4.206310   2.885749   2.753348   2.125715
                    6          7          8          9         10
     6  C    0.000000
     7  C    1.525047   0.000000
     8  H    4.046748   5.488991   0.000000
     9  H    3.357190   4.525925   1.769444   0.000000
    10  H    2.864734   4.243354   1.762909   1.779575   0.000000
    11  H    3.349911   4.607526   2.373774   2.538219   3.044674
    12  H    2.636237   4.086130   2.519256   3.070044   2.464198
    13  H    2.808964   3.383456   3.599280   1.999801   3.155417
    14  H    3.403888   3.949353   4.048058   2.949298   4.140383
    15  H    2.691923   1.891260   5.759672   4.372416   4.816262
    16  H    3.971596   3.583146   5.943982   4.394069   5.428715
    17  H    3.470242   2.989667   6.061293   4.862246   5.567984
    18  H    1.098129   2.119680   4.294023   4.034480   3.165247
    19  H    1.097506   2.151758   3.683200   2.924230   2.175419
    20  H    2.174019   1.094107   6.057126   5.175210   5.017434
    21  H    2.157102   1.094936   6.097135   5.244030   4.657385
    22  H    2.184023   1.094079   5.707147   4.446522   4.479542
                   11         12         13         14         15
    11  H    0.000000
    12  H    1.759086   0.000000
    13  H    3.023460   3.731694   0.000000
    14  H    2.450736   3.678149   1.720484   0.000000
    15  H    4.702932   4.879155   2.579829   3.072153   0.000000
    16  H    4.778959   5.539804   2.401208   2.495069   1.764347
    17  H    4.376005   4.937459   3.060677   2.468651   1.775968
    18  H    3.598715   2.398747   3.812362   4.187913   3.639455
    19  H    3.667311   2.916117   2.768031   3.831614   3.126681
    20  H    4.765786   4.352701   3.887860   3.997292   2.097397
    21  H    5.467244   4.670097   4.305379   5.018455   2.787734
    22  H    4.933495   4.716853   2.999463   3.790592   1.120010
                   16         17         18         19         20
    16  H    0.000000
    17  H    1.765306   0.000000
    18  H    4.975163   4.219283   0.000000
    19  H    4.308975   4.220744   1.758857   0.000000
    20  H    3.648176   2.557480   2.511542   3.070794   0.000000
    21  H    4.537239   4.008345   2.391987   2.498075   1.769391
    22  H    2.831382   2.727328   3.050290   2.491107   1.778197
                   21         22
    21  H    0.000000
    22  H    1.762824   0.000000
 Stoichiometry    C6H15N
 Framework group  C1[X(C6H15N)]
 Deg. of freedom    60
 Full point group                 C1      NOp   1
 Largest Abelian subgroup         C1      NOp   1
 Largest concise Abelian subgroup C1      NOp   1
                         Standard orientation:                         
 ---------------------------------------------------------------------
 Center     Atomic      Atomic             Coordinates (Angstroms)
 Number     Number       Type             X           Y           Z
 ---------------------------------------------------------------------
      1          6           0        2.403074   -0.053544    0.682691
      2          6           0        1.697599    0.014191   -0.668357
      3          7           0        0.224525   -0.008925   -0.598365
      4          6           0       -0.328987   -1.223429    0.018403
      5          6           0       -1.849172   -1.306717    0.100975
      6          6           0       -0.256511    1.245853    0.006976
      7          6           0       -1.771762    1.339436    0.151974
      8          1           0        3.473365   -0.232570    0.534668
      9          1           0        2.009113   -0.868862    1.297576
     10          1           0        2.305087    0.884904    1.237680
     11          1           0        2.028692   -0.862087   -1.240558
     12          1           0        2.053867    0.896613   -1.213651
     13          1           0        0.087094   -1.349385    1.025286
     14          1           0        0.042227   -2.103636   -0.520404
     15          1           0       -2.282726   -0.428669    0.587389
     16          1           0       -2.138965   -2.184244    0.688428
     17          1           0       -2.298490   -1.412389   -0.891160
     18          1           0        0.051069    2.082725   -0.634061
     19          1           0        0.210516    1.415608    0.985541
     20          1           0       -2.272200    1.143367   -0.801016
     21          1           0       -2.050809    2.347195    0.476689
     22          1           0       -2.154957    0.639165    0.900165
 ---------------------------------------------------------------------
 Rotational constants (GHZ):           3.6704134           1.8469634           1.4296561
 Standard basis: 6-31G(d) (6D, 7F)
 There are   135 symmetry adapted cartesian basis functions of A   symmetry.
 There are   135 symmetry adapted basis functions of A   symmetry.
   135 basis functions,   256 primitive gaussians,   135 cartesian basis functions
    29 alpha electrons       29 beta electrons
       nuclear repulsion energy       343.2011825495 Hartrees.
 NAtoms=   22 NActive=   22 NUniq=   22 SFac= 1.00D+00 NAtFMM=   60 NAOKFM=F Big=F
 Integral buffers will be    131072 words long.
 Raffenetti 2 integral format.
 Two-electron integral symmetry is turned on.
 One-electron integrals computed using PRISM.
 NBasis=   135 RedAO= T EigKep=  4.10D-03  NBF=   135
 NBsUse=   135 1.00D-06 EigRej= -1.00D+00 NBFU=   135
 ExpMin= 1.61D-01 ExpMax= 4.17D+03 ExpMxC= 6.27D+02 IAcc=3 IRadAn=         5 AccDes= 0.00D+00
 Harris functional with IExCor=  402 and IRadAn=       5 diagonalized for initial guess.
 HarFok:  IExCor=  402 AccDes= 0.00D+00 IRadAn=         5 IDoV= 1 UseB2=F ITyADJ=14
 ICtDFT=  3500011 ScaDFX=  1.000000  1.000000  1.000000  1.000000
 FoFCou: FMM=F IPFlag=           0 FMFlag=      100000 FMFlg1=           0
         NFxFlg=           0 DoJE=T BraDBF=F KetDBF=T FulRan=T
         wScrn=  0.000000 ICntrl=       500 IOpCl=  0 I1Cent=   200000004 NGrid=           0
         NMat0=    1 NMatS0=      1 NMatT0=    0 NMatD0=    1 NMtDS0=    0 NMtDT0=    0
 Petite list used in FoFCou.
 Keep R1 ints in memory in canonical form, NReq=45019892.
 Gradient too large for Newton-Raphson -- use scaled steepest descent instead.
     Accept linear search using points  2 and  3.
 Gradient too large for Newton-Raphson -- use scaled steepest descent instead.
     Minimum is close to point  3 DX=  6.17D-02 DF= -9.20D-05 DXR=  8.10D-02 DFR=  6.64D-03 which will be used.
 Gradient too large for Newton-Raphson -- use scaled steepest descent instead.
 Gradient too large for Newton-Raphson -- use scaled steepest descent instead.
     Accept linear search using points  1 and  2.
 LinEq1:  Iter=  0 NonCon=     1 RMS=5.44D-05 Max=4.31D-04 NDo=     1
 AX will form     1 AO Fock derivatives at one time.
 LinEq1:  Iter=  1 NonCon=     1 RMS=2.28D-05 Max=1.88D-04 NDo=     1
 LinEq1:  Iter=  2 NonCon=     1 RMS=5.62D-06 Max=5.83D-05 NDo=     1
 LinEq1:  Iter=  3 NonCon=     1 RMS=2.38D-06 Max=1.93D-05 NDo=     1
 LinEq1:  Iter=  4 NonCon=     1 RMS=7.43D-07 Max=7.16D-06 NDo=     1
 LinEq1:  Iter=  5 NonCon=     1 RMS=4.28D-07 Max=5.12D-06 NDo=     1
 LinEq1:  Iter=  6 NonCon=     1 RMS=1.83D-07 Max=3.10D-06 NDo=     1
 LinEq1:  Iter=  7 NonCon=     1 RMS=6.91D-08 Max=5.91D-07 NDo=     1
 LinEq1:  Iter=  8 NonCon=     1 RMS=2.68D-08 Max=3.17D-07 NDo=     1
 LinEq1:  Iter=  9 NonCon=     1 RMS=1.03D-08 Max=1.23D-07 NDo=     1
 LinEq1:  Iter= 10 NonCon=     0 RMS=2.37D-09 Max=2.27D-08 NDo=     1
 Linear equations converged to 7.841D-09 7.841D-08 after    10 iterations.
     Minimum is close to point  2 DX=  8.97D-05 DF= -2.27D-13 DXR=  8.97D-05 DFR=  9.53D-09 which will be used.
 LinEq1:  Iter=  0 NonCon=     1 RMS=3.39D-08 Max=3.14D-07 NDo=     1
 LinEq1:  Iter=  1 NonCon=     1 RMS=1.35D-08 Max=1.31D-07 NDo=     1
 LinEq1:  Iter=  2 NonCon=     1 RMS=6.68D-09 Max=6.78D-08 NDo=     1
 LinEq1:  Iter=  3 NonCon=     1 RMS=1.96D-09 Max=1.91D-08 NDo=     1
 LinEq1:  Iter=  4 NonCon=     1 RMS=7.53D-10 Max=5.74D-09 NDo=     1
 LinEq1:  Iter=  5 NonCon=     1 RMS=3.36D-10 Max=4.04D-09 NDo=     1
 LinEq1:  Iter=  6 NonCon=     1 RMS=1.01D-10 Max=9.20D-10 NDo=     1
 LinEq1:  Iter=  7 NonCon=     1 RMS=4.43D-11 Max=5.15D-10 NDo=     1
 LinEq1:  Iter=  8 NonCon=     1 RMS=1.92D-11 Max=2.55D-10 NDo=     1
 LinEq1:  Iter=  9 NonCon=     0 RMS=4.68D-12 Max=5.80D-11 NDo=     1
 Linear equations converged to 1.969D-11 1.969D-10 after     9 iterations.
 SCF Done:  E(RB3LYP) =  -292.361168124     a.u. after    7 cycles
            Convg  =    0.1715D-10                    34 Fock formations.
              S**2 =  0.0000                  -V/T =  2.0091
 DoSCS=F DFT=T ScalE2(SS,OS)=  1.000000  1.000000
 Range of M.O.s used for correlation:     1   135
 NBasis=   135 NAE=    29 NBE=    29 NFC=     0 NFV=     0
 NROrb=    135 NOA=    29 NOB=    29 NVA=   106 NVB=   106
 Symmetrizing basis deriv contribution to polar:
 IMax=3 JMax=2 DiffMx= 0.00D+00
 G2DrvN: will do    23 centers at a time, making    1 passes.
 Calling FoFCou, ICntrl=  3107 FMM=F I1Cent=   0 AccDes= 0.00D+00.
 End of G2Drv F.D. properties file   721 does not exist.
 End of G2Drv F.D. properties file   722 does not exist.
 End of G2Drv F.D. properties file   788 does not exist.
          IDoAtm=1111111111111111111111
          Differentiating once with respect to electric field.
                with respect to dipole field.
          Differentiating once with respect to nuclear coordinates.
 Keep R1 ints in memory in canonical form, NReq=45034167.
          There are    69 degrees of freedom in the 1st order CPHF.  IDoFFX=6 NUNeed=     3.
     66 vectors produced by pass  0 Test12= 4.46D-15 1.45D-09 XBig12= 4.61D+01 1.39D+00.
 AX will form    66 AO Fock derivatives at one time.
     66 vectors produced by pass  1 Test12= 4.46D-15 1.45D-09 XBig12= 2.31D+00 2.77D-01.
     66 vectors produced by pass  2 Test12= 4.46D-15 1.45D-09 XBig12= 1.22D-02 1.67D-02.
     66 vectors produced by pass  3 Test12= 4.46D-15 1.45D-09 XBig12= 2.21D-05 6.09D-04.
     66 vectors produced by pass  4 Test12= 4.46D-15 1.45D-09 XBig12= 1.61D-08 1.41D-05.
     24 vectors produced by pass  5 Test12= 4.46D-15 1.45D-09 XBig12= 7.17D-12 2.83D-07.
      3 vectors produced by pass  6 Test12= 4.46D-15 1.45D-09 XBig12= 3.75D-15 7.60D-09.
 InvSVY:  IOpt=1 It=  1 EMax= 4.44D-15
 Solved reduced A of dimension   357 with    69 vectors.
 Isotropic polarizability for W=    0.000000       72.03 Bohr**3.
 End of Minotr F.D. properties file   721 does not exist.
 End of Minotr F.D. properties file   722 does not exist.
 End of Minotr F.D. properties file   788 does not exist.

 **********************************************************************

            Population analysis using the SCF density.

 **********************************************************************

 Orbital symmetries:
       Occupied  (A) (A) (A) (A) (A) (A) (A) (A) (A) (A) (A) (A)
                 (A) (A) (A) (A) (A) (A) (A) (A) (A) (A) (A) (A)
                 (A) (A) (A) (A) (A)
       Virtual   (A) (A) (A) (A) (A) (A) (A) (A) (A) (A) (A) (A)
                 (A) (A) (A) (A) (A) (A) (A) (A) (A) (A) (A) (A)
                 (A) (A) (A) (A) (A) (A) (A) (A) (A) (A) (A) (A)
                 (A) (A) (A) (A) (A) (A) (A) (A) (A) (A) (A) (A)
                 (A) (A) (A) (A) (A) (A) (A) (A) (A) (A) (A) (A)
                 (A) (A) (A) (A) (A) (A) (A) (A) (A) (A) (A) (A)
                 (A) (A) (A) (A) (A) (A) (A) (A) (A) (A) (A) (A)
                 (A) (A) (A) (A) (A) (A) (A) (A) (A) (A) (A) (A)
                 (A) (A) (A) (A) (A) (A) (A) (A) (A) (A)
 The electronic state is 1-A.
 Alpha  occ. eigenvalues --  -14.31294 -10.20102 -10.20088 -10.19925 -10.16827
 Alpha  occ. eigenvalues --  -10.16759 -10.15690  -0.90760  -0.76528  -0.74476
 Alpha  occ. eigenvalues --   -0.71456  -0.62159  -0.61431  -0.56308  -0.48425
 Alpha  occ. eigenvalues --   -0.46989  -0.45601  -0.43311  -0.41485  -0.40094
 Alpha  occ. eigenvalues --   -0.38503  -0.37251  -0.37176  -0.35715  -0.34848
 Alpha  occ. eigenvalues --   -0.33253  -0.32362  -0.28463  -0.19751
 Alpha virt. eigenvalues --    0.08979   0.10719   0.11694   0.11983   0.14154
 Alpha virt. eigenvalues --    0.15294   0.15967   0.16533   0.17218   0.18435
 Alpha virt. eigenvalues --    0.18910   0.19047   0.20854   0.21883   0.24536
 Alpha virt. eigenvalues --    0.24699   0.25345   0.26821   0.27872   0.29798
 Alpha virt. eigenvalues --    0.33485   0.50771   0.51362   0.51948   0.54224
 Alpha virt. eigenvalues --    0.55061   0.57162   0.57694   0.59929   0.63015
 Alpha virt. eigenvalues --    0.64012   0.66001   0.66880   0.68927   0.72875
 Alpha virt. eigenvalues --    0.77405   0.81310   0.83406   0.83877   0.84655
 Alpha virt. eigenvalues --    0.86340   0.88284   0.88474   0.89483   0.90294
 Alpha virt. eigenvalues --    0.92121   0.93220   0.93653   0.95606   0.97471
 Alpha virt. eigenvalues --    0.99250   1.01341   1.02802   1.03937   1.06601
 Alpha virt. eigenvalues --    1.09514   1.12980   1.18588   1.22475   1.34567
 Alpha virt. eigenvalues --    1.37742   1.40035   1.42602   1.51748   1.59489
 Alpha virt. eigenvalues --    1.65887   1.69612   1.73324   1.76379   1.79522
 Alpha virt. eigenvalues --    1.83615   1.86998   1.91682   1.94980   1.98121
 Alpha virt. eigenvalues --    1.99559   2.00179   2.01093   2.07442   2.09840
 Alpha virt. eigenvalues --    2.11686   2.16667   2.19054   2.25688   2.28734
 Alpha virt. eigenvalues --    2.30048   2.31411   2.34107   2.34638   2.36236
 Alpha virt. eigenvalues --    2.38350   2.45659   2.51061   2.59046   2.59758
 Alpha virt. eigenvalues --    2.72318   2.78126   2.83941   2.87446   4.02837
 Alpha virt. eigenvalues --    4.21151   4.23876   4.25058   4.42112   4.49835
 Alpha virt. eigenvalues --    4.50914
          Condensed to atoms (all electrons):
               1          2          3          4          5          6
     1  C    5.184389   0.346946  -0.060210  -0.012276   0.000191  -0.010285
     2  C    0.346946   4.872244   0.347178  -0.044552   0.004306  -0.055305
     3  N   -0.060210   0.347178   6.808174   0.324912  -0.043521   0.333307
     4  C   -0.012276  -0.044552   0.324912   4.886529   0.382243  -0.053861
     5  C    0.000191   0.004306  -0.043521   0.382243   5.181446  -0.002896
     6  C   -0.010285  -0.055305   0.333307  -0.053861  -0.002896   4.883304
     7  C   -0.000042   0.005308  -0.052903   0.000547  -0.063548   0.370227
     8  H    0.357121  -0.024261   0.004220   0.000391  -0.000000   0.000348
     9  H    0.379278  -0.035744  -0.006085   0.001897  -0.000191  -0.000344
    10  H    0.376974  -0.034235  -0.001823   0.000005  -0.000024   0.001376
    11  H   -0.057410   0.380113  -0.041115  -0.003008   0.000029   0.006299
    12  H   -0.055105   0.381593  -0.037192   0.005322  -0.000156  -0.003813
    13  H    0.006557  -0.007109  -0.059207   0.347748  -0.050969  -0.007094
    14  H   -0.001782  -0.002405  -0.042904   0.379964  -0.029238   0.006037
    15  H   -0.000029  -0.000013  -0.004371  -0.045215   0.399613  -0.001995
    16  H    0.000012  -0.000114   0.003218  -0.027139   0.354765   0.000160
    17  H    0.000009  -0.000018   0.002770  -0.030731   0.367778  -0.000098
    18  H   -0.001866  -0.003381  -0.045217   0.006282  -0.000548   0.381375
    19  H    0.009743  -0.008064  -0.056776  -0.008075   0.000006   0.350679
    20  H    0.000024   0.000037   0.004448  -0.001879  -0.001204  -0.030027
    21  H    0.000010  -0.000129   0.003427   0.000016   0.003575  -0.022637
    22  H    0.000000  -0.000122  -0.000738   0.005148  -0.067782  -0.035921
               7          8          9         10         11         12
     1  C   -0.000042   0.357121   0.379278   0.376974  -0.057410  -0.055105
     2  C    0.005308  -0.024261  -0.035744  -0.034235   0.380113   0.381593
     3  N   -0.052903   0.004220  -0.006085  -0.001823  -0.041115  -0.037192
     4  C    0.000547   0.000391   0.001897   0.000005  -0.003008   0.005322
     5  C   -0.063548  -0.000000  -0.000191  -0.000024   0.000029  -0.000156
     6  C    0.370227   0.000348  -0.000344   0.001376   0.006299  -0.003813
     7  C    5.209216   0.000000  -0.000036  -0.000121  -0.000207   0.000157
     8  H    0.000000   0.583743  -0.028325  -0.030016  -0.002858   0.000903
     9  H   -0.000036  -0.028325   0.559378  -0.031618  -0.003384   0.004953
    10  H   -0.000121  -0.030016  -0.031618   0.569470   0.005527  -0.005740
    11  H   -0.000207  -0.002858  -0.003384   0.005527   0.608975  -0.031971
    12  H    0.000157   0.000903   0.004953  -0.005740  -0.031971   0.598739
    13  H   -0.000902  -0.000586   0.005906   0.000045  -0.001794  -0.000491
    14  H   -0.000238   0.000005   0.000413   0.000051   0.006897   0.000144
    15  H   -0.040561   0.000000   0.000026   0.000000   0.000010   0.000009
    16  H    0.001497  -0.000000   0.000017  -0.000000  -0.000009   0.000002
    17  H    0.001144   0.000000   0.000001   0.000000  -0.000026  -0.000005
    18  H   -0.030856   0.000014   0.000040   0.000408   0.000218   0.006768
    19  H   -0.049659  -0.000461   0.000539   0.001908  -0.000394  -0.002242
    20  H    0.372196   0.000000   0.000001  -0.000002  -0.000013  -0.000032
    21  H    0.343173  -0.000000   0.000000   0.000007   0.000003  -0.000014
    22  H    0.402489  -0.000000  -0.000012   0.000014   0.000005  -0.000001
              13         14         15         16         17         18
     1  C    0.006557  -0.001782  -0.000029   0.000012   0.000009  -0.001866
     2  C   -0.007109  -0.002405  -0.000013  -0.000114  -0.000018  -0.003381
     3  N   -0.059207  -0.042904  -0.004371   0.003218   0.002770  -0.045217
     4  C    0.347748   0.379964  -0.045215  -0.027139  -0.030731   0.006282
     5  C   -0.050969  -0.029238   0.399613   0.354765   0.367778  -0.000548
     6  C   -0.007094   0.006037  -0.001995   0.000160  -0.000098   0.381375
     7  C   -0.000902  -0.000238  -0.040561   0.001497   0.001144  -0.030856
     8  H   -0.000586   0.000005   0.000000  -0.000000   0.000000   0.000014
     9  H    0.005906   0.000413   0.000026   0.000017   0.000001   0.000040
    10  H    0.000045   0.000051   0.000000  -0.000000   0.000000   0.000408
    11  H   -0.001794   0.006897   0.000010  -0.000009  -0.000026   0.000218
    12  H   -0.000491   0.000144   0.000009   0.000002  -0.000005   0.006768
    13  H    0.709221  -0.060729  -0.006401  -0.001026   0.006643  -0.000518
    14  H   -0.060729   0.612495   0.006139  -0.002592  -0.008102  -0.000192
    15  H   -0.006401   0.006139   0.637563  -0.030432  -0.033599  -0.000081
    16  H   -0.001026  -0.002592  -0.030432   0.596027  -0.028116   0.000005
    17  H    0.006643  -0.008102  -0.033599  -0.028116   0.573068  -0.000040
    18  H   -0.000518  -0.000192  -0.000081   0.000005  -0.000040   0.611830
    19  H    0.010757  -0.000495  -0.000495   0.000065   0.000135  -0.055749
    20  H    0.000484  -0.000197  -0.002775   0.000402   0.001663  -0.006317
    21  H    0.000017   0.000009   0.002622  -0.000096  -0.000055  -0.005850
    22  H    0.000567  -0.000362  -0.005080   0.003187   0.000500   0.005260
              19         20         21         22
     1  C    0.009743   0.000024   0.000010   0.000000
     2  C   -0.008064   0.000037  -0.000129  -0.000122
     3  N   -0.056776   0.004448   0.003427  -0.000738
     4  C   -0.008075  -0.001879   0.000016   0.005148
     5  C    0.000006  -0.001204   0.003575  -0.067782
     6  C    0.350679  -0.030027  -0.022637  -0.035921
     7  C   -0.049659   0.372196   0.343173   0.402489
     8  H   -0.000461   0.000000  -0.000000  -0.000000
     9  H    0.000539   0.000001   0.000000  -0.000012
    10  H    0.001908  -0.000002   0.000007   0.000014
    11  H   -0.000394  -0.000013   0.000003   0.000005
    12  H   -0.002242  -0.000032  -0.000014  -0.000001
    13  H    0.010757   0.000484   0.000017   0.000567
    14  H   -0.000495  -0.000197   0.000009  -0.000362
    15  H   -0.000495  -0.002775   0.002622  -0.005080
    16  H    0.000065   0.000402  -0.000096   0.003187
    17  H    0.000135   0.001663  -0.000055   0.000500
    18  H   -0.055749  -0.006317  -0.005850   0.005260
    19  H    0.692094   0.006922  -0.000001  -0.006319
    20  H    0.006922   0.569196  -0.029076  -0.044044
    21  H   -0.000001  -0.029076   0.598211  -0.025017
    22  H   -0.006319  -0.044044  -0.025017   0.587941
 Mulliken charges:
               1
     1  C   -0.462248
     2  C   -0.122276
     3  N   -0.379591
     4  C   -0.114271
     5  C   -0.433877
     6  C   -0.108835
     7  C   -0.466879
     8  H    0.139761
     9  H    0.153288
    10  H    0.147797
    11  H    0.134112
    12  H    0.138170
    13  H    0.108881
    14  H    0.137082
    15  H    0.125064
    16  H    0.130165
    17  H    0.147078
    18  H    0.138415
    19  H    0.115883
    20  H    0.160191
    21  H    0.131804
    22  H    0.180286
 Sum of Mulliken charges =   0.00000
 Mulliken charges with hydrogens summed into heavy atoms:
               1
     1  C   -0.021402
     2  C    0.150006
     3  N   -0.379591
     4  C    0.131691
     5  C   -0.031569
     6  C    0.145463
     7  C    0.005402
 APT charges:
               1
     1  C   -0.020623
     2  C    0.414879
     3  N   -0.645888
     4  C    0.379358
     5  C   -0.002475
     6  C    0.371068
     7  C    0.028712
     8  H   -0.028961
     9  H   -0.005452
    10  H   -0.018684
    11  H   -0.064009
    12  H   -0.053612
    13  H   -0.108970
    14  H   -0.057107
    15  H    0.090330
    16  H   -0.042669
    17  H   -0.028923
    18  H   -0.058596
    19  H   -0.097328
    20  H   -0.011902
    21  H   -0.051092
    22  H    0.011943
 Sum of APT charges =   0.00000
 APT charges with hydrogens summed into heavy atoms:
               1
     1  C   -0.073719
     2  C    0.297257
     3  N   -0.645888
     4  C    0.213281
     5  C    0.016263
     6  C    0.215144
     7  C   -0.022340
 Electronic spatial extent (au):  <R**2>=            967.4326
 Charge=              0.0000 electrons
 Dipole moment (field-independent basis, Debye):
    X=              0.2106    Y=              0.2001    Z=              0.6656  Tot=              0.7262
 Quadrupole moment (field-independent basis, Debye-Ang):
   XX=            -46.1694   YY=            -46.2550   ZZ=            -48.9083
   XY=             -0.2770   XZ=             -1.0018   YZ=             -0.1004
 Traceless Quadrupole moment (field-independent basis, Debye-Ang):
   XX=              0.9415   YY=              0.8559   ZZ=             -1.7974
   XY=             -0.2770   XZ=             -1.0018   YZ=             -0.1004
 Octapole moment (field-independent basis, Debye-Ang**2):
  XXX=              3.0514  YYY=              0.8451  ZZZ=              0.2369  XYY=              1.7106
  XXY=              0.7382  XXZ=             -2.9480  XZZ=             -0.8616  YZZ=              0.0394
  YYZ=             -1.6662  XYZ=              0.0464
 Hexadecapole moment (field-independent basis, Debye-Ang**3):
 XXXX=           -796.1468 YYYY=           -383.1025 ZZZZ=           -151.7772 XXXY=             -2.4674
 XXXZ=             -6.7144 YYYX=             -1.0607 YYYZ=             -0.3564 ZZZX=             -1.4878
 ZZZY=             -0.2792 XXYY=           -199.8725 XXZZ=           -155.9295 YYZZ=            -87.1147
 XXYZ=              0.0778 YYXZ=             -1.7511 ZZXY=              0.8885
 N-N= 3.432011825495D+02 E-N=-1.362648319638D+03  KE= 2.897364607567D+02
  Exact polarizability:  79.938   0.424  75.429  -0.671   0.170  60.733
 Approx polarizability:  96.501   0.764 101.727  -1.331   0.373  90.360
 Calling FoFJK, ICntrl=    100127 FMM=F ISym2X=0 I1Cent= 0 IOpClX= 0 NMat=1 NMatS=1 NMatT=0.
 ***** Axes restored to original set *****
 -------------------------------------------------------------------
 Center     Atomic                   Forces (Hartrees/Bohr)
 Number     Number              X              Y              Z
 -------------------------------------------------------------------
      1        6           0.003011532   -0.009189831    0.000533195
      2        6          -0.011507307    0.005214595    0.010173941
      3        7           0.007425121    0.006977716   -0.012324412
      4        6          -0.000218718   -0.012730246    0.002144851
      5        6          -0.017313256    0.011105549    0.012771052
      6        6          -0.004093648    0.003973323    0.000170934
      7        6           0.030817482   -0.005618811   -0.011305806
      8        1          -0.000002991   -0.001241318    0.000429683
      9        1           0.000579478   -0.002704630   -0.000051222
     10        1           0.000280923   -0.000712059    0.002583907
     11        1          -0.001017763    0.004170049   -0.002547379
     12        1           0.001918596    0.006360087   -0.000935482
     13        1           0.004336541    0.000353400    0.008280566
     14        1          -0.001507414   -0.000041238   -0.005892631
     15        1          -0.050711870    0.012945744    0.019694707
     16        1          -0.005432210   -0.001560931    0.000698806
     17        1           0.000879119    0.001028571   -0.001979979
     18        1          -0.003613799   -0.003240928   -0.000620868
     19        1           0.004824611   -0.001169182    0.003308313
     20        1          -0.000417181    0.000795525    0.002056074
     21        1           0.002092713   -0.002261540   -0.004535353
     22        1           0.039670040   -0.012453844   -0.022652896
 -------------------------------------------------------------------
 Cartesian Forces:  Max     0.050711870 RMS     0.011160143
 FormGI is forming the generalized inverse of G from B-inverse, IUseBI=4.

 GradGradGradGradGradGradGradGradGradGradGradGradGradGradGradGradGradGrad
 Berny optimization.
 Internal  Forces:  Max     0.188722218 RMS     0.041999720
 Search for a local minimum.
 Step number   1 out of a maximum of  115
 All quantities printed in internal units (Hartrees-Bohrs-Radians)
 Mixed Optimization -- RFO/linear search
 Second derivative matrix not updated -- analytic derivatives used.
 ITU=  0
     Eigenvalues ---   -0.24471  -0.07267  -0.04074  -0.01077   0.00061
     Eigenvalues ---    0.00197   0.00577   0.03596   0.03765   0.04276
     Eigenvalues ---    0.04602   0.04695   0.04740   0.04870   0.05083
     Eigenvalues ---    0.05235   0.05385   0.05745   0.05825   0.07096
     Eigenvalues ---    0.07633   0.08057   0.08552   0.09809   0.10645
     Eigenvalues ---    0.11169   0.12617   0.12733   0.12774   0.14333
     Eigenvalues ---    0.14789   0.15595   0.16236   0.16748   0.16928
     Eigenvalues ---    0.19388   0.23741   0.26323   0.28117   0.28608
     Eigenvalues ---    0.29582   0.31010   0.31553   0.32278   0.32359
     Eigenvalues ---    0.32888   0.32968   0.33680   0.33712   0.33923
     Eigenvalues ---    0.33983   0.34166   0.34292   0.34500   0.34600
     Eigenvalues ---    0.34963   0.35466   0.35528   0.43294   4.11249
 RFO step:  Lambda=-2.45324048D-01 EMin=-2.44709689D-01
 I=     1 Eig=   -2.45D-01 Dot1=  6.64D-03
 I=     1 Stepn=  6.00D-01 RXN=   6.00D-01 EDone=F
 I=     2 Eig=   -7.27D-02 Dot1=  6.22D-05
 I=     2 Stepn=  3.00D-01 RXN=   6.71D-01 EDone=F
 I=     3 Eig=   -4.07D-02 Dot1= -5.06D-04
 I=     3 Stepn= -1.50D-01 RXN=   6.87D-01 EDone=F
 Mixed    3 eigenvectors in step.  Raw Step.Grad=  7.21D-03.
 RFO eigenvector is Hessian eigenvector with negative curvature.
 Taking step of  6.00D-01 in eigenvector direction(s).  Step.Grad=  2.21D-02.
 Linear search not attempted -- first point.
 Maximum step size (   0.300) exceeded in Quadratic search.
    -- Step size not scaled.
 Iteration  1 RMS(Cart)=  0.18367603 RMS(Int)=  0.01864470
 Iteration  2 RMS(Cart)=  0.04358181 RMS(Int)=  0.00116779
 Iteration  3 RMS(Cart)=  0.00136250 RMS(Int)=  0.00088341
 Iteration  4 RMS(Cart)=  0.00000281 RMS(Int)=  0.00088341
 Iteration  5 RMS(Cart)=  0.00000000 RMS(Int)=  0.00088341
 Variable       Old X    -DE/DX   Delta X   Delta X   Delta X     New X
                                 (Linear)    (Quad)   (Total)
    R1        2.88307   0.01289   0.00000   0.00007   0.00007   2.88313
    R2        2.06965   0.00099   0.00000  -0.00007  -0.00007   2.06957
    R3        2.06839  -0.00098   0.00000  -0.00193  -0.00193   2.06646
    R4        2.06862   0.00034   0.00000   0.00107   0.00107   2.06969
    R5        2.78719  -0.00198   0.00000   0.00382   0.00382   2.79101
    R6        2.07431   0.00110   0.00000  -0.00091  -0.00091   2.07340
    R7        2.07263  -0.00033   0.00000   0.00061   0.00061   2.07324
    R8        2.77848   0.06079   0.00000   0.01446   0.01446   2.79294
    R9        2.78522   0.07000   0.00000  -0.00755  -0.00755   2.77767
   R10        2.88127   0.01040   0.00000  -0.06138  -0.06138   2.81989
   R11        2.07251   0.00710   0.00000  -0.00248  -0.00248   2.07003
   R12        2.07257   0.00169   0.00000   0.00216   0.00216   2.07473
   R13        2.06624  -0.04872   0.00000  -0.01600  -0.01600   2.05023
   R14        2.06934   0.00210   0.00000  -0.00219  -0.00219   2.06715
   R15        2.06784   0.00158   0.00000  -0.00247  -0.00247   2.06537
   R16        2.88192   0.00195   0.00000   0.06656   0.06656   2.94848
   R17        2.07516   0.00029   0.00000  -0.00177  -0.00177   2.07340
   R18        2.07398   0.00484   0.00000  -0.00001  -0.00001   2.07398
   R19        2.06756  -0.00037   0.00000   0.00556   0.00556   2.07312
   R20        2.06913   0.00296   0.00000   0.00019   0.00019   2.06932
   R21        2.06751  -0.02881   0.00000  -0.02755  -0.02755   2.03996
    A1        1.91714   0.00016   0.00000  -0.00152  -0.00152   1.91562
    A2        1.94348   0.00271   0.00000   0.00518   0.00519   1.94866
    A3        1.94928   0.00269   0.00000  -0.00287  -0.00287   1.94641
    A4        1.88169  -0.00182   0.00000  -0.00149  -0.00148   1.88020
    A5        1.87144  -0.00128   0.00000   0.00098   0.00097   1.87241
    A6        1.89817  -0.00279   0.00000  -0.00040  -0.00040   1.89777
    A7        2.00326   0.01929   0.00000   0.00675   0.00675   2.01001
    A8        1.86158  -0.00069   0.00000   0.00360   0.00360   1.86518
    A9        1.90264  -0.00266   0.00000  -0.00656  -0.00656   1.89609
   A10        1.88965  -0.00697   0.00000  -0.00456  -0.00458   1.88507
   A11        1.93973  -0.01180   0.00000  -0.00007  -0.00006   1.93968
   A12        1.85994   0.00219   0.00000   0.00067   0.00068   1.86061
   A13        1.99198  -0.07995   0.00000  -0.08328  -0.08315   1.90883
   A14        1.90934  -0.09470   0.00000   0.05607   0.05579   1.96514
   A15        1.99114   0.18507   0.00000   0.00676   0.00776   1.99890
   A16        2.02994   0.15756   0.00000   0.02844   0.02761   2.05755
   A17        1.91470  -0.04133   0.00000   0.00251   0.00242   1.91712
   A18        1.90649  -0.05787   0.00000  -0.03231  -0.03420   1.87229
   A19        1.89892  -0.02851   0.00000  -0.07121  -0.07036   1.82857
   A20        1.89677  -0.06757   0.00000   0.06755   0.06772   1.96448
   A21        1.80334   0.02209   0.00000   0.00269   0.00401   1.80735
   A22        1.95581   0.03655   0.00000  -0.12514  -0.12503   1.83077
   A23        1.91419  -0.01325   0.00000   0.02158   0.02041   1.93460
   A24        1.94504  -0.00417   0.00000   0.04433   0.04424   1.98929
   A25        1.87542  -0.01289   0.00000   0.01364   0.01248   1.88790
   A26        1.89450  -0.00998   0.00000   0.05053   0.05172   1.94622
   A27        1.87585   0.00215   0.00000  -0.00110  -0.00230   1.87355
   A28        1.99937   0.18872   0.00000   0.00119  -0.00122   1.99814
   A29        1.89402  -0.06731   0.00000   0.00284   0.00022   1.89425
   A30        1.93799  -0.04672   0.00000   0.00211  -0.00061   1.93738
   A31        1.86192  -0.05561   0.00000  -0.10885  -0.10832   1.75360
   A32        1.90555  -0.05350   0.00000   0.09306   0.09298   1.99853
   A33        1.85816   0.02354   0.00000   0.00391   0.00697   1.86513
   A34        1.93976   0.00434   0.00000  -0.04667  -0.04667   1.89308
   A35        1.91547  -0.01299   0.00000  -0.02822  -0.02989   1.88558
   A36        1.95383   0.01665   0.00000   0.17789   0.17771   2.13154
   A37        1.88250   0.00117   0.00000   0.00300   0.00142   1.88392
   A38        1.89732   0.00225   0.00000  -0.06821  -0.06714   1.83018
   A39        1.87238  -0.01241   0.00000  -0.04364  -0.04508   1.82730
    D1        2.94521   0.00219   0.00000   0.00165   0.00166   2.94687
    D2        0.85250  -0.00032   0.00000   0.00074   0.00073   0.85323
    D3       -1.14945  -0.00122   0.00000   0.00130   0.00130  -1.14815
    D4        0.86201   0.00264   0.00000   0.00120   0.00121   0.86322
    D5       -1.23070   0.00012   0.00000   0.00030   0.00029  -1.23041
    D6        3.05053  -0.00077   0.00000   0.00086   0.00086   3.05138
    D7       -1.26388   0.00240   0.00000   0.00007   0.00008  -1.26380
    D8        2.92660  -0.00011   0.00000  -0.00084  -0.00085   2.92575
    D9        0.92464  -0.00100   0.00000  -0.00028  -0.00028   0.92436
   D10       -1.05952  -0.05494   0.00000  -0.00155  -0.00108  -1.06060
   D11        1.19515   0.05087   0.00000  -0.01204  -0.01250   1.18265
   D12        1.01755  -0.04855   0.00000   0.00404   0.00450   1.02205
   D13       -3.01096   0.05726   0.00000  -0.00645  -0.00692  -3.01787
   D14        3.05463  -0.05674   0.00000   0.00209   0.00255   3.05718
   D15       -0.97388   0.04907   0.00000  -0.00840  -0.00887  -0.98275
   D16       -3.12927   0.02755   0.00000  -0.12081  -0.12011   3.03380
   D17        0.99004  -0.01982   0.00000  -0.04834  -0.04788   0.94216
   D18       -0.97511   0.00662   0.00000  -0.03563  -0.03591  -1.01101
   D19        0.94103   0.06743   0.00000  -0.13174  -0.13163   0.80940
   D20       -1.22285   0.02007   0.00000  -0.05927  -0.05939  -1.28224
   D21        3.09519   0.04650   0.00000  -0.04655  -0.04743   3.04777
   D22       -3.12927  -0.00002   0.00000  -0.21736  -0.21719   2.93673
   D23        1.07578  -0.00189   0.00000  -0.08182  -0.08170   0.99408
   D24       -0.96078   0.03643   0.00000  -0.08947  -0.08994  -1.05072
   D25       -0.87414  -0.03961   0.00000  -0.27727  -0.27698  -1.15112
   D26       -2.95227  -0.04147   0.00000  -0.14173  -0.14149  -3.09376
   D27        1.29436  -0.00316   0.00000  -0.14938  -0.14973   1.14462
   D28       -0.93419  -0.02681   0.00000  -0.01147  -0.01023  -0.94442
   D29       -3.01546  -0.02512   0.00000   0.03678   0.03735  -2.97811
   D30        1.19271  -0.01663   0.00000  -0.00350  -0.00354   1.18918
   D31        1.23779   0.01231   0.00000  -0.04602  -0.04490   1.19289
   D32       -0.84348   0.01400   0.00000   0.00223   0.00268  -0.84080
   D33       -2.91849   0.02249   0.00000  -0.03806  -0.03821  -2.95670
   D34       -3.09339  -0.01007   0.00000  -0.04461  -0.04502  -3.13841
   D35        1.10853  -0.00839   0.00000   0.00364   0.00256   1.11109
   D36       -0.96648   0.00011   0.00000  -0.03664  -0.03832  -1.00481
   D37       -0.92451   0.01626   0.00000   0.03280   0.03349  -0.89102
   D38       -3.00530   0.02044   0.00000   0.07654   0.07642  -2.92887
   D39        1.20084   0.03397   0.00000   0.03697   0.03637   1.23721
   D40        1.17157   0.00790   0.00000  -0.03928  -0.03691   1.13466
   D41       -0.90922   0.01208   0.00000   0.00446   0.00602  -0.90320
   D42       -2.98627   0.02561   0.00000  -0.03511  -0.03403  -3.02030
   D43       -3.11014  -0.01978   0.00000  -0.04580  -0.04677   3.12627
   D44        1.09226  -0.01560   0.00000  -0.00207  -0.00384   1.08842
   D45       -0.98479  -0.00207   0.00000  -0.04164  -0.04390  -1.02869
         Item               Value     Threshold  Converged?
 Maximum Force            0.188722     0.000450     NO 
 RMS     Force            0.042000     0.000300     NO 
 Maximum Displacement     0.938421     0.001800     NO 
 RMS     Displacement     0.213872     0.001200     NO 
 Predicted change in Energy=-4.266168D-02
 GradGradGradGradGradGradGradGradGradGradGradGradGradGradGradGradGradGrad

                          Input orientation:                          
 ---------------------------------------------------------------------
 Center     Atomic      Atomic             Coordinates (Angstroms)
 Number     Number       Type             X           Y           Z
 ---------------------------------------------------------------------
      1          6           0        2.847696   -0.983822    1.073500
      2          6           0        2.543787    0.063559    0.006563
      3          7           0        3.012479    1.429559    0.315953
      4          6           0        2.356559    1.904539    1.552291
      5          6           0        2.798664    3.212324    2.118835
      6          6           0        4.478524    1.535396    0.323607
      7          6           0        5.021123    2.997877    0.357928
      8          1           0        2.298040   -1.905455    0.854702
      9          1           0        2.546838   -0.644994    2.068728
     10          1           0        3.912879   -1.237680    1.095422
     11          1           0        1.452831    0.096553   -0.105532
     12          1           0        2.947069   -0.285369   -0.952218
     13          1           0        2.517198    1.181848    2.359655
     14          1           0        1.272618    1.863958    1.382547
     15          1           0        3.873591    3.118221    2.231814
     16          1           0        2.364400    3.373998    3.109728
     17          1           0        2.534518    4.075406    1.502517
     18          1           0        4.857109    1.205034   -0.651774
     19          1           0        4.917079    0.869294    1.077589
     20          1           0        4.531606    3.568945   -0.440677
     21          1           0        6.094054    2.966598    0.141246
     22          1           0        4.936988    3.620981    1.235416
 ---------------------------------------------------------------------
                    Distance matrix (angstroms):
                    1          2          3          4          5
     1  C    0.000000
     2  C    1.525687   0.000000
     3  N    2.534845   1.476940   0.000000
     4  C    2.968683   2.411127   1.477960   0.000000
     5  C    4.324670   3.800181   2.544475   1.492224   0.000000
     6  C    3.093282   2.451536   1.469880   2.479650   2.976049
     7  C    4.592359   3.856278   2.548733   3.117979   2.843609
     8  H    1.095172   2.157950   3.452968   3.873771   5.295311
     9  H    1.093526   2.180500   2.755506   2.608262   3.865855
    10  H    1.095235   2.180195   2.921037   3.536156   4.700148
    11  H    2.122021   1.097196   2.094530   2.614176   4.057969
    12  H    2.145051   1.097109   2.133897   3.378899   4.656957
    13  H    2.540383   2.605440   2.117399   1.095410   2.063989
    14  H    3.268980   2.598199   2.086490   1.097901   2.165416
    15  H    4.384165   4.006380   2.695110   2.058194   1.084937
    16  H    4.834294   4.541015   3.464971   2.141258   1.093888
    17  H    5.087035   4.281691   2.938858   2.178718   1.092946
    18  H    3.435899   2.662298   2.095130   3.405871   3.992830
    19  H    2.777841   2.725586   2.126380   2.802380   3.325909
    20  H    5.084876   4.054526   2.730789   3.387181   3.111490
    21  H    5.197475   4.588046   3.448059   4.133749   3.851082
    22  H    5.059206   4.460128   3.058019   3.115316   2.349439
                    6          7          8          9         10
     6  C    0.000000
     7  C    1.560271   0.000000
     8  H    4.108044   5.630687   0.000000
     9  H    3.395727   4.724346   1.767631   0.000000
    10  H    2.933531   4.439825   1.763966   1.778952   0.000000
    11  H    3.377758   4.622250   2.375807   2.544435   3.045374
    12  H    2.699679   4.098523   2.512146   3.068490   2.456118
    13  H    2.849085   3.684361   3.441562   1.850099   3.065994
    14  H    3.392217   4.048075   3.941901   2.896432   4.083329
    15  H    2.551966   2.200628   5.442069   3.993577   4.501866
    16  H    3.951259   3.843443   5.741269   4.155630   5.265243
    17  H    3.408906   2.941829   6.020488   4.754253   5.504043
    18  H    1.097194   2.064143   4.300400   4.020086   3.148193
    19  H    1.097503   2.249357   3.822077   2.982192   2.334110
    20  H    2.173078   1.097048   6.052757   5.290907   5.083902
    21  H    2.165994   1.095038   6.217365   5.416781   4.831555
    22  H    2.321907   1.079501   6.135999   4.960421   4.967392
                   11         12         13         14         15
    11  H    0.000000
    12  H    1.759400   0.000000
    13  H    2.896185   3.647741   0.000000
    14  H    2.317451   3.588108   1.723076   0.000000
    15  H    4.522582   4.751939   2.367633   3.009898   0.000000
    16  H    4.680866   5.498170   2.321956   2.540740   1.764600
    17  H    4.425737   5.021183   3.017891   2.548977   1.800332
    18  H    3.621632   2.441274   3.813715   4.173873   3.597592
    19  H    3.741379   3.055209   2.738761   3.790046   2.734735
    20  H    4.652815   4.198591   4.194988   4.105134   2.788968
    21  H    5.462509   4.655584   4.571713   5.099302   3.053509
    22  H    5.134110   4.899499   3.615061   4.066495   1.541555
                   16         17         18         19         20
    16  H    0.000000
    17  H    1.761829   0.000000
    18  H    5.006686   4.274861   0.000000
    19  H    4.113308   4.017004   1.762673   0.000000
    20  H    4.164152   2.832114   2.395535   3.121192   0.000000
    21  H    4.784159   3.968981   2.293909   2.580831   1.772766
    22  H    3.192531   2.459615   3.066703   2.756282   1.725204
                   21         22
    21  H    0.000000
    22  H    1.721693   0.000000
 Stoichiometry    C6H15N
 Framework group  C1[X(C6H15N)]
 Deg. of freedom    60
 Full point group                 C1      NOp   1
 Largest Abelian subgroup         C1      NOp   1
 Largest concise Abelian subgroup C1      NOp   1
                         Standard orientation:                         
 ---------------------------------------------------------------------
 Center     Atomic      Atomic             Coordinates (Angstroms)
 Number     Number       Type             X           Y           Z
 ---------------------------------------------------------------------
      1          6           0        2.403419    0.017431    0.653660
      2          6           0        1.661653    0.226074   -0.663144
      3          7           0        0.191799    0.106696   -0.581736
      4          6           0       -0.164945   -1.252414   -0.123566
      5          6           0       -1.601555   -1.538359    0.161250
      6          6           0       -0.420825    1.193223    0.195888
      7          6           0       -1.973954    1.279416    0.074220
      8          1           0        3.478043   -0.073094    0.462898
      9          1           0        2.077153   -0.895069    1.160308
     10          1           0        2.263762    0.865692    1.332252
     11          1           0        2.026165   -0.540164   -1.358737
     12          1           0        1.957165    1.195992   -1.082167
     13          1           0        0.355701   -1.477505    0.813549
     14          1           0        0.272246   -1.962463   -0.837766
     15          1           0       -1.903768   -0.772106    0.867375
     16          1           0       -1.715967   -2.512585    0.645384
     17          1           0       -2.238834   -1.538876   -0.726673
     18          1           0       -0.131971    2.150750   -0.255265
     19          1           0       -0.043824    1.200291    1.226584
     20          1           0       -2.239559    1.280951   -0.990189
     21          1           0       -2.295180    2.234259    0.503400
     22          1           0       -2.626482    0.544839    0.521353
 ---------------------------------------------------------------------
 Rotational constants (GHZ):           3.4792810           1.8678745           1.4100118
 Standard basis: 6-31G(d) (6D, 7F)
 There are   135 symmetry adapted cartesian basis functions of A   symmetry.
 There are   135 symmetry adapted basis functions of A   symmetry.
   135 basis functions,   256 primitive gaussians,   135 cartesian basis functions
    29 alpha electrons       29 beta electrons
       nuclear repulsion energy       341.4647428760 Hartrees.
 NAtoms=   22 NActive=   22 NUniq=   22 SFac= 1.00D+00 NAtFMM=   60 NAOKFM=F Big=F
 Integral buffers will be    131072 words long.
 Raffenetti 2 integral format.
 Two-electron integral symmetry is turned on.
 One-electron integrals computed using PRISM.
 NBasis=   135 RedAO= T EigKep=  4.12D-03  NBF=   135
 NBsUse=   135 1.00D-06 EigRej= -1.00D+00 NBFU=   135
 Initial guess from the checkpoint file:  "base_4_conf61.chk"
 B after Tr=     0.000000    0.000000    0.000000
         Rot=    0.998393   -0.034057   -0.001542   -0.045267 Ang=  -6.50 deg.
 ExpMin= 1.61D-01 ExpMax= 4.17D+03 ExpMxC= 6.27D+02 IAcc=2 IRadAn=         4 AccDes= 0.00D+00
 Harris functional with IExCor=  402 and IRadAn=       4 diagonalized for initial guess.
 HarFok:  IExCor=  402 AccDes= 0.00D+00 IRadAn=         4 IDoV= 1 UseB2=F ITyADJ=14
 ICtDFT=  3500011 ScaDFX=  1.000000  1.000000  1.000000  1.000000
 FoFCou: FMM=F IPFlag=           0 FMFlag=      100000 FMFlg1=           0
         NFxFlg=           0 DoJE=T BraDBF=F KetDBF=T FulRan=T
         wScrn=  0.000000 ICntrl=       500 IOpCl=  0 I1Cent=   200000004 NGrid=           0
         NMat0=    1 NMatS0=      1 NMatT0=    0 NMatD0=    1 NMtDS0=    0 NMtDT0=    0
 Petite list used in FoFCou.
 Keep R1 ints in memory in canonical form, NReq=45019892.
 Gradient too large for Newton-Raphson -- use scaled steepest descent instead.
     Minimum is close to point  4 DX=  1.23D-01 DF= -4.18D-04 DXR=  9.30D-02 DFR=  8.73D-03 which will be used.
 Gradient too large for Newton-Raphson -- use scaled steepest descent instead.
     Accept linear search using points  2 and  3.
 Gradient too large for Newton-Raphson -- use scaled steepest descent instead.
     Accept linear search using points  1 and  2.
 Gradient too large for Newton-Raphson -- use scaled steepest descent instead.
     Accept linear search using points  1 and  2.
 Gradient too large for Newton-Raphson -- use scaled steepest descent instead.
 Gradient too large for Newton-Raphson -- use scaled steepest descent instead.
     Accept linear search using points  1 and  2.
 Gradient too large for Newton-Raphson -- use scaled steepest descent instead.
     Accept linear search using points  2 and  3.
 Gradient too large for Newton-Raphson -- use scaled steepest descent instead.
     Accept linear search using points  1 and  2.
 Gradient too large for Newton-Raphson -- use scaled steepest descent instead.
     Accept linear search using points  2 and  3.
 Gradient too large for Newton-Raphson -- use scaled steepest descent instead.
     Accept linear search using points  1 and  2.
 LinEq1:  Iter=  0 NonCon=     1 RMS=1.73D-04 Max=3.34D-03 NDo=     1
 AX will form     1 AO Fock derivatives at one time.
 LinEq1:  Iter=  1 NonCon=     1 RMS=7.63D-06 Max=5.83D-05 NDo=     1
 LinEq1:  Iter=  2 NonCon=     1 RMS=3.61D-06 Max=3.09D-05 NDo=     1
 LinEq1:  Iter=  3 NonCon=     1 RMS=1.50D-06 Max=1.24D-05 NDo=     1
 LinEq1:  Iter=  4 NonCon=     1 RMS=4.94D-07 Max=6.27D-06 NDo=     1
 LinEq1:  Iter=  5 NonCon=     1 RMS=2.74D-07 Max=3.23D-06 NDo=     1
 LinEq1:  Iter=  6 NonCon=     1 RMS=1.09D-07 Max=1.12D-06 NDo=     1
 LinEq1:  Iter=  7 NonCon=     1 RMS=5.54D-08 Max=5.19D-07 NDo=     1
 LinEq1:  Iter=  8 NonCon=     1 RMS=2.38D-08 Max=2.55D-07 NDo=     1
 LinEq1:  Iter=  9 NonCon=     0 RMS=5.25D-09 Max=4.39D-08 NDo=     1
 Linear equations converged to 7.841D-09 7.841D-08 after     9 iterations.
     Minimum is close to point  2 DX=  3.94D-05 DF= -1.71D-13 DXR=  3.94D-05 DFR=  1.67D-09 which will be used.
 LinEq1:  Iter=  0 NonCon=     1 RMS=3.42D-07 Max=3.08D-06 NDo=     1
 LinEq1:  Iter=  1 NonCon=     1 RMS=1.12D-07 Max=7.98D-07 NDo=     1
 LinEq1:  Iter=  2 NonCon=     1 RMS=6.35D-08 Max=5.03D-07 NDo=     1
 LinEq1:  Iter=  3 NonCon=     1 RMS=2.52D-08 Max=2.39D-07 NDo=     1
 LinEq1:  Iter=  4 NonCon=     1 RMS=8.92D-09 Max=8.24D-08 NDo=     1
 LinEq1:  Iter=  5 NonCon=     1 RMS=4.06D-09 Max=4.57D-08 NDo=     1
 LinEq1:  Iter=  6 NonCon=     1 RMS=1.03D-09 Max=1.24D-08 NDo=     1
 LinEq1:  Iter=  7 NonCon=     1 RMS=4.08D-10 Max=4.48D-09 NDo=     1
 LinEq1:  Iter=  8 NonCon=     0 RMS=1.73D-10 Max=1.40D-09 NDo=     1
 Linear equations converged to 1.972D-10 1.972D-09 after     8 iterations.
 SCF Done:  E(RB3LYP) =  -292.384625518     a.u. after   13 cycles
            Convg  =    0.3345D-09                    47 Fock formations.
              S**2 =  0.0000                  -V/T =  2.0095
 DoSCS=F DFT=T ScalE2(SS,OS)=  1.000000  1.000000
 Range of M.O.s used for correlation:     1   135
 NBasis=   135 NAE=    29 NBE=    29 NFC=     0 NFV=     0
 NROrb=    135 NOA=    29 NOB=    29 NVA=   106 NVB=   106
 Symmetrizing basis deriv contribution to polar:
 IMax=3 JMax=2 DiffMx= 0.00D+00
 G2DrvN: will do    23 centers at a time, making    1 passes.
 Calling FoFCou, ICntrl=  3107 FMM=F I1Cent=   0 AccDes= 0.00D+00.
 End of G2Drv F.D. properties file   721 does not exist.
 End of G2Drv F.D. properties file   722 does not exist.
 End of G2Drv F.D. properties file   788 does not exist.
          IDoAtm=1111111111111111111111
          Differentiating once with respect to electric field.
                with respect to dipole field.
          Differentiating once with respect to nuclear coordinates.
 Keep R1 ints in memory in canonical form, NReq=45034167.
          There are    69 degrees of freedom in the 1st order CPHF.  IDoFFX=6 NUNeed=     3.
     66 vectors produced by pass  0 Test12= 4.46D-15 1.45D-09 XBig12= 4.40D+01 1.63D+00.
 AX will form    66 AO Fock derivatives at one time.
     66 vectors produced by pass  1 Test12= 4.46D-15 1.45D-09 XBig12= 2.19D+00 2.20D-01.
     66 vectors produced by pass  2 Test12= 4.46D-15 1.45D-09 XBig12= 1.17D-02 1.54D-02.
     66 vectors produced by pass  3 Test12= 4.46D-15 1.45D-09 XBig12= 1.81D-05 5.06D-04.
     66 vectors produced by pass  4 Test12= 4.46D-15 1.45D-09 XBig12= 1.24D-08 1.13D-05.
     24 vectors produced by pass  5 Test12= 4.46D-15 1.45D-09 XBig12= 5.63D-12 2.44D-07.
      3 vectors produced by pass  6 Test12= 4.46D-15 1.45D-09 XBig12= 2.89D-15 6.64D-09.
 InvSVY:  IOpt=1 It=  1 EMax= 7.11D-15
 Solved reduced A of dimension   357 with    69 vectors.
 Isotropic polarizability for W=    0.000000       71.88 Bohr**3.
 End of Minotr F.D. properties file   721 does not exist.
 End of Minotr F.D. properties file   722 does not exist.
 End of Minotr F.D. properties file   788 does not exist.
 Calling FoFJK, ICntrl=    100127 FMM=F ISym2X=0 I1Cent= 0 IOpClX= 0 NMat=1 NMatS=1 NMatT=0.
 ***** Axes restored to original set *****
 -------------------------------------------------------------------
 Center     Atomic                   Forces (Hartrees/Bohr)
 Number     Number              X              Y              Z
 -------------------------------------------------------------------
      1        6           0.003484055   -0.009896825    0.000257276
      2        6          -0.003514414    0.003740780    0.003671054
      3        7          -0.001287011    0.007567801   -0.002317210
      4        6          -0.011412626   -0.023355212   -0.003229223
      5        6          -0.000916769    0.009005505    0.007781816
      6        6          -0.002842050    0.015597024   -0.003687101
      7        6           0.012795147   -0.003653979   -0.016368838
      8        1           0.000116653   -0.001340951    0.000240272
      9        1           0.000651374   -0.004020165   -0.000297255
     10        1           0.000417020   -0.000343315    0.002380898
     11        1          -0.000552274    0.004364351   -0.002620864
     12        1           0.001910759    0.005868456   -0.001109939
     13        1           0.001584911   -0.003039686    0.005437617
     14        1          -0.001017496    0.003582273   -0.003501474
     15        1          -0.008318069    0.010119536    0.012820066
     16        1          -0.003302204   -0.002007246    0.000594873
     17        1           0.004722199    0.001309931   -0.002961387
     18        1          -0.005189511   -0.008776006    0.000630102
     19        1           0.007303240    0.003850521    0.005745605
     20        1           0.000641055   -0.002486403   -0.001741357
     21        1           0.001707724   -0.001580792   -0.004582673
     22        1           0.003018286   -0.004505598    0.002857740
 -------------------------------------------------------------------
 Cartesian Forces:  Max     0.023355212 RMS     0.006244406
 FormGI is forming the generalized inverse of G from B-inverse, IUseBI=4.

 GradGradGradGradGradGradGradGradGradGradGradGradGradGradGradGradGradGrad
 Berny optimization.
 Using GEDIIS/GDIIS optimizer.
 Internal  Forces:  Max     0.055071048 RMS     0.013011393
 Search for a local minimum.
 Step number   2 out of a maximum of  115
 All quantities printed in internal units (Hartrees-Bohrs-Radians)
 Mixed Optimization -- RFO/linear search
 Second derivative matrix not updated -- analytic derivatives used.
 ITU=  0  0
 Use linear search instead of GDIIS.
     Eigenvalues ---   -0.04308  -0.00967  -0.00003   0.00023   0.00310
     Eigenvalues ---    0.00553   0.03139   0.03874   0.04314   0.04478
     Eigenvalues ---    0.04597   0.04670   0.04725   0.04883   0.04898
     Eigenvalues ---    0.05059   0.05278   0.05386   0.05846   0.08145
     Eigenvalues ---    0.08486   0.08987   0.10196   0.11431   0.11716
     Eigenvalues ---    0.12029   0.12753   0.13000   0.13659   0.14588
     Eigenvalues ---    0.14855   0.15790   0.16562   0.17118   0.17384
     Eigenvalues ---    0.21862   0.22131   0.25557   0.26806   0.28503
     Eigenvalues ---    0.29313   0.31080   0.32283   0.32564   0.33001
     Eigenvalues ---    0.33256   0.33727   0.33780   0.33892   0.34021
     Eigenvalues ---    0.34049   0.34208   0.34380   0.34766   0.35010
     Eigenvalues ---    0.35557   0.36628   0.37338   0.48560   1.46915
 RFO step:  Lambda=-4.54206968D-02 EMin=-4.30769200D-02
 I=     1 Eig=   -4.31D-02 Dot1= -3.74D-03
 I=     1 Stepn= -6.00D-01 RXN=   6.00D-01 EDone=F
 I=     2 Eig=   -9.67D-03 Dot1= -8.17D-04
 I=     2 Stepn= -3.00D-01 RXN=   6.71D-01 EDone=F
 Mixed    2 eigenvectors in step.  Raw Step.Grad=  4.56D-03.
 RFO eigenvector is Hessian eigenvector with negative curvature.
 Taking step of  6.00D-01 in eigenvector direction(s).  Step.Grad=  1.28D-03.
 Skip linear search -- no minimum in search direction.
 Iteration  1 RMS(Cart)=  0.16216363 RMS(Int)=  0.01671051
 Iteration  2 RMS(Cart)=  0.04253342 RMS(Int)=  0.00074943
 Iteration  3 RMS(Cart)=  0.00123426 RMS(Int)=  0.00042467
 Iteration  4 RMS(Cart)=  0.00000157 RMS(Int)=  0.00042467
 Iteration  5 RMS(Cart)=  0.00000000 RMS(Int)=  0.00042467
 Variable       Old X    -DE/DX   Delta X   Delta X   Delta X     New X
                                 (Linear)    (Quad)   (Total)
    R1        2.88313   0.01344   0.00000  -0.00109  -0.00109   2.88204
    R2        2.06957   0.00102   0.00000  -0.00007  -0.00007   2.06950
    R3        2.06646  -0.00170   0.00000   0.00070   0.00070   2.06716
    R4        2.06969   0.00053   0.00000  -0.00089  -0.00089   2.06881
    R5        2.79101   0.00018   0.00000   0.00401   0.00401   2.79502
    R6        2.07340   0.00095   0.00000   0.00007   0.00007   2.07347
    R7        2.07324  -0.00019   0.00000  -0.00054  -0.00054   2.07270
    R8        2.79294   0.02104   0.00000  -0.01213  -0.01213   2.78081
    R9        2.77767   0.01719   0.00000   0.01753   0.01753   2.79520
   R10        2.81989   0.02076   0.00000   0.00092   0.00092   2.82081
   R11        2.07003   0.00625   0.00000   0.00264   0.00264   2.07267
   R12        2.07473   0.00141   0.00000   0.00054   0.00054   2.07527
   R13        2.05023  -0.00778   0.00000  -0.02450  -0.02450   2.02573
   R14        2.06715   0.00155   0.00000  -0.00057  -0.00057   2.06658
   R15        2.06537   0.00156   0.00000   0.00217   0.00217   2.06754
   R16        2.94848  -0.00558   0.00000  -0.01255  -0.01255   2.93593
   R17        2.07340   0.00029   0.00000  -0.00052  -0.00052   2.07288
   R18        2.07398   0.00453   0.00000  -0.00078  -0.00078   2.07320
   R19        2.07312  -0.00031   0.00000   0.00001   0.00001   2.07313
   R20        2.06932   0.00263   0.00000  -0.00081  -0.00081   2.06851
   R21        2.03996  -0.00051   0.00000   0.00507   0.00507   2.04503
    A1        1.91562  -0.00010   0.00000  -0.00205  -0.00206   1.91356
    A2        1.94866   0.00445   0.00000  -0.00695  -0.00695   1.94171
    A3        1.94641   0.00177   0.00000   0.00736   0.00737   1.95378
    A4        1.88020  -0.00238   0.00000   0.00134   0.00132   1.88152
    A5        1.87241  -0.00103   0.00000  -0.00108  -0.00108   1.87133
    A6        1.89777  -0.00307   0.00000   0.00144   0.00146   1.89923
    A7        2.01001   0.02258   0.00000  -0.00187  -0.00189   2.00812
    A8        1.86518  -0.00018   0.00000  -0.00851  -0.00851   1.85667
    A9        1.89609  -0.00506   0.00000   0.00923   0.00923   1.90532
   A10        1.88507  -0.00804   0.00000  -0.00035  -0.00038   1.88469
   A11        1.93968  -0.01258   0.00000   0.00115   0.00114   1.94081
   A12        1.86061   0.00249   0.00000  -0.00011  -0.00008   1.86053
   A13        1.90883  -0.02214   0.00000   0.01331   0.01329   1.92212
   A14        1.96514  -0.02641   0.00000  -0.05449  -0.05440   1.91073
   A15        1.99890   0.05507   0.00000   0.01607   0.01594   2.01484
   A16        2.05755   0.04874   0.00000  -0.02737  -0.02850   2.02906
   A17        1.91712  -0.00817   0.00000   0.01457   0.01451   1.93163
   A18        1.87229  -0.02175   0.00000  -0.00197  -0.00401   1.86828
   A19        1.82857  -0.01303   0.00000   0.06524   0.06572   1.89429
   A20        1.96448  -0.01757   0.00000  -0.04440  -0.04522   1.91926
   A21        1.80735   0.00773   0.00000   0.00022   0.00118   1.80852
   A22        1.83077   0.02040   0.00000   0.02375   0.02365   1.85442
   A23        1.93460  -0.00850   0.00000   0.01140   0.01127   1.94586
   A24        1.98929  -0.00021   0.00000  -0.02583  -0.02575   1.96354
   A25        1.88790  -0.00787   0.00000   0.00242   0.00208   1.88998
   A26        1.94622  -0.00722   0.00000  -0.01325  -0.01313   1.93309
   A27        1.87355   0.00267   0.00000   0.00278   0.00282   1.87638
   A28        1.99814   0.04571   0.00000   0.08530   0.08539   2.08354
   A29        1.89425  -0.01810   0.00000  -0.02617  -0.02792   1.86632
   A30        1.93738  -0.00955   0.00000  -0.01930  -0.01841   1.91897
   A31        1.75360  -0.01276   0.00000   0.01726   0.01688   1.77048
   A32        1.99853  -0.01455   0.00000  -0.06245  -0.06190   1.93663
   A33        1.86513   0.00547   0.00000   0.00463   0.00444   1.86958
   A34        1.89308  -0.00150   0.00000   0.02675   0.02673   1.91981
   A35        1.88558  -0.00225   0.00000  -0.01498  -0.01508   1.87050
   A36        2.13154  -0.00287   0.00000  -0.00521  -0.00538   2.12616
   A37        1.88392  -0.00020   0.00000   0.00192   0.00202   1.88594
   A38        1.83018   0.00457   0.00000   0.00144   0.00135   1.83153
   A39        1.82730   0.00265   0.00000  -0.00985  -0.01008   1.81722
    D1        2.94687   0.00320   0.00000  -0.00189  -0.00188   2.94499
    D2        0.85323  -0.00050   0.00000   0.00581   0.00580   0.85904
    D3       -1.14815  -0.00083   0.00000   0.00578   0.00579  -1.14236
    D4        0.86322   0.00342   0.00000   0.00220   0.00220   0.86542
    D5       -1.23041  -0.00028   0.00000   0.00991   0.00988  -1.22053
    D6        3.05138  -0.00061   0.00000   0.00987   0.00987   3.06126
    D7       -1.26380   0.00296   0.00000   0.00004   0.00005  -1.26375
    D8        2.92575  -0.00074   0.00000   0.00775   0.00773   2.93348
    D9        0.92436  -0.00107   0.00000   0.00771   0.00772   0.93209
   D10       -1.06060  -0.02188   0.00000   0.04222   0.04215  -1.01845
   D11        1.18265   0.01306   0.00000   0.03194   0.03200   1.21466
   D12        1.02205  -0.01353   0.00000   0.02992   0.02986   1.05191
   D13       -3.01787   0.02141   0.00000   0.01964   0.01971  -2.99817
   D14        3.05718  -0.02232   0.00000   0.03022   0.03016   3.08734
   D15       -0.98275   0.01262   0.00000   0.01994   0.02001  -0.96274
   D16        3.03380   0.00043   0.00000   0.24538   0.24526  -3.00413
   D17        0.94216  -0.01050   0.00000   0.16569   0.16568   1.10784
   D18       -1.01101  -0.00441   0.00000   0.15945   0.15940  -0.85162
   D19        0.80940   0.01127   0.00000   0.29524   0.29525   1.10464
   D20       -1.28224   0.00034   0.00000   0.21555   0.21567  -1.06657
   D21        3.04777   0.00643   0.00000   0.20932   0.20939  -3.02603
[...]
     3  N   -0.043224   0.002884  -0.004807  -0.004207  -0.042282  -0.042041
     4  C   -0.004872  -0.000698  -0.024919  -0.006575  -0.013648   0.003803
     5  C   -0.000179  -0.000525  -0.006202  -0.000074  -0.032171  -0.002336
     6  C    0.351194  -0.002878  -0.007368  -0.033289  -0.000021  -0.061688
     7  C    5.299901   0.000040   0.000193   0.000945   0.000283   0.003454
     8  H    0.000040   0.781534   0.081503   0.062948   0.033170   0.047526
     9  H    0.000193   0.081503   0.811822   0.063794   0.032175   0.024870
    10  H    0.000945   0.062948   0.063794   0.743691   0.016772   0.037846
    11  H    0.000283   0.033170   0.032175   0.016772   0.711826   0.074230
    12  H    0.003454   0.047526   0.024870   0.037846   0.074230   0.911096
    13  H   -0.014598   0.000145   0.003880   0.001186   0.004858   0.002200
    14  H    0.001532   0.003561   0.059448   0.012499   0.014610   0.005290
    15  H   -0.000032   0.000062   0.000565   0.000045   0.010667   0.001339
    16  H   -0.000012   0.000032   0.001220   0.000039   0.002637   0.000131
    17  H    0.000049   0.002092   0.016502   0.000785   0.050892   0.004131
    18  H   -0.018793   0.003385   0.004042   0.028663   0.006879   0.080166
    19  H   -0.021995   0.001734   0.009335   0.027834   0.002275   0.011690
    20  H    0.335196   0.000004   0.000014   0.000065   0.000220   0.001839
    21  H    0.282476   0.000003   0.000014   0.000177   0.000032   0.000518
    22  H    0.276580   0.000003   0.000051   0.000111   0.000135   0.000410
              13         14         15         16         17         18
     1  C   -0.002383  -0.043265  -0.000204  -0.000359  -0.008354  -0.017174
     2  C    0.003042  -0.002989  -0.006784  -0.000255  -0.019546  -0.052788
     3  N   -0.061319  -0.038045  -0.007099   0.002127  -0.006893  -0.046094
     4  C   -0.066242   0.007129  -0.068543  -0.102355  -0.084855  -0.005413
     5  C   -0.050790  -0.056745   0.261059   0.217082   0.095688  -0.000074
     6  C   -0.022618  -0.014686   0.000515   0.000101   0.000165   0.014276
     7  C   -0.014598   0.001532  -0.000032  -0.000012   0.000049  -0.018793
     8  H    0.000145   0.003561   0.000062   0.000032   0.002092   0.003385
     9  H    0.003880   0.059448   0.000565   0.001220   0.016502   0.004042
    10  H    0.001186   0.012499   0.000045   0.000039   0.000785   0.028663
    11  H    0.004858   0.014610   0.010667   0.002637   0.050892   0.006879
    12  H    0.002200   0.005290   0.001339   0.000131   0.004131   0.080166
    13  H    0.871658   0.092108   0.019791   0.031849   0.021430   0.007139
    14  H    0.092108   0.723770   0.012084   0.025275   0.033430   0.005313
    15  H    0.019791   0.012084   0.622762   0.006528   0.015361   0.000216
    16  H    0.031849   0.025275   0.006528   0.654651   0.036448   0.000034
    17  H    0.021430   0.033430   0.015361   0.036448   0.738498   0.000250
    18  H    0.007139   0.005313   0.000216   0.000034   0.000250   0.782400
    19  H    0.030460   0.030722   0.000237   0.000197   0.000469   0.060651
    20  H    0.005163   0.000333   0.000270   0.000021   0.000033   0.010354
    21  H    0.003716   0.000355   0.000015   0.000003   0.000003   0.024922
    22  H    0.046096   0.003844   0.000599   0.000262   0.000098   0.013178
              19         20         21         22
     1  C   -0.021335  -0.000013  -0.000029  -0.000060
     2  C   -0.004394  -0.001524  -0.000323  -0.000238
     3  N   -0.035309  -0.005280   0.002556  -0.005405
     4  C   -0.054429  -0.002210  -0.001877  -0.022695
     5  C    0.001052   0.000124   0.000036   0.000423
     6  C    0.095287  -0.064516  -0.105301  -0.068330
     7  C   -0.021995   0.335196   0.282476   0.276580
     8  H    0.001734   0.000004   0.000003   0.000003
     9  H    0.009335   0.000014   0.000014   0.000051
    10  H    0.027834   0.000065   0.000177   0.000111
    11  H    0.002275   0.000220   0.000032   0.000135
    12  H    0.011690   0.001839   0.000518   0.000410
    13  H    0.030460   0.005163   0.003716   0.046096
    14  H    0.030722   0.000333   0.000355   0.003844
    15  H    0.000237   0.000270   0.000015   0.000599
    16  H    0.000197   0.000021   0.000003   0.000262
    17  H    0.000469   0.000033   0.000003   0.000098
    18  H    0.060651   0.010354   0.024922   0.013178
    19  H    0.680212   0.008899   0.019243   0.013748
    20  H    0.008899   0.578121  -0.005522  -0.012202
    21  H    0.019243  -0.005522   0.632052   0.007128
    22  H    0.013748  -0.012202   0.007128   0.602191
 Mulliken charges:
               1
     1  C   -0.352587
     2  C   -0.096176
     3  N   -0.194347
     4  C   -0.073917
     5  C   -0.423017
     6  C   -0.091176
     7  C   -0.448895
     8  H    0.094677
     9  H    0.072294
    10  H    0.089514
    11  H    0.119655
    12  H    0.071735
    13  H    0.073229
    14  H    0.124426
    15  H    0.130546
    16  H    0.124346
    17  H    0.103324
    18  H    0.098470
    19  H    0.143416
    20  H    0.150611
    21  H    0.139802
    22  H    0.144073
 Sum of Mulliken charges =  -0.00000
 Mulliken charges with hydrogens summed into heavy atoms:
               1
     1  C   -0.096103
     2  C    0.095214
     3  N   -0.194347
     4  C    0.123737
     5  C   -0.064801
     6  C    0.150710
     7  C   -0.014410
 Electronic spatial extent (au):  <R**2>=           1028.2587
 Charge=             -0.0000 electrons
 Dipole moment (field-independent basis, Debye):
    X=             -1.4337    Y=             -0.4076    Z=             -0.2304  Tot=              1.5082
 Quadrupole moment (field-independent basis, Debye-Ang):
   XX=            -51.6239   YY=            -52.9872   ZZ=            -49.5787
   XY=             -1.0336   XZ=             -0.7675   YZ=              0.2594
 Traceless Quadrupole moment (field-independent basis, Debye-Ang):
   XX=             -0.2273   YY=             -1.5906   ZZ=              1.8179
   XY=             -1.0336   XZ=             -0.7675   YZ=              0.2594
 Octapole moment (field-independent basis, Debye-Ang**2):
  XXX=            -11.8955  YYY=             -5.7285  ZZZ=             -2.3890  XYY=             -3.1487
  XXY=              0.3197  XXZ=             -1.1184  XZZ=             -2.3645  YZZ=             -2.3469
  YYZ=              1.0995  XYZ=             -1.9878
 Hexadecapole moment (field-independent basis, Debye-Ang**3):
 XXXX=           -764.0789 YYYY=           -600.5280 ZZZZ=           -159.2801 XXXY=             -5.8900
 XXXZ=             -5.0118 YYYX=             -7.6516 YYYZ=              2.5931 ZZZX=             -0.2406
 ZZZY=              2.4843 XXYY=           -225.9976 XXZZ=           -152.1971 YYZZ=           -122.9161
 XXYZ=              1.5258 YYXZ=              0.2304 ZZXY=             -1.5260
 N-N= 3.367808857443D+02 E-N=-1.347749451640D+03  KE= 2.896295595154D+02
 Evaluate density.
 Using the total density.
 Monte-Carlo method of calculating molar volume:
 based on  0.001 e/bohr**3 density envelope.
 Number of points per bohr**3 =   20 CutOff= 1.00D-04
 Using the CI density.
 There are       374 points.  Will hold       374 in memory.
 LenV=   805236022 MDV=   805306368.
 Box volume = 6543.407 fraction occupied=0.198
 Integrated density= 6.0407197652124019D+01 error= 2.4071976521240188D+00
 Molar volume = 1294.685 bohr**3/mol (115.536 cm**3/mol)
 Recommended a0 for SCRF calculation =  4.44 angstrom (  8.39 bohr)
 ******************************Gaussian NBO Version 3.1******************************
             N A T U R A L   A T O M I C   O R B I T A L   A N D
          N A T U R A L   B O N D   O R B I T A L   A N A L Y S I S
 ******************************Gaussian NBO Version 3.1******************************
       /RESON  / : Allow strongly delocalized NBO set

 Analyzing the CI density

 Job title: Title Card Required                                             

 Storage needed:     56284 in NPA ( 805303728 available)


 NATURAL POPULATIONS:  Natural atomic orbital occupancies 
                                                          
   NAO  Atom  No  lang   Type(AO)    Occupancy
 --------------------------------------------
     1    C    1  S      Cor( 1S)     1.99940
     2    C    1  S      Val( 2S)     1.15053
     3    C    1  S      Ryd( 3S)     0.00077
     4    C    1  S      Ryd( 4S)     0.00008
     5    C    1  px     Val( 2p)     1.20640
     6    C    1  px     Ryd( 3p)     0.00221
     7    C    1  py     Val( 2p)     1.18516
     8    C    1  py     Ryd( 3p)     0.00192
     9    C    1  pz     Val( 2p)     1.13566
    10    C    1  pz     Ryd( 3p)     0.00344
    11    C    1  dxy    Ryd( 3d)     0.00096
    12    C    1  dxz    Ryd( 3d)     0.00085
    13    C    1  dyz    Ryd( 3d)     0.00096
    14    C    1  dx2y2  Ryd( 3d)     0.00011
    15    C    1  dz2    Ryd( 3d)     0.00023
 
    16    C    2  S      Cor( 1S)     1.99933
    17    C    2  S      Val( 2S)     1.04463
    18    C    2  S      Ryd( 3S)     0.00148
    19    C    2  S      Ryd( 4S)     0.00007
    20    C    2  px     Val( 2p)     1.01786
    21    C    2  px     Ryd( 3p)     0.00394
    22    C    2  py     Val( 2p)     1.07312
    23    C    2  py     Ryd( 3p)     0.00430
    24    C    2  pz     Val( 2p)     1.16120
    25    C    2  pz     Ryd( 3p)     0.00505
    26    C    2  dxy    Ryd( 3d)     0.00163
    27    C    2  dxz    Ryd( 3d)     0.00093
    28    C    2  dyz    Ryd( 3d)     0.00110
    29    C    2  dx2y2  Ryd( 3d)     0.00041
    30    C    2  dz2    Ryd( 3d)     0.00056
 
    31    N    3  S      Cor( 1S)     1.99932
    32    N    3  S      Val( 2S)     1.28557
    33    N    3  S      Ryd( 3S)     0.00149
    34    N    3  S      Ryd( 4S)     0.00004
    35    N    3  px     Val( 2p)     1.28224
    36    N    3  px     Ryd( 3p)     0.00092
    37    N    3  py     Val( 2p)     1.27058
    38    N    3  py     Ryd( 3p)     0.00102
    39    N    3  pz     Val( 2p)     1.18501
    40    N    3  pz     Ryd( 3p)     0.00224
    41    N    3  dxy    Ryd( 3d)     0.00099
    42    N    3  dxz    Ryd( 3d)     0.00068
    43    N    3  dyz    Ryd( 3d)     0.00072
    44    N    3  dx2y2  Ryd( 3d)     0.00061
    45    N    3  dz2    Ryd( 3d)     0.00052
 
    46    C    4  S      Cor( 1S)     1.99929
    47    C    4  S      Val( 2S)     1.05702
    48    C    4  S      Ryd( 3S)     0.00223
    49    C    4  S      Ryd( 4S)     0.00005
    50    C    4  px     Val( 2p)     1.18617
    51    C    4  px     Ryd( 3p)     0.00457
    52    C    4  py     Val( 2p)     0.96498
    53    C    4  py     Ryd( 3p)     0.00301
    54    C    4  pz     Val( 2p)     1.09260
    55    C    4  pz     Ryd( 3p)     0.00343
    56    C    4  dxy    Ryd( 3d)     0.00104
    57    C    4  dxz    Ryd( 3d)     0.00070
    58    C    4  dyz    Ryd( 3d)     0.00132
    59    C    4  dx2y2  Ryd( 3d)     0.00081
    60    C    4  dz2    Ryd( 3d)     0.00070
 
    61    C    5  S      Cor( 1S)     1.99945
    62    C    5  S      Val( 2S)     1.11784
    63    C    5  S      Ryd( 3S)     0.00050
    64    C    5  S      Ryd( 4S)     0.00002
    65    C    5  px     Val( 2p)     1.19185
    66    C    5  px     Ryd( 3p)     0.00348
    67    C    5  py     Val( 2p)     1.17114
    68    C    5  py     Ryd( 3p)     0.00195
    69    C    5  pz     Val( 2p)     1.21132
    70    C    5  pz     Ryd( 3p)     0.00275
    71    C    5  dxy    Ryd( 3d)     0.00064
    72    C    5  dxz    Ryd( 3d)     0.00051
    73    C    5  dyz    Ryd( 3d)     0.00085
    74    C    5  dx2y2  Ryd( 3d)     0.00054
    75    C    5  dz2    Ryd( 3d)     0.00055
 
    76    C    6  S      Cor( 1S)     1.99931
    77    C    6  S      Val( 2S)     1.05029
    78    C    6  S      Ryd( 3S)     0.00208
    79    C    6  S      Ryd( 4S)     0.00005
    80    C    6  px     Val( 2p)     0.90491
    81    C    6  px     Ryd( 3p)     0.00365
    82    C    6  py     Val( 2p)     1.13512
    83    C    6  py     Ryd( 3p)     0.00283
    84    C    6  pz     Val( 2p)     1.20912
    85    C    6  pz     Ryd( 3p)     0.00390
    86    C    6  dxy    Ryd( 3d)     0.00109
    87    C    6  dxz    Ryd( 3d)     0.00072
    88    C    6  dyz    Ryd( 3d)     0.00083
    89    C    6  dx2y2  Ryd( 3d)     0.00092
    90    C    6  dz2    Ryd( 3d)     0.00102
 
    91    C    7  S      Cor( 1S)     1.99944
    92    C    7  S      Val( 2S)     1.10993
    93    C    7  S      Ryd( 3S)     0.00046
    94    C    7  S      Ryd( 4S)     0.00001
    95    C    7  px     Val( 2p)     1.11906
    96    C    7  px     Ryd( 3p)     0.00370
    97    C    7  py     Val( 2p)     1.21291
    98    C    7  py     Ryd( 3p)     0.00232
    99    C    7  pz     Val( 2p)     1.24381
   100    C    7  pz     Ryd( 3p)     0.00149
   101    C    7  dxy    Ryd( 3d)     0.00072
   102    C    7  dxz    Ryd( 3d)     0.00028
   103    C    7  dyz    Ryd( 3d)     0.00063
   104    C    7  dx2y2  Ryd( 3d)     0.00057
   105    C    7  dz2    Ryd( 3d)     0.00094
 
   106    H    8  S      Val( 1S)     0.78084
   107    H    8  S      Ryd( 2S)     0.02208
 
   108    H    9  S      Val( 1S)     0.79115
   109    H    9  S      Ryd( 2S)     0.03564
 
   110    H   10  S      Val( 1S)     0.78805
   111    H   10  S      Ryd( 2S)     0.02511
 
   112    H   11  S      Val( 1S)     0.76436
   113    H   11  S      Ryd( 2S)     0.02506
 
   114    H   12  S      Val( 1S)     0.78777
   115    H   12  S      Ryd( 2S)     0.03758
 
   116    H   13  S      Val( 1S)     0.79128
   117    H   13  S      Ryd( 2S)     0.03410
 
   118    H   14  S      Val( 1S)     0.74397
   119    H   14  S      Ryd( 2S)     0.03657
 
   120    H   15  S      Val( 1S)     0.77207
   121    H   15  S      Ryd( 2S)     0.00758
 
   122    H   16  S      Val( 1S)     0.76967
   123    H   16  S      Ryd( 2S)     0.01110
 
   124    H   17  S      Val( 1S)     0.78326
   125    H   17  S      Ryd( 2S)     0.02626
 
   126    H   18  S      Val( 1S)     0.76875
   127    H   18  S      Ryd( 2S)     0.03452
 
   128    H   19  S      Val( 1S)     0.74215
   129    H   19  S      Ryd( 2S)     0.02626
 
   130    H   20  S      Val( 1S)     0.76501
   131    H   20  S      Ryd( 2S)     0.00479
 
   132    H   21  S      Val( 1S)     0.76531
   133    H   21  S      Ryd( 2S)     0.00854
 
   134    H   22  S      Val( 1S)     0.77062
   135    H   22  S      Ryd( 2S)     0.01087


 Summary of Natural Population Analysis:                  
                                                          
                                       Natural Population 
                Natural  -----------------------------------------------
    Atom  No    Charge         Core      Valence    Rydberg      Total
 -----------------------------------------------------------------------
      C    1   -0.68869      1.99940     4.67775    0.01153     6.68869
      C    2   -0.31560      1.99933     4.29681    0.01946     6.31560
      N    3   -0.03195      1.99932     5.02340    0.00923     7.03195
      C    4   -0.31793      1.99929     4.30077    0.01787     6.31793
      C    5   -0.70338      1.99945     4.69215    0.01178     6.70338
      C    6   -0.31585      1.99931     4.29945    0.01709     6.31585
      C    7   -0.69628      1.99944     4.68572    0.01112     6.69628
      H    8    0.19708      0.00000     0.78084    0.02208     0.80292
      H    9    0.17321      0.00000     0.79115    0.03564     0.82679
      H   10    0.18684      0.00000     0.78805    0.02511     0.81316
      H   11    0.21058      0.00000     0.76436    0.02506     0.78942
      H   12    0.17464      0.00000     0.78777    0.03758     0.82536
      H   13    0.17462      0.00000     0.79128    0.03410     0.82538
      H   14    0.21946      0.00000     0.74397    0.03657     0.78054
      H   15    0.22035      0.00000     0.77207    0.00758     0.77965
      H   16    0.21924      0.00000     0.76967    0.01110     0.78076
      H   17    0.19048      0.00000     0.78326    0.02626     0.80952
      H   18    0.19673      0.00000     0.76875    0.03452     0.80327
      H   19    0.23159      0.00000     0.74215    0.02626     0.76841
      H   20    0.23020      0.00000     0.76501    0.00479     0.76980
      H   21    0.22616      0.00000     0.76531    0.00854     0.77384
      H   22    0.21851      0.00000     0.77062    0.01087     0.78149
 =======================================================================
   * Total *   -0.00000     13.99553    43.56034    0.44413    58.00000

                                 Natural Population      
 --------------------------------------------------------
   Core                      13.99553 ( 99.9681% of  14)
   Valence                   43.56034 ( 99.0008% of  44)
   Natural Minimal Basis     57.55587 ( 99.2343% of  58)
   Natural Rydberg Basis      0.44413 (  0.7657% of  58)
 --------------------------------------------------------

    Atom  No          Natural Electron Configuration
 ----------------------------------------------------------------------------
      C    1      [core]2S( 1.15)2p( 3.53)3p( 0.01)
      C    2      [core]2S( 1.04)2p( 3.25)3p( 0.01)
      N    3      [core]2S( 1.29)2p( 3.74)
      C    4      [core]2S( 1.06)2p( 3.24)3p( 0.01)
      C    5      [core]2S( 1.12)2p( 3.57)3p( 0.01)
      C    6      [core]2S( 1.05)2p( 3.25)3p( 0.01)
      C    7      [core]2S( 1.11)2p( 3.58)3p( 0.01)
      H    8            1S( 0.78)2S( 0.02)
      H    9            1S( 0.79)2S( 0.04)
      H   10            1S( 0.79)2S( 0.03)
      H   11            1S( 0.76)2S( 0.03)
      H   12            1S( 0.79)2S( 0.04)
      H   13            1S( 0.79)2S( 0.03)
      H   14            1S( 0.74)2S( 0.04)
      H   15            1S( 0.77)2S( 0.01)
      H   16            1S( 0.77)2S( 0.01)
      H   17            1S( 0.78)2S( 0.03)
      H   18            1S( 0.77)2S( 0.03)
      H   19            1S( 0.74)2S( 0.03)
      H   20            1S( 0.77)
      H   21            1S( 0.77)2S( 0.01)
      H   22            1S( 0.77)2S( 0.01)


 NBO analysis skipped by request.
 1\1\GINC-DELLA-R1C4N5\SP\RB3LYP TD-FC\6-31G(d)\C6H15N1\BJS4\24-Aug-202
 0\0\\# TD(NStates=10, Root=1) B3LYP/6-31G* scf=qc volume pop=NPA densi
 ty=current Geom=AllCheck Guess=Read\\Title Card Required\\0,1\C,0,2.45
 55900509,-0.7145750981,0.7498394802\C,0,2.5069838162,0.6452076364,0.02
 8746152\N,0,3.3993499215,1.667330234,0.5855105473\C,0,3.0284646167,2.1
 374078306,1.9223803147\C,0,1.6830762115,2.8655224621,1.9636745625\C,0,
 4.8183393981,1.3106116127,0.4869255017\C,0,5.7343882848,2.5328890909,0
 .372602844\H,0,1.7731902668,-1.3927679563,0.2237724926\H,0,2.095814190
 1,-0.6196042074,1.7803998739\H,0,3.4410175339,-1.193139633,0.781592863
 3\H,0,1.4958599635,1.0652201345,-0.017403139\H,0,2.813421611,0.4855380
 1,-1.0129714751\H,0,3.8043851631,2.8392279716,2.2455721494\H,0,3.03038
 34014,1.3199926308,2.6700703229\H,0,1.6605680924,3.6672376571,1.217818
 2906\H,0,1.5265192301,3.307616833,2.9542536554\H,0,0.838391611,2.19590
 33199,1.7693853587\H,0,4.9423616659,0.702051977,-0.4169688345\H,0,5.15
 16618346,0.6779387347,1.3321631169\H,0,5.4432179552,3.1464286078,-0.48
 61957612\H,0,6.7756519977,2.2156594663,0.2402659466\H,0,5.6970131836,3
 .1650726854,1.2664057368\\Version=ES64L-G16RevA.03\State=1-A\HF=-292.4
 150242\RMSD=1.208e-09\Dipole=0.4448093,0.3785935,-0.1044561\Quadrupole
 =0.6465089,-1.1955683,0.5490594,-0.694041,0.615232,-0.8034347\PG=C01 [
 X(C6H15N1)]\\@


 WHERE THERE IS MUCH DESIRE TO LEARN, THERE OF NECESSITY WILL BE
 MUCH ARGUING, MUCH WRITING, MANY OPINIONS; FOR OPINION IN GOOD MEN
 IS BUT KNOWLEDGE IN THE MAKING. -- JOHN MILTON.
 Job cpu time:       0 days  0 hours 14 minutes 21.4 seconds.
 Elapsed time:       0 days  0 hours  4 minutes 48.3 seconds.
 File lengths (MBytes):  RWF=    210 Int=      0 D2E=      0 Chk=     16 Scr=      1
 Normal termination of Gaussian 16 at Mon Aug 24 17:50:23 2020.
