 Entering Gaussian System, Link 0=g16
 Input=base_6_conf22123.com
 Output=base_6_conf22123.log
 Initial command:
 /opt/export//g16/l1.exe "/scratch/bjs4/job.9637/Gau-9641.inp" -scrdir="/scratch/bjs4/job.9637/"
 Entering Link 1 = /opt/export//g16/l1.exe PID=      9643.
  
 Copyright (c) 1988,1990,1992,1993,1995,1998,2003,2009,2016,
            Gaussian, Inc.  All Rights Reserved.
  
 This is part of the Gaussian(R) 16 program.  It is based on
 the Gaussian(R) 09 system (copyright 2009, Gaussian, Inc.),
 the Gaussian(R) 03 system (copyright 2003, Gaussian, Inc.),
 the Gaussian(R) 98 system (copyright 1998, Gaussian, Inc.),
 the Gaussian(R) 94 system (copyright 1995, Gaussian, Inc.),
 the Gaussian 92(TM) system (copyright 1992, Gaussian, Inc.),
 the Gaussian 90(TM) system (copyright 1990, Gaussian, Inc.),
 the Gaussian 88(TM) system (copyright 1988, Gaussian, Inc.),
 the Gaussian 86(TM) system (copyright 1986, Carnegie Mellon
 University), and the Gaussian 82(TM) system (copyright 1983,
 Carnegie Mellon University). Gaussian is a federally registered
 trademark of Gaussian, Inc.
  
 This software contains proprietary and confidential information,
 including trade secrets, belonging to Gaussian, Inc.
  
 This software is provided under written license and may be
 used, copied, transmitted, or stored only in accord with that
 written license.
  
 The following legend is applicable only to US Government
 contracts under FAR:
  
                    RESTRICTED RIGHTS LEGEND
  
 Use, reproduction and disclosure by the US Government is
 subject to restrictions as set forth in subparagraphs (a)
 and (c) of the Commercial Computer Software - Restricted
 Rights clause in FAR 52.227-19.
  
 Gaussian, Inc.
 340 Quinnipiac St., Bldg. 40, Wallingford CT 06492
  
  
 ---------------------------------------------------------------
 Warning -- This program may not be used in any manner that
 competes with the business of Gaussian, Inc. or will provide
 assistance to any competitor of Gaussian, Inc.  The licensee
 of this program is prohibited from giving any competitor of
 Gaussian, Inc. access to this program.  By using this program,
 the user acknowledges that Gaussian, Inc. is engaged in the
 business of creating and licensing software in the field of
 computational chemistry and represents and warrants to the
 licensee that it is not a competitor of Gaussian, Inc. and that
 it will not use this program in any manner prohibited above.
 ---------------------------------------------------------------
  

 Cite this work as:
 Gaussian 16, Revision A.03,
 M. J. Frisch, G. W. Trucks, H. B. Schlegel, G. E. Scuseria, 
 M. A. Robb, J. R. Cheeseman, G. Scalmani, V. Barone, 
 G. A. Petersson, H. Nakatsuji, X. Li, M. Caricato, A. V. Marenich, 
 J. Bloino, B. G. Janesko, R. Gomperts, B. Mennucci, H. P. Hratchian, 
 J. V. Ortiz, A. F. Izmaylov, J. L. Sonnenberg, D. Williams-Young, 
 F. Ding, F. Lipparini, F. Egidi, J. Goings, B. Peng, A. Petrone, 
 T. Henderson, D. Ranasinghe, V. G. Zakrzewski, J. Gao, N. Rega, 
 G. Zheng, W. Liang, M. Hada, M. Ehara, K. Toyota, R. Fukuda, 
 J. Hasegawa, M. Ishida, T. Nakajima, Y. Honda, O. Kitao, H. Nakai, 
 T. Vreven, K. Throssell, J. A. Montgomery, Jr., J. E. Peralta, 
 F. Ogliaro, M. J. Bearpark, J. J. Heyd, E. N. Brothers, K. N. Kudin, 
 V. N. Staroverov, T. A. Keith, R. Kobayashi, J. Normand, 
 K. Raghavachari, A. P. Rendell, J. C. Burant, S. S. Iyengar, 
 J. Tomasi, M. Cossi, J. M. Millam, M. Klene, C. Adamo, R. Cammi, 
 J. W. Ochterski, R. L. Martin, K. Morokuma, O. Farkas, 
 J. B. Foresman, and D. J. Fox, Gaussian, Inc., Wallingford CT, 2016.
 
 ******************************************
 Gaussian 16:  ES64L-G16RevA.03 25-Dec-2016
                24-Aug-2020 
 ******************************************
 %nprocshared=7
 Will use up to    7 processors via shared memory.
 %Mem=14GB
 %Chk=base_6_conf221.chk
 ---------------------------------
 # opt=CalcAll B3LYP/6-31G* scf=qc
 ---------------------------------
 1/10=4,18=20,19=15,26=3,38=1/1,3;
 2/9=110,12=2,17=6,18=5,40=1/2;
 3/5=1,6=6,7=1,11=2,25=1,30=1,71=2,74=-5,140=1/1,2,3;
 4//1;
 5/5=2,8=3,38=5/8;
 8/6=4,10=90,11=11/1;
 11/6=1,8=1,9=11,15=111,16=1/1,2,10;
 10/6=1/2;
 6/7=2,8=2,9=2,10=2,18=1,28=1/1;
 7/10=1,25=1/1,2,3,16;
 1/10=4,18=20,19=15,26=3/3(3);
 2/9=110/2;
 7/8=1,9=1,25=1,44=-1/16;
 99//99;
 2/9=110/2;
 3/5=1,6=6,7=1,11=2,25=1,30=1,71=2,74=-5,140=1/1,2,3;
 4/5=5,16=3,69=1/1;
 5/5=2,8=3,38=5/8;
 8/6=4,10=90,11=11/1;
 11/6=1,8=1,9=11,15=111,16=1/1,2,10;
 10/6=1/2;
 7/10=1,25=1/1,2,3,16;
 1/10=4,18=20,19=15,26=3/3(-8);
 2/9=110/2;
 6/7=2,8=2,9=2,10=2,18=1,19=2,28=1/1;
 7/8=1,9=1,25=1,44=-1/16;
 99//99;
 -------------------
 Title Card Required
 -------------------
 Symbolic Z-matrix:
 Charge =  0 Multiplicity = 1
 N                    -1.3325    0.0965    1.2627 
 C                    -1.3347   -0.677     0.0182 
 C                    -0.0666   -0.9542   -0.8227 
 N1                    1.1923   -1.3331   -0.1966 
 C                     2.2526   -0.3428   -0.3632 
 C                     2.1781    1.0394    0.3401 
 N                     0.8633    1.5949    0.6743 
 P                    -0.0423    0.9382    1.9236 
 N                     0.8413   -0.1292    2.8862 
 C                     1.5867   -1.2768    2.35 
 C                     1.0899   -2.0077    1.0914 
 C                     1.4522    0.2657    4.1847 
 C                     0.48466   0.78175   5.25584 
 C                     2.40675  -0.78974   4.75149 
 C                     0.3903    2.6135   -0.2921 
 C                     1.23836   3.88796  -0.47985 
 C                     0.17324   2.02452  -1.70148 
 C                    -2.6256    0.0807    1.981 
 C                    -2.62626   0.90869   3.28051 
 C                    -3.77874   0.54557   1.08202 
 H                    -2.0236   -0.1957   -0.6861 
 H                    -1.7651   -1.6605    0.2217 
 H                     0.0784   -0.1219   -1.5231 
 H                    -0.3264   -1.7969   -1.4792 
 H                     2.3486   -0.1513   -1.4414 
 H                     3.212    -0.8052   -0.0938 
 H                     2.743     1.7228   -0.3027 
 H                     2.7948    1.0104    1.243 
 H                     1.589    -2.0553    3.1279 
 H                     2.6431   -1.0107    2.2176 
 H                     0.0892   -2.415     1.2778 
 H                     1.7144   -2.9071    1.0026 
 H                     2.12068   1.11839   3.99777 
 H                    -0.15473  -0.00921   5.65822 
 H                    -0.14793   1.58406   4.86555 
 H                     1.05063   1.21496   6.09113 
 H                     1.87712  -1.67727   5.10907 
 H                     2.95423  -0.3676    5.61325 
 H                     3.15174  -1.0896    4.01475 
 H                    -0.5874    2.96912   0.06039 
 H                     2.25302   3.66053  -0.82356 
 H                     1.29117   4.47653   0.43764 
 H                     0.78372   4.54481  -1.23213 
 H                     1.11609   1.68856  -2.14336 
 H                    -0.25734   2.78339  -2.36775 
 H                    -0.52603   1.18542  -1.71149 
 H                    -2.86594  -0.94719   2.29028 
 H                    -2.42767   1.97148   3.10447 
 H                    -1.88161   0.53178   3.98783 
 H                    -3.60448   0.85275   3.77252 
 H                    -3.70903   1.60895   0.83165 
 H                    -4.73895   0.39884   1.58917 
 H                    -3.80795  -0.02693   0.151 
 

 GradGradGradGradGradGradGradGradGradGradGradGradGradGradGradGradGradGrad
 Berny optimization.
 Initialization pass.
                           ----------------------------
                           !    Initial Parameters    !
                           ! (Angstroms and Degrees)  !
 --------------------------                            --------------------------
 ! Name  Definition              Value          Derivative Info.                !
 --------------------------------------------------------------------------------
 ! R1    R(1,2)                  1.4653         calculate D2E/DX2 analytically  !
 ! R2    R(1,8)                  1.6763         calculate D2E/DX2 analytically  !
 ! R3    R(1,18)                 1.4793         calculate D2E/DX2 analytically  !
 ! R4    R(2,3)                  1.5466         calculate D2E/DX2 analytically  !
 ! R5    R(2,21)                 1.0965         calculate D2E/DX2 analytically  !
 ! R6    R(2,22)                 1.0927         calculate D2E/DX2 analytically  !
 ! R7    R(3,4)                  1.4562         calculate D2E/DX2 analytically  !
 ! R8    R(3,23)                 1.0974         calculate D2E/DX2 analytically  !
 ! R9    R(3,24)                 1.0994         calculate D2E/DX2 analytically  !
 ! R10   R(4,5)                  1.4604         calculate D2E/DX2 analytically  !
 ! R11   R(4,11)                 1.4576         calculate D2E/DX2 analytically  !
 ! R12   R(5,6)                  1.5526         calculate D2E/DX2 analytically  !
 ! R13   R(5,25)                 1.0993         calculate D2E/DX2 analytically  !
 ! R14   R(5,26)                 1.0986         calculate D2E/DX2 analytically  !
 ! R15   R(6,7)                  1.4659         calculate D2E/DX2 analytically  !
 ! R16   R(6,27)                 1.0951         calculate D2E/DX2 analytically  !
 ! R17   R(6,28)                 1.0938         calculate D2E/DX2 analytically  !
 ! R18   R(7,8)                  1.6769         calculate D2E/DX2 analytically  !
 ! R19   R(7,15)                 1.4816         calculate D2E/DX2 analytically  !
 ! R20   R(8,9)                  1.6872         calculate D2E/DX2 analytically  !
 ! R21   R(9,10)                 1.4697         calculate D2E/DX2 analytically  !
 ! R22   R(9,12)                 1.4884         calculate D2E/DX2 analytically  !
 ! R23   R(10,11)                1.5379         calculate D2E/DX2 analytically  !
 ! R24   R(10,29)                1.1005         calculate D2E/DX2 analytically  !
 ! R25   R(10,30)                1.0974         calculate D2E/DX2 analytically  !
 ! R26   R(11,31)                1.0964         calculate D2E/DX2 analytically  !
 ! R27   R(11,32)                1.0985         calculate D2E/DX2 analytically  !
 ! R28   R(12,13)                1.5329         calculate D2E/DX2 analytically  !
 ! R29   R(12,14)                1.5318         calculate D2E/DX2 analytically  !
 ! R30   R(12,33)                1.0995         calculate D2E/DX2 analytically  !
 ! R31   R(13,34)                1.0938         calculate D2E/DX2 analytically  !
 ! R32   R(13,35)                1.0937         calculate D2E/DX2 analytically  !
 ! R33   R(13,36)                1.098          calculate D2E/DX2 analytically  !
 ! R34   R(14,37)                1.0937         calculate D2E/DX2 analytically  !
 ! R35   R(14,38)                1.1048         calculate D2E/DX2 analytically  !
 ! R36   R(14,39)                1.0898         calculate D2E/DX2 analytically  !
 ! R37   R(15,16)                1.5423         calculate D2E/DX2 analytically  !
 ! R38   R(15,17)                1.5428         calculate D2E/DX2 analytically  !
 ! R39   R(15,40)                1.0985         calculate D2E/DX2 analytically  !
 ! R40   R(16,41)                1.0952         calculate D2E/DX2 analytically  !
 ! R41   R(16,42)                1.0913         calculate D2E/DX2 analytically  !
 ! R42   R(16,43)                1.0973         calculate D2E/DX2 analytically  !
 ! R43   R(17,44)                1.0941         calculate D2E/DX2 analytically  !
 ! R44   R(17,45)                1.0978         calculate D2E/DX2 analytically  !
 ! R45   R(17,46)                1.0923         calculate D2E/DX2 analytically  !
 ! R46   R(18,19)                1.5409         calculate D2E/DX2 analytically  !
 ! R47   R(18,20)                1.5343         calculate D2E/DX2 analytically  !
 ! R48   R(18,47)                1.1            calculate D2E/DX2 analytically  !
 ! R49   R(19,48)                1.0954         calculate D2E/DX2 analytically  !
 ! R50   R(19,49)                1.094          calculate D2E/DX2 analytically  !
 ! R51   R(19,50)                1.0964         calculate D2E/DX2 analytically  !
 ! R52   R(20,51)                1.0947         calculate D2E/DX2 analytically  !
 ! R53   R(20,52)                1.0958         calculate D2E/DX2 analytically  !
 ! R54   R(20,53)                1.0933         calculate D2E/DX2 analytically  !
 ! A1    A(2,1,8)              126.9472         calculate D2E/DX2 analytically  !
 ! A2    A(2,1,18)             113.9194         calculate D2E/DX2 analytically  !
 ! A3    A(8,1,18)             119.1257         calculate D2E/DX2 analytically  !
 ! A4    A(1,2,3)              123.7215         calculate D2E/DX2 analytically  !
 ! A5    A(1,2,21)             108.3469         calculate D2E/DX2 analytically  !
 ! A6    A(1,2,22)             108.515          calculate D2E/DX2 analytically  !
 ! A7    A(3,2,21)             104.1569         calculate D2E/DX2 analytically  !
 ! A8    A(3,2,22)             105.2422         calculate D2E/DX2 analytically  !
 ! A9    A(21,2,22)            105.5002         calculate D2E/DX2 analytically  !
 ! A10   A(2,3,4)              121.447          calculate D2E/DX2 analytically  !
 ! A11   A(2,3,23)             108.6273         calculate D2E/DX2 analytically  !
 ! A12   A(2,3,24)             105.5631         calculate D2E/DX2 analytically  !
 ! A13   A(4,3,23)             110.9488         calculate D2E/DX2 analytically  !
 ! A14   A(4,3,24)             105.1654         calculate D2E/DX2 analytically  !
 ! A15   A(23,3,24)            103.3825         calculate D2E/DX2 analytically  !
 ! A16   A(3,4,5)              113.7154         calculate D2E/DX2 analytically  !
 ! A17   A(3,4,11)             116.0808         calculate D2E/DX2 analytically  !
 ! A18   A(5,4,11)             117.7532         calculate D2E/DX2 analytically  !
 ! A19   A(4,5,6)              121.1423         calculate D2E/DX2 analytically  !
 ! A20   A(4,5,25)             107.0635         calculate D2E/DX2 analytically  !
 ! A21   A(4,5,26)             108.7035         calculate D2E/DX2 analytically  !
 ! A22   A(6,5,25)             107.0614         calculate D2E/DX2 analytically  !
 ! A23   A(6,5,26)             107.7902         calculate D2E/DX2 analytically  !
 ! A24   A(25,5,26)            103.7441         calculate D2E/DX2 analytically  !
 ! A25   A(5,6,7)              118.9239         calculate D2E/DX2 analytically  !
 ! A26   A(5,6,27)             105.3612         calculate D2E/DX2 analytically  !
 ! A27   A(5,6,28)             108.8603         calculate D2E/DX2 analytically  !
 ! A28   A(7,6,27)             111.0993         calculate D2E/DX2 analytically  !
 ! A29   A(7,6,28)             109.1199         calculate D2E/DX2 analytically  !
 ! A30   A(27,6,28)            102.1359         calculate D2E/DX2 analytically  !
 ! A31   A(6,7,8)              120.3846         calculate D2E/DX2 analytically  !
 ! A32   A(6,7,15)             113.4624         calculate D2E/DX2 analytically  !
 ! A33   A(8,7,15)             125.6441         calculate D2E/DX2 analytically  !
 ! A34   A(1,8,7)              108.5763         calculate D2E/DX2 analytically  !
 ! A35   A(1,8,9)              108.0811         calculate D2E/DX2 analytically  !
 ! A36   A(7,8,9)              112.9524         calculate D2E/DX2 analytically  !
 ! A37   A(8,9,10)             123.4659         calculate D2E/DX2 analytically  !
 ! A38   A(8,9,12)             123.014          calculate D2E/DX2 analytically  !
 ! A39   A(10,9,12)            108.4992         calculate D2E/DX2 analytically  !
 ! A40   A(9,10,11)            120.3867         calculate D2E/DX2 analytically  !
 ! A41   A(9,10,29)            107.1889         calculate D2E/DX2 analytically  !
 ! A42   A(9,10,30)            110.0533         calculate D2E/DX2 analytically  !
 ! A43   A(11,10,29)           104.0609         calculate D2E/DX2 analytically  !
 ! A44   A(11,10,30)           109.1154         calculate D2E/DX2 analytically  !
 ! A45   A(29,10,30)           104.7611         calculate D2E/DX2 analytically  !
 ! A46   A(4,11,10)            118.7198         calculate D2E/DX2 analytically  !
 ! A47   A(4,11,31)            112.7243         calculate D2E/DX2 analytically  !
 ! A48   A(4,11,32)            105.5188         calculate D2E/DX2 analytically  !
 ! A49   A(10,11,31)           109.4066         calculate D2E/DX2 analytically  !
 ! A50   A(10,11,32)           105.7606         calculate D2E/DX2 analytically  !
 ! A51   A(31,11,32)           103.2065         calculate D2E/DX2 analytically  !
 ! A52   A(9,12,13)            116.0961         calculate D2E/DX2 analytically  !
 ! A53   A(9,12,14)            113.3144         calculate D2E/DX2 analytically  !
 ! A54   A(9,12,33)            107.8778         calculate D2E/DX2 analytically  !
 ! A55   A(13,12,14)           111.5142         calculate D2E/DX2 analytically  !
 ! A56   A(13,12,33)           103.9734         calculate D2E/DX2 analytically  !
 ! A57   A(14,12,33)           102.6147         calculate D2E/DX2 analytically  !
 ! A58   A(12,13,34)           112.4941         calculate D2E/DX2 analytically  !
 ! A59   A(12,13,35)           111.2643         calculate D2E/DX2 analytically  !
 ! A60   A(12,13,36)           109.8185         calculate D2E/DX2 analytically  !
 ! A61   A(34,13,35)           108.8835         calculate D2E/DX2 analytically  !
 ! A62   A(34,13,36)           107.8641         calculate D2E/DX2 analytically  !
 ! A63   A(35,13,36)           106.2702         calculate D2E/DX2 analytically  !
 ! A64   A(12,14,37)           112.2322         calculate D2E/DX2 analytically  !
 ! A65   A(12,14,38)           109.5211         calculate D2E/DX2 analytically  !
 ! A66   A(12,14,39)           111.434          calculate D2E/DX2 analytically  !
 ! A67   A(37,14,38)           107.1594         calculate D2E/DX2 analytically  !
 ! A68   A(37,14,39)           109.1952         calculate D2E/DX2 analytically  !
 ! A69   A(38,14,39)           107.0789         calculate D2E/DX2 analytically  !
 ! A70   A(7,15,16)            118.1614         calculate D2E/DX2 analytically  !
 ! A71   A(7,15,17)            112.2284         calculate D2E/DX2 analytically  !
 ! A72   A(7,15,40)            107.3023         calculate D2E/DX2 analytically  !
 ! A73   A(16,15,17)           106.3563         calculate D2E/DX2 analytically  !
 ! A74   A(16,15,40)           105.1269         calculate D2E/DX2 analytically  !
 ! A75   A(17,15,40)           106.948          calculate D2E/DX2 analytically  !
 ! A76   A(15,16,41)           112.089          calculate D2E/DX2 analytically  !
 ! A77   A(15,16,42)           111.7108         calculate D2E/DX2 analytically  !
 ! A78   A(15,16,43)           110.5045         calculate D2E/DX2 analytically  !
 ! A79   A(41,16,42)           109.3304         calculate D2E/DX2 analytically  !
 ! A80   A(41,16,43)           107.0386         calculate D2E/DX2 analytically  !
 ! A81   A(42,16,43)           105.8774         calculate D2E/DX2 analytically  !
 ! A82   A(15,17,44)           111.4024         calculate D2E/DX2 analytically  !
 ! A83   A(15,17,45)           110.2245         calculate D2E/DX2 analytically  !
 ! A84   A(15,17,46)           113.0596         calculate D2E/DX2 analytically  !
 ! A85   A(44,17,45)           107.7664         calculate D2E/DX2 analytically  !
 ! A86   A(44,17,46)           108.1848         calculate D2E/DX2 analytically  !
 ! A87   A(45,17,46)           105.924          calculate D2E/DX2 analytically  !
 ! A88   A(1,18,19)            113.8375         calculate D2E/DX2 analytically  !
 ! A89   A(1,18,20)            111.6687         calculate D2E/DX2 analytically  !
 ! A90   A(1,18,47)            109.7245         calculate D2E/DX2 analytically  !
 ! A91   A(19,18,20)           109.3305         calculate D2E/DX2 analytically  !
 ! A92   A(19,18,47)           105.3617         calculate D2E/DX2 analytically  !
 ! A93   A(20,18,47)           106.4787         calculate D2E/DX2 analytically  !
 ! A94   A(18,19,48)           112.6893         calculate D2E/DX2 analytically  !
 ! A95   A(18,19,49)           111.0905         calculate D2E/DX2 analytically  !
 ! A96   A(18,19,50)           110.5742         calculate D2E/DX2 analytically  !
 ! A97   A(48,19,49)           108.3464         calculate D2E/DX2 analytically  !
 ! A98   A(48,19,50)           106.4611         calculate D2E/DX2 analytically  !
 ! A99   A(49,19,50)           107.4322         calculate D2E/DX2 analytically  !
 ! A100  A(18,20,51)           112.3632         calculate D2E/DX2 analytically  !
 ! A101  A(18,20,52)           110.2946         calculate D2E/DX2 analytically  !
 ! A102  A(18,20,53)           111.1227         calculate D2E/DX2 analytically  !
 ! A103  A(51,20,52)           106.9617         calculate D2E/DX2 analytically  !
 ! A104  A(51,20,53)           108.3966         calculate D2E/DX2 analytically  !
 ! A105  A(52,20,53)           107.4925         calculate D2E/DX2 analytically  !
 ! D1    D(8,1,2,3)              6.5288         calculate D2E/DX2 analytically  !
 ! D2    D(8,1,2,21)          -115.5544         calculate D2E/DX2 analytically  !
 ! D3    D(8,1,2,22)           130.3676         calculate D2E/DX2 analytically  !
 ! D4    D(18,1,2,3)          -172.4484         calculate D2E/DX2 analytically  !
 ! D5    D(18,1,2,21)           65.4684         calculate D2E/DX2 analytically  !
 ! D6    D(18,1,2,22)          -48.6096         calculate D2E/DX2 analytically  !
 ! D7    D(2,1,8,7)             35.5067         calculate D2E/DX2 analytically  !
 ! D8    D(2,1,8,9)            -87.3469         calculate D2E/DX2 analytically  !
 ! D9    D(18,1,8,7)          -145.5636         calculate D2E/DX2 analytically  !
 ! D10   D(18,1,8,9)            91.5828         calculate D2E/DX2 analytically  !
 ! D11   D(2,1,18,19)         -179.2942         calculate D2E/DX2 analytically  !
 ! D12   D(2,1,18,20)          -54.8952         calculate D2E/DX2 analytically  !
 ! D13   D(2,1,18,47)           62.9254         calculate D2E/DX2 analytically  !
 ! D14   D(8,1,18,19)            1.6415         calculate D2E/DX2 analytically  !
 ! D15   D(8,1,18,20)          126.0405         calculate D2E/DX2 analytically  !
 ! D16   D(8,1,18,47)         -116.1389         calculate D2E/DX2 analytically  !
 ! D17   D(1,2,3,4)             43.0242         calculate D2E/DX2 analytically  !
 ! D18   D(1,2,3,23)           -87.3954         calculate D2E/DX2 analytically  !
 ! D19   D(1,2,3,24)           162.2751         calculate D2E/DX2 analytically  !
 ! D20   D(21,2,3,4)           166.9873         calculate D2E/DX2 analytically  !
 ! D21   D(21,2,3,23)           36.5676         calculate D2E/DX2 analytically  !
 ! D22   D(21,2,3,24)          -73.7618         calculate D2E/DX2 analytically  !
 ! D23   D(22,2,3,4)           -82.2565         calculate D2E/DX2 analytically  !
 ! D24   D(22,2,3,23)          147.3239         calculate D2E/DX2 analytically  !
 ! D25   D(22,2,3,24)           36.9944         calculate D2E/DX2 analytically  !
 ! D26   D(2,3,4,5)           -114.6653         calculate D2E/DX2 analytically  !
 ! D27   D(2,3,4,11)            26.7144         calculate D2E/DX2 analytically  !
 ! D28   D(23,3,4,5)            14.756          calculate D2E/DX2 analytically  !
 ! D29   D(23,3,4,11)          156.1357         calculate D2E/DX2 analytically  !
 ! D30   D(24,3,4,5)           125.8894         calculate D2E/DX2 analytically  !
 ! D31   D(24,3,4,11)          -92.7309         calculate D2E/DX2 analytically  !
 ! D32   D(3,4,5,6)             68.5652         calculate D2E/DX2 analytically  !
 ! D33   D(3,4,5,25)           -54.3947         calculate D2E/DX2 analytically  !
 ! D34   D(3,4,5,26)          -165.8822         calculate D2E/DX2 analytically  !
 ! D35   D(11,4,5,6)           -72.1277         calculate D2E/DX2 analytically  !
 ! D36   D(11,4,5,25)          164.9123         calculate D2E/DX2 analytically  !
 ! D37   D(11,4,5,26)           53.4248         calculate D2E/DX2 analytically  !
 ! D38   D(3,4,11,10)         -112.0917         calculate D2E/DX2 analytically  !
 ! D39   D(3,4,11,31)           17.7182         calculate D2E/DX2 analytically  !
 ! D40   D(3,4,11,32)          129.6408         calculate D2E/DX2 analytically  !
 ! D41   D(5,4,11,10)           27.6876         calculate D2E/DX2 analytically  !
 ! D42   D(5,4,11,31)          157.4975         calculate D2E/DX2 analytically  !
 ! D43   D(5,4,11,32)          -90.5799         calculate D2E/DX2 analytically  !
 ! D44   D(4,5,6,7)            -26.5093         calculate D2E/DX2 analytically  !
 ! D45   D(4,5,6,27)          -151.8424         calculate D2E/DX2 analytically  !
 ! D46   D(4,5,6,28)            99.2384         calculate D2E/DX2 analytically  !
 ! D47   D(25,5,6,7)            96.4516         calculate D2E/DX2 analytically  !
 ! D48   D(25,5,6,27)          -28.8815         calculate D2E/DX2 analytically  !
 ! D49   D(25,5,6,28)         -137.8007         calculate D2E/DX2 analytically  !
 ! D50   D(26,5,6,7)          -152.48           calculate D2E/DX2 analytically  !
 ! D51   D(26,5,6,27)           82.187          calculate D2E/DX2 analytically  !
 ! D52   D(26,5,6,28)          -26.7322         calculate D2E/DX2 analytically  !
 ! D53   D(5,6,7,8)             72.2746         calculate D2E/DX2 analytically  !
 ! D54   D(5,6,7,15)           -99.993          calculate D2E/DX2 analytically  !
 ! D55   D(27,6,7,8)          -165.2037         calculate D2E/DX2 analytically  !
 ! D56   D(27,6,7,15)           22.5286         calculate D2E/DX2 analytically  !
 ! D57   D(28,6,7,8)           -53.3487         calculate D2E/DX2 analytically  !
 ! D58   D(28,6,7,15)          134.3837         calculate D2E/DX2 analytically  !
 ! D59   D(6,7,8,1)           -107.7318         calculate D2E/DX2 analytically  !
 ! D60   D(6,7,8,9)             12.1292         calculate D2E/DX2 analytically  !
 ! D61   D(15,7,8,1)            63.5326         calculate D2E/DX2 analytically  !
 ! D62   D(15,7,8,9)          -176.6064         calculate D2E/DX2 analytically  !
 ! D63   D(6,7,15,16)          -60.7059         calculate D2E/DX2 analytically  !
 ! D64   D(6,7,15,17)           63.6158         calculate D2E/DX2 analytically  !
 ! D65   D(6,7,15,40)         -179.1817         calculate D2E/DX2 analytically  !
 ! D66   D(8,7,15,16)          127.5053         calculate D2E/DX2 analytically  !
 ! D67   D(8,7,15,17)         -108.1729         calculate D2E/DX2 analytically  !
 ! D68   D(8,7,15,40)            9.0296         calculate D2E/DX2 analytically  !
 ! D69   D(1,8,9,10)            66.4619         calculate D2E/DX2 analytically  !
 ! D70   D(1,8,9,12)          -141.5205         calculate D2E/DX2 analytically  !
 ! D71   D(7,8,9,10)           -53.6833         calculate D2E/DX2 analytically  !
 ! D72   D(7,8,9,12)            98.3344         calculate D2E/DX2 analytically  !
 ! D73   D(8,9,10,11)          -31.3803         calculate D2E/DX2 analytically  !
 ! D74   D(8,9,10,29)         -149.818          calculate D2E/DX2 analytically  !
 ! D75   D(8,9,10,30)           96.8018         calculate D2E/DX2 analytically  !
 ! D76   D(12,9,10,11)         173.1314         calculate D2E/DX2 analytically  !
 ! D77   D(12,9,10,29)          54.6937         calculate D2E/DX2 analytically  !
 ! D78   D(12,9,10,30)         -58.6865         calculate D2E/DX2 analytically  !
 ! D79   D(8,9,12,13)           59.2943         calculate D2E/DX2 analytically  !
 ! D80   D(8,9,12,14)         -169.7282         calculate D2E/DX2 analytically  !
 ! D81   D(8,9,12,33)          -56.8427         calculate D2E/DX2 analytically  !
 ! D82   D(10,9,12,13)        -145.0828         calculate D2E/DX2 analytically  !
 ! D83   D(10,9,12,14)         -14.1053         calculate D2E/DX2 analytically  !
 ! D84   D(10,9,12,33)          98.7802         calculate D2E/DX2 analytically  !
 ! D85   D(9,10,11,4)           70.9889         calculate D2E/DX2 analytically  !
 ! D86   D(9,10,11,31)         -60.3146         calculate D2E/DX2 analytically  !
 ! D87   D(9,10,11,32)        -170.8699         calculate D2E/DX2 analytically  !
 ! D88   D(29,10,11,4)        -169.0092         calculate D2E/DX2 analytically  !
 ! D89   D(29,10,11,31)         59.6874         calculate D2E/DX2 analytically  !
 ! D90   D(29,10,11,32)        -50.8679         calculate D2E/DX2 analytically  !
 ! D91   D(30,10,11,4)         -57.6144         calculate D2E/DX2 analytically  !
 ! D92   D(30,10,11,31)        171.0821         calculate D2E/DX2 analytically  !
 ! D93   D(30,10,11,32)         60.5268         calculate D2E/DX2 analytically  !
 ! D94   D(9,12,13,34)          70.3406         calculate D2E/DX2 analytically  !
 ! D95   D(9,12,13,35)         -52.1417         calculate D2E/DX2 analytically  !
 ! D96   D(9,12,13,36)        -169.5166         calculate D2E/DX2 analytically  !
 ! D97   D(14,12,13,34)        -61.4792         calculate D2E/DX2 analytically  !
 ! D98   D(14,12,13,35)        176.0385         calculate D2E/DX2 analytically  !
 ! D99   D(14,12,13,36)         58.6636         calculate D2E/DX2 analytically  !
 ! D100  D(33,12,13,34)       -171.3559         calculate D2E/DX2 analytically  !
 ! D101  D(33,12,13,35)         66.1618         calculate D2E/DX2 analytically  !
 ! D102  D(33,12,13,36)        -51.2131         calculate D2E/DX2 analytically  !
 ! D103  D(9,12,14,37)         -70.8696         calculate D2E/DX2 analytically  !
 ! D104  D(9,12,14,38)         170.2436         calculate D2E/DX2 analytically  !
 ! D105  D(9,12,14,39)          51.9537         calculate D2E/DX2 analytically  !
 ! D106  D(13,12,14,37)         62.3461         calculate D2E/DX2 analytically  !
 ! D107  D(13,12,14,38)        -56.5406         calculate D2E/DX2 analytically  !
 ! D108  D(13,12,14,39)       -174.8306         calculate D2E/DX2 analytically  !
 ! D109  D(33,12,14,37)        173.0902         calculate D2E/DX2 analytically  !
 ! D110  D(33,12,14,38)         54.2035         calculate D2E/DX2 analytically  !
 ! D111  D(33,12,14,39)        -64.0865         calculate D2E/DX2 analytically  !
 ! D112  D(7,15,16,41)          59.7681         calculate D2E/DX2 analytically  !
 ! D113  D(7,15,16,42)         -63.3319         calculate D2E/DX2 analytically  !
 ! D114  D(7,15,16,43)         179.0684         calculate D2E/DX2 analytically  !
 ! D115  D(17,15,16,41)        -67.4108         calculate D2E/DX2 analytically  !
 ! D116  D(17,15,16,42)        169.4892         calculate D2E/DX2 analytically  !
 ! D117  D(17,15,16,43)         51.8895         calculate D2E/DX2 analytically  !
 ! D118  D(40,15,16,41)        179.383          calculate D2E/DX2 analytically  !
 ! D119  D(40,15,16,42)         56.2831         calculate D2E/DX2 analytically  !
 ! D120  D(40,15,16,43)        -61.3166         calculate D2E/DX2 analytically  !
 ! D121  D(7,15,17,44)         -65.2495         calculate D2E/DX2 analytically  !
 ! D122  D(7,15,17,45)         175.1686         calculate D2E/DX2 analytically  !
 ! D123  D(7,15,17,46)          56.8343         calculate D2E/DX2 analytically  !
 ! D124  D(16,15,17,44)         65.3895         calculate D2E/DX2 analytically  !
 ! D125  D(16,15,17,45)        -54.1924         calculate D2E/DX2 analytically  !
 ! D126  D(16,15,17,46)       -172.5267         calculate D2E/DX2 analytically  !
 ! D127  D(40,15,17,44)        177.3366         calculate D2E/DX2 analytically  !
 ! D128  D(40,15,17,45)         57.7547         calculate D2E/DX2 analytically  !
 ! D129  D(40,15,17,46)        -60.5797         calculate D2E/DX2 analytically  !
 ! D130  D(1,18,19,48)          61.4936         calculate D2E/DX2 analytically  !
 ! D131  D(1,18,19,49)         -60.303          calculate D2E/DX2 analytically  !
 ! D132  D(1,18,19,50)        -179.4944         calculate D2E/DX2 analytically  !
 ! D133  D(20,18,19,48)        -64.153          calculate D2E/DX2 analytically  !
 ! D134  D(20,18,19,49)        174.0504         calculate D2E/DX2 analytically  !
 ! D135  D(20,18,19,50)         54.859          calculate D2E/DX2 analytically  !
 ! D136  D(47,18,19,48)       -178.2395         calculate D2E/DX2 analytically  !
 ! D137  D(47,18,19,49)         59.9639         calculate D2E/DX2 analytically  !
 ! D138  D(47,18,19,50)        -59.2275         calculate D2E/DX2 analytically  !
 ! D139  D(1,18,20,51)         -68.3136         calculate D2E/DX2 analytically  !
 ! D140  D(1,18,20,52)         172.4456         calculate D2E/DX2 analytically  !
 ! D141  D(1,18,20,53)          53.3399         calculate D2E/DX2 analytically  !
 ! D142  D(19,18,20,51)         58.5729         calculate D2E/DX2 analytically  !
 ! D143  D(19,18,20,52)        -60.668          calculate D2E/DX2 analytically  !
 ! D144  D(19,18,20,53)       -179.7737         calculate D2E/DX2 analytically  !
 ! D145  D(47,18,20,51)        171.9344         calculate D2E/DX2 analytically  !
 ! D146  D(47,18,20,52)         52.6936         calculate D2E/DX2 analytically  !
 ! D147  D(47,18,20,53)        -66.4122         calculate D2E/DX2 analytically  !
 --------------------------------------------------------------------------------
 Trust Radius=3.00D-01 FncErr=1.00D-07 GrdErr=1.00D-06 EigMax=2.50D+02 EigMin=1.00D-04
 Number of steps in this run=    316 maximum allowed number of steps=    318.
 GradGradGradGradGradGradGradGradGradGradGradGradGradGradGradGradGradGrad

 Stoichiometry    C15H33N4P
 Framework group  C1[X(C15H33N4P)]
 Deg. of freedom   153
 Full point group                 C1      NOp   1
 Largest Abelian subgroup         C1      NOp   1
 Largest concise Abelian subgroup C1      NOp   1
                         Standard orientation:                         
 ---------------------------------------------------------------------
 Center     Atomic      Atomic             Coordinates (Angstroms)
 Number     Number       Type             X           Y           Z
 ---------------------------------------------------------------------
      1          7           0        0.228609    1.454756   -0.529096
      2          6           0        1.153470    1.193302   -1.635153
      3          6           0        1.689103   -0.212950   -1.992339
      4          7           0        0.815520   -1.377886   -2.005443
      5          6           0        1.145855   -2.371244   -0.987206
      6          6           0        0.932064   -2.075815    0.521990
      7          7           0        0.966642   -0.685030    0.984039
      8         15           0       -0.295726    0.359252    0.626243
      9          7           0       -1.653874   -0.434819    0.016672
     10          6           0       -1.611081   -1.344535   -1.136889
     11          6           0       -0.594471   -1.118576   -2.268500
     12          6           0       -2.829244   -0.792479    0.856810
     13          6           0       -3.545162    0.374368    1.546529
     14          6           0       -3.821070   -1.720194    0.148293
     15          6           0        2.258941   -0.299171    1.597457
     16          6           0        2.726927   -1.065255    2.851573
     17          6           0        3.425318   -0.362019    0.589499
     18          6           0       -0.281225    2.842837   -0.488942
     19          6           0       -1.240158    3.120328    0.684830
     20          6           0        0.862018    3.865749   -0.463486
     21          1           0        2.057969    1.792790   -1.477777
     22          1           0        0.707801    1.573740   -2.557418
     23          1           0        2.591316   -0.405757   -1.398077
     24          1           0        2.073515   -0.130168   -3.018987
     25          1           0        2.206781   -2.627326   -1.118593
     26          1           0        0.620362   -3.306488   -1.223878
     27          1           0        1.677858   -2.683680    1.045086
     28          1           0       -0.006473   -2.536763    0.843027
     29          1           0       -2.588456   -1.279741   -1.638622
     30          1           0       -1.541419   -2.384537   -0.793577
     31          1           0       -0.766850   -0.135447   -2.722132
     32          1           0       -0.877617   -1.816933   -3.067832
     33          1           0       -2.471818   -1.414478    1.690028
     34          1           0       -4.089306    1.007806    0.840123
     35          1           0       -2.841551    0.994737    2.108909
     36          1           0       -4.267318   -0.011964    2.277925
     37          1           0       -4.368099   -1.209513   -0.649231
     38          1           0       -4.569166   -2.084866    0.874884
     39          1           0       -3.321687   -2.596689   -0.264120
     40          1           0        2.168795    0.747604    1.918001
     41          1           0        2.844508   -2.137015    2.659477
     42          1           0        2.044150   -0.921425    3.690692
     43          1           0        3.701227   -0.690414    3.189666
     44          1           0        3.610246   -1.387631    0.256309
     45          1           0        4.347916    0.011139    1.052927
     46          1           0        3.261265    0.259075   -0.293958
     47          1           0       -0.865304    3.050236   -1.397684
     48          1           0       -0.764732    2.978502    1.661460
     49          1           0       -2.121807    2.474590    0.634006
     50          1           0       -1.591486    4.158584    0.658158
     51          1           0        1.424409    3.838551    0.475289
     52          1           0        0.465382    4.881741   -0.569201
     53          1           0        1.559486    3.697739   -1.288542
 ---------------------------------------------------------------------
 Rotational constants (GHZ):           0.3590438           0.3004017           0.2520278
 Standard basis: 6-31G(d) (6D, 7F)
 There are   370 symmetry adapted cartesian basis functions of A   symmetry.
 There are   370 symmetry adapted basis functions of A   symmetry.
   370 basis functions,   716 primitive gaussians,   370 cartesian basis functions
    83 alpha electrons       83 beta electrons
       nuclear repulsion energy      2085.1991857268 Hartrees.
 NAtoms=   53 NActive=   53 NUniq=   53 SFac= 1.00D+00 NAtFMM=   60 NAOKFM=F Big=F
 Integral buffers will be    131072 words long.
 Raffenetti 2 integral format.
 Two-electron integral symmetry is turned on.
 One-electron integrals computed using PRISM.
 NBasis=   370 RedAO= T EigKep=  2.90D-03  NBF=   370
 NBsUse=   370 1.00D-06 EigRej= -1.00D+00 NBFU=   370
 ExpMin= 9.98D-02 ExpMax= 1.94D+04 ExpMxC= 2.91D+03 IAcc=3 IRadAn=         5 AccDes= 0.00D+00
 Harris functional with IExCor=  402 and IRadAn=       5 diagonalized for initial guess.
 HarFok:  IExCor=  402 AccDes= 0.00D+00 IRadAn=         5 IDoV= 1 UseB2=F ITyADJ=14
 ICtDFT=  3500011 ScaDFX=  1.000000  1.000000  1.000000  1.000000
 FoFCou: FMM=F IPFlag=           0 FMFlag=      100000 FMFlg1=           0
         NFxFlg=           0 DoJE=T BraDBF=F KetDBF=T FulRan=T
         wScrn=  0.000000 ICntrl=       500 IOpCl=  0 I1Cent=   200000004 NGrid=           0
         NMat0=    1 NMatS0=      1 NMatT0=    0 NMatD0=    1 NMtDS0=    0 NMtDT0=    0
 Petite list used in FoFCou.
 Gradient too large for Newton-Raphson -- use scaled steepest descent instead.
     Accept linear search using points  2 and  3.
 Gradient too large for Newton-Raphson -- use scaled steepest descent instead.
     Minimum is close to point  3 DX=  2.94D-02 DF= -5.69D-05 DXR=  4.03D-02 DFR=  1.63D-03 which will be used.
 Gradient too large for Newton-Raphson -- use scaled steepest descent instead.
     Minimum is close to point  2 DX=  4.67D-02 DF= -1.74D-05 DXR=  8.54D-02 DFR=  7.35D-03 which will be used.
 Gradient too large for Newton-Raphson -- use scaled steepest descent instead.
     Minimum is close to point  2 DX=  4.15D-02 DF= -1.76D-06 DXR=  6.47D-02 DFR=  4.21D-03 which will be used.
 Gradient too large for Newton-Raphson -- use scaled steepest descent instead.
     Accept linear search using points  1 and  2.
 LinEq1:  Iter=  0 NonCon=     1 RMS=2.63D-05 Max=1.32D-03 NDo=     1
 AX will form     1 AO Fock derivatives at one time.
 LinEq1:  Iter=  1 NonCon=     1 RMS=1.28D-05 Max=4.37D-04 NDo=     1
 LinEq1:  Iter=  2 NonCon=     1 RMS=5.19D-06 Max=3.37D-04 NDo=     1
 LinEq1:  Iter=  3 NonCon=     1 RMS=2.06D-06 Max=5.94D-05 NDo=     1
 LinEq1:  Iter=  4 NonCon=     1 RMS=1.08D-06 Max=5.08D-05 NDo=     1
 LinEq1:  Iter=  5 NonCon=     1 RMS=6.03D-07 Max=1.86D-05 NDo=     1
 LinEq1:  Iter=  6 NonCon=     1 RMS=2.43D-07 Max=4.25D-06 NDo=     1
 LinEq1:  Iter=  7 NonCon=     1 RMS=1.15D-07 Max=3.50D-06 NDo=     1
 LinEq1:  Iter=  8 NonCon=     1 RMS=7.77D-08 Max=1.63D-06 NDo=     1
 LinEq1:  Iter=  9 NonCon=     1 RMS=3.19D-08 Max=7.38D-07 NDo=     1
 LinEq1:  Iter= 10 NonCon=     1 RMS=1.67D-08 Max=3.84D-07 NDo=     1
 LinEq1:  Iter= 11 NonCon=     0 RMS=5.19D-09 Max=1.50D-07 NDo=     1
 Linear equations converged to 2.183D-08 2.183D-07 after    11 iterations.
     Accept linear search using points  1 and  2.
     Minimum is close to point  2 DX= -1.05D-04 DF= -2.27D-13 DXR=  1.05D-04 DFR=  7.54D-09 which will be used.
 LinEq1:  Iter=  0 NonCon=     1 RMS=2.08D-08 Max=1.07D-06 NDo=     1
 LinEq1:  Iter=  1 NonCon=     1 RMS=1.33D-08 Max=6.38D-07 NDo=     1
 LinEq1:  Iter=  2 NonCon=     1 RMS=7.01D-09 Max=1.98D-07 NDo=     1
 LinEq1:  Iter=  3 NonCon=     1 RMS=3.53D-09 Max=6.86D-08 NDo=     1
 LinEq1:  Iter=  4 NonCon=     1 RMS=1.63D-09 Max=7.63D-08 NDo=     1
 LinEq1:  Iter=  5 NonCon=     1 RMS=1.03D-09 Max=4.43D-08 NDo=     1
 LinEq1:  Iter=  6 NonCon=     1 RMS=4.56D-10 Max=1.30D-08 NDo=     1
 LinEq1:  Iter=  7 NonCon=     1 RMS=2.05D-10 Max=5.06D-09 NDo=     1
 LinEq1:  Iter=  8 NonCon=     1 RMS=1.08D-10 Max=5.37D-09 NDo=     1
 LinEq1:  Iter=  9 NonCon=     1 RMS=6.51D-11 Max=2.38D-09 NDo=     1
 LinEq1:  Iter= 10 NonCon=     1 RMS=3.35D-11 Max=1.28D-09 NDo=     1
 LinEq1:  Iter= 11 NonCon=     1 RMS=1.35D-11 Max=4.19D-10 NDo=     1
 LinEq1:  Iter= 12 NonCon=     0 RMS=6.22D-12 Max=1.62D-10 NDo=     1
 Linear equations converged to 2.716D-11 2.716D-10 after    12 iterations.
 SCF Done:  E(RB3LYP) =  -1151.71554158     a.u. after    8 cycles
            Convg  =    0.1002D-09                    38 Fock formations.
              S**2 =  0.0000                  -V/T =  2.0077
 DoSCS=F DFT=T ScalE2(SS,OS)=  1.000000  1.000000
 Range of M.O.s used for correlation:     1   370
 NBasis=   370 NAE=    83 NBE=    83 NFC=     0 NFV=     0
 NROrb=    370 NOA=    83 NOB=    83 NVA=   287 NVB=   287
 Symmetrizing basis deriv contribution to polar:
 IMax=3 JMax=2 DiffMx= 0.00D+00
 G2DrvN: will do    54 centers at a time, making    1 passes.
 Calling FoFCou, ICntrl=  3107 FMM=F I1Cent=   0 AccDes= 0.00D+00.
 End of G2Drv F.D. properties file   721 does not exist.
 End of G2Drv F.D. properties file   722 does not exist.
 End of G2Drv F.D. properties file   788 does not exist.
          IDoAtm=11111111111111111111111111111111111111111111111111
          IDoAtm=111
          Differentiating once with respect to electric field.
                with respect to dipole field.
          Differentiating once with respect to nuclear coordinates.
 CalDSu exits because no D1Ps are significant.
          There are   162 degrees of freedom in the 1st order CPHF.  IDoFFX=6 NUNeed=     3.
    159 vectors produced by pass  0 Test12= 2.38D-14 1.00D-09 XBig12= 1.44D+02 1.86D+00.
 AX will form   159 AO Fock derivatives at one time.
    159 vectors produced by pass  1 Test12= 2.38D-14 1.00D-09 XBig12= 1.09D+01 2.41D-01.
    159 vectors produced by pass  2 Test12= 2.38D-14 1.00D-09 XBig12= 1.17D-01 3.19D-02.
    159 vectors produced by pass  3 Test12= 2.38D-14 1.00D-09 XBig12= 3.15D-04 1.73D-03.
    159 vectors produced by pass  4 Test12= 2.38D-14 1.00D-09 XBig12= 2.77D-07 3.77D-05.
     68 vectors produced by pass  5 Test12= 2.38D-14 1.00D-09 XBig12= 1.92D-10 8.41D-07.
      3 vectors produced by pass  6 Test12= 2.38D-14 1.00D-09 XBig12= 1.36D-13 2.93D-08.
      1 vectors produced by pass  7 Test12= 2.38D-14 1.00D-09 XBig12= 2.44D-16 1.11D-09.
 InvSVY:  IOpt=1 It=  1 EMax= 2.13D-14
 Solved reduced A of dimension   867 with   162 vectors.
 Isotropic polarizability for W=    0.000000      202.99 Bohr**3.
 End of Minotr F.D. properties file   721 does not exist.
 End of Minotr F.D. properties file   722 does not exist.
 End of Minotr F.D. properties file   788 does not exist.

 **********************************************************************

            Population analysis using the SCF density.

 **********************************************************************

 Orbital symmetries:
       Occupied  (A) (A) (A) (A) (A) (A) (A) (A) (A) (A) (A) (A)
                 (A) (A) (A) (A) (A) (A) (A) (A) (A) (A) (A) (A)
                 (A) (A) (A) (A) (A) (A) (A) (A) (A) (A) (A) (A)
                 (A) (A) (A) (A) (A) (A) (A) (A) (A) (A) (A) (A)
                 (A) (A) (A) (A) (A) (A) (A) (A) (A) (A) (A) (A)
                 (A) (A) (A) (A) (A) (A) (A) (A) (A) (A) (A) (A)
                 (A) (A) (A) (A) (A) (A) (A) (A) (A) (A) (A)
       Virtual   (A) (A) (A) (A) (A) (A) (A) (A) (A) (A) (A) (A)
                 (A) (A) (A) (A) (A) (A) (A) (A) (A) (A) (A) (A)
                 (A) (A) (A) (A) (A) (A) (A) (A) (A) (A) (A) (A)
                 (A) (A) (A) (A) (A) (A) (A) (A) (A) (A) (A) (A)
                 (A) (A) (A) (A) (A) (A) (A) (A) (A) (A) (A) (A)
                 (A) (A) (A) (A) (A) (A) (A) (A) (A) (A) (A) (A)
                 (A) (A) (A) (A) (A) (A) (A) (A) (A) (A) (A) (A)
                 (A) (A) (A) (A) (A) (A) (A) (A) (A) (A) (A) (A)
                 (A) (A) (A) (A) (A) (A) (A) (A) (A) (A) (A) (A)
                 (A) (A) (A) (A) (A) (A) (A) (A) (A) (A) (A) (A)
                 (A) (A) (A) (A) (A) (A) (A) (A) (A) (A) (A) (A)
                 (A) (A) (A) (A) (A) (A) (A) (A) (A) (A) (A) (A)
                 (A) (A) (A) (A) (A) (A) (A) (A) (A) (A) (A) (A)
                 (A) (A) (A) (A) (A) (A) (A) (A) (A) (A) (A) (A)
                 (A) (A) (A) (A) (A) (A) (A) (A) (A) (A) (A) (A)
                 (A) (A) (A) (A) (A) (A) (A) (A) (A) (A) (A) (A)
                 (A) (A) (A) (A) (A) (A) (A) (A) (A) (A) (A) (A)
                 (A) (A) (A) (A) (A) (A) (A) (A) (A) (A) (A) (A)
                 (A) (A) (A) (A) (A) (A) (A) (A) (A) (A) (A) (A)
                 (A) (A) (A) (A) (A) (A) (A) (A) (A) (A) (A) (A)
                 (A) (A) (A) (A) (A) (A) (A) (A) (A) (A) (A) (A)
                 (A) (A) (A) (A) (A) (A) (A) (A) (A) (A) (A) (A)
                 (A) (A) (A) (A) (A) (A) (A) (A) (A) (A) (A) (A)
                 (A) (A) (A) (A) (A) (A) (A) (A) (A) (A) (A)
 The electronic state is 1-A.
 Alpha  occ. eigenvalues --  -77.09368 -14.31723 -14.31476 -14.31380 -14.31011
 Alpha  occ. eigenvalues --  -10.22095 -10.21535 -10.21187 -10.20294 -10.20237
 Alpha  occ. eigenvalues --  -10.20139 -10.20081 -10.20044 -10.19584 -10.17442
 Alpha  occ. eigenvalues --  -10.17259 -10.17004 -10.16411 -10.16389 -10.15821
 Alpha  occ. eigenvalues --   -6.55423  -4.71761  -4.71743  -4.71105  -0.93191
 Alpha  occ. eigenvalues --   -0.89846  -0.89029  -0.88644  -0.77435  -0.76692
 Alpha  occ. eigenvalues --   -0.76471  -0.72772  -0.72134  -0.71154  -0.68305
 Alpha  occ. eigenvalues --   -0.68116  -0.67179  -0.62469  -0.61691  -0.60892
 Alpha  occ. eigenvalues --   -0.56869  -0.56277  -0.55897  -0.52184  -0.49068
 Alpha  occ. eigenvalues --   -0.48712  -0.47640  -0.47018  -0.46454  -0.45920
 Alpha  occ. eigenvalues --   -0.44546  -0.44308  -0.43629  -0.42736  -0.42562
 Alpha  occ. eigenvalues --   -0.41280  -0.40485  -0.40178  -0.39350  -0.38925
 Alpha  occ. eigenvalues --   -0.38620  -0.38048  -0.37859  -0.37642  -0.37404
 Alpha  occ. eigenvalues --   -0.36848  -0.36477  -0.35990  -0.35099  -0.34219
 Alpha  occ. eigenvalues --   -0.34081  -0.33450  -0.33249  -0.33151  -0.32595
 Alpha  occ. eigenvalues --   -0.32054  -0.31241  -0.30941  -0.24234  -0.22710
 Alpha  occ. eigenvalues --   -0.20961  -0.19234  -0.14633
 Alpha virt. eigenvalues --    0.06407   0.07776   0.08583   0.08802   0.09330
 Alpha virt. eigenvalues --    0.10179   0.10765   0.11773   0.12427   0.13386
 Alpha virt. eigenvalues --    0.13708   0.13987   0.14154   0.14409   0.14711
 Alpha virt. eigenvalues --    0.15160   0.15669   0.15950   0.16993   0.17435
 Alpha virt. eigenvalues --    0.17634   0.17906   0.18073   0.18154   0.18722
 Alpha virt. eigenvalues --    0.19181   0.19281   0.19751   0.20236   0.20469
 Alpha virt. eigenvalues --    0.20806   0.21111   0.21704   0.22183   0.22765
 Alpha virt. eigenvalues --    0.22956   0.23521   0.24088   0.24722   0.25031
 Alpha virt. eigenvalues --    0.25133   0.26218   0.26667   0.27220   0.27630
 Alpha virt. eigenvalues --    0.28695   0.28981   0.29560   0.29817   0.31013
 Alpha virt. eigenvalues --    0.31597   0.33345   0.36081   0.36687   0.39436
 Alpha virt. eigenvalues --    0.43233   0.46175   0.48544   0.49396   0.51237
 Alpha virt. eigenvalues --    0.51447   0.51776   0.52328   0.52578   0.54041
 Alpha virt. eigenvalues --    0.54232   0.54841   0.55713   0.57220   0.57989
 Alpha virt. eigenvalues --    0.59312   0.59790   0.60205   0.61128   0.61419
 Alpha virt. eigenvalues --    0.62978   0.63548   0.64609   0.65009   0.65517
 Alpha virt. eigenvalues --    0.66721   0.68535   0.69177   0.69598   0.70778
 Alpha virt. eigenvalues --    0.71511   0.72240   0.72360   0.72977   0.74307
 Alpha virt. eigenvalues --    0.76219   0.76799   0.77310   0.78781   0.80528
 Alpha virt. eigenvalues --    0.81051   0.81661   0.81914   0.83019   0.83741
 Alpha virt. eigenvalues --    0.84013   0.85213   0.85503   0.86121   0.86683
 Alpha virt. eigenvalues --    0.87437   0.88266   0.89054   0.89566   0.89981
 Alpha virt. eigenvalues --    0.90043   0.90332   0.90846   0.91230   0.91486
 Alpha virt. eigenvalues --    0.91689   0.92141   0.92494   0.93126   0.93615
 Alpha virt. eigenvalues --    0.93768   0.94409   0.95286   0.95670   0.95975
 Alpha virt. eigenvalues --    0.97078   0.97558   0.98383   0.98577   0.99486
 Alpha virt. eigenvalues --    1.00576   1.00876   1.01714   1.02457   1.03239
 Alpha virt. eigenvalues --    1.03748   1.04222   1.04944   1.06197   1.07236
 Alpha virt. eigenvalues --    1.08363   1.10892   1.11245   1.11861   1.13244
 Alpha virt. eigenvalues --    1.14457   1.16657   1.17717   1.18542   1.19555
 Alpha virt. eigenvalues --    1.21160   1.22575   1.25464   1.27693   1.30123
 Alpha virt. eigenvalues --    1.33801   1.33926   1.35681   1.38574   1.39479
 Alpha virt. eigenvalues --    1.41289   1.42622   1.44225   1.45681   1.47293
 Alpha virt. eigenvalues --    1.48722   1.50391   1.52015   1.55932   1.59163
 Alpha virt. eigenvalues --    1.59528   1.60763   1.61767   1.64787   1.65802
 Alpha virt. eigenvalues --    1.68271   1.69331   1.70227   1.71671   1.75173
 Alpha virt. eigenvalues --    1.76362   1.77007   1.78268   1.79411   1.80052
 Alpha virt. eigenvalues --    1.81022   1.81409   1.82361   1.83880   1.84710
 Alpha virt. eigenvalues --    1.88108   1.88916   1.90140   1.91490   1.92304
 Alpha virt. eigenvalues --    1.94202   1.94681   1.95196   1.97926   2.00207
 Alpha virt. eigenvalues --    2.01189   2.02330   2.03179   2.04059   2.04786
 Alpha virt. eigenvalues --    2.05264   2.06478   2.07359   2.07804   2.09662
 Alpha virt. eigenvalues --    2.10826   2.10908   2.12035   2.12591   2.14137
 Alpha virt. eigenvalues --    2.14857   2.16172   2.17429   2.18476   2.18941
 Alpha virt. eigenvalues --    2.21140   2.22028   2.25745   2.26337   2.26827
 Alpha virt. eigenvalues --    2.27120   2.28521   2.28676   2.29110   2.29620
 Alpha virt. eigenvalues --    2.30246   2.31311   2.33529   2.34043   2.36388
 Alpha virt. eigenvalues --    2.37203   2.39980   2.40358   2.41022   2.41839
 Alpha virt. eigenvalues --    2.46221   2.47188   2.48938   2.49754   2.49921
 Alpha virt. eigenvalues --    2.51431   2.53296   2.55784   2.57463   2.58744
 Alpha virt. eigenvalues --    2.60447   2.62275   2.66938   2.67984   2.69415
 Alpha virt. eigenvalues --    2.70027   2.71338   2.74567   2.76168   2.77497
 Alpha virt. eigenvalues --    2.81301   2.82504   2.84448   2.86457   2.88633
 Alpha virt. eigenvalues --    2.91922   2.96757   3.65701   3.99924   4.03560
 Alpha virt. eigenvalues --    4.05643   4.18219   4.21311   4.23580   4.25889
 Alpha virt. eigenvalues --    4.27480   4.29500   4.31803   4.32727   4.35219
 Alpha virt. eigenvalues --    4.40547   4.49760   4.54731   4.57563   4.61038
 Alpha virt. eigenvalues --    4.62445   4.65173
          Condensed to atoms (all electrons):
 Mulliken charges:
               1
     1  N   -0.545217
     2  C   -0.125534
     3  C   -0.147727
     4  N   -0.382122
     5  C   -0.150227
     6  C   -0.166348
     7  N   -0.523949
     8  P    0.686492
     9  N   -0.539786
    10  C   -0.146012
    11  C   -0.155390
    12  C    0.085336
    13  C   -0.451604
    14  C   -0.471509
    15  C    0.049364
    16  C   -0.444895
    17  C   -0.450358
    18  C    0.086950
    19  C   -0.473082
    20  C   -0.447992
    21  H    0.137035
    22  H    0.126942
    23  H    0.131510
    24  H    0.129394
    25  H    0.137575
    26  H    0.133179
    27  H    0.138040
    28  H    0.141172
    29  H    0.147071
    30  H    0.131808
    31  H    0.156155
    32  H    0.133268
    33  H    0.127922
    34  H    0.138723
    35  H    0.179227
    36  H    0.133967
    37  H    0.151453
    38  H    0.142249
    39  H    0.155034
    40  H    0.144067
    41  H    0.142549
    42  H    0.155395
    43  H    0.144977
    44  H    0.142255
    45  H    0.135322
    46  H    0.166697
    47  H    0.117819
    48  H    0.167818
    49  H    0.172062
    50  H    0.126367
    51  H    0.144867
    52  H    0.137884
    53  H    0.143809
 Sum of Mulliken charges =   0.00000
 Mulliken charges with hydrogens summed into heavy atoms:
               1
     1  N   -0.545217
     2  C    0.138443
     3  C    0.113177
     4  N   -0.382122
     5  C    0.120527
     6  C    0.112863
     7  N   -0.523949
     8  P    0.686492
     9  N   -0.539786
    10  C    0.132867
    11  C    0.134032
    12  C    0.213258
    13  C    0.000312
    14  C   -0.022772
    15  C    0.193431
    16  C   -0.001974
    17  C   -0.006084
    18  C    0.204769
    19  C   -0.006835
    20  C   -0.021433
 APT charges:
               1
     1  N   -0.876288
     2  C    0.272679
     3  C    0.337362
     4  N   -0.593805
     5  C    0.317806
     6  C    0.249101
     7  N   -0.922722
     8  P    1.282046
     9  N   -0.837150
    10  C    0.234464
    11  C    0.368732
    12  C    0.457586
    13  C    0.013133
    14  C    0.034558
    15  C    0.465477
    16  C    0.014346
    17  C   -0.018425
    18  C    0.480026
    19  C    0.027416
    20  C    0.004933
    21  H   -0.071156
    22  H   -0.094484
    23  H    0.020876
    24  H   -0.105638
    25  H   -0.054151
    26  H   -0.055152
    27  H   -0.046417
    28  H   -0.060776
    29  H   -0.056916
    30  H   -0.078266
    31  H   -0.019346
    32  H   -0.097164
    33  H   -0.110547
    34  H   -0.020887
    35  H    0.022054
    36  H   -0.042974
    37  H   -0.020080
    38  H   -0.031283
    39  H    0.002281
    40  H   -0.036970
    41  H   -0.013250
    42  H   -0.017499
    43  H   -0.029359
    44  H   -0.010271
    45  H   -0.048305
    46  H   -0.001103
    47  H   -0.125264
    48  H    0.008056
    49  H    0.000369
    50  H   -0.055681
    51  H   -0.015495
    52  H   -0.036092
    53  H   -0.010386
 Sum of APT charges =   0.00000
 APT charges with hydrogens summed into heavy atoms:
               1
     1  N   -0.876288
     2  C    0.107039
     3  C    0.252600
     4  N   -0.593805
     5  C    0.208503
     6  C    0.141908
     7  N   -0.922722
     8  P    1.282046
     9  N   -0.837150
    10  C    0.099283
    11  C    0.252222
    12  C    0.347039
    13  C   -0.028674
    14  C   -0.014524
    15  C    0.428507
    16  C   -0.045761
    17  C   -0.078104
    18  C    0.354762
    19  C   -0.019840
    20  C   -0.057040
 Electronic spatial extent (au):  <R**2>=           5710.6761
 Charge=              0.0000 electrons
 Dipole moment (field-independent basis, Debye):
    X=              0.4161    Y=             -0.8703    Z=             -0.3551  Tot=              1.0279
 Quadrupole moment (field-independent basis, Debye-Ang):
   XX=           -128.3418   YY=           -131.5027   ZZ=           -136.8834
   XY=              1.8902   XZ=              2.8935   YZ=             -3.0691
 Traceless Quadrupole moment (field-independent basis, Debye-Ang):
   XX=              3.9008   YY=              0.7399   ZZ=             -4.6408
   XY=              1.8902   XZ=              2.8935   YZ=             -3.0691
 Octapole moment (field-independent basis, Debye-Ang**2):
  XXX=              1.4429  YYY=             -5.8769  ZZZ=              2.0506  XYY=             -1.9005
  XXY=             -6.6468  XXZ=              6.7654  XZZ=             -2.3713  YZZ=              6.3951
  YYZ=              1.7802  XYZ=             -1.7869
 Hexadecapole moment (field-independent basis, Debye-Ang**3):
 XXXX=          -3438.8995 YYYY=          -2635.1420 ZZZZ=          -1726.1192 XXXY=             11.3355
 XXXZ=              7.6769 YYYX=            -20.2095 YYYZ=             -6.1717 ZZZX=             22.6405
 ZZZY=            -16.6546 XXYY=          -1023.5459 XXZZ=           -843.5228 YYZZ=           -747.3151
 XXYZ=             -9.2525 YYXZ=              9.4018 ZZXY=             21.3230
 N-N= 2.085199185727D+03 E-N=-6.859811501334D+03  KE= 1.142904568101D+03
  Exact polarizability: 217.372   3.366 205.309   0.761  -1.249 186.279
 Approx polarizability: 292.836   3.534 289.410   5.390  -4.600 275.211
 Calling FoFJK, ICntrl=    100127 FMM=F ISym2X=0 I1Cent= 0 IOpClX= 0 NMat=1 NMatS=1 NMatT=0.
 ***** Axes restored to original set *****
 -------------------------------------------------------------------
 Center     Atomic                   Forces (Hartrees/Bohr)
 Number     Number              X              Y              Z
 -------------------------------------------------------------------
      1        7           0.001035594   -0.013232514   -0.022682327
      2        6          -0.006093573   -0.007858282   -0.001599011
      3        6           0.001006495   -0.006433908   -0.010220332
      4        7          -0.006257538    0.024108319    0.007552425
      5        6           0.004208018   -0.007662106   -0.008894934
      6        6           0.008955399   -0.002513793    0.007554164
      7        7           0.045866915    0.000608145   -0.041191238
      8       15          -0.037963719    0.058177100    0.057049533
      9        7           0.020075464   -0.036837214   -0.009827414
     10        6          -0.003322879   -0.017781985   -0.003577124
     11        6           0.009069485   -0.005819189    0.001402182
     12        6           0.012067955    0.027977042    0.001709295
     13        6          -0.004049095    0.000961688   -0.000781903
     14        6           0.003956993    0.001058349    0.015079600
     15        6          -0.019432733   -0.000397198   -0.006411447
     16        6           0.004507760    0.000111006    0.010225730
     17        6          -0.010769667    0.008806359   -0.005192965
     18        6          -0.005631056    0.009087461    0.004600789
     19        6           0.000575555    0.001423446    0.002431820
     20        6          -0.004465124   -0.001405250   -0.001942206
     21        1          -0.001202215   -0.001933479   -0.003175096
     22        1          -0.006085032   -0.005007179    0.004052510
     23        1           0.009177281   -0.018917633    0.012666483
     24        1          -0.010186893   -0.001374535   -0.000242015
     25        1          -0.003504165   -0.003488178   -0.000104320
     26        1          -0.000306180   -0.001002671    0.002095258
     27        1          -0.004973792    0.003491543   -0.000501062
     28        1          -0.001712105   -0.001881976    0.005843010
     29        1          -0.001797669    0.000478550   -0.008412585
     30        1           0.000579829   -0.001361918   -0.007089054
     31        1          -0.002157817    0.006682174   -0.005234593
     32        1           0.004566850   -0.001948108    0.006617121
     33        1           0.001134201    0.004019630   -0.003655874
     34        1          -0.001603835   -0.002121721   -0.000329271
     35        1          -0.000162491   -0.002074030   -0.001745084
     36        1           0.001480242   -0.002819891   -0.000768536
     37        1           0.000248846   -0.002325428    0.001477684
     38        1          -0.005438405    0.000304775   -0.003702827
     39        1           0.002714309   -0.000164928    0.007865025
     40        1          -0.000075478   -0.004138669    0.003043660
     41        1           0.000821886    0.001420083    0.000948271
     42        1           0.003700955   -0.001072041    0.004302803
     43        1          -0.001656860   -0.004096328   -0.000411668
     44        1           0.000735050    0.000404102   -0.001346926
     45        1           0.002928508    0.001637351    0.000295383
     46        1          -0.001081969    0.014289197   -0.000192148
     47        1           0.003784957   -0.005155601   -0.002824459
     48        1           0.001475213   -0.002690332   -0.001084313
     49        1          -0.002042436    0.001944779   -0.001246712
     50        1          -0.002672685   -0.004728930   -0.002795523
     51        1           0.003410885    0.001203865   -0.000439082
     52        1           0.000058501   -0.001175351    0.000828833
     53        1          -0.003497734    0.001225398   -0.000019533
 -------------------------------------------------------------------
 Cartesian Forces:  Max     0.058177100 RMS     0.011225053
 FormGI is forming the generalized inverse of G from B-inverse, IUseBI=4.

 GradGradGradGradGradGradGradGradGradGradGradGradGradGradGradGradGradGrad
 Berny optimization.
 Internal  Forces:  Max     0.058886277 RMS     0.010365788
 Search for a local minimum.
 Step number   1 out of a maximum of  316
 All quantities printed in internal units (Hartrees-Bohrs-Radians)
 Mixed Optimization -- RFO/linear search
 Second derivative matrix not updated -- analytic derivatives used.
 ITU=  0
     Eigenvalues ---   -0.01135  -0.00804  -0.00370  -0.00184   0.00010
     Eigenvalues ---    0.00201   0.00229   0.00372   0.00400   0.00451
     Eigenvalues ---    0.00512   0.00613   0.00708   0.00839   0.00933
     Eigenvalues ---    0.01293   0.01418   0.01869   0.02192   0.03000
     Eigenvalues ---    0.03422   0.03602   0.04087   0.04247   0.04310
     Eigenvalues ---    0.04366   0.04441   0.04509   0.04528   0.04582
     Eigenvalues ---    0.04611   0.04629   0.04639   0.04722   0.04753
     Eigenvalues ---    0.04804   0.04820   0.04890   0.04912   0.04946
     Eigenvalues ---    0.04954   0.05002   0.05005   0.05086   0.05183
     Eigenvalues ---    0.05196   0.05262   0.05410   0.05548   0.05599
     Eigenvalues ---    0.06125   0.06977   0.07677   0.08079   0.09018
     Eigenvalues ---    0.09070   0.09145   0.09525   0.09713   0.09864
     Eigenvalues ---    0.10128   0.11178   0.11243   0.11426   0.12000
     Eigenvalues ---    0.12206   0.12248   0.12333   0.12420   0.12627
     Eigenvalues ---    0.12659   0.12867   0.12925   0.13127   0.13313
     Eigenvalues ---    0.13504   0.13845   0.14106   0.14409   0.14470
     Eigenvalues ---    0.14681   0.15022   0.15097   0.15266   0.15393
     Eigenvalues ---    0.16521   0.17028   0.18319   0.18460   0.18564
     Eigenvalues ---    0.19437   0.19699   0.20094   0.20661   0.21167
     Eigenvalues ---    0.21617   0.23239   0.24207   0.25047   0.25586
     Eigenvalues ---    0.25803   0.26640   0.26939   0.27117   0.27690
     Eigenvalues ---    0.28342   0.28843   0.29120   0.29443   0.29726
     Eigenvalues ---    0.30393   0.30712   0.30980   0.31366   0.31747
     Eigenvalues ---    0.31961   0.32065   0.32191   0.32238   0.32319
     Eigenvalues ---    0.32486   0.32787   0.33083   0.33220   0.33391
     Eigenvalues ---    0.33409   0.33437   0.33546   0.33700   0.33821
     Eigenvalues ---    0.33869   0.33936   0.33953   0.34150   0.34257
     Eigenvalues ---    0.34327   0.34362   0.34488   0.34600   0.34690
     Eigenvalues ---    0.34870   0.34963   0.35009   0.35207   0.35236
     Eigenvalues ---    0.35293   0.35590   0.36483   0.37838   0.41361
     Eigenvalues ---    0.59261   0.91266   0.94246
 RFO step:  Lambda=-6.77107329D-02 EMin=-1.13504404D-02
 Linear search not attempted -- first point.
 Maximum step size (   0.300) exceeded in Quadratic search.
    -- Step size scaled by   0.739
 Iteration  1 RMS(Cart)=  0.15557263 RMS(Int)=  0.00926897
 Iteration  2 RMS(Cart)=  0.02935174 RMS(Int)=  0.00065750
 Iteration  3 RMS(Cart)=  0.00057343 RMS(Int)=  0.00059853
 Iteration  4 RMS(Cart)=  0.00000051 RMS(Int)=  0.00059853
 Variable       Old X    -DE/DX   Delta X   Delta X   Delta X     New X
                                 (Linear)    (Quad)   (Total)
    R1        2.76900   0.00884   0.00000  -0.00632  -0.00636   2.76264
    R2        3.16768   0.03857   0.00000   0.05578   0.05600   3.22368
    R3        2.79546   0.00667   0.00000   0.00656   0.00656   2.80202
    R4        2.92269   0.00342   0.00000  -0.01134  -0.01163   2.91105
    R5        2.07205   0.00194   0.00000   0.00326   0.00326   2.07531
    R6        2.06485   0.00766   0.00000   0.01455   0.01455   2.07940
    R7        2.75174  -0.00151   0.00000   0.00642   0.00616   2.75790
    R8        2.07380  -0.02122   0.00000  -0.01820  -0.01820   2.05561
    R9        2.07752   0.00361   0.00000   0.00671   0.00671   2.08423
   R10        2.75970   0.00712   0.00000  -0.00564  -0.00627   2.75343
   R11        2.75441   0.00232   0.00000   0.00318   0.00302   2.75743
   R12        2.93404   0.01884   0.00000   0.01389   0.01328   2.94732
   R13        2.07733  -0.00081   0.00000  -0.00151  -0.00151   2.07581
   R14        2.07598   0.00067   0.00000   0.00067   0.00067   2.07665
   R15        2.77022   0.00675   0.00000  -0.02122  -0.02121   2.74901
   R16        2.06952  -0.00009   0.00000   0.00266   0.00266   2.07218
   R17        2.06697   0.00391   0.00000   0.00546   0.00546   2.07243
   R18        3.16895   0.03144   0.00000   0.05927   0.05958   3.22853
   R19        2.79986   0.01472   0.00000  -0.01467  -0.01467   2.78519
   R20        3.18837   0.02291   0.00000   0.05339   0.05372   3.24209
   R21        2.77739   0.01115   0.00000   0.00276   0.00333   2.78073
   R22        2.81261   0.02406   0.00000   0.00771   0.00771   2.82033
   R23        2.90619  -0.00886   0.00000  -0.00808  -0.00764   2.89854
   R24        2.07973  -0.00629   0.00000  -0.00541  -0.00541   2.07431
   R25        2.07381   0.00108   0.00000   0.00840   0.00840   2.08222
   R26        2.07185  -0.00140   0.00000  -0.00243  -0.00243   2.06942
   R27        2.07595   0.00366   0.00000   0.00706   0.00706   2.08302
   R28        2.89676  -0.00183   0.00000   0.00046   0.00046   2.89722
   R29        2.89466   0.00936   0.00000   0.00498   0.00498   2.89964
   R30        2.07774   0.00443   0.00000   0.00954   0.00954   2.08728
   R31        2.06694   0.00235   0.00000   0.00342   0.00342   2.07035
   R32        2.06681  -0.00080   0.00000  -0.00233  -0.00233   2.06448
   R33        2.07500  -0.00093   0.00000  -0.00175  -0.00175   2.07326
   R34        2.06671   0.00225   0.00000   0.00549   0.00549   2.07220
   R35        2.08776  -0.00546   0.00000  -0.01146  -0.01146   2.07629
   R36        2.05947  -0.00342   0.00000   0.00195   0.00195   2.06142
   R37        2.91453  -0.00079   0.00000   0.00375   0.00375   2.91828
   R38        2.91555  -0.00255   0.00000   0.01067   0.01067   2.92622
   R39        2.07579  -0.00030   0.00000  -0.00408  -0.00408   2.07171
   R40        2.06957   0.00017   0.00000   0.00154   0.00154   2.07111
   R41        2.06231   0.00321   0.00000   0.00445   0.00445   2.06676
   R42        2.07360  -0.00148   0.00000  -0.00064  -0.00064   2.07296
   R43        2.06758   0.00105   0.00000   0.00342   0.00342   2.07100
   R44        2.07457  -0.00020   0.00000  -0.00274  -0.00274   2.07183
   R45        2.06419  -0.01028   0.00000  -0.00495  -0.00495   2.05924
   R46        2.91183  -0.00444   0.00000  -0.00837  -0.00837   2.90346
   R47        2.89936   0.00425   0.00000   0.00881   0.00881   2.90817
   R48        2.07868   0.00320   0.00000   0.00569   0.00569   2.08437
   R49        2.07005  -0.00217   0.00000  -0.00295  -0.00295   2.06710
   R50        2.06739  -0.00287   0.00000  -0.00160  -0.00160   2.06579
   R51        2.07192   0.00137   0.00000   0.00069   0.00069   2.07261
   R52        2.06864   0.00149   0.00000   0.00265   0.00265   2.07130
   R53        2.07072   0.00049   0.00000   0.00073   0.00073   2.07146
   R54        2.06613  -0.00053   0.00000  -0.00081  -0.00081   2.06532
    A1        2.21565   0.01077   0.00000   0.02956   0.03018   2.24583
    A2        1.98827  -0.02085   0.00000  -0.03277  -0.03309   1.95518
    A3        2.07914   0.01000   0.00000   0.00325   0.00294   2.08207
    A4        2.15935  -0.00545   0.00000  -0.02494  -0.02479   2.13455
    A5        1.89101   0.00431   0.00000   0.01463   0.01428   1.90529
    A6        1.89394  -0.00205   0.00000  -0.00556  -0.00530   1.88864
    A7        1.81788   0.00042   0.00000  -0.00736  -0.00732   1.81057
    A8        1.83682   0.00474   0.00000   0.02731   0.02720   1.86402
    A9        1.84133  -0.00162   0.00000  -0.00143  -0.00139   1.83993
   A10        2.11965   0.00732   0.00000   0.02011   0.01985   2.13950
   A11        1.89590   0.00555   0.00000   0.00220   0.00224   1.89815
   A12        1.84242  -0.00736   0.00000  -0.02572  -0.02584   1.81658
   A13        1.93642  -0.01347   0.00000  -0.03431  -0.03393   1.90249
   A14        1.83548   0.00635   0.00000   0.02681   0.02686   1.86235
   A15        1.80436   0.00115   0.00000   0.01222   0.01239   1.81676
   A16        1.98471   0.00833   0.00000   0.01766   0.01831   2.00302
   A17        2.02599   0.00347   0.00000   0.01618   0.01588   2.04188
   A18        2.05518  -0.00881   0.00000  -0.00682  -0.00815   2.04703
   A19        2.11433   0.00280   0.00000  -0.01430  -0.01506   2.09927
   A20        1.86861   0.00046   0.00000  -0.00385  -0.00352   1.86509
   A21        1.89723  -0.00612   0.00000  -0.00456  -0.00440   1.89284
   A22        1.86857   0.00324   0.00000   0.01526   0.01584   1.88441
   A23        1.88129  -0.00156   0.00000   0.00270   0.00241   1.88371
   A24        1.81068   0.00126   0.00000   0.00851   0.00835   1.81903
   A25        2.07561   0.00871   0.00000  -0.02493  -0.02400   2.05161
   A26        1.83890   0.00932   0.00000   0.02585   0.02566   1.86456
   A27        1.89997  -0.01089   0.00000   0.00319   0.00235   1.90232
   A28        1.93905  -0.01200   0.00000  -0.02027  -0.02047   1.91858
   A29        1.90450   0.00112   0.00000   0.00572   0.00545   1.90995
   A30        1.78261   0.00299   0.00000   0.01715   0.01712   1.79973
   A31        2.10111  -0.00786   0.00000   0.04792   0.04758   2.14868
   A32        1.98029   0.04011   0.00000   0.07070   0.06993   2.05023
   A33        2.19290  -0.03071   0.00000  -0.10929  -0.11060   2.08230
   A34        1.89501   0.00128   0.00000  -0.01848  -0.01930   1.87572
   A35        1.88637  -0.00375   0.00000   0.00022  -0.00188   1.88449
   A36        1.97139  -0.01033   0.00000  -0.06824  -0.06874   1.90265
   A37        2.15489   0.00791   0.00000   0.04005   0.04006   2.19495
   A38        2.14700  -0.05889   0.00000  -0.10120  -0.10123   2.04577
   A39        1.89367   0.05139   0.00000   0.04490   0.04467   1.93834
   A40        2.10114  -0.00232   0.00000  -0.02283  -0.02261   2.07853
   A41        1.87080   0.00288   0.00000   0.00703   0.00688   1.87768
   A42        1.92079   0.00609   0.00000   0.01321   0.01307   1.93387
   A43        1.81621  -0.00195   0.00000   0.00538   0.00522   1.82143
   A44        1.90442  -0.00624   0.00000  -0.00282  -0.00275   1.90167
   A45        1.82843   0.00198   0.00000   0.00308   0.00305   1.83147
   A46        2.07205   0.00549   0.00000   0.00634   0.00629   2.07834
   A47        1.96741  -0.00715   0.00000  -0.02862  -0.02850   1.93891
   A48        1.84165   0.00394   0.00000   0.02306   0.02310   1.86475
   A49        1.90951   0.00270   0.00000   0.00568   0.00544   1.91494
   A50        1.84587  -0.00854   0.00000  -0.01796  -0.01788   1.82799
   A51        1.80129   0.00319   0.00000   0.01475   0.01493   1.81622
   A52        2.02626  -0.02128   0.00000  -0.02907  -0.02941   1.99685
   A53        1.97771   0.03685   0.00000   0.00599   0.00479   1.98250
   A54        1.88282  -0.00358   0.00000   0.01270   0.01264   1.89546
   A55        1.94629  -0.01832   0.00000  -0.02471  -0.02514   1.92115
   A56        1.81468   0.00969   0.00000   0.01776   0.01822   1.83290
   A57        1.79096  -0.00292   0.00000   0.02882   0.02886   1.81982
   A58        1.96339  -0.00086   0.00000  -0.01330  -0.01335   1.95004
   A59        1.94193  -0.00150   0.00000   0.00118   0.00116   1.94309
   A60        1.91669  -0.00234   0.00000  -0.00528  -0.00532   1.91138
   A61        1.90038   0.00058   0.00000  -0.00076  -0.00080   1.89958
   A62        1.88258   0.00130   0.00000   0.00314   0.00306   1.88564
   A63        1.85476   0.00315   0.00000   0.01682   0.01682   1.87158
   A64        1.95882   0.00167   0.00000  -0.00892  -0.00895   1.94987
   A65        1.91150  -0.00764   0.00000  -0.01384  -0.01385   1.89765
   A66        1.94489   0.01020   0.00000   0.02182   0.02187   1.96676
   A67        1.87029   0.00074   0.00000   0.00711   0.00701   1.87730
   A68        1.90582  -0.00347   0.00000  -0.00634  -0.00631   1.89951
   A69        1.86888  -0.00207   0.00000  -0.00003   0.00005   1.86893
   A70        2.06231  -0.03610   0.00000  -0.09448  -0.09436   1.96794
   A71        1.95876   0.04821   0.00000   0.04760   0.04700   2.00576
   A72        1.87278  -0.00491   0.00000   0.00590   0.00421   1.87699
   A73        1.85627  -0.00839   0.00000   0.01257   0.01333   1.86959
   A74        1.83481   0.01246   0.00000   0.01375   0.01286   1.84767
   A75        1.86659  -0.01219   0.00000   0.02244   0.02163   1.88822
   A76        1.95632   0.00267   0.00000  -0.00786  -0.00797   1.94835
   A77        1.94972  -0.00039   0.00000  -0.01333  -0.01343   1.93629
   A78        1.92867  -0.00542   0.00000   0.00777   0.00780   1.93646
   A79        1.90818  -0.00217   0.00000  -0.00788  -0.00811   1.90007
   A80        1.86818   0.00129   0.00000   0.00577   0.00579   1.87397
   A81        1.84791   0.00415   0.00000   0.01769   0.01772   1.86563
   A82        1.94434   0.00259   0.00000  -0.00133  -0.00141   1.94293
   A83        1.92378  -0.00338   0.00000  -0.01372  -0.01373   1.91005
   A84        1.97326  -0.00103   0.00000   0.03386   0.03385   2.00711
   A85        1.88088  -0.00081   0.00000  -0.00341  -0.00348   1.87739
   A86        1.88818   0.00297   0.00000  -0.01578  -0.01585   1.87233
   A87        1.84872  -0.00042   0.00000  -0.00115  -0.00110   1.84762
   A88        1.98684   0.00746   0.00000   0.01210   0.01212   1.99895
   A89        1.94899   0.00203   0.00000   0.01276   0.01277   1.96176
   A90        1.91505  -0.00557   0.00000  -0.02743  -0.02741   1.88765
   A91        1.90818  -0.00748   0.00000  -0.01132  -0.01140   1.89678
   A92        1.83891   0.00080   0.00000   0.00416   0.00423   1.84314
   A93        1.85840   0.00239   0.00000   0.00886   0.00893   1.86733
   A94        1.96680  -0.00112   0.00000  -0.00504  -0.00507   1.96173
   A95        1.93890   0.00306   0.00000   0.00801   0.00803   1.94693
   A96        1.92988  -0.00815   0.00000  -0.02225  -0.02227   1.90761
   A97        1.89100  -0.00050   0.00000  -0.00108  -0.00107   1.88993
   A98        1.85810   0.00495   0.00000   0.01516   0.01509   1.87318
   A99        1.87505   0.00207   0.00000   0.00626   0.00630   1.88134
   A100       1.96111  -0.00447   0.00000  -0.01774  -0.01772   1.94339
   A101       1.92500  -0.00174   0.00000  -0.00486  -0.00490   1.92011
   A102       1.93946   0.00579   0.00000   0.01944   0.01949   1.95895
   A103       1.86683   0.00288   0.00000   0.01044   0.01038   1.87721
   A104       1.89188  -0.00064   0.00000  -0.00292  -0.00283   1.88905
   A105       1.87610  -0.00184   0.00000  -0.00422  -0.00423   1.87187
    D1        0.11395  -0.00136   0.00000  -0.00439  -0.00427   0.10968
    D2       -2.01680  -0.00184   0.00000   0.01191   0.01216  -2.00465
    D3        2.27534  -0.00112   0.00000   0.00891   0.00919   2.28453
    D4       -3.00979   0.00411   0.00000  -0.00689  -0.00693  -3.01672
    D5        1.14264   0.00362   0.00000   0.00941   0.00950   1.15214
    D6       -0.84840   0.00435   0.00000   0.00640   0.00652  -0.84187
    D7        0.61971   0.00579   0.00000  -0.04491  -0.04512   0.57459
    D8       -1.52449   0.01988   0.00000   0.04916   0.04896  -1.47554
    D9       -2.54056  -0.00021   0.00000  -0.04260  -0.04259  -2.58315
   D10        1.59842   0.01388   0.00000   0.05147   0.05149   1.64991
   D11       -3.12927  -0.00193   0.00000  -0.06646  -0.06648   3.08743
   D12       -0.95810  -0.00451   0.00000  -0.06189  -0.06174  -1.01984
   D13        1.09826  -0.00386   0.00000  -0.06057  -0.06053   1.03772
   D14        0.02865   0.00303   0.00000  -0.06908  -0.06921  -0.04056
   D15        2.19982   0.00045   0.00000  -0.06451  -0.06447   2.13535
   D16       -2.02701   0.00110   0.00000  -0.06319  -0.06327  -2.09027
   D17        0.75091  -0.00631   0.00000   0.00308   0.00335   0.75427
   D18       -1.52534   0.00102   0.00000   0.03336   0.03345  -1.49189
   D19        2.83224   0.00077   0.00000   0.03044   0.03038   2.86262
   D20        2.91448  -0.00389   0.00000  -0.00213  -0.00179   2.91269
   D21        0.63823   0.00344   0.00000   0.02814   0.02831   0.66653
   D22       -1.28739   0.00319   0.00000   0.02523   0.02524  -1.26215
   D23       -1.43565  -0.00374   0.00000   0.00364   0.00395  -1.43170
   D24        2.57129   0.00359   0.00000   0.03391   0.03404   2.60533
   D25        0.64567   0.00334   0.00000   0.03099   0.03097   0.67665
   D26       -2.00129   0.00473   0.00000  -0.03427  -0.03403  -2.03532
   D27        0.46625   0.00524   0.00000  -0.00117  -0.00092   0.46534
   D28        0.25754   0.00569   0.00000  -0.04875  -0.04856   0.20898
   D29        2.72508   0.00619   0.00000  -0.01565  -0.01544   2.70964
   D30        2.19719   0.00439   0.00000  -0.03585  -0.03599   2.16119
   D31       -1.61846   0.00489   0.00000  -0.00274  -0.00288  -1.62134
   D32        1.19669   0.00699   0.00000   0.02551   0.02619   1.22288
   D33       -0.94937  -0.00006   0.00000   0.01862   0.01879  -0.93058
   D34       -2.89519   0.00109   0.00000   0.01279   0.01290  -2.88229
   D35       -1.25887   0.00129   0.00000  -0.01784  -0.01694  -1.27581
   D36        2.87826  -0.00577   0.00000  -0.02472  -0.02434   2.85392
   D37        0.93244  -0.00461   0.00000  -0.03055  -0.03023   0.90221
   D38       -1.95637  -0.00676   0.00000  -0.00757  -0.00734  -1.96371
   D39        0.30924  -0.00475   0.00000  -0.02302  -0.02282   0.28642
   D40        2.26266  -0.00210   0.00000  -0.00600  -0.00606   2.25660
   D41        0.48324   0.00078   0.00000   0.03706   0.03740   0.52064
   D42        2.74885   0.00280   0.00000   0.02162   0.02192   2.77077
   D43       -1.58092   0.00544   0.00000   0.03864   0.03868  -1.54224
[...]
   166    C   11  dxz    Ryd( 3d)     0.00077
   167    C   11  dyz    Ryd( 3d)     0.00124
   168    C   11  dx2y2  Ryd( 3d)     0.00113
   169    C   11  dz2    Ryd( 3d)     0.00113
 
   170    C   12  S      Cor( 1S)     1.99924
   171    C   12  S      Val( 2S)     0.96594
   172    C   12  S      Ryd( 3S)     0.00227
   173    C   12  S      Ryd( 4S)     0.00004
   174    C   12  px     Val( 2p)     0.96670
   175    C   12  px     Ryd( 3p)     0.00199
   176    C   12  py     Val( 2p)     1.15541
   177    C   12  py     Ryd( 3p)     0.00492
   178    C   12  pz     Val( 2p)     0.95026
   179    C   12  pz     Ryd( 3p)     0.00313
   180    C   12  dxy    Ryd( 3d)     0.00064
   181    C   12  dxz    Ryd( 3d)     0.00131
   182    C   12  dyz    Ryd( 3d)     0.00114
   183    C   12  dx2y2  Ryd( 3d)     0.00120
   184    C   12  dz2    Ryd( 3d)     0.00094
 
   185    C   13  S      Cor( 1S)     1.99940
   186    C   13  S      Val( 2S)     1.10134
   187    C   13  S      Ryd( 3S)     0.00047
   188    C   13  S      Ryd( 4S)     0.00002
   189    C   13  px     Val( 2p)     1.25313
   190    C   13  px     Ryd( 3p)     0.00218
   191    C   13  py     Val( 2p)     1.17224
   192    C   13  py     Ryd( 3p)     0.00160
   193    C   13  pz     Val( 2p)     1.15559
   194    C   13  pz     Ryd( 3p)     0.00276
   195    C   13  dxy    Ryd( 3d)     0.00037
   196    C   13  dxz    Ryd( 3d)     0.00107
   197    C   13  dyz    Ryd( 3d)     0.00071
   198    C   13  dx2y2  Ryd( 3d)     0.00091
   199    C   13  dz2    Ryd( 3d)     0.00029
 
   200    C   14  S      Cor( 1S)     1.99939
   201    C   14  S      Val( 2S)     1.10400
   202    C   14  S      Ryd( 3S)     0.00062
   203    C   14  S      Ryd( 4S)     0.00001
   204    C   14  px     Val( 2p)     1.10569
   205    C   14  px     Ryd( 3p)     0.00229
   206    C   14  py     Val( 2p)     1.23947
   207    C   14  py     Ryd( 3p)     0.00162
   208    C   14  pz     Val( 2p)     1.22367
   209    C   14  pz     Ryd( 3p)     0.00190
   210    C   14  dxy    Ryd( 3d)     0.00052
   211    C   14  dxz    Ryd( 3d)     0.00076
   212    C   14  dyz    Ryd( 3d)     0.00102
   213    C   14  dx2y2  Ryd( 3d)     0.00067
   214    C   14  dz2    Ryd( 3d)     0.00033
 
   215    C   15  S      Cor( 1S)     1.99924
   216    C   15  S      Val( 2S)     0.94700
   217    C   15  S      Ryd( 3S)     0.00172
   218    C   15  S      Ryd( 4S)     0.00003
   219    C   15  px     Val( 2p)     0.98394
   220    C   15  px     Ryd( 3p)     0.00450
   221    C   15  py     Val( 2p)     1.07046
   222    C   15  py     Ryd( 3p)     0.00419
   223    C   15  pz     Val( 2p)     1.03523
   224    C   15  pz     Ryd( 3p)     0.00375
   225    C   15  dxy    Ryd( 3d)     0.00097
   226    C   15  dxz    Ryd( 3d)     0.00143
   227    C   15  dyz    Ryd( 3d)     0.00109
   228    C   15  dx2y2  Ryd( 3d)     0.00093
   229    C   15  dz2    Ryd( 3d)     0.00075
 
   230    C   16  S      Cor( 1S)     1.99940
   231    C   16  S      Val( 2S)     1.10284
   232    C   16  S      Ryd( 3S)     0.00052
   233    C   16  S      Ryd( 4S)     0.00002
   234    C   16  px     Val( 2p)     1.23741
   235    C   16  px     Ryd( 3p)     0.00193
   236    C   16  py     Val( 2p)     1.11255
   237    C   16  py     Ryd( 3p)     0.00113
   238    C   16  pz     Val( 2p)     1.22639
   239    C   16  pz     Ryd( 3p)     0.00119
   240    C   16  dxy    Ryd( 3d)     0.00075
   241    C   16  dxz    Ryd( 3d)     0.00095
   242    C   16  dyz    Ryd( 3d)     0.00066
   243    C   16  dx2y2  Ryd( 3d)     0.00053
   244    C   16  dz2    Ryd( 3d)     0.00043
 
   245    C   17  S      Cor( 1S)     1.99940
   246    C   17  S      Val( 2S)     1.10045
   247    C   17  S      Ryd( 3S)     0.00055
   248    C   17  S      Ryd( 4S)     0.00002
   249    C   17  px     Val( 2p)     1.13104
   250    C   17  px     Ryd( 3p)     0.00141
   251    C   17  py     Val( 2p)     1.21005
   252    C   17  py     Ryd( 3p)     0.00219
   253    C   17  pz     Val( 2p)     1.23226
   254    C   17  pz     Ryd( 3p)     0.00188
   255    C   17  dxy    Ryd( 3d)     0.00052
   256    C   17  dxz    Ryd( 3d)     0.00110
   257    C   17  dyz    Ryd( 3d)     0.00047
   258    C   17  dx2y2  Ryd( 3d)     0.00077
   259    C   17  dz2    Ryd( 3d)     0.00046
 
   260    C   18  S      Cor( 1S)     1.99923
   261    C   18  S      Val( 2S)     0.95083
   262    C   18  S      Ryd( 3S)     0.00145
   263    C   18  S      Ryd( 4S)     0.00004
   264    C   18  px     Val( 2p)     1.06103
   265    C   18  px     Ryd( 3p)     0.00275
   266    C   18  py     Val( 2p)     0.86615
   267    C   18  py     Ryd( 3p)     0.00260
   268    C   18  pz     Val( 2p)     1.15450
   269    C   18  pz     Ryd( 3p)     0.00601
   270    C   18  dxy    Ryd( 3d)     0.00094
   271    C   18  dxz    Ryd( 3d)     0.00071
   272    C   18  dyz    Ryd( 3d)     0.00125
   273    C   18  dx2y2  Ryd( 3d)     0.00132
   274    C   18  dz2    Ryd( 3d)     0.00099
 
   275    C   19  S      Cor( 1S)     1.99940
   276    C   19  S      Val( 2S)     1.10493
   277    C   19  S      Ryd( 3S)     0.00070
   278    C   19  S      Ryd( 4S)     0.00002
   279    C   19  px     Val( 2p)     1.17643
   280    C   19  px     Ryd( 3p)     0.00201
   281    C   19  py     Val( 2p)     1.22135
   282    C   19  py     Ryd( 3p)     0.00256
   283    C   19  pz     Val( 2p)     1.17237
   284    C   19  pz     Ryd( 3p)     0.00119
   285    C   19  dxy    Ryd( 3d)     0.00021
   286    C   19  dxz    Ryd( 3d)     0.00051
   287    C   19  dyz    Ryd( 3d)     0.00049
   288    C   19  dx2y2  Ryd( 3d)     0.00117
   289    C   19  dz2    Ryd( 3d)     0.00092
 
   290    C   20  S      Cor( 1S)     1.99940
   291    C   20  S      Val( 2S)     1.09814
   292    C   20  S      Ryd( 3S)     0.00052
   293    C   20  S      Ryd( 4S)     0.00002
   294    C   20  px     Val( 2p)     1.09084
   295    C   20  px     Ryd( 3p)     0.00143
   296    C   20  py     Val( 2p)     1.22994
   297    C   20  py     Ryd( 3p)     0.00197
   298    C   20  pz     Val( 2p)     1.25607
   299    C   20  pz     Ryd( 3p)     0.00205
   300    C   20  dxy    Ryd( 3d)     0.00029
   301    C   20  dxz    Ryd( 3d)     0.00083
   302    C   20  dyz    Ryd( 3d)     0.00042
   303    C   20  dx2y2  Ryd( 3d)     0.00099
   304    C   20  dz2    Ryd( 3d)     0.00075
 
   305    H   21  S      Val( 1S)     0.76971
   306    H   21  S      Ryd( 2S)     0.00233
 
   307    H   22  S      Val( 1S)     0.76321
   308    H   22  S      Ryd( 2S)     0.01063
 
   309    H   23  S      Val( 1S)     0.76379
   310    H   23  S      Ryd( 2S)     0.00180
 
   311    H   24  S      Val( 1S)     0.76266
   312    H   24  S      Ryd( 2S)     0.00390
 
   313    H   25  S      Val( 1S)     0.76317
   314    H   25  S      Ryd( 2S)     0.00647
 
   315    H   26  S      Val( 1S)     0.77410
   316    H   26  S      Ryd( 2S)     0.00709
 
   317    H   27  S      Val( 1S)     0.76716
   318    H   27  S      Ryd( 2S)     0.00423
 
   319    H   28  S      Val( 1S)     0.80963
   320    H   28  S      Ryd( 2S)     0.01490
 
   321    H   29  S      Val( 1S)     0.76461
   322    H   29  S      Ryd( 2S)     0.00135
 
   323    H   30  S      Val( 1S)     0.77380
   324    H   30  S      Ryd( 2S)     0.00671
 
   325    H   31  S      Val( 1S)     0.76532
   326    H   31  S      Ryd( 2S)     0.00426
 
   327    H   32  S      Val( 1S)     0.76669
   328    H   32  S      Ryd( 2S)     0.00555
 
   329    H   33  S      Val( 1S)     0.77067
   330    H   33  S      Ryd( 2S)     0.00550
 
   331    H   34  S      Val( 1S)     0.76849
   332    H   34  S      Ryd( 2S)     0.00587
 
   333    H   35  S      Val( 1S)     0.75500
   334    H   35  S      Ryd( 2S)     0.00092
 
   335    H   36  S      Val( 1S)     0.78629
   336    H   36  S      Ryd( 2S)     0.00949
 
   337    H   37  S      Val( 1S)     0.77584
   338    H   37  S      Ryd( 2S)     0.00699
 
   339    H   38  S      Val( 1S)     0.76945
   340    H   38  S      Ryd( 2S)     0.00510
 
   341    H   39  S      Val( 1S)     0.77860
   342    H   39  S      Ryd( 2S)     0.00225
 
   343    H   40  S      Val( 1S)     0.75298
   344    H   40  S      Ryd( 2S)     0.00443
 
   345    H   41  S      Val( 1S)     0.78134
   346    H   41  S      Ryd( 2S)     0.00331
 
   347    H   42  S      Val( 1S)     0.77037
   348    H   42  S      Ryd( 2S)     0.00337
 
   349    H   43  S      Val( 1S)     0.76640
   350    H   43  S      Ryd( 2S)     0.00082
 
   351    H   44  S      Val( 1S)     0.78090
   352    H   44  S      Ryd( 2S)     0.00116
 
   353    H   45  S      Val( 1S)     0.76658
   354    H   45  S      Ryd( 2S)     0.00078
 
   355    H   46  S      Val( 1S)     0.76036
   356    H   46  S      Ryd( 2S)     0.00096
 
   357    H   47  S      Val( 1S)     0.76195
   358    H   47  S      Ryd( 2S)     0.00209
 
   359    H   48  S      Val( 1S)     0.75596
   360    H   48  S      Ryd( 2S)     0.00084
 
   361    H   49  S      Val( 1S)     0.77105
   362    H   49  S      Ryd( 2S)     0.00258
 
   363    H   50  S      Val( 1S)     0.76736
   364    H   50  S      Ryd( 2S)     0.00100
 
   365    H   51  S      Val( 1S)     0.75933
   366    H   51  S      Ryd( 2S)     0.00509
 
   367    H   52  S      Val( 1S)     0.77494
   368    H   52  S      Ryd( 2S)     0.00220
 
   369    H   53  S      Val( 1S)     0.76610
   370    H   53  S      Ryd( 2S)     0.00359


 Summary of Natural Population Analysis:                  
                                                          
                                       Natural Population 
                Natural  -----------------------------------------------
    Atom  No    Charge         Core      Valence    Rydberg      Total
 -----------------------------------------------------------------------
      N    1   -0.69580      1.99945     5.67610    0.02026     7.69580
      C    2   -0.28337      1.99926     4.26449    0.01961     6.28337
      C    3   -0.25390      1.99930     4.23600    0.01860     6.25390
      N    4   -0.45200      1.99940     5.43938    0.01322     7.45200
      C    5   -0.25876      1.99931     4.24161    0.01784     6.25876
      C    6   -0.27444      1.99929     4.25656    0.01859     6.27444
      N    7   -0.83571      1.99943     5.80926    0.02703     7.83571
      P    8    1.15564      9.99839     3.75415    0.09183    13.84436
      N    9   -0.75562      1.99944     5.72790    0.02828     7.75562
      C   10   -0.28527      1.99929     4.26825    0.01773     6.28527
      C   11   -0.26798      1.99933     4.25019    0.01847     6.26798
      C   12   -0.05512      1.99924     4.03830    0.01757     6.05512
      C   13   -0.69207      1.99940     4.68230    0.01037     6.69207
      C   14   -0.68197      1.99939     4.67284    0.00974     6.68197
      C   15   -0.05524      1.99924     4.03664    0.01936     6.05524
      C   16   -0.68669      1.99940     4.67918    0.00811     6.68669
      C   17   -0.68256      1.99940     4.67380    0.00936     6.68256
      C   18   -0.04980      1.99923     4.03252    0.01806     6.04980
      C   19   -0.68426      1.99940     4.67508    0.00978     6.68426
      C   20   -0.68367      1.99940     4.67500    0.00927     6.68367
      H   21    0.22796      0.00000     0.76971    0.00233     0.77204
      H   22    0.22616      0.00000     0.76321    0.01063     0.77384
      H   23    0.23441      0.00000     0.76379    0.00180     0.76559
      H   24    0.23344      0.00000     0.76266    0.00390     0.76656
      H   25    0.23037      0.00000     0.76317    0.00647     0.76963
      H   26    0.21881      0.00000     0.77410    0.00709     0.78119
      H   27    0.22861      0.00000     0.76716    0.00423     0.77139
      H   28    0.17547      0.00000     0.80963    0.01490     0.82453
      H   29    0.23403      0.00000     0.76461    0.00135     0.76597
      H   30    0.21949      0.00000     0.77380    0.00671     0.78051
      H   31    0.23042      0.00000     0.76532    0.00426     0.76958
      H   32    0.22776      0.00000     0.76669    0.00555     0.77224
      H   33    0.22383      0.00000     0.77067    0.00550     0.77617
      H   34    0.22564      0.00000     0.76849    0.00587     0.77436
      H   35    0.24408      0.00000     0.75500    0.00092     0.75592
      H   36    0.20422      0.00000     0.78629    0.00949     0.79578
      H   37    0.21716      0.00000     0.77584    0.00699     0.78284
      H   38    0.22544      0.00000     0.76945    0.00510     0.77456
      H   39    0.21914      0.00000     0.77860    0.00225     0.78086
      H   40    0.24259      0.00000     0.75298    0.00443     0.75741
      H   41    0.21534      0.00000     0.78134    0.00331     0.78466
      H   42    0.22627      0.00000     0.77037    0.00337     0.77373
      H   43    0.23277      0.00000     0.76640    0.00082     0.76723
      H   44    0.21794      0.00000     0.78090    0.00116     0.78206
      H   45    0.23263      0.00000     0.76658    0.00078     0.76737
      H   46    0.23869      0.00000     0.76036    0.00096     0.76131
      H   47    0.23596      0.00000     0.76195    0.00209     0.76404
      H   48    0.24320      0.00000     0.75596    0.00084     0.75680
      H   49    0.22636      0.00000     0.77105    0.00258     0.77364
      H   50    0.23164      0.00000     0.76736    0.00100     0.76836
      H   51    0.23558      0.00000     0.75933    0.00509     0.76442
      H   52    0.22285      0.00000     0.77494    0.00220     0.77715
      H   53    0.23031      0.00000     0.76610    0.00359     0.76969
 =======================================================================
   * Total *    0.00000     47.98599   117.47336    0.54065   166.00000

                                 Natural Population      
 --------------------------------------------------------
   Core                      47.98599 ( 99.9708% of  48)
   Valence                  117.47336 ( 99.5537% of 118)
   Natural Minimal Basis    165.45935 ( 99.6743% of 166)
   Natural Rydberg Basis      0.54065 (  0.3257% of 166)
 --------------------------------------------------------

    Atom  No          Natural Electron Configuration
 ----------------------------------------------------------------------------
      N    1      [core]2S( 1.34)2p( 4.33)3S( 0.01)3p( 0.01)
      C    2      [core]2S( 1.03)2p( 3.24)3p( 0.01)
      C    3      [core]2S( 1.01)2p( 3.22)3p( 0.01)3d( 0.01)
      N    4      [core]2S( 1.18)2p( 4.26)3p( 0.01)
      C    5      [core]2S( 1.01)2p( 3.23)3p( 0.01)3d( 0.01)
      C    6      [core]2S( 1.01)2p( 3.24)3p( 0.01)3d( 0.01)
      N    7      [core]2S( 1.34)2p( 4.47)3S( 0.01)3p( 0.01)
      P    8      [core]3S( 1.33)3p( 2.43)4S( 0.01)3d( 0.05)4p( 0.04)
      N    9      [core]2S( 1.36)2p( 4.36)3S( 0.01)3p( 0.02)
      C   10      [core]2S( 1.01)2p( 3.25)3p( 0.01)
      C   11      [core]2S( 1.01)2p( 3.24)3p( 0.01)3d( 0.01)
      C   12      [core]2S( 0.97)2p( 3.07)3p( 0.01)3d( 0.01)
      C   13      [core]2S( 1.10)2p( 3.58)3p( 0.01)
      C   14      [core]2S( 1.10)2p( 3.57)3p( 0.01)
      C   15      [core]2S( 0.95)2p( 3.09)3p( 0.01)3d( 0.01)
      C   16      [core]2S( 1.10)2p( 3.58)
      C   17      [core]2S( 1.10)2p( 3.57)3p( 0.01)
      C   18      [core]2S( 0.95)2p( 3.08)3p( 0.01)3d( 0.01)
      C   19      [core]2S( 1.10)2p( 3.57)3p( 0.01)
      C   20      [core]2S( 1.10)2p( 3.58)3p( 0.01)
      H   21            1S( 0.77)
      H   22            1S( 0.76)2S( 0.01)
      H   23            1S( 0.76)
      H   24            1S( 0.76)
      H   25            1S( 0.76)2S( 0.01)
      H   26            1S( 0.77)2S( 0.01)
      H   27            1S( 0.77)
      H   28            1S( 0.81)2S( 0.01)
      H   29            1S( 0.76)
      H   30            1S( 0.77)2S( 0.01)
      H   31            1S( 0.77)
      H   32            1S( 0.77)2S( 0.01)
      H   33            1S( 0.77)2S( 0.01)
      H   34            1S( 0.77)2S( 0.01)
      H   35            1S( 0.76)
      H   36            1S( 0.79)2S( 0.01)
      H   37            1S( 0.78)2S( 0.01)
      H   38            1S( 0.77)2S( 0.01)
      H   39            1S( 0.78)
      H   40            1S( 0.75)
      H   41            1S( 0.78)
      H   42            1S( 0.77)
      H   43            1S( 0.77)
      H   44            1S( 0.78)
      H   45            1S( 0.77)
      H   46            1S( 0.76)
      H   47            1S( 0.76)
      H   48            1S( 0.76)
      H   49            1S( 0.77)
      H   50            1S( 0.77)
      H   51            1S( 0.76)2S( 0.01)
      H   52            1S( 0.77)
      H   53            1S( 0.77)


 NBO analysis skipped by request.
 1\1\GINC-DELLA-R2C3N8\SP\RB3LYP TD-FC\6-31G(d)\C15H33N4P1\BJS4\24-Aug-
 2020\0\\# TD(NStates=10, Root=1) B3LYP/6-31G* scf=qc volume pop=NPA de
 nsity=current Geom=AllCheck Guess=Read\\Title Card Required\\0,1\N,0,-
 1.2475197305,-0.3163411775,1.3133685563\C,0,-0.9796564925,-1.726216063
 2,1.5877584922\C,0,-0.1520150603,-2.3671945645,0.4648367552\N,0,1.0196
 820101,-1.6054072,0.0925121686\C,0,0.9550172961,-0.7005633166,-1.03154
 49624\C,0,1.336011889,0.7662529414,-0.7823368218\N,0,0.6100905373,1.48
 72594419,0.2689722642\P,0,-0.1131988324,0.9420769621,1.7513488379\N,0,
 1.1213560643,0.0365128403,2.6067803076\C,0,2.3399455387,-0.3932553644,
 1.9114365244\C,0,2.1662186192,-1.6112777006,0.9669413624\C,0,1.3416176
 716,0.2885106904,4.0568101123\C,0,0.2785364978,1.1659696365,4.72720068
 75\C,0,1.4530572937,-1.0455156592,4.8171206967\C,0,0.7558925735,2.9637
 062192,0.203947478\C,0,2.2109901797,3.4442938887,0.3498676116\C,0,0.09
 54434972,3.5720572322,-1.0461904867\C,0,-2.6803485303,0.0620910431,1.2
 812308301\C,0,-3.2978605264,0.2391923269,2.681135314\C,0,-2.9509581499
 ,1.2878330939,0.3986254085\H,0,-1.9334614053,-2.2603110832,1.686590761
 \H,0,-0.4445100126,-1.8473241892,2.5380236287\H,0,-0.7799033509,-2.479
 0554577,-0.4272259211\H,0,0.14646831,-3.383904884,0.770511602\H,0,-0.0
 632979567,-0.7370382563,-1.4266038089\H,0,1.6291421602,-1.0335115605,-
 1.8464914353\H,0,1.1587376209,1.2776022323,-1.7379293516\H,0,2.4237142
 997,0.8198585915,-0.6217123305\H,0,3.085534832,-0.6777822021,2.6629460
 719\H,0,2.7833490345,0.4478543081,1.3627534954\H,0,2.0985137014,-2.517
 0781091,1.5822740204\H,0,3.0958676872,-1.7019528535,0.3764638464\H,0,2
 .3036861526,0.8180367957,4.1687730862\H,0,-0.7210801777,0.7242859963,4
 .646100051\H,0,0.237997006,2.1711274823,4.3020479489\H,0,0.5207848258,
 1.2521664966,5.792968045\H,0,0.488384236,-1.5660816584,4.8178612427\H,
 0,1.7510070331,-0.8714185357,5.8586551366\H,0,2.1947281081,-1.71419900
 1,4.3674374607\H,0,0.2033287776,3.3425009943,1.0715029601\H,0,2.831817
 1225,3.1398651114,-0.5008405305\H,0,2.6651664658,3.0452962947,1.263804
 8288\H,0,2.24562487,4.5390690131,0.4032929621\H,0,0.6328194629,3.32393
 8705,-1.9688103861\H,0,0.0835045043,4.6656454502,-0.9664470429\H,0,-0.
 9370447175,3.2234900282,-1.146025551\H,0,-3.1901926265,-0.7834685347,0
 .7995994753\H,0,-2.8473272041,1.0956367616,3.1948362994\H,0,-3.1354250
 609,-0.6527539087,3.2973557409\H,0,-4.3797479061,0.4113011334,2.616303
 3271\H,0,-2.5255105961,2.1997027938,0.8304744047\H,0,-4.0322242402,1.4
 409629459,0.2975461909\H,0,-2.5230033016,1.1497738291,-0.5990273649\\V
 ersion=ES64L-G16RevA.03\State=1-A\HF=-1151.793955\RMSD=7.952e-09\Dipol
 e=0.0990969,-0.857603,-0.4811964\Quadrupole=1.9160742,1.3112629,-3.227
 3371,1.2325191,0.9074537,0.1855398\PG=C01 [X(C15H33N4P1)]\\@


 THERE IS NO SCIENCE WITHOUT FANCY, NOR ART WITHOUT FACTS.
     -- VLADIMIR NABAKOV
 Job cpu time:       0 days  1 hours 44 minutes 39.4 seconds.
 Elapsed time:       0 days  0 hours 14 minutes 59.8 seconds.
 File lengths (MBytes):  RWF=   1125 Int=      0 D2E=      0 Chk=    268 Scr=      1
 Normal termination of Gaussian 16 at Mon Aug 24 18:14:30 2020.
