 Entering Gaussian System, Link 0=g16
 Input=base_9_conf24123.com
 Output=base_9_conf24123.log
 Initial command:
 /opt/export//g16/l1.exe "/scratch/bjs4/job.23625/Gau-23627.inp" -scrdir="/scratch/bjs4/job.23625/"
 Entering Link 1 = /opt/export//g16/l1.exe PID=     23628.
  
 Copyright (c) 1988,1990,1992,1993,1995,1998,2003,2009,2016,
            Gaussian, Inc.  All Rights Reserved.
  
 This is part of the Gaussian(R) 16 program.  It is based on
 the Gaussian(R) 09 system (copyright 2009, Gaussian, Inc.),
 the Gaussian(R) 03 system (copyright 2003, Gaussian, Inc.),
 the Gaussian(R) 98 system (copyright 1998, Gaussian, Inc.),
 the Gaussian(R) 94 system (copyright 1995, Gaussian, Inc.),
 the Gaussian 92(TM) system (copyright 1992, Gaussian, Inc.),
 the Gaussian 90(TM) system (copyright 1990, Gaussian, Inc.),
 the Gaussian 88(TM) system (copyright 1988, Gaussian, Inc.),
 the Gaussian 86(TM) system (copyright 1986, Carnegie Mellon
 University), and the Gaussian 82(TM) system (copyright 1983,
 Carnegie Mellon University). Gaussian is a federally registered
 trademark of Gaussian, Inc.
  
 This software contains proprietary and confidential information,
 including trade secrets, belonging to Gaussian, Inc.
  
 This software is provided under written license and may be
 used, copied, transmitted, or stored only in accord with that
 written license.
  
 The following legend is applicable only to US Government
 contracts under FAR:
  
                    RESTRICTED RIGHTS LEGEND
  
 Use, reproduction and disclosure by the US Government is
 subject to restrictions as set forth in subparagraphs (a)
 and (c) of the Commercial Computer Software - Restricted
 Rights clause in FAR 52.227-19.
  
 Gaussian, Inc.
 340 Quinnipiac St., Bldg. 40, Wallingford CT 06492
  
  
 ---------------------------------------------------------------
 Warning -- This program may not be used in any manner that
 competes with the business of Gaussian, Inc. or will provide
 assistance to any competitor of Gaussian, Inc.  The licensee
 of this program is prohibited from giving any competitor of
 Gaussian, Inc. access to this program.  By using this program,
 the user acknowledges that Gaussian, Inc. is engaged in the
 business of creating and licensing software in the field of
 computational chemistry and represents and warrants to the
 licensee that it is not a competitor of Gaussian, Inc. and that
 it will not use this program in any manner prohibited above.
 ---------------------------------------------------------------
  

 Cite this work as:
 Gaussian 16, Revision A.03,
 M. J. Frisch, G. W. Trucks, H. B. Schlegel, G. E. Scuseria, 
 M. A. Robb, J. R. Cheeseman, G. Scalmani, V. Barone, 
 G. A. Petersson, H. Nakatsuji, X. Li, M. Caricato, A. V. Marenich, 
 J. Bloino, B. G. Janesko, R. Gomperts, B. Mennucci, H. P. Hratchian, 
 J. V. Ortiz, A. F. Izmaylov, J. L. Sonnenberg, D. Williams-Young, 
 F. Ding, F. Lipparini, F. Egidi, J. Goings, B. Peng, A. Petrone, 
 T. Henderson, D. Ranasinghe, V. G. Zakrzewski, J. Gao, N. Rega, 
 G. Zheng, W. Liang, M. Hada, M. Ehara, K. Toyota, R. Fukuda, 
 J. Hasegawa, M. Ishida, T. Nakajima, Y. Honda, O. Kitao, H. Nakai, 
 T. Vreven, K. Throssell, J. A. Montgomery, Jr., J. E. Peralta, 
 F. Ogliaro, M. J. Bearpark, J. J. Heyd, E. N. Brothers, K. N. Kudin, 
 V. N. Staroverov, T. A. Keith, R. Kobayashi, J. Normand, 
 K. Raghavachari, A. P. Rendell, J. C. Burant, S. S. Iyengar, 
 J. Tomasi, M. Cossi, J. M. Millam, M. Klene, C. Adamo, R. Cammi, 
 J. W. Ochterski, R. L. Martin, K. Morokuma, O. Farkas, 
 J. B. Foresman, and D. J. Fox, Gaussian, Inc., Wallingford CT, 2016.
 
 ******************************************
 Gaussian 16:  ES64L-G16RevA.03 25-Dec-2016
                24-Aug-2020 
 ******************************************
 %nprocshared=7
 Will use up to    7 processors via shared memory.
 %Mem=14GB
 %Chk=base_9_conf241.chk
 ---------------------------------
 # opt=CalcAll B3LYP/6-31G* scf=qc
 ---------------------------------
 1/10=4,18=20,19=15,26=3,38=1/1,3;
 2/9=110,12=2,17=6,18=5,40=1/2;
 3/5=1,6=6,7=1,11=2,25=1,30=1,71=2,74=-5,140=1/1,2,3;
 4//1;
 5/5=2,8=3,38=5/8;
 8/6=4,10=90,11=11/1;
 11/6=1,8=1,9=11,15=111,16=1/1,2,10;
 10/6=1/2;
 6/7=2,8=2,9=2,10=2,18=1,28=1/1;
 7/10=1,25=1/1,2,3,16;
 1/10=4,18=20,19=15,26=3/3(3);
 2/9=110/2;
 7/8=1,9=1,25=1,44=-1/16;
 99//99;
 2/9=110/2;
 3/5=1,6=6,7=1,11=2,25=1,30=1,71=2,74=-5,140=1/1,2,3;
 4/5=5,16=3,69=1/1;
 5/5=2,8=3,38=5/8;
 8/6=4,10=90,11=11/1;
 11/6=1,8=1,9=11,15=111,16=1/1,2,10;
 10/6=1/2;
 7/10=1,25=1/1,2,3,16;
 1/10=4,18=20,19=15,26=3/3(-8);
 2/9=110/2;
 6/7=2,8=2,9=2,10=2,18=1,19=2,28=1/1;
 7/8=1,9=1,25=1,44=-1/16;
 99//99;
 -------------------
 Title Card Required
 -------------------
 Symbolic Z-matrix:
 Charge =  0 Multiplicity = 1
 P                     1.082    -0.0564    0.0094 
 N1                    1.0483    0.5576    1.4384 
 C                     1.0614   -0.1704    2.7563 
 C                     1.11405  -1.70408   2.72338 
 C                     2.29192   0.26588   3.60055 
 C                    -0.13136   0.31672   3.62354 
 N                     1.1236    1.2666   -1.0195 
 C                     0.56553   1.32548  -2.36609 
 C                     1.17042   2.58259  -2.97242 
 C                     1.29969   3.51558  -1.79155 
 C                     1.60185   2.58802  -0.62706 
 N                    -0.698    -0.0564    0.0094 
 C                    -1.3698   -0.20326   1.31963 
 C                    -2.7694    0.37595   1.20414 
 C                    -2.6177    1.41975   0.13524 
 C                    -1.559     0.8228   -0.77389 
 N                     2.862    -0.0564    0.0094 
 C                     3.6924    1.1348    0.13549 
 C                     5.0651    0.62805   0.56397 
 C                     4.7644   -0.66102   1.29759 
 C                     3.5367   -1.20505   0.59417 
 H                     2.12136  -2.06317   2.50248 
 H                     0.45916  -2.17461   1.99549 
 H                     0.86262  -2.12393   3.70683 
 H                     3.2332   -0.10078   3.18574 
 H                     2.23226  -0.14911   4.61679 
 H                     2.35771   1.35516   3.69749 
 H                    -1.09551  -0.05665   3.29574 
 H                    -0.18731   1.41278   3.64903 
 H                    -0.03876  -0.02605   4.66179 
 H                    -0.52497   1.40082  -2.33627 
 H                     0.83543   0.45824  -2.97994 
 H                     0.55444   3.00529  -3.76805 
 H                     2.16456   2.37459  -3.38708 
 H                     0.34738   4.03316  -1.6275 
 H                     2.0782    4.27007  -1.93796 
 H                     1.11527   2.97883   0.27127 
 H                     2.67649   2.54885  -0.43236 
 H                    -0.8173    0.34298   2.09123 
 H                    -1.4533   -1.25072   1.62096 
 H                    -3.1286    0.79922   2.14743 
 H                    -3.4816   -0.39273   0.88157 
 H                    -2.272     2.36653   0.56289 
 H                    -3.5571    1.60433  -0.39704 
 H                    -1.0583    1.63608  -1.28077 
 H                    -2.0907    0.20431  -1.50134 
 H                     3.3475    1.85624   0.86679 
 H                     3.7732    1.67946  -0.81757 
 H                     5.5891    1.34709   1.20275 
 H                     5.6907    0.42604  -0.3118 
 H                     4.5443   -0.45341   2.35129 
 H                     5.6076   -1.35724   1.26513 
 H                     2.9026   -1.77132   1.28061 
 H                     3.8322   -1.88955  -0.20768 
 

 GradGradGradGradGradGradGradGradGradGradGradGradGradGradGradGradGradGrad
 Berny optimization.
 Initialization pass.
                           ----------------------------
                           !    Initial Parameters    !
                           ! (Angstroms and Degrees)  !
 --------------------------                            --------------------------
 ! Name  Definition              Value          Derivative Info.                !
 --------------------------------------------------------------------------------
 ! R1    R(1,2)                  1.5557         calculate D2E/DX2 analytically  !
 ! R2    R(1,7)                  1.6765         calculate D2E/DX2 analytically  !
 ! R3    R(1,12)                 1.78           calculate D2E/DX2 analytically  !
 ! R4    R(1,17)                 1.78           calculate D2E/DX2 analytically  !
 ! R5    R(2,3)                  1.5057         calculate D2E/DX2 analytically  !
 ! R6    R(3,4)                  1.5349         calculate D2E/DX2 analytically  !
 ! R7    R(3,5)                  1.5548         calculate D2E/DX2 analytically  !
 ! R8    R(3,6)                  1.5531         calculate D2E/DX2 analytically  !
 ! R9    R(4,22)                 1.092          calculate D2E/DX2 analytically  !
 ! R10   R(4,23)                 1.0863         calculate D2E/DX2 analytically  !
 ! R11   R(4,24)                 1.0985         calculate D2E/DX2 analytically  !
 ! R12   R(5,25)                 1.092          calculate D2E/DX2 analytically  !
 ! R13   R(5,26)                 1.0993         calculate D2E/DX2 analytically  !
 ! R14   R(5,27)                 1.0956         calculate D2E/DX2 analytically  !
 ! R15   R(6,28)                 1.0846         calculate D2E/DX2 analytically  !
 ! R16   R(6,29)                 1.0978         calculate D2E/DX2 analytically  !
 ! R17   R(6,30)                 1.0973         calculate D2E/DX2 analytically  !
 ! R18   R(7,8)                  1.4588         calculate D2E/DX2 analytically  !
 ! R19   R(7,11)                 1.4591         calculate D2E/DX2 analytically  !
 ! R20   R(8,9)                  1.5211         calculate D2E/DX2 analytically  !
 ! R21   R(8,31)                 1.0935         calculate D2E/DX2 analytically  !
 ! R22   R(8,32)                 1.0962         calculate D2E/DX2 analytically  !
 ! R23   R(9,10)                 1.5105         calculate D2E/DX2 analytically  !
 ! R24   R(9,33)                 1.0914         calculate D2E/DX2 analytically  !
 ! R25   R(9,34)                 1.0971         calculate D2E/DX2 analytically  !
 ! R26   R(10,11)                1.5191         calculate D2E/DX2 analytically  !
 ! R27   R(10,35)                1.0962         calculate D2E/DX2 analytically  !
 ! R28   R(10,36)                1.094          calculate D2E/DX2 analytically  !
 ! R29   R(11,37)                1.0938         calculate D2E/DX2 analytically  !
 ! R30   R(11,38)                1.0928         calculate D2E/DX2 analytically  !
 ! R31   R(12,13)                1.4797         calculate D2E/DX2 analytically  !
 ! R32   R(12,16)                1.4587         calculate D2E/DX2 analytically  !
 ! R33   R(13,14)                1.5191         calculate D2E/DX2 analytically  !
 ! R34   R(13,39)                1.095          calculate D2E/DX2 analytically  !
 ! R35   R(13,40)                1.0931         calculate D2E/DX2 analytically  !
 ! R36   R(14,15)                1.5017         calculate D2E/DX2 analytically  !
 ! R37   R(14,41)                1.0945         calculate D2E/DX2 analytically  !
 ! R38   R(14,42)                1.0964         calculate D2E/DX2 analytically  !
 ! R39   R(15,16)                1.5178         calculate D2E/DX2 analytically  !
 ! R40   R(15,43)                1.0949         calculate D2E/DX2 analytically  !
 ! R41   R(15,44)                1.0954         calculate D2E/DX2 analytically  !
 ! R42   R(16,45)                1.0812         calculate D2E/DX2 analytically  !
 ! R43   R(16,46)                1.0929         calculate D2E/DX2 analytically  !
 ! R44   R(17,18)                1.4575         calculate D2E/DX2 analytically  !
 ! R45   R(17,21)                1.4548         calculate D2E/DX2 analytically  !
 ! R46   R(18,19)                1.5247         calculate D2E/DX2 analytically  !
 ! R47   R(18,47)                1.0836         calculate D2E/DX2 analytically  !
 ! R48   R(18,48)                1.1007         calculate D2E/DX2 analytically  !
 ! R49   R(19,20)                1.5134         calculate D2E/DX2 analytically  !
 ! R50   R(19,49)                1.0953         calculate D2E/DX2 analytically  !
 ! R51   R(19,50)                1.0951         calculate D2E/DX2 analytically  !
 ! R52   R(20,21)                1.5159         calculate D2E/DX2 analytically  !
 ! R53   R(20,51)                1.0963         calculate D2E/DX2 analytically  !
 ! R54   R(20,52)                1.094          calculate D2E/DX2 analytically  !
 ! R55   R(21,53)                1.0927         calculate D2E/DX2 analytically  !
 ! R56   R(21,54)                1.0949         calculate D2E/DX2 analytically  !
 ! A1    A(2,1,7)              104.6442         calculate D2E/DX2 analytically  !
 ! A2    A(2,1,12)              88.7587         calculate D2E/DX2 analytically  !
 ! A3    A(2,1,17)              91.2413         calculate D2E/DX2 analytically  !
 ! A4    A(7,1,12)              91.4218         calculate D2E/DX2 analytically  !
 ! A5    A(7,1,17)              88.5782         calculate D2E/DX2 analytically  !
 ! A6    A(1,2,3)              127.8064         calculate D2E/DX2 analytically  !
 ! A7    A(2,3,4)              117.6868         calculate D2E/DX2 analytically  !
 ! A8    A(2,3,5)              110.2736         calculate D2E/DX2 analytically  !
 ! A9    A(2,3,6)              109.295          calculate D2E/DX2 analytically  !
 ! A10   A(4,3,5)              105.3597         calculate D2E/DX2 analytically  !
 ! A11   A(4,3,6)              110.5919         calculate D2E/DX2 analytically  !
 ! A12   A(5,3,6)              102.5096         calculate D2E/DX2 analytically  !
 ! A13   A(3,4,22)             111.3802         calculate D2E/DX2 analytically  !
 ! A14   A(3,4,23)             115.2442         calculate D2E/DX2 analytically  !
 ! A15   A(3,4,24)             110.7839         calculate D2E/DX2 analytically  !
 ! A16   A(22,4,23)            106.1483         calculate D2E/DX2 analytically  !
 ! A17   A(22,4,24)            105.4599         calculate D2E/DX2 analytically  !
 ! A18   A(23,4,24)            107.2383         calculate D2E/DX2 analytically  !
 ! A19   A(3,5,25)             112.4402         calculate D2E/DX2 analytically  !
 ! A20   A(3,5,26)             110.6764         calculate D2E/DX2 analytically  !
 ! A21   A(3,5,27)             111.9981         calculate D2E/DX2 analytically  !
 ! A22   A(25,5,26)            105.7342         calculate D2E/DX2 analytically  !
 ! A23   A(25,5,27)            108.4022         calculate D2E/DX2 analytically  !
 ! A24   A(26,5,27)            107.265          calculate D2E/DX2 analytically  !
 ! A25   A(3,6,28)             113.9509         calculate D2E/DX2 analytically  !
 ! A26   A(3,6,29)             111.4237         calculate D2E/DX2 analytically  !
 ! A27   A(3,6,30)             111.4426         calculate D2E/DX2 analytically  !
 ! A28   A(28,6,29)            107.7826         calculate D2E/DX2 analytically  !
 ! A29   A(28,6,30)            104.6814         calculate D2E/DX2 analytically  !
 ! A30   A(29,6,30)            107.1108         calculate D2E/DX2 analytically  !
 ! A31   A(1,7,8)              126.0755         calculate D2E/DX2 analytically  !
 ! A32   A(1,7,11)             123.9007         calculate D2E/DX2 analytically  !
 ! A33   A(8,7,11)             109.7007         calculate D2E/DX2 analytically  !
 ! A34   A(7,8,9)              104.4282         calculate D2E/DX2 analytically  !
 ! A35   A(7,8,31)             111.045          calculate D2E/DX2 analytically  !
 ! A36   A(7,8,32)             113.0016         calculate D2E/DX2 analytically  !
 ! A37   A(9,8,31)             110.5176         calculate D2E/DX2 analytically  !
 ! A38   A(9,8,32)             109.4316         calculate D2E/DX2 analytically  !
 ! A39   A(31,8,32)            108.379          calculate D2E/DX2 analytically  !
 ! A40   A(8,9,10)             103.4662         calculate D2E/DX2 analytically  !
 ! A41   A(8,9,33)             112.7199         calculate D2E/DX2 analytically  !
 ! A42   A(8,9,34)             110.7522         calculate D2E/DX2 analytically  !
 ! A43   A(10,9,33)            112.2712         calculate D2E/DX2 analytically  !
 ! A44   A(10,9,34)            109.5754         calculate D2E/DX2 analytically  !
 ! A45   A(33,9,34)            108.0194         calculate D2E/DX2 analytically  !
 ! A46   A(9,10,11)            103.8365         calculate D2E/DX2 analytically  !
 ! A47   A(9,10,35)            109.5286         calculate D2E/DX2 analytically  !
 ! A48   A(9,10,36)            112.4742         calculate D2E/DX2 analytically  !
 ! A49   A(11,10,35)           110.2654         calculate D2E/DX2 analytically  !
 ! A50   A(11,10,36)           112.4674         calculate D2E/DX2 analytically  !
 ! A51   A(35,10,36)           108.2167         calculate D2E/DX2 analytically  !
 ! A52   A(7,11,10)            106.3566         calculate D2E/DX2 analytically  !
 ! A53   A(7,11,37)            113.4944         calculate D2E/DX2 analytically  !
 ! A54   A(7,11,38)            109.7415         calculate D2E/DX2 analytically  !
 ! A55   A(10,11,37)           108.8391         calculate D2E/DX2 analytically  !
 ! A56   A(10,11,38)           110.7352         calculate D2E/DX2 analytically  !
 ! A57   A(37,11,38)           107.6931         calculate D2E/DX2 analytically  !
 ! A58   A(1,12,13)            117.0008         calculate D2E/DX2 analytically  !
 ! A59   A(1,12,16)            126.1744         calculate D2E/DX2 analytically  !
 ! A60   A(13,12,16)           105.5043         calculate D2E/DX2 analytically  !
 ! A61   A(12,13,14)           108.2478         calculate D2E/DX2 analytically  !
 ! A62   A(12,13,39)           110.2039         calculate D2E/DX2 analytically  !
 ! A63   A(12,13,40)           111.954          calculate D2E/DX2 analytically  !
 ! A64   A(14,13,39)           109.1622         calculate D2E/DX2 analytically  !
 ! A65   A(14,13,40)           108.417          calculate D2E/DX2 analytically  !
 ! A66   A(39,13,40)           108.8025         calculate D2E/DX2 analytically  !
 ! A67   A(13,14,15)           103.0655         calculate D2E/DX2 analytically  !
 ! A68   A(13,14,41)           112.5996         calculate D2E/DX2 analytically  !
 ! A69   A(13,14,42)           110.7028         calculate D2E/DX2 analytically  !
 ! A70   A(15,14,41)           112.1974         calculate D2E/DX2 analytically  !
 ! A71   A(15,14,42)           110.0911         calculate D2E/DX2 analytically  !
 ! A72   A(41,14,42)           108.1494         calculate D2E/DX2 analytically  !
 ! A73   A(14,15,16)           102.9111         calculate D2E/DX2 analytically  !
 ! A74   A(14,15,43)           110.7893         calculate D2E/DX2 analytically  !
 ! A75   A(14,15,44)           112.1094         calculate D2E/DX2 analytically  !
 ! A76   A(16,15,43)           110.7208         calculate D2E/DX2 analytically  !
 ! A77   A(16,15,44)           111.9259         calculate D2E/DX2 analytically  !
 ! A78   A(43,15,44)           108.3526         calculate D2E/DX2 analytically  !
 ! A79   A(12,16,15)           109.0943         calculate D2E/DX2 analytically  !
 ! A80   A(12,16,45)           115.579          calculate D2E/DX2 analytically  !
 ! A81   A(12,16,46)           107.667          calculate D2E/DX2 analytically  !
 ! A82   A(15,16,45)           107.9376         calculate D2E/DX2 analytically  !
 ! A83   A(15,16,46)           106.3747         calculate D2E/DX2 analytically  !
 ! A84   A(45,16,46)           109.8115         calculate D2E/DX2 analytically  !
 ! A85   A(1,17,18)            124.7312         calculate D2E/DX2 analytically  !
 ! A86   A(1,17,21)            117.6301         calculate D2E/DX2 analytically  !
 ! A87   A(18,17,21)           110.2595         calculate D2E/DX2 analytically  !
 ! A88   A(17,18,19)           105.4035         calculate D2E/DX2 analytically  !
 ! A89   A(17,18,47)           114.9077         calculate D2E/DX2 analytically  !
 ! A90   A(17,18,48)           111.7978         calculate D2E/DX2 analytically  !
 ! A91   A(19,18,47)           108.5526         calculate D2E/DX2 analytically  !
 ! A92   A(19,18,48)           109.981          calculate D2E/DX2 analytically  !
 ! A93   A(47,18,48)           106.1571         calculate D2E/DX2 analytically  !
 ! A94   A(18,19,20)           103.9126         calculate D2E/DX2 analytically  !
 ! A95   A(18,19,49)           112.1127         calculate D2E/DX2 analytically  !
 ! A96   A(18,19,50)           110.5426         calculate D2E/DX2 analytically  !
 ! A97   A(20,19,49)           111.81           calculate D2E/DX2 analytically  !
 ! A98   A(20,19,50)           110.1246         calculate D2E/DX2 analytically  !
 ! A99   A(49,19,50)           108.3132         calculate D2E/DX2 analytically  !
 ! A100  A(19,20,21)           103.9848         calculate D2E/DX2 analytically  !
 ! A101  A(19,20,51)           110.152          calculate D2E/DX2 analytically  !
 ! A102  A(19,20,52)           111.997          calculate D2E/DX2 analytically  !
 ! A103  A(21,20,51)           110.5708         calculate D2E/DX2 analytically  !
 ! A104  A(21,20,52)           112.4615         calculate D2E/DX2 analytically  !
 ! A105  A(51,20,52)           107.6854         calculate D2E/DX2 analytically  !
 ! A106  A(17,21,20)           106.1857         calculate D2E/DX2 analytically  !
 ! A107  A(17,21,53)           113.1133         calculate D2E/DX2 analytically  !
 ! A108  A(17,21,54)           108.9286         calculate D2E/DX2 analytically  !
 ! A109  A(20,21,53)           111.3744         calculate D2E/DX2 analytically  !
 ! A110  A(20,21,54)           110.219          calculate D2E/DX2 analytically  !
 ! A111  A(53,21,54)           107.02           calculate D2E/DX2 analytically  !
 ! A112  L(12,1,17,2,-1)       180.0            calculate D2E/DX2 analytically  !
 ! A113  L(12,1,17,2,-2)       180.0            calculate D2E/DX2 analytically  !
 ! D1    D(7,1,2,3)           -177.26           calculate D2E/DX2 analytically  !
 ! D2    D(12,1,2,3)            91.5945         calculate D2E/DX2 analytically  !
 ! D3    D(17,1,2,3)           -88.4055         calculate D2E/DX2 analytically  !
 ! D4    D(2,1,7,8)           -149.647          calculate D2E/DX2 analytically  !
 ! D5    D(2,1,7,11)            23.1433         calculate D2E/DX2 analytically  !
 ! D6    D(12,1,7,8)           -60.5586         calculate D2E/DX2 analytically  !
 ! D7    D(12,1,7,11)          112.2316         calculate D2E/DX2 analytically  !
 ! D8    D(17,1,7,8)           119.4414         calculate D2E/DX2 analytically  !
 ! D9    D(17,1,7,11)          -67.7684         calculate D2E/DX2 analytically  !
 ! D10   D(2,1,12,13)          -29.6472         calculate D2E/DX2 analytically  !
 ! D11   D(2,1,12,16)          108.4464         calculate D2E/DX2 analytically  !
 ! D12   D(7,1,12,13)         -134.2677         calculate D2E/DX2 analytically  !
 ! D13   D(7,1,12,16)            3.8259         calculate D2E/DX2 analytically  !
 ! D14   D(13,12,17,18)        -90.3531         calculate D2E/DX2 analytically  !
 ! D15   D(13,12,17,21)         56.6242         calculate D2E/DX2 analytically  !
 ! D16   D(16,12,17,18)         47.7406         calculate D2E/DX2 analytically  !
 ! D17   D(16,12,17,21)       -165.2821         calculate D2E/DX2 analytically  !
 ! D18   D(2,1,17,18)          -60.7059         calculate D2E/DX2 analytically  !
 ! D19   D(2,1,17,21)           86.2715         calculate D2E/DX2 analytically  !
 ! D20   D(7,1,17,18)           43.9146         calculate D2E/DX2 analytically  !
 ! D21   D(7,1,17,21)         -169.1081         calculate D2E/DX2 analytically  !
 ! D22   D(1,2,3,4)              0.0002         calculate D2E/DX2 analytically  !
 ! D23   D(1,2,3,5)            120.8445         calculate D2E/DX2 analytically  !
 ! D24   D(1,2,3,6)           -127.1947         calculate D2E/DX2 analytically  !
 ! D25   D(2,3,4,22)            77.4316         calculate D2E/DX2 analytically  !
 ! D26   D(2,3,4,23)           -43.553          calculate D2E/DX2 analytically  !
 ! D27   D(2,3,4,24)          -165.5177         calculate D2E/DX2 analytically  !
 ! D28   D(5,3,4,22)           -45.9311         calculate D2E/DX2 analytically  !
 ! D29   D(5,3,4,23)          -166.9157         calculate D2E/DX2 analytically  !
 ! D30   D(5,3,4,24)            71.1196         calculate D2E/DX2 analytically  !
 ! D31   D(6,3,4,22)          -156.0008         calculate D2E/DX2 analytically  !
 ! D32   D(6,3,4,23)            83.0146         calculate D2E/DX2 analytically  !
 ! D33   D(6,3,4,24)           -38.9501         calculate D2E/DX2 analytically  !
 ! D34   D(2,3,5,25)           -70.1145         calculate D2E/DX2 analytically  !
 ! D35   D(2,3,5,26)           171.8868         calculate D2E/DX2 analytically  !
 ! D36   D(2,3,5,27)            52.2436         calculate D2E/DX2 analytically  !
 ! D37   D(4,3,5,25)            57.8475         calculate D2E/DX2 analytically  !
 ! D38   D(4,3,5,26)           -60.1512         calculate D2E/DX2 analytically  !
 ! D39   D(4,3,5,27)          -179.7944         calculate D2E/DX2 analytically  !
 ! D40   D(6,3,5,25)           173.6043         calculate D2E/DX2 analytically  !
 ! D41   D(6,3,5,26)            55.6057         calculate D2E/DX2 analytically  !
 ! D42   D(6,3,5,27)           -64.0375         calculate D2E/DX2 analytically  !
 ! D43   D(2,3,6,28)            73.8471         calculate D2E/DX2 analytically  !
 ! D44   D(2,3,6,29)           -48.3802         calculate D2E/DX2 analytically  !
 ! D45   D(2,3,6,30)          -167.9622         calculate D2E/DX2 analytically  !
 ! D46   D(4,3,6,28)           -57.2568         calculate D2E/DX2 analytically  !
 ! D47   D(4,3,6,29)          -179.484          calculate D2E/DX2 analytically  !
 ! D48   D(4,3,6,30)            60.9339         calculate D2E/DX2 analytically  !
 ! D49   D(5,3,6,28)          -169.1697         calculate D2E/DX2 analytically  !
 ! D50   D(5,3,6,29)            68.603          calculate D2E/DX2 analytically  !
 ! D51   D(5,3,6,30)           -50.979          calculate D2E/DX2 analytically  !
 ! D52   D(1,7,8,9)           -166.1339         calculate D2E/DX2 analytically  !
 ! D53   D(1,7,8,31)            74.7377         calculate D2E/DX2 analytically  !
 ! D54   D(1,7,8,32)           -47.2914         calculate D2E/DX2 analytically  !
 ! D55   D(11,7,8,9)            20.2185         calculate D2E/DX2 analytically  !
 ! D56   D(11,7,8,31)          -98.9099         calculate D2E/DX2 analytically  !
 ! D57   D(11,7,8,32)          139.061          calculate D2E/DX2 analytically  !
 ! D58   D(1,7,11,10)         -172.8866         calculate D2E/DX2 analytically  !
 ! D59   D(1,7,11,37)          -53.2476         calculate D2E/DX2 analytically  !
 ! D60   D(1,7,11,38)           67.2887         calculate D2E/DX2 analytically  !
 ! D61   D(8,7,11,10)            0.9282         calculate D2E/DX2 analytically  !
 ! D62   D(8,7,11,37)          120.5672         calculate D2E/DX2 analytically  !
 ! D63   D(8,7,11,38)         -118.8965         calculate D2E/DX2 analytically  !
 ! D64   D(7,8,9,10)           -33.2715         calculate D2E/DX2 analytically  !
 ! D65   D(7,8,9,33)          -154.7886         calculate D2E/DX2 analytically  !
 ! D66   D(7,8,9,34)            84.0611         calculate D2E/DX2 analytically  !
 ! D67   D(31,8,9,10)           86.2134         calculate D2E/DX2 analytically  !
 ! D68   D(31,8,9,33)          -35.3037         calculate D2E/DX2 analytically  !
 ! D69   D(31,8,9,34)         -156.454          calculate D2E/DX2 analytically  !
 ! D70   D(32,8,9,10)         -154.5109         calculate D2E/DX2 analytically  !
 ! D71   D(32,8,9,33)           83.972          calculate D2E/DX2 analytically  !
 ! D72   D(32,8,9,34)          -37.1784         calculate D2E/DX2 analytically  !
 ! D73   D(8,9,10,11)           33.5733         calculate D2E/DX2 analytically  !
 ! D74   D(8,9,10,35)          -84.1921         calculate D2E/DX2 analytically  !
 ! D75   D(8,9,10,36)          155.4314         calculate D2E/DX2 analytically  !
 ! D76   D(33,9,10,11)         155.3916         calculate D2E/DX2 analytically  !
 ! D77   D(33,9,10,35)          37.6262         calculate D2E/DX2 analytically  !
 ! D78   D(33,9,10,36)         -82.7503         calculate D2E/DX2 analytically  !
 ! D79   D(34,9,10,11)         -84.5808         calculate D2E/DX2 analytically  !
 ! D80   D(34,9,10,35)         157.6538         calculate D2E/DX2 analytically  !
 ! D81   D(34,9,10,36)          37.2773         calculate D2E/DX2 analytically  !
 ! D82   D(9,10,11,7)          -21.7984         calculate D2E/DX2 analytically  !
 ! D83   D(9,10,11,37)        -144.4228         calculate D2E/DX2 analytically  !
 ! D84   D(9,10,11,38)          97.3788         calculate D2E/DX2 analytically  !
 ! D85   D(35,10,11,7)          95.4549         calculate D2E/DX2 analytically  !
 ! D86   D(35,10,11,37)        -27.1695         calculate D2E/DX2 analytically  !
 ! D87   D(35,10,11,38)       -145.3679         calculate D2E/DX2 analytically  !
 ! D88   D(36,10,11,7)        -143.6611         calculate D2E/DX2 analytically  !
 ! D89   D(36,10,11,37)         93.7145         calculate D2E/DX2 analytically  !
 ! D90   D(36,10,11,38)        -24.4838         calculate D2E/DX2 analytically  !
 ! D91   D(1,12,13,14)         157.042          calculate D2E/DX2 analytically  !
 ! D92   D(1,12,13,39)          37.7264         calculate D2E/DX2 analytically  !
 ! D93   D(1,12,13,40)         -83.514          calculate D2E/DX2 analytically  !
 ! D94   D(16,12,13,14)         11.0645         calculate D2E/DX2 analytically  !
 ! D95   D(16,12,13,39)       -108.2511         calculate D2E/DX2 analytically  !
 ! D96   D(16,12,13,40)        130.5084         calculate D2E/DX2 analytically  !
 ! D97   D(1,12,16,15)        -131.3983         calculate D2E/DX2 analytically  !
 ! D98   D(1,12,16,45)          -9.5935         calculate D2E/DX2 analytically  !
 ! D99   D(1,12,16,46)         113.555          calculate D2E/DX2 analytically  !
 ! D100  D(13,12,16,15)         10.4616         calculate D2E/DX2 analytically  !
 ! D101  D(13,12,16,45)        132.2664         calculate D2E/DX2 analytically  !
 ! D102  D(13,12,16,46)       -104.585          calculate D2E/DX2 analytically  !
 ! D103  D(12,13,14,15)        -28.1233         calculate D2E/DX2 analytically  !
 ! D104  D(12,13,14,41)       -149.2344         calculate D2E/DX2 analytically  !
 ! D105  D(12,13,14,42)         89.567          calculate D2E/DX2 analytically  !
 ! D106  D(39,13,14,15)         91.8471         calculate D2E/DX2 analytically  !
 ! D107  D(39,13,14,41)        -29.264          calculate D2E/DX2 analytically  !
 ! D108  D(39,13,14,42)       -150.4626         calculate D2E/DX2 analytically  !
 ! D109  D(40,13,14,15)       -149.7712         calculate D2E/DX2 analytically  !
 ! D110  D(40,13,14,41)         89.1177         calculate D2E/DX2 analytically  !
 ! D111  D(40,13,14,42)        -32.0809         calculate D2E/DX2 analytically  !
 ! D112  D(13,14,15,16)         32.8584         calculate D2E/DX2 analytically  !
 ! D113  D(13,14,15,43)        -85.5205         calculate D2E/DX2 analytically  !
 ! D114  D(13,14,15,44)        153.2977         calculate D2E/DX2 analytically  !
 ! D115  D(41,14,15,16)        154.2426         calculate D2E/DX2 analytically  !
 ! D116  D(41,14,15,43)         35.8637         calculate D2E/DX2 analytically  !
 ! D117  D(41,14,15,44)        -85.3181         calculate D2E/DX2 analytically  !
 ! D118  D(42,14,15,16)        -85.2614         calculate D2E/DX2 analytically  !
 ! D119  D(42,14,15,43)        156.3597         calculate D2E/DX2 analytically  !
 ! D120  D(42,14,15,44)         35.1779         calculate D2E/DX2 analytically  !
 ! D121  D(14,15,16,12)        -27.8209         calculate D2E/DX2 analytically  !
 ! D122  D(14,15,16,45)       -154.1411         calculate D2E/DX2 analytically  !
 ! D123  D(14,15,16,46)         88.0566         calculate D2E/DX2 analytically  !
 ! D124  D(43,15,16,12)         90.6061         calculate D2E/DX2 analytically  !
 ! D125  D(43,15,16,45)        -35.7141         calculate D2E/DX2 analytically  !
 ! D126  D(43,15,16,46)       -153.5164         calculate D2E/DX2 analytically  !
 ! D127  D(44,15,16,12)       -148.3861         calculate D2E/DX2 analytically  !
 ! D128  D(44,15,16,45)         85.2937         calculate D2E/DX2 analytically  !
 ! D129  D(44,15,16,46)        -32.5086         calculate D2E/DX2 analytically  !
 ! D130  D(1,17,18,19)         160.9637         calculate D2E/DX2 analytically  !
 ! D131  D(1,17,18,47)          41.5042         calculate D2E/DX2 analytically  !
 ! D132  D(1,17,18,48)         -79.5695         calculate D2E/DX2 analytically  !
 ! D133  D(21,17,18,19)         11.9386         calculate D2E/DX2 analytically  !
 ! D134  D(21,17,18,47)       -107.5209         calculate D2E/DX2 analytically  !
 ! D135  D(21,17,18,48)        131.4054         calculate D2E/DX2 analytically  !
 ! D136  D(1,17,21,20)        -143.1213         calculate D2E/DX2 analytically  !
 ! D137  D(1,17,21,53)         -20.675          calculate D2E/DX2 analytically  !
 ! D138  D(1,17,21,54)          98.1942         calculate D2E/DX2 analytically  !
 ! D139  D(18,17,21,20)          8.3623         calculate D2E/DX2 analytically  !
 ! D140  D(18,17,21,53)        130.8085         calculate D2E/DX2 analytically  !
 ! D141  D(18,17,21,54)       -110.3222         calculate D2E/DX2 analytically  !
 ! D142  D(17,18,19,20)        -27.34           calculate D2E/DX2 analytically  !
 ! D143  D(17,18,19,49)       -148.2571         calculate D2E/DX2 analytically  !
 ! D144  D(17,18,19,50)         90.7823         calculate D2E/DX2 analytically  !
 ! D145  D(47,18,19,20)         96.2511         calculate D2E/DX2 analytically  !
 ! D146  D(47,18,19,49)        -24.6659         calculate D2E/DX2 analytically  !
 ! D147  D(47,18,19,50)       -145.6265         calculate D2E/DX2 analytically  !
 ! D148  D(48,18,19,20)       -148.0046         calculate D2E/DX2 analytically  !
 ! D149  D(48,18,19,49)         91.0783         calculate D2E/DX2 analytically  !
 ! D150  D(48,18,19,50)        -29.8823         calculate D2E/DX2 analytically  !
 ! D151  D(18,19,20,21)         32.0462         calculate D2E/DX2 analytically  !
 ! D152  D(18,19,20,51)        -86.4502         calculate D2E/DX2 analytically  !
 ! D153  D(18,19,20,52)        153.7314         calculate D2E/DX2 analytically  !
 ! D154  D(49,19,20,21)        153.1663         calculate D2E/DX2 analytically  !
 ! D155  D(49,19,20,51)         34.6699         calculate D2E/DX2 analytically  !
 ! D156  D(49,19,20,52)        -85.1486         calculate D2E/DX2 analytically  !
 ! D157  D(50,19,20,21)        -86.3642         calculate D2E/DX2 analytically  !
 ! D158  D(50,19,20,51)        155.1394         calculate D2E/DX2 analytically  !
 ! D159  D(50,19,20,52)         35.321          calculate D2E/DX2 analytically  !
 ! D160  D(19,20,21,17)        -25.291          calculate D2E/DX2 analytically  !
 ! D161  D(19,20,21,53)       -148.8327         calculate D2E/DX2 analytically  !
 ! D162  D(19,20,21,54)         92.5398         calculate D2E/DX2 analytically  !
 ! D163  D(51,20,21,17)         92.9174         calculate D2E/DX2 analytically  !
 ! D164  D(51,20,21,53)        -30.6243         calculate D2E/DX2 analytically  !
 ! D165  D(51,20,21,54)       -149.2518         calculate D2E/DX2 analytically  !
 ! D166  D(52,20,21,17)       -146.6667         calculate D2E/DX2 analytically  !
 ! D167  D(52,20,21,53)         89.7916         calculate D2E/DX2 analytically  !
 ! D168  D(52,20,21,54)        -28.8359         calculate D2E/DX2 analytically  !
 --------------------------------------------------------------------------------
 Trust Radius=3.00D-01 FncErr=1.00D-07 GrdErr=1.00D-06 EigMax=2.50D+02 EigMin=1.00D-04
 Number of steps in this run=    324 maximum allowed number of steps=    324.
 GradGradGradGradGradGradGradGradGradGradGradGradGradGradGradGradGradGrad

 Stoichiometry    C16H33N4P
 Framework group  C1[X(C16H33N4P)]
 Deg. of freedom   156
 Full point group                 C1      NOp   1
 Largest Abelian subgroup         C1      NOp   1
 Largest concise Abelian subgroup C1      NOp   1
                         Standard orientation:                         
 ---------------------------------------------------------------------
 Center     Atomic      Atomic             Coordinates (Angstroms)
 Number     Number       Type             X           Y           Z
 ---------------------------------------------------------------------
      1         15           0       -0.015041    0.100152   -0.791769
      2          7           0        0.268333   -0.788427    0.453341
      3          6           0        0.899104   -2.155164    0.487593
      4          6           0        1.326309   -2.777184   -0.849051
      5          6           0        2.184956   -2.133317    1.361313
      6          6           0       -0.024142   -3.126951    1.272013
      7          7           0       -0.652335    1.518194   -0.164308
      8          6           0       -1.617923    2.391241   -0.822823
      9          6           0       -1.587151    3.674375   -0.006445
     10          6           0       -1.318369    3.190695    1.399060
     11          6           0       -0.424441    1.978457    1.201380
     12          7           0       -1.633772   -0.632521   -0.898061
     13          6           0       -1.776211   -2.021155   -0.407150
     14          6           0       -3.234356   -2.251838   -0.048959
     15          6           0       -3.713661   -0.878459    0.324101
     16          6           0       -2.898172    0.023670   -0.584114
     17          7           0        1.603691    0.832825   -0.685476
     18          6           0        2.097314    1.594182    0.455179
     19          6           0        3.615553    1.595112    0.315022
     20          6           0        3.911428    0.321415   -0.446867
     21          6           0        2.701892    0.141016   -1.342688
     22          1           0        2.261019   -2.342756   -1.209615
     23          1           0        0.610937   -2.670124   -1.659535
     24          1           0        1.528074   -3.850683   -0.732618
     25          1           0        2.997737   -1.574281    0.892931
     26          1           0        2.570670   -3.151983    1.509851
     27          1           0        1.999579   -1.707896    2.353739
     28          1           0       -0.913821   -3.424742    0.727738
     29          1           0       -0.345465   -2.691530    2.227151
     30          1           0        0.488907   -4.068998    1.503004
     31          1           0       -2.618977    1.951439   -0.807969
     32          1           0       -1.353846    2.614435   -1.863117
     33          1           0       -2.516660    4.241858   -0.077930
     34          1           0       -0.766613    4.324363   -0.334703
     35          1           0       -2.262087    2.893615    1.871116
     36          1           0       -0.850506    3.957858    2.023026
     37          1           0       -0.670757    1.230403    1.960480
     38          1           0        0.626868    2.247957    1.329497
     39          1           0       -1.158829   -2.172245    0.484485
     40          1           0       -1.486525   -2.754141   -1.164618
     41          1           0       -3.358296   -2.969240    0.768323
     42          1           0       -3.792626   -2.622806   -0.916638
     43          1           0       -3.499415   -0.664587    1.376310
     44          1           0       -4.790055   -0.758762    0.160055
     45          1           0       -2.816519    0.990478   -0.106970
     46          1           0       -3.463731    0.116445   -1.514681
     47          1           0        1.840770    1.182482    1.424157
     48          1           0        1.718628    2.627666    0.451499
     49          1           0        4.119353    1.614015    1.287372
     50          1           0        3.947688    2.464826   -0.261554
     51          1           0        4.005178   -0.521256    0.248077
     52          1           0        4.844666    0.390292   -1.013510
     53          1           0        2.495172   -0.916406   -1.524537
     54          1           0        2.880900    0.604948   -2.318161
 ---------------------------------------------------------------------
 Rotational constants (GHZ):           0.3607429           0.3099786           0.1975503
 Standard basis: 6-31G(d) (6D, 7F)
 There are   385 symmetry adapted cartesian basis functions of A   symmetry.
 There are   385 symmetry adapted basis functions of A   symmetry.
   385 basis functions,   744 primitive gaussians,   385 cartesian basis functions
    86 alpha electrons       86 beta electrons
       nuclear repulsion energy      2236.1841746227 Hartrees.
 NAtoms=   54 NActive=   54 NUniq=   54 SFac= 1.00D+00 NAtFMM=   60 NAOKFM=F Big=F
 Integral buffers will be    131072 words long.
 Raffenetti 2 integral format.
 Two-electron integral symmetry is turned on.
 One-electron integrals computed using PRISM.
 NBasis=   385 RedAO= T EigKep=  1.93D-03  NBF=   385
 NBsUse=   385 1.00D-06 EigRej= -1.00D+00 NBFU=   385
 ExpMin= 9.98D-02 ExpMax= 1.94D+04 ExpMxC= 2.91D+03 IAcc=3 IRadAn=         5 AccDes= 0.00D+00
 Harris functional with IExCor=  402 and IRadAn=       5 diagonalized for initial guess.
 HarFok:  IExCor=  402 AccDes= 0.00D+00 IRadAn=         5 IDoV= 1 UseB2=F ITyADJ=14
 ICtDFT=  3500011 ScaDFX=  1.000000  1.000000  1.000000  1.000000
 FoFCou: FMM=F IPFlag=           0 FMFlag=      100000 FMFlg1=           0
         NFxFlg=           0 DoJE=T BraDBF=F KetDBF=T FulRan=T
         wScrn=  0.000000 ICntrl=       500 IOpCl=  0 I1Cent=   200000004 NGrid=           0
         NMat0=    1 NMatS0=      1 NMatT0=    0 NMatD0=    1 NMtDS0=    0 NMtDT0=    0
 Petite list used in FoFCou.
 Gradient too large for Newton-Raphson -- use scaled steepest descent instead.
 Alpha Gap=    -0.236 HL deriv= 9.48D-03 Rot set to   1.31D+00
     Minimum is close to point  2 DX=  7.06D-03 DF= -4.15D-04 DXR=  2.30D-02 DFR=  5.29D-04 which will be used.
 Gradient too large for Newton-Raphson -- use scaled steepest descent instead.
     Accept linear search using points  3 and  4.
 Gradient too large for Newton-Raphson -- use scaled steepest descent instead.
     Accept linear search using points  2 and  3.
 Gradient too large for Newton-Raphson -- use scaled steepest descent instead.
     Accept linear search using points  1 and  2.
 Gradient too large for Newton-Raphson -- use scaled steepest descent instead.
     Accept linear search using points  3 and  4.
 Gradient too large for Newton-Raphson -- use scaled steepest descent instead.
     Accept linear search using points  1 and  2.
 Gradient too large for Newton-Raphson -- use scaled steepest descent instead.
     Accept linear search using points  2 and  3.
 Restarting incremental Fock formation.
 Gradient too large for Newton-Raphson -- use scaled steepest descent instead.
 LinEq1:  Iter=  0 NonCon=     1 RMS=4.60D-04 Max=7.11D-02 NDo=     1
 AX will form     1 AO Fock derivatives at one time.
 LinEq1:  Iter=  1 NonCon=     1 RMS=5.28D-04 Max=5.63D-02 NDo=     1
 LinEq1:  Iter=  2 NonCon=     1 RMS=2.38D-04 Max=3.13D-02 NDo=     1
 LinEq1:  Iter=  3 NonCon=     1 RMS=1.88D-04 Max=1.29D-02 NDo=     1
 LinEq1:  Iter=  4 NonCon=     1 RMS=2.07D-04 Max=2.32D-02 NDo=     1
 LinEq1:  Iter=  5 NonCon=     1 RMS=1.71D-04 Max=6.96D-03 NDo=     1
 LinEq1:  Iter=  6 NonCon=     1 RMS=9.92D-05 Max=3.61D-03 NDo=     1
 LinEq1:  Iter=  7 NonCon=     1 RMS=6.52D-05 Max=2.39D-03 NDo=     1
 LinEq1:  Iter=  8 NonCon=     1 RMS=3.25D-05 Max=1.49D-03 NDo=     1
 LinEq1:  Iter=  9 NonCon=     1 RMS=2.32D-05 Max=9.61D-04 NDo=     1
 LinEq1:  Iter= 10 NonCon=     1 RMS=9.74D-06 Max=2.84D-04 NDo=     1
 LinEq1:  Iter= 11 NonCon=     1 RMS=3.40D-06 Max=1.16D-04 NDo=     1
 LinEq1:  Iter= 12 NonCon=     1 RMS=2.04D-06 Max=1.20D-04 NDo=     1
 LinEq1:  Iter= 13 NonCon=     1 RMS=9.94D-07 Max=4.93D-05 NDo=     1
 LinEq1:  Iter= 14 NonCon=     1 RMS=6.13D-07 Max=3.45D-05 NDo=     1
 LinEq1:  Iter= 15 NonCon=     1 RMS=3.26D-07 Max=1.66D-05 NDo=     1
 LinEq1:  Iter= 16 NonCon=     1 RMS=1.62D-07 Max=5.67D-06 NDo=     1
 LinEq1:  Iter= 17 NonCon=     1 RMS=7.79D-08 Max=1.65D-06 NDo=     1
 LinEq1:  Iter= 18 NonCon=     1 RMS=3.55D-08 Max=8.73D-07 NDo=     1
 LinEq1:  Iter= 19 NonCon=     1 RMS=1.32D-08 Max=3.75D-07 NDo=     1
 LinEq1:  Iter= 20 NonCon=     0 RMS=6.26D-09 Max=1.35D-07 NDo=     1
 Linear equations converged to 2.268D-08 2.268D-07 after    20 iterations.
     Accept linear search using points  1 and  2.
 LinEq1:  Iter=  0 NonCon=     1 RMS=1.05D-04 Max=9.79D-03 NDo=     1
 LinEq1:  Iter=  1 NonCon=     1 RMS=2.07D-04 Max=2.17D-02 NDo=     1
 LinEq1:  Iter=  2 NonCon=     1 RMS=2.84D-04 Max=2.46D-02 NDo=     1
 LinEq1:  Iter=  3 NonCon=     1 RMS=3.57D-04 Max=2.34D-02 NDo=     1
 LinEq1:  Iter=  4 NonCon=     1 RMS=1.79D-04 Max=1.00D-02 NDo=     1
 LinEq1:  Iter=  5 NonCon=     1 RMS=9.77D-05 Max=3.50D-03 NDo=     1
 LinEq1:  Iter=  6 NonCon=     1 RMS=5.00D-05 Max=1.39D-03 NDo=     1
 LinEq1:  Iter=  7 NonCon=     1 RMS=2.45D-05 Max=7.80D-04 NDo=     1
 LinEq1:  Iter=  8 NonCon=     1 RMS=1.47D-05 Max=4.99D-04 NDo=     1
 LinEq1:  Iter=  9 NonCon=     1 RMS=7.95D-06 Max=2.94D-04 NDo=     1
 LinEq1:  Iter= 10 NonCon=     1 RMS=4.95D-06 Max=1.85D-04 NDo=     1
 LinEq1:  Iter= 11 NonCon=     1 RMS=3.69D-06 Max=1.10D-04 NDo=     1
 LinEq1:  Iter= 12 NonCon=     1 RMS=1.82D-06 Max=3.92D-05 NDo=     1
 LinEq1:  Iter= 13 NonCon=     1 RMS=9.21D-07 Max=2.57D-05 NDo=     1
 LinEq1:  Iter= 14 NonCon=     1 RMS=4.73D-07 Max=1.48D-05 NDo=     1
 LinEq1:  Iter= 15 NonCon=     1 RMS=1.90D-07 Max=6.66D-06 NDo=     1
 LinEq1:  Iter= 16 NonCon=     1 RMS=9.82D-08 Max=3.81D-06 NDo=     1
 LinEq1:  Iter= 17 NonCon=     1 RMS=4.80D-08 Max=2.35D-06 NDo=     1
 LinEq1:  Iter= 18 NonCon=     1 RMS=1.72D-08 Max=8.25D-07 NDo=     1
 LinEq1:  Iter= 19 NonCon=     1 RMS=8.35D-09 Max=4.45D-07 NDo=     1
 LinEq1:  Iter= 20 NonCon=     1 RMS=3.80D-09 Max=2.35D-07 NDo=     1
 LinEq1:  Iter= 21 NonCon=     0 RMS=1.41D-09 Max=7.27D-08 NDo=     1
 Linear equations converged to 2.268D-08 2.268D-07 after    21 iterations.
     Accept linear search using points  1 and  2.
     Minimum is close to point  2 DX= -3.61D-03 DF= -5.26D-10 DXR=  3.62D-03 DFR=  1.31D-05 which will be used.
 LinEq1:  Iter=  0 NonCon=     1 RMS=1.05D-06 Max=9.51D-05 NDo=     1
 LinEq1:  Iter=  1 NonCon=     1 RMS=2.16D-06 Max=3.02D-04 NDo=     1
 LinEq1:  Iter=  2 NonCon=     1 RMS=2.19D-06 Max=9.42D-05 NDo=     1
 LinEq1:  Iter=  3 NonCon=     1 RMS=3.25D-06 Max=2.17D-04 NDo=     1
 LinEq1:  Iter=  4 NonCon=     1 RMS=2.23D-06 Max=1.67D-04 NDo=     1
 LinEq1:  Iter=  5 NonCon=     1 RMS=1.43D-06 Max=6.76D-05 NDo=     1
 LinEq1:  Iter=  6 NonCon=     1 RMS=8.36D-07 Max=3.61D-05 NDo=     1
 LinEq1:  Iter=  7 NonCon=     1 RMS=4.09D-07 Max=1.37D-05 NDo=     1
 LinEq1:  Iter=  8 NonCon=     1 RMS=3.01D-07 Max=1.49D-05 NDo=     1
 LinEq1:  Iter=  9 NonCon=     1 RMS=1.41D-07 Max=5.37D-06 NDo=     1
 LinEq1:  Iter= 10 NonCon=     1 RMS=1.56D-07 Max=1.09D-05 NDo=     1
 LinEq1:  Iter= 11 NonCon=     1 RMS=9.97D-08 Max=3.52D-06 NDo=     1
 LinEq1:  Iter= 12 NonCon=     1 RMS=5.03D-08 Max=1.62D-06 NDo=     1
 LinEq1:  Iter= 13 NonCon=     1 RMS=2.18D-08 Max=6.69D-07 NDo=     1
 LinEq1:  Iter= 14 NonCon=     1 RMS=1.10D-08 Max=4.90D-07 NDo=     1
 LinEq1:  Iter= 15 NonCon=     1 RMS=3.99D-09 Max=2.15D-07 NDo=     1
 LinEq1:  Iter= 16 NonCon=     1 RMS=1.87D-09 Max=1.04D-07 NDo=     1
 LinEq1:  Iter= 17 NonCon=     1 RMS=1.05D-09 Max=6.77D-08 NDo=     1
 LinEq1:  Iter= 18 NonCon=     1 RMS=4.29D-10 Max=1.86D-08 NDo=     1
 LinEq1:  Iter= 19 NonCon=     0 RMS=1.86D-10 Max=4.46D-09 NDo=     1
 Linear equations converged to 8.564D-10 8.564D-09 after    19 iterations.
 SCF Done:  E(RB3LYP) =  -1189.56226568     a.u. after   12 cycles
            Convg  =    0.8835D-08                    88 Fock formations.
              S**2 =  0.0000                  -V/T =  2.0064
 DoSCS=F DFT=T ScalE2(SS,OS)=  1.000000  1.000000
 Range of M.O.s used for correlation:     1   385
 NBasis=   385 NAE=    86 NBE=    86 NFC=     0 NFV=     0
 NROrb=    385 NOA=    86 NOB=    86 NVA=   299 NVB=   299

 **** Warning!!: The smallest alpha delta epsilon is  0.40190285D-01

 Symmetrizing basis deriv contribution to polar:
 IMax=3 JMax=2 DiffMx= 0.00D+00
 G2DrvN: will do    55 centers at a time, making    1 passes.
 Calling FoFCou, ICntrl=  3107 FMM=F I1Cent=   0 AccDes= 0.00D+00.
 End of G2Drv F.D. properties file   721 does not exist.
 End of G2Drv F.D. properties file   722 does not exist.
 End of G2Drv F.D. properties file   788 does not exist.
          IDoAtm=11111111111111111111111111111111111111111111111111
          IDoAtm=1111
          Differentiating once with respect to electric field.
                with respect to dipole field.
          Differentiating once with respect to nuclear coordinates.
 CalDSu exits because no D1Ps are significant.
          There are   165 degrees of freedom in the 1st order CPHF.  IDoFFX=6 NUNeed=     3.
    162 vectors produced by pass  0 Test12= 2.57D-14 1.00D-09 XBig12= 6.20D+02 1.49D+01.
 AX will form   162 AO Fock derivatives at one time.
    162 vectors produced by pass  1 Test12= 2.57D-14 1.00D-09 XBig12= 1.67D+02 2.43D+00.
    162 vectors produced by pass  2 Test12= 2.57D-14 1.00D-09 XBig12= 1.50D+00 1.27D-01.
    162 vectors produced by pass  3 Test12= 2.57D-14 1.00D-09 XBig12= 3.46D-03 4.55D-03.
    162 vectors produced by pass  4 Test12= 2.57D-14 1.00D-09 XBig12= 3.89D-06 1.56D-04.
     78 vectors produced by pass  5 Test12= 2.57D-14 1.00D-09 XBig12= 2.95D-09 4.41D-06.
      6 vectors produced by pass  6 Test12= 2.57D-14 1.00D-09 XBig12= 2.03D-12 1.08D-07.
      3 vectors produced by pass  7 Test12= 2.57D-14 1.00D-09 XBig12= 1.61D-15 3.92D-09.
 InvSVY:  IOpt=1 It=  1 EMax= 1.07D-14
 Solved reduced A of dimension   897 with   165 vectors.
 Isotropic polarizability for W=    0.000000      232.39 Bohr**3.
 End of Minotr F.D. properties file   721 does not exist.
 End of Minotr F.D. properties file   722 does not exist.
 End of Minotr F.D. properties file   788 does not exist.

 **********************************************************************

            Population analysis using the SCF density.

 **********************************************************************

 Orbital symmetries:
       Occupied  (A) (A) (A) (A) (A) (A) (A) (A) (A) (A) (A) (A)
                 (A) (A) (A) (A) (A) (A) (A) (A) (A) (A) (A) (A)
                 (A) (A) (A) (A) (A) (A) (A) (A) (A) (A) (A) (A)
                 (A) (A) (A) (A) (A) (A) (A) (A) (A) (A) (A) (A)
                 (A) (A) (A) (A) (A) (A) (A) (A) (A) (A) (A) (A)
                 (A) (A) (A) (A) (A) (A) (A) (A) (A) (A) (A) (A)
                 (A) (A) (A) (A) (A) (A) (A) (A) (A) (A) (A) (A)
                 (A) (A)
       Virtual   (A) (A) (A) (A) (A) (A) (A) (A) (A) (A) (A) (A)
                 (A) (A) (A) (A) (A) (A) (A) (A) (A) (A) (A) (A)
                 (A) (A) (A) (A) (A) (A) (A) (A) (A) (A) (A) (A)
                 (A) (A) (A) (A) (A) (A) (A) (A) (A) (A) (A) (A)
                 (A) (A) (A) (A) (A) (A) (A) (A) (A) (A) (A) (A)
                 (A) (A) (A) (A) (A) (A) (A) (A) (A) (A) (A) (A)
                 (A) (A) (A) (A) (A) (A) (A) (A) (A) (A) (A) (A)
                 (A) (A) (A) (A) (A) (A) (A) (A) (A) (A) (A) (A)
                 (A) (A) (A) (A) (A) (A) (A) (A) (A) (A) (A) (A)
                 (A) (A) (A) (A) (A) (A) (A) (A) (A) (A) (A) (A)
                 (A) (A) (A) (A) (A) (A) (A) (A) (A) (A) (A) (A)
                 (A) (A) (A) (A) (A) (A) (A) (A) (A) (A) (A) (A)
                 (A) (A) (A) (A) (A) (A) (A) (A) (A) (A) (A) (A)
                 (A) (A) (A) (A) (A) (A) (A) (A) (A) (A) (A) (A)
                 (A) (A) (A) (A) (A) (A) (A) (A) (A) (A) (A) (A)
                 (A) (A) (A) (A) (A) (A) (A) (A) (A) (A) (A) (A)
                 (A) (A) (A) (A) (A) (A) (A) (A) (A) (A) (A) (A)
                 (A) (A) (A) (A) (A) (A) (A) (A) (A) (A) (A) (A)
                 (A) (A) (A) (A) (A) (A) (A) (A) (A) (A) (A) (A)
                 (A) (A) (A) (A) (A) (A) (A) (A) (A) (A) (A) (A)
                 (A) (A) (A) (A) (A) (A) (A) (A) (A) (A) (A) (A)
                 (A) (A) (A) (A) (A) (A) (A) (A) (A) (A) (A) (A)
                 (A) (A) (A) (A) (A) (A) (A) (A) (A) (A) (A) (A)
                 (A) (A) (A) (A) (A) (A) (A) (A) (A) (A) (A) (A)
                 (A) (A) (A) (A) (A) (A) (A) (A) (A) (A) (A)
 The electronic state is 1-A.
 Alpha  occ. eigenvalues --  -77.14399 -14.31992 -14.29323 -14.28964 -14.28092
 Alpha  occ. eigenvalues --  -10.22953 -10.18924 -10.18790 -10.18710 -10.18362
 Alpha  occ. eigenvalues --  -10.17944 -10.17655 -10.17500 -10.17342 -10.16980
 Alpha  occ. eigenvalues --  -10.16901 -10.16888 -10.16806 -10.16795 -10.16790
 Alpha  occ. eigenvalues --  -10.16563  -6.59635  -4.75971  -4.75876  -4.75809
 Alpha  occ. eigenvalues --   -0.94160  -0.90245  -0.88934  -0.85703  -0.79654
 Alpha  occ. eigenvalues --   -0.75863  -0.75024  -0.73843  -0.73379  -0.72253
 Alpha  occ. eigenvalues --   -0.70878  -0.69115  -0.67922  -0.63410  -0.59267
 Alpha  occ. eigenvalues --   -0.58096  -0.57748  -0.57086  -0.56081  -0.55382
 Alpha  occ. eigenvalues --   -0.52229  -0.51564  -0.49138  -0.48692  -0.48422
 Alpha  occ. eigenvalues --   -0.47289  -0.46307  -0.44954  -0.44130  -0.42390
 Alpha  occ. eigenvalues --   -0.42238  -0.41966  -0.40618  -0.40601  -0.40126
 Alpha  occ. eigenvalues --   -0.39733  -0.39221  -0.38339  -0.37929  -0.37480
 Alpha  occ. eigenvalues --   -0.36987  -0.36430  -0.35864  -0.35248  -0.34281
 Alpha  occ. eigenvalues --   -0.34170  -0.33765  -0.33460  -0.32927  -0.32319
 Alpha  occ. eigenvalues --   -0.32185  -0.31355  -0.30999  -0.30448  -0.29885
 Alpha  occ. eigenvalues --   -0.28089  -0.24563  -0.22041  -0.20872  -0.17262
 Alpha  occ. eigenvalues --   -0.14547
 Alpha virt. eigenvalues --   -0.10528   0.06642   0.07130   0.09173   0.09745
 Alpha virt. eigenvalues --    0.10749   0.11006   0.11816   0.12382   0.12604
 Alpha virt. eigenvalues --    0.13263   0.14149   0.14682   0.14768   0.15514
 Alpha virt. eigenvalues --    0.15591   0.15938   0.16412   0.16888   0.17095
 Alpha virt. eigenvalues --    0.17577   0.17962   0.18534   0.18691   0.19292
 Alpha virt. eigenvalues --    0.19632   0.19815   0.20142   0.20582   0.20731
 Alpha virt. eigenvalues --    0.20970   0.21376   0.21622   0.22479   0.22663
 Alpha virt. eigenvalues --    0.23249   0.23850   0.24374   0.25207   0.25620
 Alpha virt. eigenvalues --    0.26157   0.27165   0.27518   0.28166   0.29083
 Alpha virt. eigenvalues --    0.29749   0.30460   0.31840   0.32121   0.32643
 Alpha virt. eigenvalues --    0.33921   0.34523   0.35036   0.35615   0.37727
 Alpha virt. eigenvalues --    0.38064   0.42427   0.43679   0.47954   0.48621
 Alpha virt. eigenvalues --    0.50187   0.51268   0.52082   0.53595   0.54498
 Alpha virt. eigenvalues --    0.55645   0.56090   0.56174   0.57234   0.57961
 Alpha virt. eigenvalues --    0.58585   0.59357   0.59510   0.60108   0.60649
 Alpha virt. eigenvalues --    0.61211   0.62530   0.62992   0.63706   0.64992
 Alpha virt. eigenvalues --    0.65655   0.65977   0.66192   0.67592   0.68347
 Alpha virt. eigenvalues --    0.69137   0.69335   0.70123   0.70499   0.71286
 Alpha virt. eigenvalues --    0.71686   0.72547   0.74054   0.75187   0.76375
 Alpha virt. eigenvalues --    0.77331   0.78538   0.79339   0.79846   0.81157
 Alpha virt. eigenvalues --    0.81422   0.82843   0.84040   0.84348   0.85011
 Alpha virt. eigenvalues --    0.85382   0.85943   0.86653   0.87235   0.87746
 Alpha virt. eigenvalues --    0.87827   0.88454   0.88755   0.89097   0.89378
 Alpha virt. eigenvalues --    0.89607   0.90135   0.90346   0.90805   0.91119
 Alpha virt. eigenvalues --    0.92039   0.92906   0.93147   0.93869   0.94030
 Alpha virt. eigenvalues --    0.94637   0.95095   0.95556   0.95796   0.96485
 Alpha virt. eigenvalues --    0.97884   0.98518   0.99353   0.99492   1.00341
 Alpha virt. eigenvalues --    1.00856   1.01698   1.01798   1.03284   1.03547
 Alpha virt. eigenvalues --    1.05316   1.06065   1.06913   1.07118   1.08157
 Alpha virt. eigenvalues --    1.09837   1.10635   1.12339   1.13536   1.14731
 Alpha virt. eigenvalues --    1.15561   1.17092   1.18854   1.20089   1.21711
 Alpha virt. eigenvalues --    1.25770   1.28084   1.29275   1.30131   1.33491
 Alpha virt. eigenvalues --    1.34110   1.35703   1.37074   1.41355   1.42610
 Alpha virt. eigenvalues --    1.43188   1.45568   1.47701   1.48741   1.50450
 Alpha virt. eigenvalues --    1.52090   1.53117   1.55140   1.56505   1.59641
 Alpha virt. eigenvalues --    1.60070   1.62216   1.63272   1.66828   1.68996
 Alpha virt. eigenvalues --    1.72742   1.73705   1.74308   1.74626   1.76194
 Alpha virt. eigenvalues --    1.76318   1.78448   1.80314   1.81645   1.83299
 Alpha virt. eigenvalues --    1.83659   1.85042   1.85759   1.86024   1.86552
 Alpha virt. eigenvalues --    1.87243   1.88810   1.89308   1.90235   1.90771
 Alpha virt. eigenvalues --    1.92272   1.93091   1.94081   1.95172   1.96413
 Alpha virt. eigenvalues --    1.97940   1.99897   2.02561   2.03438   2.03804
 Alpha virt. eigenvalues --    2.04465   2.05114   2.05611   2.05664   2.06520
 Alpha virt. eigenvalues --    2.07618   2.08917   2.10370   2.10656   2.10822
 Alpha virt. eigenvalues --    2.11582   2.13025   2.13565   2.15517   2.16746
 Alpha virt. eigenvalues --    2.17421   2.18081   2.19091   2.21975   2.22628
 Alpha virt. eigenvalues --    2.24426   2.25043   2.25898   2.26185   2.27099
 Alpha virt. eigenvalues --    2.27342   2.28919   2.29244   2.30763   2.32494
 Alpha virt. eigenvalues --    2.33237   2.35906   2.36367   2.37242   2.39793
 Alpha virt. eigenvalues --    2.40908   2.42498   2.43700   2.48026   2.48947
 Alpha virt. eigenvalues --    2.49886   2.50865   2.52127   2.52235   2.53875
 Alpha virt. eigenvalues --    2.55254   2.56301   2.58793   2.59623   2.60809
 Alpha virt. eigenvalues --    2.62258   2.63181   2.64237   2.69245   2.69495
 Alpha virt. eigenvalues --    2.71639   2.72098   2.72918   2.74636   2.75461
 Alpha virt. eigenvalues --    2.76572   2.77633   2.80090   2.84862   2.91187
 Alpha virt. eigenvalues --    2.93495   2.96116   3.00916   3.65487   4.05534
 Alpha virt. eigenvalues --    4.10603   4.17608   4.20462   4.23028   4.23584
 Alpha virt. eigenvalues --    4.27300   4.28575   4.31814   4.33960   4.35136
 Alpha virt. eigenvalues --    4.36368   4.41004   4.56312   4.57244   4.57982
 Alpha virt. eigenvalues --    4.60127   4.62096   4.63642   4.79998
          Condensed to atoms (all electrons):
 Mulliken charges:
               1
     1  P    0.988798
     2  N   -0.528891
     3  C    0.202807
     4  C   -0.476919
     5  C   -0.451849
     6  C   -0.484972
     7  N   -0.553654
     8  C   -0.124101
     9  C   -0.278581
    10  C   -0.306802
    11  C   -0.071628
    12  N   -0.468344
    13  C   -0.154970
    14  C   -0.293120
    15  C   -0.286793
    16  C   -0.125520
    17  N   -0.519203
    18  C   -0.112778
    19  C   -0.299169
    20  C   -0.303435
    21  C   -0.102561
    22  H    0.169312
    23  H    0.164458
    24  H    0.137202
    25  H    0.144486
    26  H    0.136197
    27  H    0.148466
    28  H    0.192989
    29  H    0.160463
    30  H    0.129995
    31  H    0.128356
    32  H    0.131276
    33  H    0.131173
    34  H    0.139214
    35  H    0.130209
    36  H    0.136254
    37  H    0.133990
    38  H    0.124230
    39  H    0.200141
    40  H    0.131844
    41  H    0.138212
    42  H    0.136019
    43  H    0.145090
    44  H    0.136593
    45  H    0.177461
    46  H    0.137257
    47  H    0.153844
    48  H    0.156002
    49  H    0.136767
    50  H    0.140496
    51  H    0.153695
    52  H    0.131333
    53  H    0.113976
    54  H    0.124686
 Sum of Mulliken charges =   0.00000
 Mulliken charges with hydrogens summed into heavy atoms:
               1
     1  P    0.988798
     2  N   -0.528891
     3  C    0.202807
     4  C   -0.005947
     5  C   -0.022700
     6  C   -0.001525
     7  N   -0.553654
     8  C    0.135531
     9  C   -0.008194
    10  C   -0.040339
    11  C    0.186593
    12  N   -0.468344
    13  C    0.177015
    14  C   -0.018889
    15  C   -0.005109
    16  C    0.189198
    17  N   -0.519203
    18  C    0.197068
    19  C   -0.021905
    20  C   -0.018408
    21  C    0.136101
 APT charges:
               1
     1  P    0.309285
     2  N   -0.283851
     3  C    0.376929
     4  C   -0.055245
     5  C    0.050776
     6  C   -0.012175
     7  N   -0.760954
     8  C    0.281057
     9  C    0.112465
    10  C    0.093467
    11  C    0.265641
    12  N   -0.726116
    13  C    0.312245
    14  C    0.153348
    15  C    0.070310
    16  C    0.354077
    17  N   -0.328031
    18  C    0.394232
    19  C    0.107354
    20  C    0.083378
    21  C    0.381686
    22  H    0.006687
    23  H   -0.001706
    24  H   -0.029300
    25  H   -0.003842
    26  H   -0.052384
    27  H   -0.008242
    28  H    0.016418
    29  H    0.001436
    30  H   -0.040504
    31  H   -0.025805
    32  H   -0.052725
    33  H   -0.049011
    34  H   -0.045204
    35  H   -0.056265
    36  H   -0.041413
    37  H   -0.046455
    38  H    0.027096
    39  H    0.090834
    40  H   -0.065547
    41  H   -0.050481
    42  H   -0.055512
    43  H   -0.038266
    44  H   -0.050428
    45  H    0.003459
    46  H   -0.089752
    47  H   -0.030949
    48  H   -0.125285
    49  H   -0.050307
    50  H   -0.054246
    51  H   -0.024823
    52  H   -0.061721
    53  H   -0.028707
    54  H   -0.146928
 Sum of APT charges =   0.00000
 APT charges with hydrogens summed into heavy atoms:
               1
     1  P    0.309285
     2  N   -0.283851
     3  C    0.376929
     4  C   -0.079564
     5  C   -0.013692
     6  C   -0.034825
     7  N   -0.760954
     8  C    0.202527
     9  C    0.018249
    10  C   -0.004211
    11  C    0.246282
    12  N   -0.726116
    13  C    0.337531
    14  C    0.047355
    15  C   -0.018384
    16  C    0.267785
    17  N   -0.328031
    18  C    0.237998
    19  C    0.002800
    20  C   -0.003166
    21  C    0.206051
 Electronic spatial extent (au):  <R**2>=           6163.8279
 Charge=              0.0000 electrons
 Dipole moment (field-independent basis, Debye):
    X=             -0.4980    Y=             -0.6842    Z=              0.5771  Tot=              1.0243
 Quadrupole moment (field-independent basis, Debye-Ang):
   XX=           -132.6750   YY=           -134.7030   ZZ=           -140.6974
   XY=             -0.7080   XZ=              0.7095   YZ=              1.3313
 Traceless Quadrupole moment (field-independent basis, Debye-Ang):
   XX=              3.3501   YY=              1.3221   ZZ=             -4.6723
   XY=             -0.7080   XZ=              0.7095   YZ=              1.3313
 Octapole moment (field-independent basis, Debye-Ang**2):
  XXX=            -11.5343  YYY=             -0.6955  ZZZ=              2.9649  XYY=              0.3253
  XXY=              1.6643  XXZ=             -1.8267  XZZ=              0.2622  YZZ=              1.4699
  YYZ=              2.3581  XYZ=              2.4939
 Hexadecapole moment (field-independent basis, Debye-Ang**3):
 XXXX=          -4057.2831 YYYY=          -3480.3517 ZZZZ=           -867.8047 XXXY=              6.8618
 XXXZ=              5.0812 YYYX=              2.9768 YYYZ=              4.8542 ZZZX=              1.5562
 ZZZY=             -3.1539 XXYY=          -1260.2875 XXZZ=           -825.7335 YYZZ=           -728.9480
 XXYZ=              1.1048 YYXZ=              4.9646 ZZXY=              6.5959
 N-N= 2.236184174623D+03 E-N=-7.251429123420D+03  KE= 1.181958987488D+03
  Exact polarizability: 283.170   7.841 235.721   8.684  -9.108 178.267
 Approx polarizability: 431.388  16.576 338.336  52.621 -43.053 373.602
 Calling FoFJK, ICntrl=    100127 FMM=F ISym2X=0 I1Cent= 0 IOpClX= 0 NMat=1 NMatS=1 NMatT=0.
 ***** Axes restored to original set *****
 -------------------------------------------------------------------
 Center     Atomic                   Forces (Hartrees/Bohr)
 Number     Number              X              Y              Z
 -------------------------------------------------------------------
      1       15          -0.012286195    0.016779082   -0.034371322
      2        7           0.001328652    0.006199525    0.109742337
      3        6           0.023557669    0.018658893    0.002682955
      4        6          -0.000332511   -0.010607449    0.008184381
      5        6           0.006823834    0.003579478    0.002653220
      6        6          -0.003469292   -0.000665510    0.036293571
      7        7          -0.010734257    0.021920226   -0.041386899
      8        6           0.020673845   -0.006109039   -0.022285749
      9        6           0.005910589    0.000644975   -0.011838133
     10        6          -0.005907519    0.007581423   -0.001005934
     11        6           0.000413518    0.021022435    0.011643067
     12        7          -0.020970097    0.015554371   -0.003540257
     13        6          -0.010512405   -0.014747915   -0.003872342
     14        6          -0.008003871   -0.007406642    0.003200786
     15        6          -0.006620051    0.006957926    0.001614736
     16        6          -0.032231609   -0.001515147    0.000217982
     17        7           0.037539409   -0.034373467   -0.008225538
     18        6           0.023623632   -0.008848527    0.003293742
     19        6           0.008967842   -0.001099821   -0.002976782
     20        6           0.011252226   -0.008490727    0.008561245
     21        6           0.003873197   -0.008920902   -0.006980405
     22        1          -0.005168337    0.000052577    0.006521596
     23        1          -0.005681975    0.000891507   -0.004430050
     24        1          -0.001956655    0.002574662   -0.000020155
     25        1          -0.006487983    0.003681534    0.000051000
     26        1          -0.002978438    0.000582551   -0.001956545
     27        1          -0.001237782    0.000212898   -0.001881778
     28        1           0.003199434   -0.002301303    0.031184125
     29        1           0.001795505   -0.001374788   -0.002153458
     30        1           0.008316675    0.000196958    0.001005673
     31        1           0.023235751   -0.002578446   -0.033713595
     32        1          -0.000682297   -0.005530241    0.001963908
     33        1          -0.001137546   -0.000906305   -0.003944850
     34        1          -0.000438174   -0.001563460   -0.001246598
     35        1          -0.000255654    0.002757643    0.000057396
     36        1          -0.000497337    0.001959978    0.001590520
     37        1          -0.001717318   -0.004214451    0.005535673
     38        1          -0.031054998    0.021853495   -0.007603292
     39        1          -0.025216936   -0.006137456   -0.055971292
     40        1           0.004036666   -0.003978345    0.002106897
     41        1          -0.000514072   -0.002910964    0.003292155
     42        1          -0.001493200   -0.000293095    0.000951272
     43        1           0.001116841    0.001228134   -0.000090305
     44        1           0.000965341    0.003459969   -0.001096542
     45        1          -0.014789399   -0.005663827    0.026314583
     46        1          -0.000201309    0.000790874   -0.011928508
     47        1          -0.001381284   -0.000524832    0.011018174
     48        1           0.009096163   -0.012384557    0.001145503
     49        1           0.000736399    0.001899568   -0.002570135
     50        1           0.001285560    0.000586366   -0.000770566
     51        1           0.005494603   -0.001991438   -0.004144976
     52        1           0.000535437   -0.001932292    0.002014244
     53        1           0.007763614    0.002211500   -0.009698216
     54        1           0.002416097   -0.006767602   -0.003136519
 -------------------------------------------------------------------
 Cartesian Forces:  Max     0.109742337 RMS     0.015034266
 FormGI is forming the generalized inverse of G from B-inverse, IUseBI=4.

 GradGradGradGradGradGradGradGradGradGradGradGradGradGradGradGradGradGrad
 Berny optimization.
 Internal  Forces:  Max     0.180752768 RMS     0.026708389
 Search for a local minimum.
 Step number   1 out of a maximum of  324
 All quantities printed in internal units (Hartrees-Bohrs-Radians)
 Mixed Optimization -- RFO/linear search
 Second derivative matrix not updated -- analytic derivatives used.
 ITU=  0
     Eigenvalues ---   -0.36887  -0.20463  -0.13288  -0.09513  -0.03388
     Eigenvalues ---   -0.02110  -0.01525  -0.01456  -0.00736  -0.00345
     Eigenvalues ---   -0.00170  -0.00011   0.00072   0.00140   0.00335
     Eigenvalues ---    0.00493   0.00769   0.01223   0.01458   0.01823
     Eigenvalues ---    0.01988   0.02021   0.02489   0.02710   0.03171
     Eigenvalues ---    0.03679   0.03783   0.04005   0.04086   0.04116
     Eigenvalues ---    0.04228   0.04296   0.04318   0.04346   0.04428
     Eigenvalues ---    0.04493   0.04567   0.04615   0.04669   0.04775
     Eigenvalues ---    0.04811   0.04925   0.05050   0.05122   0.05194
     Eigenvalues ---    0.05257   0.05337   0.05501   0.05647   0.05788
     Eigenvalues ---    0.05991   0.06067   0.06219   0.06291   0.06340
     Eigenvalues ---    0.06356   0.06449   0.06476   0.06775   0.07072
     Eigenvalues ---    0.07270   0.07360   0.07446   0.07677   0.08031
     Eigenvalues ---    0.08121   0.08447   0.08564   0.09303   0.09358
     Eigenvalues ---    0.09475   0.09660   0.09773   0.09903   0.10040
     Eigenvalues ---    0.10307   0.10839   0.11643   0.11851   0.12240
     Eigenvalues ---    0.12457   0.13040   0.13837   0.14088   0.14585
     Eigenvalues ---    0.14864   0.15675   0.15944   0.16553   0.17467
     Eigenvalues ---    0.18820   0.19538   0.20235   0.21423   0.22425
     Eigenvalues ---    0.22781   0.23510   0.23939   0.24147   0.24641
     Eigenvalues ---    0.25167   0.25863   0.27018   0.27283   0.27800
     Eigenvalues ---    0.27985   0.28844   0.29592   0.29842   0.30053
     Eigenvalues ---    0.30215   0.31228   0.31531   0.31732   0.32053
     Eigenvalues ---    0.32418   0.32584   0.32627   0.32837   0.32970
     Eigenvalues ---    0.33063   0.33076   0.33142   0.33252   0.33375
     Eigenvalues ---    0.33433   0.33475   0.33535   0.33610   0.33686
     Eigenvalues ---    0.33826   0.33892   0.34019   0.34065   0.34095
     Eigenvalues ---    0.34122   0.34213   0.34303   0.34480   0.34688
     Eigenvalues ---    0.34775   0.34804   0.35187   0.35409   0.35871
     Eigenvalues ---    0.36167   0.36300   0.36798   0.37291   0.42533
     Eigenvalues ---    0.43948   0.49036   1.21176   1.64442   2.32576
     Eigenvalues ---    3.35083
 RFO step:  Lambda=-3.97558973D-01 EMin=-3.68865837D-01
 Linear search not attempted -- first point.
 Maximum step size (   0.300) exceeded in Quadratic search.
    -- Step size scaled by   0.405
 Iteration  1 RMS(Cart)=  0.23505171 RMS(Int)=  0.00566040
 Iteration  2 RMS(Cart)=  0.02182184 RMS(Int)=  0.00045591
 Iteration  3 RMS(Cart)=  0.00014685 RMS(Int)=  0.00045435
 Iteration  4 RMS(Cart)=  0.00000014 RMS(Int)=  0.00045435
 Variable       Old X    -DE/DX   Delta X   Delta X   Delta X     New X
                                 (Linear)    (Quad)   (Total)
    R1        2.93983   0.18075   0.00000   0.03759   0.03759   2.97742
    R2        3.16815   0.10754   0.00000   0.03591   0.03591   3.20406
    R3        3.36371   0.11443   0.00000  -0.02167  -0.02159   3.34212
    R4        3.36371   0.11120   0.00000  -0.04224  -0.04232   3.32139
    R5        2.84529   0.06105   0.00000  -0.02454  -0.02454   2.82075
    R6        2.90061   0.00641   0.00000  -0.00373  -0.00373   2.89687
    R7        2.93807  -0.00143   0.00000   0.00576   0.00576   2.94383
    R8        2.93490   0.02818   0.00000  -0.00024  -0.00024   2.93466
    R9        2.06354  -0.00610   0.00000   0.00072   0.00072   2.06426
   R10        2.05286   0.00601   0.00000   0.00543   0.00543   2.05829
   R11        2.07583  -0.00055   0.00000  -0.00026  -0.00026   2.07557
   R12        2.06362  -0.00685   0.00000   0.00719   0.00719   2.07082
   R13        2.07743  -0.00187   0.00000   0.00034   0.00034   2.07776
   R14        2.07031  -0.00003   0.00000  -0.00043  -0.00043   2.06989
   R15        2.04967  -0.01148   0.00000   0.00324   0.00324   2.05291
   R16        2.07451  -0.00151   0.00000  -0.00120  -0.00120   2.07331
   R17        2.07356   0.00159   0.00000   0.00020   0.00020   2.07377
   R18        2.75681   0.03882   0.00000   0.00603   0.00603   2.76284
   R19        2.75724   0.03179   0.00000   0.01362   0.01362   2.77086
   R20        2.87453   0.00678   0.00000   0.00305   0.00304   2.87757
   R21        2.06643  -0.02427   0.00000  -0.00359  -0.00359   2.06284
   R22        2.07161   0.00311   0.00000   0.00164   0.00164   2.07325
   R23        2.85445   0.00663   0.00000   0.00626   0.00627   2.86072
   R24        2.06243   0.00317   0.00000   0.00144   0.00144   2.06387
   R25        2.07313   0.00037   0.00000  -0.00009  -0.00009   2.07304
   R26        2.87071   0.01374   0.00000   0.00494   0.00494   2.87565
   R27        2.07155   0.00153   0.00000   0.00043   0.00043   2.07198
   R28        2.06730   0.00078   0.00000   0.00001   0.00001   2.06731
   R29        2.06706   0.00380   0.00000  -0.00053  -0.00053   2.06653
   R30        2.06516  -0.03268   0.00000  -0.00019  -0.00019   2.06497
   R31        2.79627  -0.01046   0.00000   0.00023   0.00033   2.79661
   R32        2.75658   0.03743   0.00000   0.01006   0.01013   2.76671
   R33        2.87071  -0.00187   0.00000   0.00281   0.00279   2.87350
   R34        2.06923  -0.05523   0.00000  -0.01283  -0.01283   2.05640
   R35        2.06573   0.00408   0.00000   0.00235   0.00235   2.06807
   R36        2.83779  -0.01033   0.00000   0.00963   0.00953   2.84732
   R37        2.06835   0.00188   0.00000  -0.00008  -0.00008   2.06827
   R38        2.07194   0.00090   0.00000   0.00031   0.00031   2.07225
   R39        2.86822   0.00206   0.00000   0.00378   0.00372   2.87194
   R40        2.06904   0.00138   0.00000   0.00030   0.00030   2.06934
   R41        2.06997   0.00029   0.00000  -0.00046  -0.00046   2.06951
   R42        2.04322  -0.02345   0.00000  -0.00962  -0.00962   2.03361
   R43        2.06527   0.00759   0.00000   0.00306   0.00306   2.06833
   R44        2.75435   0.01427   0.00000  -0.01658  -0.01669   2.73766
   R45        2.74926   0.02933   0.00000   0.00507   0.00500   2.75425
   R46        2.88126   0.00960   0.00000   0.00672   0.00674   2.88800
   R47        2.04774   0.00753   0.00000   0.00833   0.00833   2.05608
   R48        2.07999  -0.00645   0.00000   0.00266   0.00266   2.08265
   R49        2.85987   0.00019   0.00000   0.01583   0.01590   2.87578
   R50        2.06978   0.00010   0.00000   0.00005   0.00005   2.06983
   R51        2.06936   0.00124   0.00000   0.00036   0.00036   2.06972
   R52        2.86467   0.00486   0.00000  -0.00344  -0.00336   2.86132
   R53        2.07167  -0.00546   0.00000   0.00372   0.00372   2.07539
   R54        2.06730   0.00158   0.00000   0.00042   0.00042   2.06772
   R55        2.06486  -0.01174   0.00000   0.00292   0.00292   2.06778
   R56        2.06908   0.00718   0.00000   0.00333   0.00333   2.07241
    A1        1.82639   0.03744   0.00000  -0.03377  -0.03644   1.78994
    A2        1.54913   0.09643   0.00000   0.06585   0.06697   1.61610
    A3        1.59246  -0.01582   0.00000   0.07218   0.07279   1.66525
    A4        1.59561   0.00240   0.00000   0.06956   0.07111   1.66672
    A5        1.54598   0.07226   0.00000   0.02581   0.02761   1.57359
    A6        2.23064   0.14671   0.00000   0.13992   0.13992   2.37056
    A7        2.05402  -0.00540   0.00000   0.01289   0.01290   2.06692
    A8        1.92464  -0.02589   0.00000  -0.02390  -0.02396   1.90067
    A9        1.90756   0.05106   0.00000   0.01304   0.01318   1.92074
   A10        1.83887   0.02770   0.00000   0.00322   0.00336   1.84223
   A11        1.93019  -0.01988   0.00000  -0.02276  -0.02278   1.90741
   A12        1.78913  -0.03410   0.00000   0.01736   0.01743   1.80656
   A13        1.94395   0.00509   0.00000  -0.00428  -0.00429   1.93966
   A14        2.01139  -0.00507   0.00000  -0.00549  -0.00550   2.00589
   A15        1.93354  -0.00406   0.00000  -0.00149  -0.00150   1.93204
   A16        1.85264   0.00237   0.00000   0.00878   0.00878   1.86142
   A17        1.84062  -0.00083   0.00000   0.00172   0.00172   1.84234
   A18        1.87166   0.00300   0.00000   0.00187   0.00186   1.87352
   A19        1.96245  -0.00099   0.00000  -0.00012  -0.00013   1.96232
   A20        1.93167  -0.00274   0.00000   0.00368   0.00368   1.93535
   A21        1.95474  -0.00246   0.00000  -0.00637  -0.00638   1.94836
   A22        1.84541   0.00327   0.00000   0.00366   0.00365   1.84906
   A23        1.89198   0.00105   0.00000  -0.00157  -0.00159   1.89039
   A24        1.87213   0.00240   0.00000   0.00128   0.00129   1.87342
   A25        1.98882   0.03351   0.00000  -0.00887  -0.00887   1.97994
   A26        1.94471  -0.00582   0.00000   0.00180   0.00181   1.94652
   A27        1.94504  -0.01765   0.00000  -0.00068  -0.00068   1.94436
   A28        1.88116  -0.00520   0.00000   0.00537   0.00537   1.88654
   A29        1.82704  -0.01121   0.00000   0.00209   0.00208   1.82911
   A30        1.86944   0.00507   0.00000   0.00093   0.00093   1.87037
   A31        2.20043  -0.01463   0.00000   0.04675   0.04674   2.24718
   A32        2.16248   0.03502   0.00000  -0.04075  -0.04074   2.12174
   A33        1.91464  -0.01973   0.00000  -0.00609  -0.00608   1.90856
   A34        1.82262   0.00724   0.00000   0.00392   0.00392   1.82654
   A35        1.93810   0.02034   0.00000   0.00979   0.00982   1.94792
   A36        1.97225  -0.00992   0.00000  -0.00481  -0.00481   1.96743
   A37        1.92890  -0.01215   0.00000  -0.01233  -0.01235   1.91654
   A38        1.90994  -0.00110   0.00000   0.00211   0.00212   1.91206
   A39        1.89157  -0.00467   0.00000   0.00084   0.00083   1.89240
   A40        1.80583   0.00031   0.00000  -0.00330  -0.00331   1.80251
   A41        1.96733  -0.00479   0.00000  -0.00173  -0.00172   1.96562
   A42        1.93299   0.00292   0.00000   0.00156   0.00156   1.93455
   A43        1.95950   0.00416   0.00000   0.00113   0.00112   1.96063
   A44        1.91245  -0.00188   0.00000   0.00302   0.00303   1.91548
   A45        1.88529  -0.00059   0.00000  -0.00054  -0.00054   1.88475
   A46        1.81229   0.00200   0.00000   0.00058   0.00057   1.81286
   A47        1.91164  -0.00085   0.00000  -0.00007  -0.00006   1.91157
   A48        1.96305   0.00120   0.00000   0.00091   0.00090   1.96395
   A49        1.92449   0.00404   0.00000   0.00142   0.00141   1.92591
   A50        1.96293  -0.00528   0.00000  -0.00235  -0.00234   1.96058
   A51        1.88874  -0.00086   0.00000  -0.00038  -0.00038   1.88836
   A52        1.85627   0.00546   0.00000   0.00018   0.00018   1.85645
   A53        1.98085  -0.00897   0.00000  -0.00425  -0.00426   1.97660
   A54        1.91535   0.01428   0.00000   0.00240   0.00241   1.91776
   A55        1.89960   0.00169   0.00000   0.00535   0.00537   1.90497
   A56        1.93269  -0.01248   0.00000  -0.00258  -0.00259   1.93011
   A57        1.87960  -0.00057   0.00000  -0.00113  -0.00112   1.87847
[...]
   187    C   13  S      Ryd( 3S)     0.00168
   188    C   13  S      Ryd( 4S)     0.00004
   189    C   13  px     Val( 2p)     1.07184
   190    C   13  px     Ryd( 3p)     0.00359
   191    C   13  py     Val( 2p)     1.16067
   192    C   13  py     Ryd( 3p)     0.00313
   193    C   13  pz     Val( 2p)     0.97920
   194    C   13  pz     Ryd( 3p)     0.00274
   195    C   13  dxy    Ryd( 3d)     0.00048
   196    C   13  dxz    Ryd( 3d)     0.00135
   197    C   13  dyz    Ryd( 3d)     0.00094
   198    C   13  dx2y2  Ryd( 3d)     0.00143
   199    C   13  dz2    Ryd( 3d)     0.00087
 
   200    C   14  S      Cor( 1S)     1.99933
   201    C   14  S      Val( 2S)     1.04571
   202    C   14  S      Ryd( 3S)     0.00065
   203    C   14  S      Ryd( 4S)     0.00002
   204    C   14  px     Val( 2p)     1.24939
   205    C   14  px     Ryd( 3p)     0.00437
   206    C   14  py     Val( 2p)     1.01681
   207    C   14  py     Ryd( 3p)     0.00198
   208    C   14  pz     Val( 2p)     1.14287
   209    C   14  pz     Ryd( 3p)     0.00209
   210    C   14  dxy    Ryd( 3d)     0.00026
   211    C   14  dxz    Ryd( 3d)     0.00126
   212    C   14  dyz    Ryd( 3d)     0.00072
   213    C   14  dx2y2  Ryd( 3d)     0.00097
   214    C   14  dz2    Ryd( 3d)     0.00027
 
   215    C   15  S      Cor( 1S)     1.99935
   216    C   15  S      Val( 2S)     1.04761
   217    C   15  S      Ryd( 3S)     0.00063
   218    C   15  S      Ryd( 4S)     0.00002
   219    C   15  px     Val( 2p)     1.19522
   220    C   15  px     Ryd( 3p)     0.00297
   221    C   15  py     Val( 2p)     1.15956
   222    C   15  py     Ryd( 3p)     0.00264
   223    C   15  pz     Val( 2p)     1.05756
   224    C   15  pz     Ryd( 3p)     0.00207
   225    C   15  dxy    Ryd( 3d)     0.00056
   226    C   15  dxz    Ryd( 3d)     0.00074
   227    C   15  dyz    Ryd( 3d)     0.00072
   228    C   15  dx2y2  Ryd( 3d)     0.00086
   229    C   15  dz2    Ryd( 3d)     0.00057
 
   230    C   16  S      Cor( 1S)     1.99935
   231    C   16  S      Val( 2S)     1.03569
   232    C   16  S      Ryd( 3S)     0.00174
   233    C   16  S      Ryd( 4S)     0.00004
   234    C   16  px     Val( 2p)     1.20532
   235    C   16  px     Ryd( 3p)     0.00294
   236    C   16  py     Val( 2p)     0.83720
   237    C   16  py     Ryd( 3p)     0.00387
   238    C   16  pz     Val( 2p)     1.17206
   239    C   16  pz     Ryd( 3p)     0.00291
   240    C   16  dxy    Ryd( 3d)     0.00099
   241    C   16  dxz    Ryd( 3d)     0.00065
   242    C   16  dyz    Ryd( 3d)     0.00074
   243    C   16  dx2y2  Ryd( 3d)     0.00140
   244    C   16  dz2    Ryd( 3d)     0.00117
 
   245    N   17  S      Cor( 1S)     1.99943
   246    N   17  S      Val( 2S)     1.32225
   247    N   17  S      Ryd( 3S)     0.00198
   248    N   17  S      Ryd( 4S)     0.00007
   249    N   17  px     Val( 2p)     1.69488
   250    N   17  px     Ryd( 3p)     0.00339
   251    N   17  py     Val( 2p)     1.41756
   252    N   17  py     Ryd( 3p)     0.00263
   253    N   17  pz     Val( 2p)     1.41248
   254    N   17  pz     Ryd( 3p)     0.00210
   255    N   17  dxy    Ryd( 3d)     0.00059
   256    N   17  dxz    Ryd( 3d)     0.00063
   257    N   17  dyz    Ryd( 3d)     0.00056
   258    N   17  dx2y2  Ryd( 3d)     0.00038
   259    N   17  dz2    Ryd( 3d)     0.00037
 
   260    C   18  S      Cor( 1S)     1.99935
   261    C   18  S      Val( 2S)     1.02665
   262    C   18  S      Ryd( 3S)     0.00150
   263    C   18  S      Ryd( 4S)     0.00004
   264    C   18  px     Val( 2p)     1.12227
   265    C   18  px     Ryd( 3p)     0.00184
   266    C   18  py     Val( 2p)     0.93438
   267    C   18  py     Ryd( 3p)     0.00325
   268    C   18  pz     Val( 2p)     1.15473
   269    C   18  pz     Ryd( 3p)     0.00409
   270    C   18  dxy    Ryd( 3d)     0.00143
   271    C   18  dxz    Ryd( 3d)     0.00054
   272    C   18  dyz    Ryd( 3d)     0.00085
   273    C   18  dx2y2  Ryd( 3d)     0.00095
   274    C   18  dz2    Ryd( 3d)     0.00139
 
   275    C   19  S      Cor( 1S)     1.99933
   276    C   19  S      Val( 2S)     1.04805
   277    C   19  S      Ryd( 3S)     0.00052
   278    C   19  S      Ryd( 4S)     0.00003
   279    C   19  px     Val( 2p)     1.13426
   280    C   19  px     Ryd( 3p)     0.00199
   281    C   19  py     Val( 2p)     1.22375
   282    C   19  py     Ryd( 3p)     0.00428
   283    C   19  pz     Val( 2p)     1.05079
   284    C   19  pz     Ryd( 3p)     0.00150
   285    C   19  dxy    Ryd( 3d)     0.00059
   286    C   19  dxz    Ryd( 3d)     0.00071
   287    C   19  dyz    Ryd( 3d)     0.00048
   288    C   19  dx2y2  Ryd( 3d)     0.00095
   289    C   19  dz2    Ryd( 3d)     0.00074
 
   290    C   20  S      Cor( 1S)     1.99933
   291    C   20  S      Val( 2S)     1.04768
   292    C   20  S      Ryd( 3S)     0.00061
   293    C   20  S      Ryd( 4S)     0.00002
   294    C   20  px     Val( 2p)     1.22080
   295    C   20  px     Ryd( 3p)     0.00415
   296    C   20  py     Val( 2p)     1.07363
   297    C   20  py     Ryd( 3p)     0.00179
   298    C   20  pz     Val( 2p)     1.11467
   299    C   20  pz     Ryd( 3p)     0.00197
   300    C   20  dxy    Ryd( 3d)     0.00076
   301    C   20  dxz    Ryd( 3d)     0.00102
   302    C   20  dyz    Ryd( 3d)     0.00054
   303    C   20  dx2y2  Ryd( 3d)     0.00063
   304    C   20  dz2    Ryd( 3d)     0.00056
 
   305    C   21  S      Cor( 1S)     1.99934
   306    C   21  S      Val( 2S)     1.02050
   307    C   21  S      Ryd( 3S)     0.00177
   308    C   21  S      Ryd( 4S)     0.00003
   309    C   21  px     Val( 2p)     1.10254
   310    C   21  px     Ryd( 3p)     0.00337
   311    C   21  py     Val( 2p)     1.13068
   312    C   21  py     Ryd( 3p)     0.00278
   313    C   21  pz     Val( 2p)     0.97646
   314    C   21  pz     Ryd( 3p)     0.00329
   315    C   21  dxy    Ryd( 3d)     0.00108
   316    C   21  dxz    Ryd( 3d)     0.00150
   317    C   21  dyz    Ryd( 3d)     0.00061
   318    C   21  dx2y2  Ryd( 3d)     0.00057
   319    C   21  dz2    Ryd( 3d)     0.00129
 
   320    H   22  S      Val( 1S)     0.77404
   321    H   22  S      Ryd( 2S)     0.00545
 
   322    H   23  S      Val( 1S)     0.77470
   323    H   23  S      Ryd( 2S)     0.00755
 
   324    H   24  S      Val( 1S)     0.76838
   325    H   24  S      Ryd( 2S)     0.00386
 
   326    H   25  S      Val( 1S)     0.76929
   327    H   25  S      Ryd( 2S)     0.00498
 
   328    H   26  S      Val( 1S)     0.76913
   329    H   26  S      Ryd( 2S)     0.00406
 
   330    H   27  S      Val( 1S)     0.76409
   331    H   27  S      Ryd( 2S)     0.00446
 
   332    H   28  S      Val( 1S)     0.78348
   333    H   28  S      Ryd( 2S)     0.01581
 
   334    H   29  S      Val( 1S)     0.76879
   335    H   29  S      Ryd( 2S)     0.00965
 
   336    H   30  S      Val( 1S)     0.76302
   337    H   30  S      Ryd( 2S)     0.00500
 
   338    H   31  S      Val( 1S)     0.78330
   339    H   31  S      Ryd( 2S)     0.01544
 
   340    H   32  S      Val( 1S)     0.78441
   341    H   32  S      Ryd( 2S)     0.02380
 
   342    H   33  S      Val( 1S)     0.75824
   343    H   33  S      Ryd( 2S)     0.00410
 
   344    H   34  S      Val( 1S)     0.76874
   345    H   34  S      Ryd( 2S)     0.00850
 
   346    H   35  S      Val( 1S)     0.76869
   347    H   35  S      Ryd( 2S)     0.00886
 
   348    H   36  S      Val( 1S)     0.75867
   349    H   36  S      Ryd( 2S)     0.00421
 
   350    H   37  S      Val( 1S)     0.76929
   351    H   37  S      Ryd( 2S)     0.01628
 
   352    H   38  S      Val( 1S)     0.77314
   353    H   38  S      Ryd( 2S)     0.01180
 
   354    H   39  S      Val( 1S)     0.79633
   355    H   39  S      Ryd( 2S)     0.02003
 
   356    H   40  S      Val( 1S)     0.77110
   357    H   40  S      Ryd( 2S)     0.01238
 
   358    H   41  S      Val( 1S)     0.76426
   359    H   41  S      Ryd( 2S)     0.00645
 
   360    H   42  S      Val( 1S)     0.76601
   361    H   42  S      Ryd( 2S)     0.00623
 
   362    H   43  S      Val( 1S)     0.77209
   363    H   43  S      Ryd( 2S)     0.01176
 
   364    H   44  S      Val( 1S)     0.76223
   365    H   44  S      Ryd( 2S)     0.00500
 
   366    H   45  S      Val( 1S)     0.79024
   367    H   45  S      Ryd( 2S)     0.02679
 
   368    H   46  S      Val( 1S)     0.77724
   369    H   46  S      Ryd( 2S)     0.01674
 
   370    H   47  S      Val( 1S)     0.78779
   371    H   47  S      Ryd( 2S)     0.01221
 
   372    H   48  S      Val( 1S)     0.77686
   373    H   48  S      Ryd( 2S)     0.01358
 
   374    H   49  S      Val( 1S)     0.76571
   375    H   49  S      Ryd( 2S)     0.00633
 
   376    H   50  S      Val( 1S)     0.77503
   377    H   50  S      Ryd( 2S)     0.01417
 
   378    H   51  S      Val( 1S)     0.77010
   379    H   51  S      Ryd( 2S)     0.00757
 
   380    H   52  S      Val( 1S)     0.76085
   381    H   52  S      Ryd( 2S)     0.00487
 
   382    H   53  S      Val( 1S)     0.78837
   383    H   53  S      Ryd( 2S)     0.01244
 
   384    H   54  S      Val( 1S)     0.78480
   385    H   54  S      Ryd( 2S)     0.00984

 WARNING:  1 low occupancy (<1.9990e) core orbital  found on  P    1


 Summary of Natural Population Analysis:                  
                                                          
                                       Natural Population 
                Natural  -----------------------------------------------
    Atom  No    Charge         Core      Valence    Rydberg      Total
 -----------------------------------------------------------------------
      P    1    2.33357      9.99763     2.52748    0.14132    12.66643
      N    2   -0.82076      1.99937     5.80779    0.01361     7.82076
      C    3    0.11495      1.99912     3.86834    0.01759     5.88505
      C    4   -0.68263      1.99935     4.67342    0.00986     6.68263
      C    5   -0.66550      1.99935     4.65527    0.01088     6.66550
      C    6   -0.66736      1.99930     4.65739    0.01066     6.66736
      N    7   -0.78731      1.99942     5.77355    0.01434     7.78731
      C    8   -0.25822      1.99933     4.24249    0.01639     6.25822
      C    9   -0.46732      1.99934     4.45627    0.01171     6.46732
      C   10   -0.47047      1.99933     4.45937    0.01177     6.47047
      C   11   -0.25002      1.99934     4.23425    0.01643     6.25002
      N   12   -0.77039      1.99945     5.75749    0.01345     7.77039
      C   13   -0.26160      1.99931     4.24602    0.01627     6.26160
      C   14   -0.46670      1.99933     4.45478    0.01260     6.46670
      C   15   -0.47107      1.99935     4.45994    0.01178     6.47107
      C   16   -0.26609      1.99935     4.25028    0.01646     6.26609
      N   17   -0.85930      1.99943     5.84718    0.01270     7.85930
      C   18   -0.25324      1.99935     4.23802    0.01587     6.25324
      C   19   -0.46797      1.99933     4.45685    0.01179     6.46797
      C   20   -0.46817      1.99933     4.45679    0.01204     6.46817
      C   21   -0.24581      1.99934     4.23018    0.01629     6.24581
      H   22    0.22051      0.00000     0.77404    0.00545     0.77949
      H   23    0.21775      0.00000     0.77470    0.00755     0.78225
      H   24    0.22776      0.00000     0.76838    0.00386     0.77224
      H   25    0.22573      0.00000     0.76929    0.00498     0.77427
      H   26    0.22681      0.00000     0.76913    0.00406     0.77319
      H   27    0.23145      0.00000     0.76409    0.00446     0.76855
      H   28    0.20071      0.00000     0.78348    0.01581     0.79929
      H   29    0.22156      0.00000     0.76879    0.00965     0.77844
      H   30    0.23199      0.00000     0.76302    0.00500     0.76801
      H   31    0.20126      0.00000     0.78330    0.01544     0.79874
      H   32    0.19179      0.00000     0.78441    0.02380     0.80821
      H   33    0.23766      0.00000     0.75824    0.00410     0.76234
      H   34    0.22276      0.00000     0.76874    0.00850     0.77724
      H   35    0.22245      0.00000     0.76869    0.00886     0.77755
      H   36    0.23712      0.00000     0.75867    0.00421     0.76288
      H   37    0.21443      0.00000     0.76929    0.01628     0.78557
      H   38    0.21506      0.00000     0.77314    0.01180     0.78494
      H   39    0.18364      0.00000     0.79633    0.02003     0.81636
      H   40    0.21652      0.00000     0.77110    0.01238     0.78348
      H   41    0.22929      0.00000     0.76426    0.00645     0.77071
      H   42    0.22776      0.00000     0.76601    0.00623     0.77224
      H   43    0.21616      0.00000     0.77209    0.01176     0.78384
      H   44    0.23277      0.00000     0.76223    0.00500     0.76723
      H   45    0.18297      0.00000     0.79024    0.02679     0.81703
      H   46    0.20602      0.00000     0.77724    0.01674     0.79398
      H   47    0.20001      0.00000     0.78779    0.01221     0.79999
      H   48    0.20955      0.00000     0.77686    0.01358     0.79045
      H   49    0.22796      0.00000     0.76571    0.00633     0.77204
      H   50    0.21080      0.00000     0.77503    0.01417     0.78920
      H   51    0.22233      0.00000     0.77010    0.00757     0.77767
      H   52    0.23428      0.00000     0.76085    0.00487     0.76572
      H   53    0.19918      0.00000     0.78837    0.01244     0.80082
      H   54    0.20536      0.00000     0.78480    0.00984     0.79464
 =======================================================================
   * Total *   -0.00000     49.98446   121.26153    0.75402   172.00000

                                 Natural Population      
 --------------------------------------------------------
   Core                      49.98446 ( 99.9689% of  50)
   Valence                  121.26153 ( 99.3947% of 122)
   Natural Minimal Basis    171.24598 ( 99.5616% of 172)
   Natural Rydberg Basis      0.75402 (  0.4384% of 172)
 --------------------------------------------------------

    Atom  No          Natural Electron Configuration
 ----------------------------------------------------------------------------
      P    1      [core]3S( 0.80)3p( 1.72)4S( 0.03)3d( 0.09)4p( 0.02)
      N    2      [core]2S( 1.43)2p( 4.38)3p( 0.01)
      C    3      [core]2S( 0.90)2p( 2.97)3p( 0.01)3d( 0.01)
      C    4      [core]2S( 1.10)2p( 3.57)3p( 0.01)
      C    5      [core]2S( 1.10)2p( 3.55)3p( 0.01)
      C    6      [core]2S( 1.11)2p( 3.55)3p( 0.01)
      N    7      [core]2S( 1.32)2p( 4.46)3p( 0.01)
      C    8      [core]2S( 1.03)2p( 3.21)3p( 0.01)
      C    9      [core]2S( 1.05)2p( 3.41)3p( 0.01)
      C   10      [core]2S( 1.05)2p( 3.41)3p( 0.01)
      C   11      [core]2S( 1.03)2p( 3.20)3p( 0.01)3d( 0.01)
      N   12      [core]2S( 1.36)2p( 4.40)3p( 0.01)
      C   13      [core]2S( 1.03)2p( 3.21)3p( 0.01)3d( 0.01)
      C   14      [core]2S( 1.05)2p( 3.41)3p( 0.01)
      C   15      [core]2S( 1.05)2p( 3.41)3p( 0.01)
      C   16      [core]2S( 1.04)2p( 3.21)3p( 0.01)
      N   17      [core]2S( 1.32)2p( 4.52)3p( 0.01)
      C   18      [core]2S( 1.03)2p( 3.21)3p( 0.01)3d( 0.01)
      C   19      [core]2S( 1.05)2p( 3.41)3p( 0.01)
      C   20      [core]2S( 1.05)2p( 3.41)3p( 0.01)
      C   21      [core]2S( 1.02)2p( 3.21)3p( 0.01)3d( 0.01)
      H   22            1S( 0.77)2S( 0.01)
      H   23            1S( 0.77)2S( 0.01)
      H   24            1S( 0.77)
      H   25            1S( 0.77)
      H   26            1S( 0.77)
      H   27            1S( 0.76)
      H   28            1S( 0.78)2S( 0.02)
      H   29            1S( 0.77)2S( 0.01)
      H   30            1S( 0.76)
      H   31            1S( 0.78)2S( 0.02)
      H   32            1S( 0.78)2S( 0.02)
      H   33            1S( 0.76)
      H   34            1S( 0.77)2S( 0.01)
      H   35            1S( 0.77)2S( 0.01)
      H   36            1S( 0.76)
      H   37            1S( 0.77)2S( 0.02)
      H   38            1S( 0.77)2S( 0.01)
      H   39            1S( 0.80)2S( 0.02)
      H   40            1S( 0.77)2S( 0.01)
      H   41            1S( 0.76)2S( 0.01)
      H   42            1S( 0.77)2S( 0.01)
      H   43            1S( 0.77)2S( 0.01)
      H   44            1S( 0.76)
      H   45            1S( 0.79)2S( 0.03)
      H   46            1S( 0.78)2S( 0.02)
      H   47            1S( 0.79)2S( 0.01)
      H   48            1S( 0.78)2S( 0.01)
      H   49            1S( 0.77)2S( 0.01)
      H   50            1S( 0.78)2S( 0.01)
      H   51            1S( 0.77)2S( 0.01)
      H   52            1S( 0.76)
      H   53            1S( 0.79)2S( 0.01)
      H   54            1S( 0.78)2S( 0.01)


 NBO analysis skipped by request.
 1\1\GINC-DELLA-R4C4N12\SP\RB3LYP TD-FC\6-31G(d)\C16H33N4P1\BJS4\24-Aug
 -2020\0\\# TD(NStates=10, Root=1) B3LYP/6-31G* scf=qc volume pop=NPA d
 ensity=current Geom=AllCheck Guess=Read\\Title Card Required\\0,1\P,0,
 1.1912134725,0.763784712,0.6653710975\N,0,1.4135976345,1.5408136241,1.
 9866973112\C,0,1.2349262526,1.3302831811,3.412031713\C,0,1.6330548925,
 -0.084975682,3.8860966129\C,0,2.1400792657,2.3569926801,4.1280189512\C
 ,0,-0.2306335773,1.6091712562,3.8168460808\N,0,1.3132756112,1.92813346
 27,-0.5475663353\C,0,1.6068002594,1.6466445477,-1.9587162822\C,0,1.924
 3682823,3.0285613739,-2.558694479\C,0,1.1134627099,3.9902755829,-1.678
 3945384\C,0,1.2508124091,3.3764939809,-0.278401821\N,0,-0.2650844245,-
 0.0375185379,0.2542342936\C,0,-0.7616990822,-1.1953614177,1.014965248\
 C,0,-2.0802061019,-1.5207535448,0.3091168862\C,0,-2.6604604674,-0.1206
 973015,0.0478794517\C,0,-1.4208579267,0.7710673296,-0.2066407338\N,0,2
 .2896515326,-0.4904729715,0.3471447893\C,0,3.7023933866,-0.3323181587,
 0.7575153833\C,0,4.4965080224,-1.048098629,-0.3421345607\C,0,3.5551151
 35,-2.1933982375,-0.7396407868\C,0,2.1589939086,-1.546600874,-0.681269
 8888\H,0,2.6795469991,-0.293541227,3.6391029036\H,0,1.0129452139,-0.85
 33890466,3.4105865465\H,0,1.5161347828,-0.1848683004,4.972904417\H,0,3
 .1897061134,2.1845181672,3.8655431379\H,0,2.0380858661,2.291679937,5.2
 187992527\H,0,1.8785354042,3.3728092926,3.8129431474\H,0,-0.9100626696
 ,0.8852570359,3.3518476699\H,0,-0.5267279263,2.6103068605,3.4850924277
 \H,0,-0.3668822818,1.5500538997,4.9047101622\H,0,0.7445163524,1.184044
 5662,-2.46629966\H,0,2.4544137943,0.9603573271,-2.0668826767\H,0,1.673
 7537474,3.0893262287,-3.6226673282\H,0,2.9953813641,3.241379631,-2.454
 6758244\H,0,0.0610971127,3.9889282823,-1.9894394921\H,0,1.4748272814,5
 .0229312848,-1.7202403841\H,0,0.4104853189,3.6199424351,0.3772547938\H
 ,0,2.1624988716,3.725415038,0.2255069209\H,0,-0.9525618673,-0.95366777
 61,2.0735829635\H,0,-0.0413099498,-2.0174006761,0.9914786633\H,0,-2.73
 95986939,-2.154520097,0.9111239039\H,0,-1.87620883,-2.0381602408,-0.63
 58367339\H,0,-3.1975399355,0.2288010221,0.9372464266\H,0,-3.3652098148
 ,-0.0973647273,-0.7891569788\H,0,-1.5079931985,1.721316952,0.336297461
 7\H,0,-1.3019234274,1.0105661938,-1.2695163685\H,0,3.8783270767,-0.811
 3240686,1.7314421896\H,0,3.9665059553,0.7237104349,0.8625225069\H,0,5.
 4775194044,-1.3919693548,0.0016980628\H,0,4.6555541599,-0.3743296657,-
 1.1937344148\H,0,3.6241454982,-3.0039426609,-0.0036667142\H,0,3.772864
 46,-2.6193946881,-1.7244415047\H,0,1.3909836792,-2.2791130952,-0.41215
 00675\H,0,1.8768089441,-1.1327753408,-1.6574038029\\Version=ES64L-G16R
 evA.03\State=1-A\HF=-1189.9286456\RMSD=9.236e-10\Dipole=-0.0048505,0.0
 483832,-0.2329201\Quadrupole=-0.9502599,-0.0897586,1.0400185,0.4228022
 ,0.1833908,-0.9122352\PG=C01 [X(C16H33N4P1)]\\@


 COMMON SENSE IS NOT SO COMMON.   -- VOLTAIRE
 Job cpu time:       0 days  2 hours 15 minutes  9.2 seconds.
 Elapsed time:       0 days  0 hours 19 minutes 19.1 seconds.
 File lengths (MBytes):  RWF=   1207 Int=      0 D2E=      0 Chk=    268 Scr=      1
 Normal termination of Gaussian 16 at Mon Aug 24 20:16:14 2020.
