 Entering Gaussian System, Link 0=g16
 Input=base_3_conf3123.com
 Output=base_3_conf3123.log
 Initial command:
 /opt/export//g16/l1.exe "/scratch/bjs4/job.8843/Gau-8845.inp" -scrdir="/scratch/bjs4/job.8843/"
 Entering Link 1 = /opt/export//g16/l1.exe PID=      8846.
  
 Copyright (c) 1988,1990,1992,1993,1995,1998,2003,2009,2016,
            Gaussian, Inc.  All Rights Reserved.
  
 This is part of the Gaussian(R) 16 program.  It is based on
 the Gaussian(R) 09 system (copyright 2009, Gaussian, Inc.),
 the Gaussian(R) 03 system (copyright 2003, Gaussian, Inc.),
 the Gaussian(R) 98 system (copyright 1998, Gaussian, Inc.),
 the Gaussian(R) 94 system (copyright 1995, Gaussian, Inc.),
 the Gaussian 92(TM) system (copyright 1992, Gaussian, Inc.),
 the Gaussian 90(TM) system (copyright 1990, Gaussian, Inc.),
 the Gaussian 88(TM) system (copyright 1988, Gaussian, Inc.),
 the Gaussian 86(TM) system (copyright 1986, Carnegie Mellon
 University), and the Gaussian 82(TM) system (copyright 1983,
 Carnegie Mellon University). Gaussian is a federally registered
 trademark of Gaussian, Inc.
  
 This software contains proprietary and confidential information,
 including trade secrets, belonging to Gaussian, Inc.
  
 This software is provided under written license and may be
 used, copied, transmitted, or stored only in accord with that
 written license.
  
 The following legend is applicable only to US Government
 contracts under FAR:
  
                    RESTRICTED RIGHTS LEGEND
  
 Use, reproduction and disclosure by the US Government is
 subject to restrictions as set forth in subparagraphs (a)
 and (c) of the Commercial Computer Software - Restricted
 Rights clause in FAR 52.227-19.
  
 Gaussian, Inc.
 340 Quinnipiac St., Bldg. 40, Wallingford CT 06492
  
  
 ---------------------------------------------------------------
 Warning -- This program may not be used in any manner that
 competes with the business of Gaussian, Inc. or will provide
 assistance to any competitor of Gaussian, Inc.  The licensee
 of this program is prohibited from giving any competitor of
 Gaussian, Inc. access to this program.  By using this program,
 the user acknowledges that Gaussian, Inc. is engaged in the
 business of creating and licensing software in the field of
 computational chemistry and represents and warrants to the
 licensee that it is not a competitor of Gaussian, Inc. and that
 it will not use this program in any manner prohibited above.
 ---------------------------------------------------------------
  

 Cite this work as:
 Gaussian 16, Revision A.03,
 M. J. Frisch, G. W. Trucks, H. B. Schlegel, G. E. Scuseria, 
 M. A. Robb, J. R. Cheeseman, G. Scalmani, V. Barone, 
 G. A. Petersson, H. Nakatsuji, X. Li, M. Caricato, A. V. Marenich, 
 J. Bloino, B. G. Janesko, R. Gomperts, B. Mennucci, H. P. Hratchian, 
 J. V. Ortiz, A. F. Izmaylov, J. L. Sonnenberg, D. Williams-Young, 
 F. Ding, F. Lipparini, F. Egidi, J. Goings, B. Peng, A. Petrone, 
 T. Henderson, D. Ranasinghe, V. G. Zakrzewski, J. Gao, N. Rega, 
 G. Zheng, W. Liang, M. Hada, M. Ehara, K. Toyota, R. Fukuda, 
 J. Hasegawa, M. Ishida, T. Nakajima, Y. Honda, O. Kitao, H. Nakai, 
 T. Vreven, K. Throssell, J. A. Montgomery, Jr., J. E. Peralta, 
 F. Ogliaro, M. J. Bearpark, J. J. Heyd, E. N. Brothers, K. N. Kudin, 
 V. N. Staroverov, T. A. Keith, R. Kobayashi, J. Normand, 
 K. Raghavachari, A. P. Rendell, J. C. Burant, S. S. Iyengar, 
 J. Tomasi, M. Cossi, J. M. Millam, M. Klene, C. Adamo, R. Cammi, 
 J. W. Ochterski, R. L. Martin, K. Morokuma, O. Farkas, 
 J. B. Foresman, and D. J. Fox, Gaussian, Inc., Wallingford CT, 2016.
 
 ******************************************
 Gaussian 16:  ES64L-G16RevA.03 25-Dec-2016
                24-Aug-2020 
 ******************************************
 %nprocshared=5
 Will use up to    5 processors via shared memory.
 %Mem=10GB
 %Chk=base_3_conf31.chk
 ---------------------------------
 # opt=CalcAll B3LYP/6-31G* scf=qc
 ---------------------------------
 1/10=4,18=20,19=15,26=3,38=1/1,3;
 2/9=110,12=2,17=6,18=5,40=1/2;
 3/5=1,6=6,7=1,11=2,25=1,30=1,71=2,74=-5,140=1/1,2,3;
 4//1;
 5/5=2,8=3,38=5/8;
 8/6=4,10=90,11=11/1;
 11/6=1,8=1,9=11,15=111,16=1/1,2,10;
 10/6=1/2;
 6/7=2,8=2,9=2,10=2,18=1,28=1/1;
 7/10=1,25=1/1,2,3,16;
 1/10=4,18=20,19=15,26=3/3(3);
 2/9=110/2;
 7/8=1,9=1,25=1,44=-1/16;
 99//99;
 2/9=110/2;
 3/5=1,6=6,7=1,11=2,25=1,30=1,71=2,74=-5,140=1/1,2,3;
 4/5=5,16=3,69=1/1;
 5/5=2,8=3,38=5/8;
 8/6=4,10=90,11=11/1;
 11/6=1,8=1,9=11,15=111,16=1/1,2,10;
 10/6=1/2;
 7/10=1,25=1/1,2,3,16;
 1/10=4,18=20,19=15,26=3/3(-8);
 2/9=110/2;
 6/7=2,8=2,9=2,10=2,18=1,19=2,28=1/1;
 7/8=1,9=1,25=1,44=-1/16;
 99//99;
 -------------------
 Title Card Required
 -------------------
 Symbolic Z-matrix:
 Charge =  0 Multiplicity = 1
 N                     1.4187    0.1287    0.123 
 C                     0.481    -0.8828   -0.0433 
 N1                   -0.7977   -0.8604   -0.0093 
 C                    -1.8463    0.1303    0.1023 
 C                    -1.30693   1.55851   0.21174 
 C                    -2.62619   0.0393   -1.23793 
 C                    -2.85405  -0.22913   1.20135 
 N                     1.052    -2.1118   -0.3736 
 C                     2.38774  -2.51655   0.05235 
 C                     0.1917   -3.25495  -0.69474 
 C                     2.72377   0.10995  -0.54776 
 C                     1.14596   1.42973   0.70488 
 H                    -0.35452   1.67091  -0.31805 
 H                    -1.16512   1.8648    1.2488 
 H                    -2.0034    2.29238  -0.2114 
 H                    -1.9448    0.05112  -2.09696 
 H                    -3.33168   0.87283  -1.35349 
 H                    -3.20709  -0.88631  -1.2998 
 H                    -2.40641  -0.33712   2.1863 
 H                    -3.34209  -1.18814   0.99106 
 H                    -3.63804   0.5332    1.27861 
 H                     2.99389  -1.68701   0.4322 
 H                     2.92346  -2.9603   -0.79491 
 H                     2.33164  -3.26706   0.84641 
 H                    -0.81986  -2.96068  -0.99467 
 H                     0.11308  -3.9347    0.16131 
 H                     0.61604  -3.80945  -1.53835 
 H                     2.96275  -0.84676  -1.02635 
 H                     3.51343   0.31748   0.18427 
 H                     2.76022   0.87381  -1.32246 
 H                     0.22747   1.45917   1.28007 
 H                     1.12045   2.20084  -0.06959 
 H                     1.94348   1.70531   1.40591 
 

 GradGradGradGradGradGradGradGradGradGradGradGradGradGradGradGradGradGrad
 Berny optimization.
 Initialization pass.
                           ----------------------------
                           !    Initial Parameters    !
                           ! (Angstroms and Degrees)  !
 --------------------------                            --------------------------
 ! Name  Definition              Value          Derivative Info.                !
 --------------------------------------------------------------------------------
 ! R1    R(1,2)                  1.3893         calculate D2E/DX2 analytically  !
 ! R2    R(1,11)                 1.4675         calculate D2E/DX2 analytically  !
 ! R3    R(1,12)                 1.4511         calculate D2E/DX2 analytically  !
 ! R4    R(2,3)                  1.2793         calculate D2E/DX2 analytically  !
 ! R5    R(2,8)                  1.3948         calculate D2E/DX2 analytically  !
 ! R6    R(3,4)                  1.4469         calculate D2E/DX2 analytically  !
 ! R7    R(4,5)                  1.5306         calculate D2E/DX2 analytically  !
 ! R8    R(4,6)                  1.5533         calculate D2E/DX2 analytically  !
 ! R9    R(4,7)                  1.5338         calculate D2E/DX2 analytically  !
 ! R10   R(5,13)                 1.0956         calculate D2E/DX2 analytically  !
 ! R11   R(5,14)                 1.0906         calculate D2E/DX2 analytically  !
 ! R12   R(5,15)                 1.0967         calculate D2E/DX2 analytically  !
 ! R13   R(6,16)                 1.0965         calculate D2E/DX2 analytically  !
 ! R14   R(6,17)                 1.0981         calculate D2E/DX2 analytically  !
 ! R15   R(6,18)                 1.0945         calculate D2E/DX2 analytically  !
 ! R16   R(7,19)                 1.0873         calculate D2E/DX2 analytically  !
 ! R17   R(7,20)                 1.0964         calculate D2E/DX2 analytically  !
 ! R18   R(7,21)                 1.0962         calculate D2E/DX2 analytically  !
 ! R19   R(8,9)                  1.4593         calculate D2E/DX2 analytically  !
 ! R20   R(8,10)                 1.4663         calculate D2E/DX2 analytically  !
 ! R21   R(9,22)                 1.0954         calculate D2E/DX2 analytically  !
 ! R22   R(9,23)                 1.0962         calculate D2E/DX2 analytically  !
 ! R23   R(9,24)                 1.094          calculate D2E/DX2 analytically  !
 ! R24   R(10,25)                1.0954         calculate D2E/DX2 analytically  !
 ! R25   R(10,26)                1.0959         calculate D2E/DX2 analytically  !
 ! R26   R(10,27)                1.0951         calculate D2E/DX2 analytically  !
 ! R27   R(11,28)                1.0961         calculate D2E/DX2 analytically  !
 ! R28   R(11,29)                1.0966         calculate D2E/DX2 analytically  !
 ! R29   R(11,30)                1.0886         calculate D2E/DX2 analytically  !
 ! R30   R(12,31)                1.0841         calculate D2E/DX2 analytically  !
 ! R31   R(12,32)                1.0932         calculate D2E/DX2 analytically  !
 ! R32   R(12,33)                1.097          calculate D2E/DX2 analytically  !
 ! A1    A(2,1,11)             122.4284         calculate D2E/DX2 analytically  !
 ! A2    A(2,1,12)             125.0246         calculate D2E/DX2 analytically  !
 ! A3    A(11,1,12)            111.2169         calculate D2E/DX2 analytically  !
 ! A4    A(1,2,3)              131.1999         calculate D2E/DX2 analytically  !
 ! A5    A(1,2,8)              113.1759         calculate D2E/DX2 analytically  !
 ! A6    A(3,2,8)              115.5233         calculate D2E/DX2 analytically  !
 ! A7    A(2,3,4)              137.595          calculate D2E/DX2 analytically  !
 ! A8    A(3,4,5)              112.8946         calculate D2E/DX2 analytically  !
 ! A9    A(3,4,6)              104.9046         calculate D2E/DX2 analytically  !
 ! A10   A(3,4,7)              111.7754         calculate D2E/DX2 analytically  !
 ! A11   A(5,4,6)              107.0553         calculate D2E/DX2 analytically  !
 ! A12   A(5,4,7)              113.5128         calculate D2E/DX2 analytically  !
 ! A13   A(6,4,7)              105.9407         calculate D2E/DX2 analytically  !
 ! A14   A(4,5,13)             111.5606         calculate D2E/DX2 analytically  !
 ! A15   A(4,5,14)             112.0783         calculate D2E/DX2 analytically  !
 ! A16   A(4,5,15)             111.903          calculate D2E/DX2 analytically  !
 ! A17   A(13,5,14)            108.54           calculate D2E/DX2 analytically  !
 ! A18   A(13,5,15)            107.2678         calculate D2E/DX2 analytically  !
 ! A19   A(14,5,15)            105.1615         calculate D2E/DX2 analytically  !
 ! A20   A(4,6,16)             111.3041         calculate D2E/DX2 analytically  !
 ! A21   A(4,6,17)             111.6479         calculate D2E/DX2 analytically  !
 ! A22   A(4,6,18)             111.3943         calculate D2E/DX2 analytically  !
 ! A23   A(16,6,17)            107.9752         calculate D2E/DX2 analytically  !
 ! A24   A(16,6,18)            107.1353         calculate D2E/DX2 analytically  !
 ! A25   A(17,6,18)            107.1568         calculate D2E/DX2 analytically  !
 ! A26   A(4,7,19)             113.6956         calculate D2E/DX2 analytically  !
 ! A27   A(4,7,20)             111.0996         calculate D2E/DX2 analytically  !
 ! A28   A(4,7,21)             110.9413         calculate D2E/DX2 analytically  !
 ! A29   A(19,7,20)            105.6724         calculate D2E/DX2 analytically  !
 ! A30   A(19,7,21)            107.4372         calculate D2E/DX2 analytically  !
 ! A31   A(20,7,21)            107.6642         calculate D2E/DX2 analytically  !
 ! A32   A(2,8,9)              123.3657         calculate D2E/DX2 analytically  !
 ! A33   A(2,8,10)             119.9077         calculate D2E/DX2 analytically  !
 ! A34   A(9,8,10)             112.6276         calculate D2E/DX2 analytically  !
 ! A35   A(8,9,22)             113.4345         calculate D2E/DX2 analytically  !
 ! A36   A(8,9,23)             109.5115         calculate D2E/DX2 analytically  !
 ! A37   A(8,9,24)             110.8051         calculate D2E/DX2 analytically  !
 ! A38   A(22,9,23)            107.7065         calculate D2E/DX2 analytically  !
 ! A39   A(22,9,24)            107.2293         calculate D2E/DX2 analytically  !
 ! A40   A(23,9,24)            107.9584         calculate D2E/DX2 analytically  !
 ! A41   A(8,10,25)            113.1011         calculate D2E/DX2 analytically  !
 ! A42   A(8,10,26)            110.7671         calculate D2E/DX2 analytically  !
 ! A43   A(8,10,27)            109.6413         calculate D2E/DX2 analytically  !
 ! A44   A(25,10,26)           108.3165         calculate D2E/DX2 analytically  !
 ! A45   A(25,10,27)           106.436          calculate D2E/DX2 analytically  !
 ! A46   A(26,10,27)           108.3895         calculate D2E/DX2 analytically  !
 ! A47   A(1,11,28)            113.8676         calculate D2E/DX2 analytically  !
 ! A48   A(1,11,29)            109.4429         calculate D2E/DX2 analytically  !
 ! A49   A(1,11,30)            110.2494         calculate D2E/DX2 analytically  !
 ! A50   A(28,11,29)           107.4367         calculate D2E/DX2 analytically  !
 ! A51   A(28,11,30)           107.1238         calculate D2E/DX2 analytically  !
 ! A52   A(29,11,30)           108.5521         calculate D2E/DX2 analytically  !
 ! A53   A(1,12,31)            113.3494         calculate D2E/DX2 analytically  !
 ! A54   A(1,12,32)            110.6546         calculate D2E/DX2 analytically  !
 ! A55   A(1,12,33)            110.1722         calculate D2E/DX2 analytically  !
 ! A56   A(31,12,32)           109.691          calculate D2E/DX2 analytically  !
 ! A57   A(31,12,33)           105.6675         calculate D2E/DX2 analytically  !
 ! A58   A(32,12,33)           107.0073         calculate D2E/DX2 analytically  !
 ! D1    D(11,1,2,3)          -149.647          calculate D2E/DX2 analytically  !
 ! D2    D(11,1,2,8)            26.4705         calculate D2E/DX2 analytically  !
 ! D3    D(12,1,2,3)            16.0113         calculate D2E/DX2 analytically  !
 ! D4    D(12,1,2,8)          -167.8713         calculate D2E/DX2 analytically  !
 ! D5    D(2,1,11,28)          -11.0495         calculate D2E/DX2 analytically  !
 ! D6    D(2,1,11,29)         -131.2932         calculate D2E/DX2 analytically  !
 ! D7    D(2,1,11,30)          109.3755         calculate D2E/DX2 analytically  !
 ! D8    D(12,1,11,28)        -178.4816         calculate D2E/DX2 analytically  !
 ! D9    D(12,1,11,29)          61.2747         calculate D2E/DX2 analytically  !
 ! D10   D(12,1,11,30)         -58.0566         calculate D2E/DX2 analytically  !
 ! D11   D(2,1,12,31)           17.7566         calculate D2E/DX2 analytically  !
 ! D12   D(2,1,12,32)         -105.9502         calculate D2E/DX2 analytically  !
 ! D13   D(2,1,12,33)          135.9181         calculate D2E/DX2 analytically  !
 ! D14   D(11,1,12,31)        -175.204          calculate D2E/DX2 analytically  !
 ! D15   D(11,1,12,32)          61.0892         calculate D2E/DX2 analytically  !
 ! D16   D(11,1,12,33)         -57.0425         calculate D2E/DX2 analytically  !
 ! D17   D(1,2,3,4)              5.6172         calculate D2E/DX2 analytically  !
 ! D18   D(8,2,3,4)           -170.4274         calculate D2E/DX2 analytically  !
 ! D19   D(1,2,8,9)             29.6471         calculate D2E/DX2 analytically  !
 ! D20   D(1,2,8,10)          -174.8167         calculate D2E/DX2 analytically  !
 ! D21   D(3,2,8,9)           -153.5894         calculate D2E/DX2 analytically  !
 ! D22   D(3,2,8,10)             1.9468         calculate D2E/DX2 analytically  !
 ! D23   D(2,3,4,5)              0.0001         calculate D2E/DX2 analytically  !
 ! D24   D(2,3,4,6)            116.2229         calculate D2E/DX2 analytically  !
 ! D25   D(2,3,4,7)           -129.4234         calculate D2E/DX2 analytically  !
 ! D26   D(3,4,5,13)            30.2624         calculate D2E/DX2 analytically  !
 ! D27   D(3,4,5,14)           -91.69           calculate D2E/DX2 analytically  !
 ! D28   D(3,4,5,15)           150.4524         calculate D2E/DX2 analytically  !
 ! D29   D(6,4,5,13)           -84.6737         calculate D2E/DX2 analytically  !
 ! D30   D(6,4,5,14)           153.3739         calculate D2E/DX2 analytically  !
 ! D31   D(6,4,5,15)            35.5163         calculate D2E/DX2 analytically  !
 ! D32   D(7,4,5,13)           158.79           calculate D2E/DX2 analytically  !
 ! D33   D(7,4,5,14)            36.8376         calculate D2E/DX2 analytically  !
 ! D34   D(7,4,5,15)           -81.02           calculate D2E/DX2 analytically  !
 ! D35   D(3,4,6,16)           -48.4767         calculate D2E/DX2 analytically  !
 ! D36   D(3,4,6,17)          -169.2173         calculate D2E/DX2 analytically  !
 ! D37   D(3,4,6,18)            71.0234         calculate D2E/DX2 analytically  !
 ! D38   D(5,4,6,16)            71.7059         calculate D2E/DX2 analytically  !
 ! D39   D(5,4,6,17)           -49.0347         calculate D2E/DX2 analytically  !
 ! D40   D(5,4,6,18)          -168.794          calculate D2E/DX2 analytically  !
 ! D41   D(7,4,6,16)          -166.853          calculate D2E/DX2 analytically  !
 ! D42   D(7,4,6,17)            72.4064         calculate D2E/DX2 analytically  !
 ! D43   D(7,4,6,18)           -47.3529         calculate D2E/DX2 analytically  !
 ! D44   D(3,4,7,19)            58.3984         calculate D2E/DX2 analytically  !
 ! D45   D(3,4,7,20)           -60.6503         calculate D2E/DX2 analytically  !
 ! D46   D(3,4,7,21)           179.6199         calculate D2E/DX2 analytically  !
 ! D47   D(5,4,7,19)           -70.7008         calculate D2E/DX2 analytically  !
 ! D48   D(5,4,7,20)           170.2505         calculate D2E/DX2 analytically  !
 ! D49   D(5,4,7,21)            50.5207         calculate D2E/DX2 analytically  !
 ! D50   D(6,4,7,19)           172.1111         calculate D2E/DX2 analytically  !
 ! D51   D(6,4,7,20)            53.0624         calculate D2E/DX2 analytically  !
 ! D52   D(6,4,7,21)           -66.6674         calculate D2E/DX2 analytically  !
 ! D53   D(2,8,9,22)           -14.5881         calculate D2E/DX2 analytically  !
 ! D54   D(2,8,9,23)          -134.9375         calculate D2E/DX2 analytically  !
 ! D55   D(2,8,9,24)           106.0784         calculate D2E/DX2 analytically  !
 ! D56   D(10,8,9,22)         -171.7016         calculate D2E/DX2 analytically  !
 ! D57   D(10,8,9,23)           67.949          calculate D2E/DX2 analytically  !
 ! D58   D(10,8,9,24)          -51.0351         calculate D2E/DX2 analytically  !
 ! D59   D(2,8,10,25)           20.7614         calculate D2E/DX2 analytically  !
 ! D60   D(2,8,10,26)         -101.0522         calculate D2E/DX2 analytically  !
 ! D61   D(2,8,10,27)          139.3718         calculate D2E/DX2 analytically  !
 ! D62   D(9,8,10,25)          178.7553         calculate D2E/DX2 analytically  !
 ! D63   D(9,8,10,26)           56.9417         calculate D2E/DX2 analytically  !
 ! D64   D(9,8,10,27)          -62.6343         calculate D2E/DX2 analytically  !
 --------------------------------------------------------------------------------
 Trust Radius=3.00D-01 FncErr=1.00D-07 GrdErr=1.00D-06 EigMax=2.50D+02 EigMin=1.00D-04
 Number of steps in this run=    164 maximum allowed number of steps=    198.
 GradGradGradGradGradGradGradGradGradGradGradGradGradGradGradGradGradGrad

                          Input orientation:                          
 ---------------------------------------------------------------------
 Center     Atomic      Atomic             Coordinates (Angstroms)
 Number     Number       Type             X           Y           Z
 ---------------------------------------------------------------------
      1          7           0        1.418700    0.128700    0.123000
      2          6           0        0.481000   -0.882800   -0.043300
      3          7           0       -0.797700   -0.860400   -0.009300
      4          6           0       -1.846300    0.130300    0.102300
      5          6           0       -1.306930    1.558510    0.211740
      6          6           0       -2.626190    0.039300   -1.237930
      7          6           0       -2.854050   -0.229130    1.201350
      8          7           0        1.052000   -2.111800   -0.373600
      9          6           0        2.387740   -2.516550    0.052350
     10          6           0        0.191700   -3.254950   -0.694740
     11          6           0        2.723770    0.109950   -0.547760
     12          6           0        1.145960    1.429730    0.704880
     13          1           0       -0.354520    1.670910   -0.318050
     14          1           0       -1.165120    1.864800    1.248800
     15          1           0       -2.003400    2.292380   -0.211400
     16          1           0       -1.944800    0.051120   -2.096960
     17          1           0       -3.331680    0.872830   -1.353490
     18          1           0       -3.207090   -0.886310   -1.299800
     19          1           0       -2.406410   -0.337120    2.186300
     20          1           0       -3.342090   -1.188140    0.991060
     21          1           0       -3.638040    0.533200    1.278610
     22          1           0        2.993890   -1.687010    0.432200
     23          1           0        2.923460   -2.960300   -0.794910
     24          1           0        2.331640   -3.267060    0.846410
     25          1           0       -0.819860   -2.960680   -0.994670
     26          1           0        0.113080   -3.934700    0.161310
     27          1           0        0.616040   -3.809450   -1.538350
     28          1           0        2.962750   -0.846760   -1.026350
     29          1           0        3.513430    0.317480    0.184270
     30          1           0        2.760220    0.873810   -1.322460
     31          1           0        0.227470    1.459170    1.280070
     32          1           0        1.120450    2.200840   -0.069590
     33          1           0        1.943480    1.705310    1.405910
 ---------------------------------------------------------------------
                    Distance matrix (angstroms):
                    1          2          3          4          5
     1  N    0.000000
     2  C    1.389269   0.000000
     3  N    2.430689   1.279348   0.000000
     4  C    3.265066   2.542419   1.446894   0.000000
     5  C    3.079170   3.036731   2.481794   1.530582   0.000000
     6  C    4.268637   3.454278   2.379573   1.553295   2.479917
     7  C    4.421230   3.619254   2.468350   1.533839   2.562921
     8  N    2.323988   1.394841   2.262765   3.695083   4.402085
     9  C    2.818045   2.512757   3.590775   4.993536   5.502918
    10  C    3.690978   2.476926   2.680039   4.030959   5.122206
    11  C    1.467473   2.504007   3.692190   4.616117   4.349909
    12  C    1.451086   2.519869   3.087485   3.317415   2.505283
    13  H    2.391076   2.700929   2.588294   2.185310   1.095626
    14  H    3.310226   3.453772   3.023992   2.187912   1.090604
    15  H    4.062524   4.035129   3.381505   2.190360   1.096669
    16  H    4.030803   3.312738   2.550496   2.202888   2.830053
    17  H    5.029897   4.397199   3.351416   2.208400   2.649474
    18  H    4.944951   3.896256   2.733354   2.202528   3.445650
    19  H    4.371002   3.688634   2.771720   2.207999   2.949772
    20  H    5.015248   3.972298   2.753553   2.183018   3.506181
    21  H    5.202853   4.551812   3.415899   2.180909   2.761077
    22  H    2.423558   2.680946   3.905683   5.180626   5.392500
    23  H    3.556513   3.293408   4.344398   5.753903   6.271299
    24  H    3.589982   3.146609   4.039433   5.436077   6.076851
    25  H    3.975501   2.629625   2.320048   3.436725   4.702738
    26  H    4.268177   3.080799   3.210911   4.512968   5.674005
    27  H    4.348951   3.289178   3.610201   4.927117   5.964530
    28  H    2.157920   2.669601   3.895582   5.035420   5.054538
    29  H    2.104112   3.269265   4.473333   5.363624   4.977628
    30  H    2.108132   3.149091   4.170212   4.878809   4.400488
    31  H    2.127907   2.701927   2.844970   2.730121   1.872320
    32  H    2.102334   3.149353   3.613049   3.621918   2.526640
    33  H    2.099274   3.307170   4.012450   4.306099   3.465942
                    6          7          8          9         10
     6  C    0.000000
     7  C    2.464561   0.000000
     8  N    4.347802   4.613257   0.000000
     9  C    5.773793   5.833426   1.459266   0.000000
    10  C    4.368941   4.693329   1.466301   2.434331   0.000000
    11  C    5.394757   5.855462   2.785915   2.715060   4.213732
    12  C    4.465078   4.358713   3.703293   4.188190   4.981543
    13  H    2.944285   3.488034   4.036122   5.019164   4.970347
    14  H    3.413356   2.690591   4.833337   5.766328   5.641821
    15  H    2.553038   3.012886   5.362703   6.517475   5.985395
    16  H    1.096524   3.432801   4.077867   5.475707   4.178630
    17  H    1.098109   2.823058   5.393037   6.795296   5.466875
    18  H    1.094544   2.610033   4.527640   5.982317   4.186684
    19  H    3.451861   1.087276   4.654372   5.682212   4.854307
    20  H    2.643391   1.096406   4.692917   5.956241   4.427335
    21  H    2.756946   1.096247   5.632255   6.864016   5.736820
    22  H    6.111856   6.075805   2.144924   1.095372   3.403043
    23  H    6.323961   6.695070   2.097574   1.096248   2.749430
    24  H    6.313206   6.020497   2.111996   1.094049   2.637164
    25  H    3.510254   4.052382   2.147134   3.403263   1.095357
    26  H    5.025351   4.859711   2.119119   2.682741   1.095930
    27  H    5.041347   5.689128   2.104452   2.709398   1.095086
    28  H    5.662695   6.259335   2.382724   2.069403   3.686199
    29  H    6.308326   6.471324   3.503036   3.052263   4.956693
    30  H    5.451327   6.253489   3.568223   3.677416   4.902855
    31  H    4.061986   3.514587   4.020734   4.688327   5.111172
    32  H    4.480467   4.828736   4.323884   4.886170   5.569473
    33  H    5.536006   5.176891   4.304849   4.455737   5.664419
                   11         12         13         14         15
    11  C    0.000000
    12  C    2.408404   0.000000
    13  H    3.459080   1.831937   0.000000
    14  H    4.629319   2.413758   1.774735   0.000000
    15  H    5.217497   3.391490   1.765334   1.737159   0.000000
    16  H    4.919251   4.393594   2.883961   3.884771   2.929508
    17  H    6.156270   4.959464   3.251546   3.528442   2.254733
    18  H    6.060792   5.322765   3.954790   4.270083   3.568971
    19  H    5.830412   4.235056   3.809751   2.695952   3.581292
    20  H    6.391218   5.203627   4.337454   3.758467   3.918165
    21  H    6.632299   4.900978   3.824292   2.808804   2.826109
    22  H    2.064546   3.633630   4.801078   5.529878   6.420489
    23  H    3.086648   4.968022   5.693914   6.646415   7.225308
    24  H    3.674462   4.846205   5.740642   6.222960   7.128738
    25  H    4.710182   5.101825   4.703826   5.332693   5.441408
    26  H    4.865971   5.489938   5.645467   6.037436   6.587482
    27  H    4.559111   5.723801   5.697847   6.567941   6.771602
    28  H    1.096109   3.388258   4.224291   5.437663   5.931356
    29  H    1.096585   2.667030   4.128575   5.041454   5.873006
    30  H    1.088564   2.650470   3.368355   4.796012   5.093022
    31  H    3.375333   1.084128   1.713923   1.450800   2.809894
    32  H    2.677891   1.093190   1.586851   2.659869   3.128407
    33  H    2.640237   1.097008   2.872982   3.116651   4.305602
                   16         17         18         19         20
    16  H    0.000000
    17  H    1.775216   0.000000
    18  H    1.762843   1.764364   0.000000
    19  H    4.325521   3.853598   3.618783   0.000000
    20  H    3.608885   3.121637   2.314598   1.740210   0.000000
    21  H    3.807090   2.671546   2.974714   1.760190   1.770108
    22  H    5.814500   7.053673   6.487919   5.836292   6.380113
    23  H    5.870600   7.357423   6.491532   6.646518   6.751841
    24  H    6.161305   7.351969   6.399353   5.729657   6.044340
    25  H    3.398746   4.597150   3.177260   4.418006   3.666970
    26  H    5.022093   6.105189   4.738254   4.836424   4.491133
    27  H    4.666256   6.127186   4.818504   5.921596   5.379217
    28  H    5.102592   6.533289   6.176023   6.277637   6.628536
    29  H    5.921759   7.037659   6.986914   6.283401   7.065123
    30  H    4.838789   6.091979   6.221521   6.361746   6.844136
    31  H    4.255079   4.466204   4.894201   3.314398   4.453486
    32  H    4.257615   4.820111   5.456328   4.895817   5.703019
    33  H    5.488640   6.011208   6.369123   4.868477   6.039984
                   21         22         23         24         25
    21  H    0.000000
    22  H    7.044731   0.000000
    23  H    7.717338   1.769753   0.000000
    24  H    7.089841   1.762584   1.771520   0.000000
    25  H    5.031614   4.266484   3.748646   3.662703   0.000000
    26  H    5.939814   3.663954   3.124428   2.416012   1.776339
    27  H    6.700080   3.747264   2.568647   2.987399   1.754368
    28  H    7.126539   1.683555   2.126537   3.124641   4.333336
    29  H    7.237931   2.085515   3.471412   3.831969   5.560003
    30  H    6.915151   3.113074   3.873675   4.694090   5.256209
    31  H    3.974870   4.274390   5.577241   5.191613   5.080002
    32  H    5.219377   4.344761   5.514916   5.674854   5.591231
    33  H    5.704683   3.682296   5.250894   5.018782   5.930455
                   26         27         28         29         30
    26  H    0.000000
    27  H    1.776936   0.000000
    28  H    4.366524   3.814017   0.000000
    29  H    5.444625   5.328587   1.767570   0.000000
    30  H    5.686008   5.155292   1.757572   1.773997   0.000000
    31  H    5.509859   5.987724   4.256600   3.647159   3.678401
    32  H    6.221974   6.207678   3.687455   3.055788   2.453475
    33  H    6.058804   6.390880   3.669858   2.425535   2.966894
                   31         32         33
    31  H    0.000000
    32  H    1.780188   0.000000
    33  H    1.738134   1.760690   0.000000
 Stoichiometry    C9H21N3
 Framework group  C1[X(C9H21N3)]
 Deg. of freedom    93
 Full point group                 C1      NOp   1
 Largest Abelian subgroup         C1      NOp   1
 Largest concise Abelian subgroup C1      NOp   1
                         Standard orientation:                         
 ---------------------------------------------------------------------
 Center     Atomic      Atomic             Coordinates (Angstroms)
 Number     Number       Type             X           Y           Z
 ---------------------------------------------------------------------
      1          7           0       -0.991552    1.203633   -0.054165
      2          6           0       -0.580953   -0.123503   -0.067884
      3          7           0        0.587483   -0.643875   -0.094386
      4          6           0        1.960204   -0.191715   -0.025898
      5          6           0        2.080276    1.327285    0.118682
      6          6           0        2.522985   -0.819421    1.278705
      7          6           0        2.806280   -0.766396   -1.168945
      8          7           0       -1.638782   -1.026520    0.037663
      9          6           0       -2.983448   -0.748767   -0.456486
     10          6           0       -1.365478   -2.462519    0.152773
     11          6           0       -2.231869    1.636904    0.599568
     12          6           0       -0.153645    2.338205   -0.395204
     13          1           0        1.224894    1.749283    0.657789
     14          1           0        2.161286    1.825933   -0.847860
     15          1           0        2.985149    1.615785    0.667002
     16          1           0        1.844865   -0.655158    2.124599
     17          1           0        3.501779   -0.396978    1.542044
     18          1           0        2.655084   -1.901159    1.176631
     19          1           0        2.432809   -0.514314   -2.158463
     20          1           0        2.828832   -1.861916   -1.131104
     21          1           0        3.841196   -0.410069   -1.107820
     22          1           0       -3.153944    0.308968   -0.684454
     23          1           0       -3.720090   -1.050328    0.297290
     24          1           0       -3.185847   -1.314083   -1.371033
     25          1           0       -0.350536   -2.680152    0.502536
     26          1           0       -1.512992   -2.964567   -0.810165
     27          1           0       -2.047585   -2.909620    0.883556
     28          1           0       -2.886715    0.810906    0.900161
     29          1           0       -2.801928    2.275464   -0.085832
     30          1           0       -2.004590    2.208807    1.497479
     31          1           0        0.734116    2.064189   -0.953889
     32          1           0        0.132727    2.890154    0.503912
     33          1           0       -0.704668    3.035749   -1.038035
 ---------------------------------------------------------------------
 Rotational constants (GHZ):           1.2489647           0.7021532           0.5155655
 Standard basis: 6-31G(d) (6D, 7F)
 There are   222 symmetry adapted cartesian basis functions of A   symmetry.
 There are   222 symmetry adapted basis functions of A   symmetry.
   222 basis functions,   420 primitive gaussians,   222 cartesian basis functions
    48 alpha electrons       48 beta electrons
       nuclear repulsion energy       809.9095614973 Hartrees.
 NAtoms=   33 NActive=   33 NUniq=   33 SFac= 1.00D+00 NAtFMM=   60 NAOKFM=F Big=F
 Integral buffers will be    131072 words long.
 Raffenetti 2 integral format.
 Two-electron integral symmetry is turned on.
 One-electron integrals computed using PRISM.
 NBasis=   222 RedAO= T EigKep=  1.57D-03  NBF=   222
 NBsUse=   222 1.00D-06 EigRej= -1.00D+00 NBFU=   222
 ExpMin= 1.61D-01 ExpMax= 4.17D+03 ExpMxC= 6.27D+02 IAcc=3 IRadAn=         5 AccDes= 0.00D+00
 Harris functional with IExCor=  402 and IRadAn=       5 diagonalized for initial guess.
 HarFok:  IExCor=  402 AccDes= 0.00D+00 IRadAn=         5 IDoV= 1 UseB2=F ITyADJ=14
 ICtDFT=  3500011 ScaDFX=  1.000000  1.000000  1.000000  1.000000
 FoFCou: FMM=F IPFlag=           0 FMFlag=      100000 FMFlg1=           0
         NFxFlg=           0 DoJE=T BraDBF=F KetDBF=T FulRan=T
         wScrn=  0.000000 ICntrl=       500 IOpCl=  0 I1Cent=   200000004 NGrid=           0
         NMat0=    1 NMatS0=      1 NMatT0=    0 NMatD0=    1 NMtDS0=    0 NMtDT0=    0
 Petite list used in FoFCou.
 Gradient too large for Newton-Raphson -- use scaled steepest descent instead.
     Minimum is close to point  3 DX=  7.83D-03 DF= -1.46D-04 DXR=  1.92D-02 DFR=  3.71D-04 which will be used.
 Gradient too large for Newton-Raphson -- use scaled steepest descent instead.
 Gradient too large for Newton-Raphson -- use scaled steepest descent instead.
 Gradient too large for Newton-Raphson -- use scaled steepest descent instead.
 Gradient too large for Newton-Raphson -- use scaled steepest descent instead.
     Accept linear search using points  1 and  2.
 Gradient too large for Newton-Raphson -- use scaled steepest descent instead.
 LinEq1:  Iter=  0 NonCon=     1 RMS=4.82D-05 Max=3.36D-03 NDo=     1
 AX will form     1 AO Fock derivatives at one time.
 LinEq1:  Iter=  1 NonCon=     1 RMS=3.79D-05 Max=2.00D-03 NDo=     1
 LinEq1:  Iter=  2 NonCon=     1 RMS=6.60D-06 Max=1.52D-04 NDo=     1
 LinEq1:  Iter=  3 NonCon=     1 RMS=3.17D-06 Max=8.17D-05 NDo=     1
 LinEq1:  Iter=  4 NonCon=     1 RMS=1.62D-06 Max=3.01D-05 NDo=     1
 LinEq1:  Iter=  5 NonCon=     1 RMS=7.91D-07 Max=2.37D-05 NDo=     1
 LinEq1:  Iter=  6 NonCon=     1 RMS=2.66D-07 Max=3.67D-06 NDo=     1
 LinEq1:  Iter=  7 NonCon=     1 RMS=1.43D-07 Max=3.08D-06 NDo=     1
 LinEq1:  Iter=  8 NonCon=     1 RMS=5.67D-08 Max=1.16D-06 NDo=     1
 LinEq1:  Iter=  9 NonCon=     1 RMS=2.01D-08 Max=3.94D-07 NDo=     1
 LinEq1:  Iter= 10 NonCon=     0 RMS=9.09D-09 Max=1.25D-07 NDo=     1
 Linear equations converged to 1.292D-08 1.292D-07 after    10 iterations.
     Accept linear search using points  1 and  2.
     Minimum is close to point  2 DX= -9.80D-04 DF= -7.16D-12 DXR=  9.80D-04 DFR=  9.67D-07 which will be used.
 LinEq1:  Iter=  0 NonCon=     1 RMS=7.05D-08 Max=4.39D-06 NDo=     1
 LinEq1:  Iter=  1 NonCon=     1 RMS=6.23D-08 Max=3.61D-06 NDo=     1
 LinEq1:  Iter=  2 NonCon=     1 RMS=2.04D-08 Max=5.46D-07 NDo=     1
 LinEq1:  Iter=  3 NonCon=     1 RMS=1.10D-08 Max=2.21D-07 NDo=     1
 LinEq1:  Iter=  4 NonCon=     1 RMS=4.76D-09 Max=7.81D-08 NDo=     1
 LinEq1:  Iter=  5 NonCon=     1 RMS=2.52D-09 Max=7.29D-08 NDo=     1
 LinEq1:  Iter=  6 NonCon=     1 RMS=1.04D-09 Max=2.05D-08 NDo=     1
 LinEq1:  Iter=  7 NonCon=     1 RMS=5.88D-10 Max=6.73D-09 NDo=     1
 LinEq1:  Iter=  8 NonCon=     1 RMS=2.44D-10 Max=3.20D-09 NDo=     1
 LinEq1:  Iter=  9 NonCon=     1 RMS=9.02D-11 Max=1.22D-09 NDo=     1
 LinEq1:  Iter= 10 NonCon=     1 RMS=3.45D-11 Max=4.36D-10 NDo=     1
 LinEq1:  Iter= 11 NonCon=     0 RMS=1.49D-11 Max=2.12D-10 NDo=     1
 Linear equations converged to 3.578D-11 3.578D-10 after    11 iterations.
 Restarting incremental Fock formation.
 SCF Done:  E(RB3LYP) =  -519.744619597     a.u. after    9 cycles
            Convg  =    0.9067D-10                    42 Fock formations.
              S**2 =  0.0000                  -V/T =  2.0090
 DoSCS=F DFT=T ScalE2(SS,OS)=  1.000000  1.000000
 Range of M.O.s used for correlation:     1   222
 NBasis=   222 NAE=    48 NBE=    48 NFC=     0 NFV=     0
 NROrb=    222 NOA=    48 NOB=    48 NVA=   174 NVB=   174
 Symmetrizing basis deriv contribution to polar:
 IMax=3 JMax=2 DiffMx= 0.00D+00
 G2DrvN: will do    34 centers at a time, making    1 passes.
 Calling FoFCou, ICntrl=  3107 FMM=F I1Cent=   0 AccDes= 0.00D+00.
 End of G2Drv F.D. properties file   721 does not exist.
 End of G2Drv F.D. properties file   722 does not exist.
 End of G2Drv F.D. properties file   788 does not exist.
          IDoAtm=111111111111111111111111111111111
          Differentiating once with respect to electric field.
                with respect to dipole field.
          Differentiating once with respect to nuclear coordinates.
 Keep R1 ints in memory in canonical form, NReq=311927564.
          There are   102 degrees of freedom in the 1st order CPHF.  IDoFFX=6 NUNeed=     3.
     99 vectors produced by pass  0 Test12= 8.35D-15 1.00D-09 XBig12= 1.09D+02 5.59D+00.
 AX will form    99 AO Fock derivatives at one time.
     99 vectors produced by pass  1 Test12= 8.35D-15 1.00D-09 XBig12= 1.41D+01 8.98D-01.
     99 vectors produced by pass  2 Test12= 8.35D-15 1.00D-09 XBig12= 6.94D-02 2.99D-02.
     99 vectors produced by pass  3 Test12= 8.35D-15 1.00D-09 XBig12= 1.54D-04 1.54D-03.
     99 vectors produced by pass  4 Test12= 8.35D-15 1.00D-09 XBig12= 1.44D-07 3.82D-05.
     41 vectors produced by pass  5 Test12= 8.35D-15 1.00D-09 XBig12= 1.02D-10 9.78D-07.
      5 vectors produced by pass  6 Test12= 8.35D-15 1.00D-09 XBig12= 7.78D-14 2.80D-08.
 InvSVY:  IOpt=1 It=  1 EMax= 1.60D-14
 Solved reduced A of dimension   541 with   102 vectors.
 Isotropic polarizability for W=    0.000000      121.61 Bohr**3.
 End of Minotr F.D. properties file   721 does not exist.
 End of Minotr F.D. properties file   722 does not exist.
 End of Minotr F.D. properties file   788 does not exist.

 **********************************************************************

            Population analysis using the SCF density.

 **********************************************************************

 Orbital symmetries:
       Occupied  (A) (A) (A) (A) (A) (A) (A) (A) (A) (A) (A) (A)
                 (A) (A) (A) (A) (A) (A) (A) (A) (A) (A) (A) (A)
                 (A) (A) (A) (A) (A) (A) (A) (A) (A) (A) (A) (A)
                 (A) (A) (A) (A) (A) (A) (A) (A) (A) (A) (A) (A)
       Virtual   (A) (A) (A) (A) (A) (A) (A) (A) (A) (A) (A) (A)
                 (A) (A) (A) (A) (A) (A) (A) (A) (A) (A) (A) (A)
                 (A) (A) (A) (A) (A) (A) (A) (A) (A) (A) (A) (A)
                 (A) (A) (A) (A) (A) (A) (A) (A) (A) (A) (A) (A)
                 (A) (A) (A) (A) (A) (A) (A) (A) (A) (A) (A) (A)
                 (A) (A) (A) (A) (A) (A) (A) (A) (A) (A) (A) (A)
                 (A) (A) (A) (A) (A) (A) (A) (A) (A) (A) (A) (A)
                 (A) (A) (A) (A) (A) (A) (A) (A) (A) (A) (A) (A)
                 (A) (A) (A) (A) (A) (A) (A) (A) (A) (A) (A) (A)
                 (A) (A) (A) (A) (A) (A) (A) (A) (A) (A) (A) (A)
                 (A) (A) (A) (A) (A) (A) (A) (A) (A) (A) (A) (A)
                 (A) (A) (A) (A) (A) (A) (A) (A) (A) (A) (A) (A)
                 (A) (A) (A) (A) (A) (A) (A) (A) (A) (A) (A) (A)
                 (A) (A) (A) (A) (A) (A) (A) (A) (A) (A) (A) (A)
                 (A) (A) (A) (A) (A) (A)
 The electronic state is 1-A.
 Alpha  occ. eigenvalues --  -14.34564 -14.33226 -14.25985 -10.26795 -10.21135
 Alpha  occ. eigenvalues --  -10.20936 -10.20537 -10.19935 -10.19126 -10.15688
 Alpha  occ. eigenvalues --  -10.15304 -10.15246  -0.97112  -0.89828  -0.86245
 Alpha  occ. eigenvalues --   -0.77632  -0.73339  -0.69859  -0.69288  -0.67362
 Alpha  occ. eigenvalues --   -0.66424  -0.63775  -0.57659  -0.53071  -0.50516
 Alpha  occ. eigenvalues --   -0.48028  -0.47071  -0.45798  -0.44463  -0.43949
 Alpha  occ. eigenvalues --   -0.42114  -0.41999  -0.41555  -0.40536  -0.39521
 Alpha  occ. eigenvalues --   -0.38696  -0.37410  -0.36697  -0.35609  -0.35161
 Alpha  occ. eigenvalues --   -0.35026  -0.33675  -0.33616  -0.30892  -0.29427
 Alpha  occ. eigenvalues --   -0.21497  -0.20266  -0.18423
 Alpha virt. eigenvalues --    0.06819   0.08349   0.10345   0.10703   0.11959
 Alpha virt. eigenvalues --    0.13407   0.13825   0.14671   0.15068   0.16184
 Alpha virt. eigenvalues --    0.16447   0.16640   0.17465   0.17882   0.18179
 Alpha virt. eigenvalues --    0.18471   0.18738   0.19001   0.19922   0.21040
 Alpha virt. eigenvalues --    0.21555   0.22171   0.23192   0.23968   0.24084
 Alpha virt. eigenvalues --    0.24866   0.27682   0.28938   0.29050   0.32107
 Alpha virt. eigenvalues --    0.36615   0.38509   0.45361   0.48806   0.50447
 Alpha virt. eigenvalues --    0.50749   0.52456   0.52679   0.53672   0.54534
 Alpha virt. eigenvalues --    0.57035   0.58231   0.59488   0.61285   0.61793
 Alpha virt. eigenvalues --    0.62710   0.65088   0.67233   0.69097   0.70703
 Alpha virt. eigenvalues --    0.71860   0.72518   0.75507   0.77148   0.77661
 Alpha virt. eigenvalues --    0.77987   0.79048   0.80028   0.81729   0.83044
 Alpha virt. eigenvalues --    0.83662   0.84230   0.86481   0.87410   0.88011
 Alpha virt. eigenvalues --    0.88325   0.89131   0.90418   0.90837   0.91481
 Alpha virt. eigenvalues --    0.92368   0.92758   0.93917   0.95100   0.95818
 Alpha virt. eigenvalues --    0.96663   0.97418   0.97713   0.99035   0.99752
 Alpha virt. eigenvalues --    1.00166   1.01034   1.02208   1.03536   1.04635
 Alpha virt. eigenvalues --    1.06710   1.08185   1.11688   1.13105   1.15899
 Alpha virt. eigenvalues --    1.20283   1.28326   1.31355   1.33966   1.36435
 Alpha virt. eigenvalues --    1.40248   1.41624   1.43103   1.47303   1.48520
 Alpha virt. eigenvalues --    1.50315   1.52876   1.55285   1.59671   1.63845
 Alpha virt. eigenvalues --    1.67934   1.71110   1.74898   1.76357   1.81523
 Alpha virt. eigenvalues --    1.82255   1.83386   1.86780   1.87687   1.90524
 Alpha virt. eigenvalues --    1.91160   1.92489   1.93482   1.94522   1.97745
 Alpha virt. eigenvalues --    1.99089   2.00741   2.02219   2.05644   2.06869
 Alpha virt. eigenvalues --    2.07890   2.08395   2.10649   2.10951   2.14463
 Alpha virt. eigenvalues --    2.15882   2.19652   2.21659   2.22141   2.23100
 Alpha virt. eigenvalues --    2.24851   2.27308   2.29173   2.29257   2.29975
 Alpha virt. eigenvalues --    2.31746   2.36491   2.38147   2.39987   2.43055
 Alpha virt. eigenvalues --    2.44703   2.46583   2.48298   2.52756   2.57344
 Alpha virt. eigenvalues --    2.58113   2.62707   2.66077   2.67465   2.71796
 Alpha virt. eigenvalues --    2.75029   2.76845   2.82400   2.86951   3.01616
 Alpha virt. eigenvalues --    3.25292   3.32841   4.01554   4.07484   4.15526
 Alpha virt. eigenvalues --    4.24613   4.28381   4.31093   4.32139   4.33424
 Alpha virt. eigenvalues --    4.37668   4.39169   4.54876   4.77962
          Condensed to atoms (all electrons):
               1          2          3          4          5          6
     1  N    7.021243   0.278325  -0.093971  -0.011885   0.001774   0.000431
     2  C    0.278325   4.326758   0.603242  -0.054123  -0.004035   0.002471
     3  N   -0.093971   0.603242   6.993877   0.309899  -0.059533  -0.085760
     4  C   -0.011885  -0.054123   0.309899   4.653274   0.319662   0.373213
     5  C    0.001774  -0.004035  -0.059533   0.319662   5.383217  -0.066162
     6  C    0.000431   0.002471  -0.085760   0.373213  -0.066162   5.222286
     7  C    0.000028  -0.000140  -0.069491   0.389342  -0.066851  -0.073702
     8  N   -0.113579   0.291671  -0.104742   0.008172  -0.000495  -0.000194
     9  C   -0.001213  -0.028742   0.004112  -0.000183   0.000009  -0.000004
    10  C    0.005162  -0.032101  -0.016985   0.000158   0.000012   0.000039
    11  C    0.290499  -0.022027   0.003506   0.000042  -0.000006   0.000029
    12  C    0.321180  -0.036615  -0.004424  -0.000232  -0.072428  -0.000174
    13  H   -0.000609   0.002566  -0.008029  -0.029036   0.399158  -0.003484
    14  H    0.001127   0.000597   0.001134  -0.035585   0.376752   0.005950
    15  H   -0.000053   0.000155   0.004382  -0.013609   0.330307  -0.011020
    16  H   -0.000071   0.002017  -0.001355  -0.025312  -0.003095   0.360739
    17  H   -0.000003  -0.000135   0.005865  -0.025824  -0.005479   0.343449
    18  H    0.000006  -0.000107   0.001273  -0.026475   0.006342   0.363021
    19  H   -0.000039   0.001255  -0.000252  -0.022335  -0.004379   0.006634
    20  H    0.000013  -0.000003   0.002270  -0.024512   0.006058  -0.010275
    21  H    0.000005  -0.000053   0.004753  -0.028429  -0.000487  -0.001750
    22  H   -0.000619  -0.004339  -0.000165  -0.000006  -0.000000  -0.000000
    23  H    0.000441   0.002634  -0.000031   0.000006  -0.000000  -0.000000
    24  H    0.000179   0.000215   0.000059  -0.000001  -0.000000   0.000001
    25  H    0.000494  -0.003399   0.024437  -0.001460   0.000125   0.000059
    26  H   -0.000042   0.000085   0.001586  -0.000082   0.000000   0.000020
    27  H    0.000044   0.004133   0.001625  -0.000003   0.000002  -0.000008
    28  H   -0.029663  -0.003616  -0.000119   0.000022  -0.000005   0.000001
    29  H   -0.050215   0.000068  -0.000180  -0.000010   0.000012   0.000000
    30  H   -0.046323   0.001007   0.000195  -0.000004   0.000025  -0.000007
    31  H   -0.028892  -0.001835   0.004979  -0.003085  -0.020032   0.000529
    32  H   -0.059238   0.000642   0.001433   0.001123  -0.018741  -0.000057
    33  H   -0.042094   0.002375  -0.000225  -0.000108   0.004836   0.000004
               7          8          9         10         11         12
     1  N    0.000028  -0.113579  -0.001213   0.005162   0.290499   0.321180
     2  C   -0.000140   0.291671  -0.028742  -0.032101  -0.022027  -0.036615
     3  N   -0.069491  -0.104742   0.004112  -0.016985   0.003506  -0.004424
     4  C    0.389342   0.008172  -0.000183   0.000158   0.000042  -0.000232
     5  C   -0.066851  -0.000495   0.000009   0.000012  -0.000006  -0.072428
     6  C   -0.073702  -0.000194  -0.000004   0.000039   0.000029  -0.000174
     7  C    5.185638  -0.000040   0.000009  -0.000071  -0.000003  -0.000022
     8  N   -0.000040   7.001286   0.290389   0.316425  -0.003325   0.004025
     9  C    0.000009   0.290389   5.039139  -0.054519  -0.021712   0.000027
    10  C   -0.000071   0.316425  -0.054519   4.961180   0.000023  -0.000111
    11  C   -0.000003  -0.003325  -0.021712   0.000023   5.048284  -0.060829
    12  C   -0.000022   0.004025   0.000027  -0.000111  -0.060829   5.100727
    13  H    0.005852  -0.000330   0.000015  -0.000005  -0.000953  -0.022994
    14  H   -0.004980   0.000002  -0.000001  -0.000000  -0.000049  -0.038238
    15  H    0.000786   0.000009  -0.000000  -0.000000   0.000014   0.004701
    16  H    0.006029  -0.000151   0.000003  -0.000009  -0.000003  -0.000081
    17  H   -0.000623  -0.000002   0.000000  -0.000001  -0.000001   0.000008
    18  H   -0.009148  -0.000007   0.000000  -0.000175  -0.000000   0.000012
    19  H    0.355962  -0.000037  -0.000001   0.000012   0.000001  -0.000072
    20  H    0.365280  -0.000028   0.000000  -0.000033  -0.000000  -0.000004
    21  H    0.351198  -0.000001  -0.000000   0.000001   0.000000   0.000018
    22  H    0.000000  -0.031062   0.389117   0.004908  -0.010201  -0.000297
    23  H    0.000000  -0.053817   0.377498  -0.000939  -0.003737  -0.000028
    24  H   -0.000001  -0.044611   0.363321  -0.004339   0.001676   0.000050
    25  H    0.000016  -0.027535   0.004608   0.368551  -0.000027  -0.000004
    26  H   -0.000014  -0.050787  -0.004014   0.375996  -0.000002   0.000008
    27  H    0.000000  -0.050917  -0.000365   0.368319  -0.000025   0.000001
    28  H   -0.000000   0.000100  -0.010862  -0.000258   0.389487   0.004753
    29  H   -0.000000   0.001150  -0.004561  -0.000009   0.370748  -0.000467
    30  H    0.000000  -0.000207   0.002010   0.000031   0.366609  -0.004367
    31  H   -0.001249   0.000062  -0.000014  -0.000000   0.005315   0.401432
    32  H   -0.000009  -0.000125   0.000008   0.000004  -0.001293   0.389860
    33  H    0.000003  -0.000048   0.000002   0.000002  -0.004904   0.350510
              13         14         15         16         17         18
     1  N   -0.000609   0.001127  -0.000053  -0.000071  -0.000003   0.000006
     2  C    0.002566   0.000597   0.000155   0.002017  -0.000135  -0.000107
     3  N   -0.008029   0.001134   0.004382  -0.001355   0.005865   0.001273
     4  C   -0.029036  -0.035585  -0.013609  -0.025312  -0.025824  -0.026475
     5  C    0.399158   0.376752   0.330307  -0.003095  -0.005479   0.006342
     6  C   -0.003484   0.005950  -0.011020   0.360739   0.343449   0.363021
     7  C    0.005852  -0.004980   0.000786   0.006029  -0.000623  -0.009148
     8  N   -0.000330   0.000002   0.000009  -0.000151  -0.000002  -0.000007
     9  C    0.000015  -0.000001  -0.000000   0.000003   0.000000   0.000000
    10  C   -0.000005  -0.000000  -0.000000  -0.000009  -0.000001  -0.000175
    11  C   -0.000953  -0.000049   0.000014  -0.000003  -0.000001  -0.000000
    12  C   -0.022994  -0.038238   0.004701  -0.000081   0.000008   0.000012
    13  H    0.598823  -0.039191  -0.030884   0.002169   0.000443  -0.000144
    14  H   -0.039191   0.605173  -0.033444  -0.000116   0.000031  -0.000239
    15  H   -0.030884  -0.033444   0.620066   0.000606   0.003426   0.000307
    16  H    0.002169  -0.000116   0.000606   0.579686  -0.028942  -0.029471
    17  H    0.000443   0.000031   0.003426  -0.028942   0.612890  -0.031147
    18  H   -0.000144  -0.000239   0.000307  -0.029471  -0.031147   0.580666
    19  H   -0.000170   0.003281  -0.000126  -0.000229  -0.000199   0.000082
    20  H   -0.000172  -0.000024  -0.000178   0.000099   0.000279   0.006384
    21  H   -0.000010   0.000252   0.000814  -0.000082   0.001391   0.000173
    22  H    0.000001  -0.000000  -0.000000   0.000000   0.000000   0.000000
    23  H    0.000000  -0.000000   0.000000   0.000000   0.000000  -0.000000
    24  H   -0.000001   0.000000  -0.000000  -0.000000  -0.000000  -0.000000
    25  H    0.000005  -0.000002  -0.000002   0.000186   0.000012   0.000950
    26  H   -0.000001  -0.000000  -0.000000  -0.000001  -0.000000  -0.000001
    27  H    0.000001  -0.000000  -0.000000  -0.000001   0.000000   0.000004
    28  H    0.000031   0.000002  -0.000000  -0.000001  -0.000000  -0.000000
    29  H    0.000034   0.000000  -0.000000  -0.000000  -0.000000   0.000000
    30  H   -0.000107  -0.000005  -0.000004   0.000006   0.000000   0.000000
    31  H   -0.041230   0.004055   0.003158  -0.000031  -0.000029  -0.000001
    32  H   -0.013014   0.001211   0.000591  -0.000004   0.000008   0.000001
    33  H    0.005574   0.001050  -0.000235  -0.000000  -0.000000  -0.000000
              19         20         21         22         23         24
     1  N   -0.000039   0.000013   0.000005  -0.000619   0.000441   0.000179
     2  C    0.001255  -0.000003  -0.000053  -0.004339   0.002634   0.000215
     3  N   -0.000252   0.002270   0.004753  -0.000165  -0.000031   0.000059
     4  C   -0.022335  -0.024512  -0.028429  -0.000006   0.000006  -0.000001
     5  C   -0.004379   0.006058  -0.000487  -0.000000  -0.000000  -0.000000
     6  C    0.006634  -0.010275  -0.001750  -0.000000  -0.000000   0.000001
     7  C    0.355962   0.365280   0.351198   0.000000   0.000000  -0.000001
     8  N   -0.000037  -0.000028  -0.000001  -0.031062  -0.053817  -0.044611
     9  C   -0.000001   0.000000  -0.000000   0.389117   0.377498   0.363321
    10  C    0.000012  -0.000033   0.000001   0.004908  -0.000939  -0.004339
    11  C    0.000001  -0.000000   0.000000  -0.010201  -0.003737   0.001676
    12  C   -0.000072  -0.000004   0.000018  -0.000297  -0.000028   0.000050
    13  H   -0.000170  -0.000172  -0.000010   0.000001   0.000000  -0.000001
    14  H    0.003281  -0.000024   0.000252  -0.000000  -0.000000   0.000000
    15  H   -0.000126  -0.000178   0.000814  -0.000000   0.000000  -0.000000
    16  H   -0.000229   0.000099  -0.000082   0.000000   0.000000  -0.000000
    17  H   -0.000199   0.000279   0.001391   0.000000   0.000000  -0.000000
    18  H    0.000082   0.006384   0.000173   0.000000  -0.000000  -0.000000
    19  H    0.587923  -0.032499  -0.030680  -0.000000  -0.000000   0.000001
    20  H   -0.032499   0.572045  -0.030076   0.000000  -0.000000  -0.000000
    21  H   -0.030680  -0.030076   0.601702  -0.000000  -0.000000   0.000000
    22  H   -0.000000   0.000000  -0.000000   0.544150  -0.032844  -0.028581
    23  H   -0.000000  -0.000000  -0.000000  -0.032844   0.601626  -0.048071
    24  H    0.000001  -0.000000   0.000000  -0.028581  -0.048071   0.607091
    25  H   -0.000017   0.000231  -0.000000  -0.000179  -0.000035  -0.000070
    26  H    0.000006   0.000006   0.000000  -0.000042  -0.002306   0.011181
    27  H   -0.000000   0.000001   0.000000   0.000068   0.005638  -0.002322
    28  H    0.000000  -0.000000   0.000000  -0.022510   0.003702   0.001754
    29  H    0.000000   0.000000   0.000000   0.003589  -0.000177   0.000063
    30  H   -0.000000   0.000000  -0.000000   0.001894  -0.000010  -0.000048
    31  H    0.000464   0.000011   0.000018   0.000008  -0.000000   0.000000
    32  H   -0.000002   0.000000  -0.000003   0.000018  -0.000000   0.000001
    33  H    0.000005  -0.000000   0.000001   0.000003  -0.000002  -0.000005
              25         26         27         28         29         30
     1  N    0.000494  -0.000042   0.000044  -0.029663  -0.050215  -0.046323
     2  C   -0.003399   0.000085   0.004133  -0.003616   0.000068   0.001007
     3  N    0.024437   0.001586   0.001625  -0.000119  -0.000180   0.000195
     4  C   -0.001460  -0.000082  -0.000003   0.000022  -0.000010  -0.000004
     5  C    0.000125   0.000000   0.000002  -0.000005   0.000012   0.000025
     6  C    0.000059   0.000020  -0.000008   0.000001   0.000000  -0.000007
     7  C    0.000016  -0.000014   0.000000  -0.000000  -0.000000   0.000000
     8  N   -0.027535  -0.050787  -0.050917   0.000100   0.001150  -0.000207
     9  C    0.004608  -0.004014  -0.000365  -0.010862  -0.004561   0.002010
    10  C    0.368551   0.375996   0.368319  -0.000258  -0.000009   0.000031
    11  C   -0.000027  -0.000002  -0.000025   0.389487   0.370748   0.366609
    12  C   -0.000004   0.000008   0.000001   0.004753  -0.000467  -0.004367
    13  H    0.000005  -0.000001   0.000001   0.000031   0.000034  -0.000107
    14  H   -0.000002  -0.000000  -0.000000   0.000002   0.000000  -0.000005
    15  H   -0.000002  -0.000000  -0.000000  -0.000000  -0.000000  -0.000004
    16  H    0.000186  -0.000001  -0.000001  -0.000001  -0.000000   0.000006
    17  H    0.000012  -0.000000   0.000000  -0.000000  -0.000000   0.000000
    18  H    0.000950  -0.000001   0.000004  -0.000000   0.000000   0.000000
    19  H   -0.000017   0.000006  -0.000000   0.000000   0.000000  -0.000000
    20  H    0.000231   0.000006   0.000001  -0.000000   0.000000   0.000000
    21  H   -0.000000   0.000000   0.000000   0.000000   0.000000  -0.000000
    22  H   -0.000179  -0.000042   0.000068  -0.022510   0.003589   0.001894
    23  H   -0.000035  -0.002306   0.005638   0.003702  -0.000177  -0.000010
    24  H   -0.000070   0.011181  -0.002322   0.001754   0.000063  -0.000048
    25  H    0.495947  -0.027308  -0.026515  -0.000009   0.000001   0.000000
    26  H   -0.027308   0.608864  -0.048620   0.000018   0.000001   0.000001
    27  H   -0.026515  -0.048620   0.616200  -0.000042   0.000001  -0.000005
    28  H   -0.000009   0.000018  -0.000042   0.529500  -0.031515  -0.029129
    29  H    0.000001   0.000001   0.000001  -0.031515   0.599837  -0.046387
    30  H    0.000000   0.000001  -0.000005  -0.029129  -0.046387   0.600679
    31  H   -0.000003   0.000000   0.000000  -0.000208   0.000149  -0.000158
    32  H    0.000000   0.000000  -0.000000  -0.000121  -0.003016   0.010759
    33  H    0.000000  -0.000000   0.000000   0.000223   0.008964  -0.002325
              31         32         33
     1  N   -0.028892  -0.059238  -0.042094
     2  C   -0.001835   0.000642   0.002375
     3  N    0.004979   0.001433  -0.000225
     4  C   -0.003085   0.001123  -0.000108
     5  C   -0.020032  -0.018741   0.004836
     6  C    0.000529  -0.000057   0.000004
     7  C   -0.001249  -0.000009   0.000003
     8  N    0.000062  -0.000125  -0.000048
     9  C   -0.000014   0.000008   0.000002
    10  C   -0.000000   0.000004   0.000002
    11  C    0.005315  -0.001293  -0.004904
    12  C    0.401432   0.389860   0.350510
    13  H   -0.041230  -0.013014   0.005574
    14  H    0.004055   0.001211   0.001050
    15  H    0.003158   0.000591  -0.000235
    16  H   -0.000031  -0.000004  -0.000000
    17  H   -0.000029   0.000008  -0.000000
    18  H   -0.000001   0.000001  -0.000000
    19  H    0.000464  -0.000002   0.000005
    20  H    0.000011   0.000000  -0.000000
    21  H    0.000018  -0.000003   0.000001
    22  H    0.000008   0.000018   0.000003
    23  H   -0.000000  -0.000000  -0.000002
    24  H    0.000000   0.000001  -0.000005
    25  H   -0.000003   0.000000   0.000000
    26  H    0.000000   0.000000  -0.000000
    27  H    0.000000  -0.000000   0.000000
    28  H   -0.000208  -0.000121   0.000223
    29  H    0.000149  -0.003016   0.008964
    30  H   -0.000158   0.010759  -0.002325
    31  H    0.555108  -0.037178  -0.027156
    32  H   -0.037178   0.625082  -0.053531
    33  H   -0.027156  -0.053531   0.628930
 Mulliken charges:
               1
     1  N   -0.442441
     2  C    0.671052
     3  N   -0.523365
     4  C    0.247387
     5  C   -0.506562
     6  C   -0.426277
     7  C   -0.433797
     8  N   -0.431249
     9  C   -0.344075
    10  C   -0.291270
    11  C   -0.347135
    12  C   -0.335924
    13  H    0.175692
    14  H    0.151256
    15  H    0.120234
    16  H    0.137417
    17  H    0.124583
    18  H    0.137695
    19  H    0.135415
    20  H    0.145128
    21  H    0.131245
    22  H    0.187091
    23  H    0.150452
    24  H    0.142459
    25  H    0.190943
    26  H    0.135446
    27  H    0.132788
    28  H    0.198464
    29  H    0.151919
    30  H    0.145870
    31  H    0.185815
    32  H    0.155592
    33  H    0.128153
 Sum of Mulliken charges =   0.00000
 Mulliken charges with hydrogens summed into heavy atoms:
               1
     1  N   -0.442441
     2  C    0.671052
     3  N   -0.523365
     4  C    0.247387
     5  C   -0.059380
     6  C   -0.026582
     7  C   -0.022009
     8  N   -0.431249
     9  C    0.135927
    10  C    0.167907
    11  C    0.149117
    12  C    0.133635
 APT charges:
               1
     1  N   -0.800088
     2  C    1.376930
     3  N   -1.016834
     4  C    0.554189
     5  C   -0.044843
     6  C    0.030437
     7  C    0.041937
     8  N   -0.842210
     9  C    0.375338
    10  C    0.332564
    11  C    0.367844
    12  C    0.325268
    13  H    0.026706
    14  H   -0.052467
    15  H   -0.056431
    16  H   -0.024749
    17  H   -0.057255
    18  H   -0.027799
    19  H   -0.031029
    20  H   -0.018371
    21  H   -0.043705
    22  H    0.022452
    23  H   -0.068683
    24  H   -0.089374
    25  H    0.054398
    26  H   -0.073290
    27  H   -0.067966
    28  H    0.030241
    29  H   -0.061458
    30  H   -0.079137
    31  H    0.084374
    32  H   -0.077763
    33  H   -0.089221
 Sum of APT charges =   0.00000
 APT charges with hydrogens summed into heavy atoms:
               1
     1  N   -0.800088
     2  C    1.376930
     3  N   -1.016834
     4  C    0.554189
     5  C   -0.127035
     6  C   -0.079366
     7  C   -0.051169
     8  N   -0.842210
     9  C    0.239733
    10  C    0.245705
    11  C    0.257490
    12  C    0.242657
 Electronic spatial extent (au):  <R**2>=           2457.2137
 Charge=              0.0000 electrons
 Dipole moment (field-independent basis, Debye):
    X=             -1.7689    Y=              1.5488    Z=              0.0446  Tot=              2.3516
 Quadrupole moment (field-independent basis, Debye-Ang):
   XX=            -72.6798   YY=            -74.4960   ZZ=            -78.3293
   XY=              0.4432   XZ=             -0.6680   YZ=             -0.2401
 Traceless Quadrupole moment (field-independent basis, Debye-Ang):
   XX=              2.4886   YY=              0.6723   ZZ=             -3.1609
   XY=              0.4432   XZ=             -0.6680   YZ=             -0.2401
 Octapole moment (field-independent basis, Debye-Ang**2):
  XXX=            -23.5922  YYY=             -1.6063  ZZZ=             -1.1085  XYY=             -5.9272
  XXY=              1.1531  XXZ=             -0.6449  XZZ=             -3.6015  YZZ=              1.5500
  YYZ=              0.5136  XYZ=             -1.3675
 Hexadecapole moment (field-independent basis, Debye-Ang**3):
 XXXX=          -1937.5540 YYYY=          -1052.0520 ZZZZ=           -318.2717 XXXY=             -3.9216
 XXXZ=             -4.1866 YYYX=             -1.1274 YYYZ=             -3.8651 ZZZX=             -3.8819
 ZZZY=              1.8323 XXYY=           -503.4860 XXZZ=           -387.5256 YYZZ=           -228.2187
 XXYZ=             -0.3916 YYXZ=             -2.0031 ZZXY=              4.0244
 N-N= 8.099095614973D+02 E-N=-2.824683556199D+03  KE= 5.151317231842D+02
  Exact polarizability: 147.763  -1.862 124.623   1.765  -0.028  92.445
 Approx polarizability: 192.594  -7.069 168.164   1.253  -0.910 135.373
 Calling FoFJK, ICntrl=    100127 FMM=F ISym2X=0 I1Cent= 0 IOpClX= 0 NMat=1 NMatS=1 NMatT=0.
 ***** Axes restored to original set *****
 -------------------------------------------------------------------
 Center     Atomic                   Forces (Hartrees/Bohr)
 Number     Number              X              Y              Z
 -------------------------------------------------------------------
      1        7           0.016609479    0.006066090    0.000939180
      2        6          -0.017282195    0.000575768   -0.005142677
      3        7          -0.010715729   -0.013218934    0.018994936
      4        6           0.008685946    0.003541758   -0.024048130
      5        6          -0.036343782    0.017550225   -0.015679685
      6        6          -0.003734088    0.000477553   -0.007116917
      7        6          -0.001529056   -0.002902201    0.005281107
      8        7           0.007160158   -0.011834531   -0.005195151
      9        6          -0.003026651   -0.006437101    0.010657469
     10        6           0.000169701    0.003892349   -0.004968629
     11        6          -0.002870932    0.002662339   -0.008184016
     12        6           0.037679028   -0.008210633    0.026554827
     13        1          -0.036593651   -0.000454780   -0.008463207
     14        1          -0.009624121    0.003172538   -0.000215827
     15        1          -0.005835725   -0.001074491   -0.000783320
     16        1           0.000727294    0.002031943    0.001429010
     17        1          -0.000003395   -0.000550471    0.001388838
     18        1           0.001982253   -0.002239490    0.000656897
     19        1           0.006670878    0.002532591    0.004895219
     20        1           0.001638500    0.000692678   -0.002463250
     21        1           0.000046385    0.001149772   -0.001628260
     22        1          -0.008488352   -0.016071526    0.006180441
     23        1           0.002688376   -0.002405232   -0.000635674
     24        1          -0.001084301   -0.005582185    0.002631187
     25        1           0.006737727    0.006130364    0.005399986
     26        1          -0.001026308   -0.001964069    0.002150572
     27        1           0.005296306   -0.002333169    0.000321217
     28        1          -0.005821346    0.018329334   -0.004567523
     29        1           0.002483530    0.002210909   -0.000236907
     30        1           0.000535549    0.008794302   -0.003911320
     31        1           0.029693319   -0.008063610    0.003969136
     32        1           0.005145275    0.006296281    0.002730328
     33        1           0.010029929   -0.002764372   -0.000939855
 -------------------------------------------------------------------
 Cartesian Forces:  Max     0.037679028 RMS     0.010300107
 FormGI is forming the generalized inverse of G from B-inverse, IUseBI=4.

 GradGradGradGradGradGradGradGradGradGradGradGradGradGradGradGradGradGrad
 Berny optimization.
 Internal  Forces:  Max     0.384640001 RMS     0.047355725
 Search for a local minimum.
 Step number   1 out of a maximum of  164
 All quantities printed in internal units (Hartrees-Bohrs-Radians)
 Mixed Optimization -- RFO/linear search
 Second derivative matrix not updated -- analytic derivatives used.
 ITU=  0
     Eigenvalues ---   -0.18184  -0.05479  -0.03828  -0.02374  -0.00539
     Eigenvalues ---   -0.00233   0.00019   0.00201   0.00328   0.00405
     Eigenvalues ---    0.00938   0.02345   0.03384   0.03776   0.04451
     Eigenvalues ---    0.04593   0.04709   0.04787   0.04879   0.05061
     Eigenvalues ---    0.05760   0.05988   0.06216   0.06342   0.06575
     Eigenvalues ---    0.06618   0.06798   0.06873   0.06979   0.07402
     Eigenvalues ---    0.09057   0.09666   0.10964   0.12066   0.12118
     Eigenvalues ---    0.12204   0.12539   0.12892   0.13209   0.13318
     Eigenvalues ---    0.13481   0.14380   0.14697   0.15167   0.15612
     Eigenvalues ---    0.15646   0.16011   0.17115   0.17518   0.17722
     Eigenvalues ---    0.18077   0.18193   0.18616   0.19702   0.19982
     Eigenvalues ---    0.21938   0.23974   0.24720   0.26160   0.26957
     Eigenvalues ---    0.28611   0.29620   0.31599   0.32521   0.32578
     Eigenvalues ---    0.32724   0.32970   0.33037   0.33267   0.33282
     Eigenvalues ---    0.33352   0.33458   0.33624   0.33794   0.34085
     Eigenvalues ---    0.34119   0.34159   0.34327   0.34514   0.34786
     Eigenvalues ---    0.35687   0.35854   0.36009   0.36344   0.36487
     Eigenvalues ---    0.37072   0.38064   0.39348   0.39833   0.46753
     Eigenvalues ---    0.73968   1.37479   6.85854
 RFO step:  Lambda=-1.87064204D-01 EMin=-1.81840487D-01
 I=     1 Eig=   -1.82D-01 Dot1= -1.45D-02
 I=     1 Stepn= -6.00D-01 RXN=   6.00D-01 EDone=F
 I=     2 Eig=   -5.48D-02 Dot1=  3.92D-03
 I=     2 Stepn=  3.00D-01 RXN=   6.71D-01 EDone=F
 I=     3 Eig=   -3.83D-02 Dot1=  1.29D-03
 I=     3 Stepn=  1.50D-01 RXN=   6.87D-01 EDone=F
 Mixed    3 eigenvectors in step.  Raw Step.Grad=  1.97D-02.
 RFO eigenvector is Hessian eigenvector with negative curvature.
 Taking step of  6.00D-01 in eigenvector direction(s).  Step.Grad=  5.85D-02.
 Linear search not attempted -- first point.
 Maximum step size (   0.300) exceeded in Quadratic search.
    -- Step size not scaled.
 Iteration  1 RMS(Cart)=  0.25552998 RMS(Int)=  0.01933053
 Iteration  2 RMS(Cart)=  0.07126771 RMS(Int)=  0.00238255
 Iteration  3 RMS(Cart)=  0.00257876 RMS(Int)=  0.00185217
 Iteration  4 RMS(Cart)=  0.00001250 RMS(Int)=  0.00185216
 Iteration  5 RMS(Cart)=  0.00000008 RMS(Int)=  0.00185216
 Variable       Old X    -DE/DX   Delta X   Delta X   Delta X     New X
                                 (Linear)    (Quad)   (Total)
    R1        2.62534   0.08349   0.00000  -0.04530  -0.04530   2.58004
    R2        2.77312   0.00227   0.00000  -0.02187  -0.02187   2.75125
    R3        2.74216  -0.01398   0.00000  -0.07920  -0.07920   2.66295
    R4        2.41762   0.08404   0.00000  -0.00274  -0.00274   2.41488
    R5        2.63587   0.03178   0.00000  -0.01460  -0.01460   2.62127
    R6        2.73423   0.06634   0.00000   0.03011   0.03011   2.76435
    R7        2.89238  -0.01504   0.00000   0.09480   0.09480   2.98718
    R8        2.93530   0.00367   0.00000   0.00002   0.00002   2.93533
    R9        2.89853  -0.00047   0.00000  -0.00204  -0.00204   2.89650
   R10        2.07043  -0.02776   0.00000   0.02825   0.02825   2.09868
   R11        2.06094  -0.00057   0.00000  -0.01438  -0.01438   2.04656
   R12        2.07240   0.00329   0.00000   0.00066   0.00066   2.07306
   R13        2.07213  -0.00065   0.00000  -0.00082  -0.00082   2.07131
   R14        2.07512  -0.00056   0.00000  -0.00010  -0.00010   2.07503
   R15        2.06839   0.00081   0.00000   0.00011   0.00011   2.06850
   R16        2.05465   0.00693   0.00000   0.00041   0.00041   2.05506
   R17        2.07191  -0.00086   0.00000  -0.00018  -0.00018   2.07173
   R18        2.07161   0.00065   0.00000  -0.00038  -0.00038   2.07123
   R19        2.75761   0.00488   0.00000  -0.00592  -0.00592   2.75169
   R20        2.77091  -0.01166   0.00000  -0.00034  -0.00034   2.77056
   R21        2.06995  -0.01472   0.00000  -0.00163  -0.00163   2.06833
   R22        2.07161   0.00278   0.00000  -0.00029  -0.00029   2.07132
   R23        2.06745   0.00579   0.00000  -0.00039  -0.00039   2.06707
   R24        2.06992  -0.00605   0.00000   0.00076   0.00076   2.07068
   R25        2.07101   0.00297   0.00000  -0.00016  -0.00016   2.07084
   R26        2.06941   0.00299   0.00000  -0.00017  -0.00017   2.06925
   R27        2.07134  -0.01527   0.00000   0.00632   0.00632   2.07766
   R28        2.07225   0.00205   0.00000   0.00189   0.00189   2.07414
   R29        2.05709   0.00897   0.00000  -0.00068  -0.00068   2.05641
   R30        2.04871  -0.02327   0.00000   0.01507   0.01507   2.06377
   R31        2.06583   0.00239   0.00000  -0.02101  -0.02101   2.04482
   R32        2.07304   0.00600   0.00000   0.00481   0.00481   2.07785
    A1        2.13678  -0.03158   0.00000   0.10142   0.10144   2.23822
    A2        2.18209   0.11894   0.00000  -0.22806  -0.23072   1.95138
    A3        1.94110  -0.08465   0.00000   0.14458   0.14390   2.08501
    A4        2.28987   0.21930   0.00000  -0.07962  -0.07962   2.21025
    A5        1.97529  -0.06512   0.00000   0.03619   0.03619   2.01148
    A6        2.01626  -0.15329   0.00000   0.04351   0.04351   2.05978
    A7        2.40148   0.38464   0.00000   0.01664   0.01664   2.41813
    A8        1.97038   0.08279   0.00000   0.09434   0.09393   2.06431
    A9        1.83093  -0.02080   0.00000  -0.04876  -0.04742   1.78351
   A10        1.95085  -0.04060   0.00000  -0.00582  -0.00675   1.94410
   A11        1.86847  -0.03963   0.00000  -0.04191  -0.04108   1.82739
   A12        1.98117  -0.01998   0.00000  -0.02139  -0.02238   1.95880
   A13        1.84901   0.03461   0.00000   0.01286   0.01185   1.86087
   A14        1.94710  -0.00287   0.00000   0.05383   0.05273   1.99983
   A15        1.95614   0.00527   0.00000   0.07102   0.07011   2.02625
   A16        1.95308  -0.01090   0.00000  -0.05553  -0.05432   1.89876
   A17        1.89438   0.01115   0.00000  -0.05077  -0.05325   1.84113
   A18        1.87218  -0.00150   0.00000  -0.00141  -0.00053   1.87165
   A19        1.83541  -0.00073   0.00000  -0.02497  -0.02370   1.81172
   A20        1.94262  -0.00181   0.00000  -0.00201  -0.00202   1.94061
   A21        1.94862  -0.00057   0.00000   0.00496   0.00497   1.95359
   A22        1.94420  -0.00194   0.00000  -0.00456  -0.00456   1.93963
   A23        1.88452   0.00107   0.00000  -0.00014  -0.00014   1.88439
   A24        1.86986   0.00170   0.00000   0.00167   0.00166   1.87153
   A25        1.87024   0.00185   0.00000   0.00014   0.00015   1.87038
   A26        1.98436  -0.00548   0.00000   0.00129   0.00129   1.98565
   A27        1.93905  -0.00234   0.00000  -0.00290  -0.00290   1.93616
   A28        1.93629  -0.00104   0.00000   0.00163   0.00163   1.93792
   A29        1.84433   0.00465   0.00000  -0.00020  -0.00020   1.84413
   A30        1.87513   0.00292   0.00000  -0.00101  -0.00101   1.87412
   A31        1.87909   0.00202   0.00000   0.00117   0.00117   1.88026
   A32        2.15314   0.03602   0.00000  -0.00256  -0.00264   2.15050
   A33        2.09278  -0.01093   0.00000  -0.00228  -0.00235   2.09044
   A34        1.96572  -0.02800   0.00000   0.01206   0.01202   1.97774
   A35        1.97981   0.00746   0.00000  -0.00395  -0.00396   1.97584
   A36        1.91134   0.00383   0.00000  -0.00341  -0.00342   1.90791
   A37        1.93391  -0.00542   0.00000   0.00632   0.00632   1.94023
   A38        1.87983   0.00070   0.00000  -0.00106  -0.00107   1.87876
   A39        1.87150  -0.00503   0.00000   0.00124   0.00124   1.87275
   A40        1.88423  -0.00194   0.00000   0.00098   0.00098   1.88521
   A41        1.97399  -0.01148   0.00000  -0.00295  -0.00295   1.97103
   A42        1.93325   0.00281   0.00000  -0.00086  -0.00086   1.93239
   A43        1.91360  -0.00112   0.00000   0.00267   0.00267   1.91627
   A44        1.89048   0.00281   0.00000   0.00159   0.00159   1.89207
   A45        1.85766   0.00779   0.00000   0.00002   0.00002   1.85768
   A46        1.89175  -0.00026   0.00000  -0.00037  -0.00037   1.89139
   A47        1.98736   0.00556   0.00000  -0.01253  -0.01254   1.97482
   A48        1.91014   0.00363   0.00000  -0.00111  -0.00114   1.90900
   A49        1.92422  -0.00548   0.00000   0.00885   0.00885   1.93307
   A50        1.87512   0.00227   0.00000  -0.00149  -0.00154   1.87358
   A51        1.86966  -0.00394   0.00000   0.00471   0.00474   1.87440
   A52        1.89459  -0.00233   0.00000   0.00195   0.00194   1.89653
   A53        1.97832  -0.00091   0.00000  -0.13343  -0.13299   1.84533
   A54        1.93129   0.01343   0.00000   0.04121   0.04104   1.97233
   A55        1.92287  -0.01683   0.00000   0.03259   0.03214   1.95501
   A56        1.91447   0.00685   0.00000   0.05042   0.05108   1.96555
   A57        1.84425  -0.00059   0.00000   0.03390   0.03405   1.87829
   A58        1.86763  -0.00292   0.00000  -0.01942  -0.02035   1.84728
    D1       -2.61183   0.06119   0.00000  -0.01296  -0.00842  -2.62025
    D2        0.46200   0.07049   0.00000  -0.00897  -0.00455   0.45744
    D3        0.27945   0.06359   0.00000   0.10316   0.09874   0.37819
    D4       -2.92991   0.07289   0.00000   0.10715   0.10261  -2.82730
    D5       -0.19285   0.02310   0.00000   0.01755   0.02434  -0.16851
    D6       -2.29150   0.01388   0.00000   0.02860   0.03535  -2.25615
    D7        1.90896   0.01783   0.00000   0.02147   0.02822   1.93718
    D8       -3.11509  -0.00490   0.00000  -0.03556  -0.04229   3.12580
    D9        1.06945  -0.01412   0.00000  -0.02451  -0.03128   1.03816
   D10       -1.01328  -0.01017   0.00000  -0.03163  -0.03841  -1.05169
   D11        0.30991   0.01380   0.00000  -0.10189  -0.09746   0.21245
   D12       -1.84918  -0.00489   0.00000  -0.10118  -0.09591  -1.94509
   D13        2.37222   0.00091   0.00000  -0.12301  -0.11879   2.25343
   D14       -3.05789   0.01891   0.00000   0.00454  -0.00030  -3.05819
   D15        1.06621   0.00021   0.00000   0.00526   0.00124   1.06745
   D16       -0.99558   0.00602   0.00000  -0.01657  -0.02163  -1.01721
   D17        0.09804   0.10193   0.00000   0.20258   0.20252   0.30056
   D18       -2.97452   0.08932   0.00000   0.19889   0.19895  -2.77557
   D19        0.51744   0.02232   0.00000  -0.05051  -0.05056   0.46688
   D20       -3.05113   0.00707   0.00000  -0.02713  -0.02728  -3.07841
   D21       -2.68064   0.04506   0.00000  -0.05230  -0.05215  -2.73279
   D22        0.03398   0.02981   0.00000  -0.02892  -0.02887   0.00511
   D23        0.00000   0.05381   0.00000   0.08553   0.08698   0.08699
   D24        2.02847   0.03563   0.00000   0.05363   0.05286   2.08133
   D25       -2.25886   0.04551   0.00000   0.03875   0.03807  -2.22080
   D26        0.52818   0.01140   0.00000  -0.02748  -0.02754   0.50064
   D27       -1.60029  -0.00476   0.00000  -0.05170  -0.05350  -1.65379
   D28        2.62589  -0.00005   0.00000  -0.03025  -0.03102   2.59487
   D29       -1.47783   0.01642   0.00000   0.00657   0.00817  -1.46967
   D30        2.67688   0.00025   0.00000  -0.01765  -0.01779   2.65909
   D31        0.61988   0.00497   0.00000   0.00380   0.00469   0.62456
   D32        2.77141   0.01052   0.00000   0.02958   0.03049   2.80190
   D33        0.64294  -0.00564   0.00000   0.00536   0.00453   0.64747
   D34       -1.41407  -0.00093   0.00000   0.02681   0.02701  -1.38706
   D35       -0.84608  -0.03630   0.00000  -0.02764  -0.02826  -0.87434
   D36       -2.95340  -0.03602   0.00000  -0.02949  -0.03012  -2.98351
   D37        1.23959  -0.03666   0.00000  -0.02992  -0.03055   1.20905
   D38        1.25150   0.02932   0.00000   0.03596   0.03659   1.28809
   D39       -0.85582   0.02960   0.00000   0.03411   0.03473  -0.82108
   D40       -2.94601   0.02896   0.00000   0.03367   0.03431  -2.91171
   D41       -2.91213   0.00375   0.00000  -0.00406  -0.00407  -2.91620
   D42        1.26373   0.00402   0.00000  -0.00592  -0.00592   1.25781
   D43       -0.82646   0.00338   0.00000  -0.00635  -0.00635  -0.83282
   D44        1.01924   0.03000   0.00000   0.05241   0.05180   1.07104
   D45       -1.05855   0.02943   0.00000   0.05386   0.05324  -1.00530
   D46        3.13496   0.02912   0.00000   0.05323   0.05261  -3.09561
   D47       -1.23396  -0.03212   0.00000  -0.05538  -0.05487  -1.28883
   D48        2.97143  -0.03269   0.00000  -0.05394  -0.05342   2.91801
   D49        0.88175  -0.03300   0.00000  -0.05457  -0.05405   0.82770
   D50        3.00391   0.00507   0.00000  -0.00083  -0.00074   3.00317
   D51        0.92611   0.00450   0.00000   0.00062   0.00071   0.92683
   D52       -1.16357   0.00419   0.00000  -0.00001   0.00008  -1.16348
   D53       -0.25461   0.00264   0.00000   0.00425   0.00428  -0.25033
   D54       -2.35510  -0.00592   0.00000   0.01065   0.01066  -2.34444
   D55        1.85142  -0.00261   0.00000   0.00770   0.00772   1.85914
   D56       -2.99676   0.01452   0.00000  -0.01476  -0.01477  -3.01153
   D57        1.18593   0.00596   0.00000  -0.00836  -0.00839   1.17754
[...]
 Traceless Quadrupole moment (field-independent basis, Debye-Ang):
   XX=              1.0006   YY=              0.9992   ZZ=             -1.9997
   XY=             -0.2942   XZ=              0.3599   YZ=             -0.3639
 Octapole moment (field-independent basis, Debye-Ang**2):
  XXX=             -7.6269  YYY=              0.7727  ZZZ=              3.6725  XYY=             -5.3641
  XXY=              2.4533  XXZ=              3.6728  XZZ=             -1.3699  YZZ=              1.0996
  YYZ=              0.5908  XYZ=              1.0840
 Hexadecapole moment (field-independent basis, Debye-Ang**3):
 XXXX=          -1823.6687 YYYY=          -1017.7194 ZZZZ=           -419.7652 XXXY=              5.8626
 XXXZ=              2.5484 YYYX=              4.1809 YYYZ=             -2.4427 ZZZX=             -3.4136
 ZZZY=             -0.3492 XXYY=           -473.5294 XXZZ=           -386.9392 YYZZ=           -239.5714
 XXYZ=              3.1662 YYXZ=             -5.5481 ZZXY=             -4.1234
 N-N= 8.082623543314D+02 E-N=-2.821120010871D+03  KE= 5.149012387462D+02
 Evaluate density.
 Using the total density.
 Monte-Carlo method of calculating molar volume:
 based on  0.001 e/bohr**3 density envelope.
 Number of points per bohr**3 =   20 CutOff= 1.00D-04
 Using the CI density.
 There are       417 points.  Will hold       417 in memory.
 LenV=  1342033532 MDV=  1342177280.
 Box volume = 9074.894 fraction occupied=0.180
 Integrated density= 7.0450301608995559D+01 error=-2.5549698391004441D+01
 Molar volume = 1632.175 bohr**3/mol (145.654 cm**3/mol)
 Recommended a0 for SCRF calculation =  4.75 angstrom (  8.98 bohr)
 ******************************Gaussian NBO Version 3.1******************************
             N A T U R A L   A T O M I C   O R B I T A L   A N D
          N A T U R A L   B O N D   O R B I T A L   A N A L Y S I S
 ******************************Gaussian NBO Version 3.1******************************
       /RESON  / : Allow strongly delocalized NBO set

 Analyzing the CI density

 Job title: Title Card Required                                             

 Storage needed:    151374 in NPA (1342171505 available)


 NATURAL POPULATIONS:  Natural atomic orbital occupancies 
                                                          
   NAO  Atom  No  lang   Type(AO)    Occupancy
 --------------------------------------------
     1    N    1  S      Cor( 1S)     1.99935
     2    N    1  S      Val( 2S)     1.18672
     3    N    1  S      Ryd( 3S)     0.00085
     4    N    1  S      Ryd( 4S)     0.00002
     5    N    1  px     Val( 2p)     1.55849
     6    N    1  px     Ryd( 3p)     0.00570
     7    N    1  py     Val( 2p)     1.30475
     8    N    1  py     Ryd( 3p)     0.00109
     9    N    1  pz     Val( 2p)     1.39463
    10    N    1  pz     Ryd( 3p)     0.00173
    11    N    1  dxy    Ryd( 3d)     0.00037
    12    N    1  dxz    Ryd( 3d)     0.00058
    13    N    1  dyz    Ryd( 3d)     0.00129
    14    N    1  dx2y2  Ryd( 3d)     0.00053
    15    N    1  dz2    Ryd( 3d)     0.00041
 
    16    C    2  S      Cor( 1S)     1.99913
    17    C    2  S      Val( 2S)     0.69983
    18    C    2  S      Ryd( 3S)     0.00224
    19    C    2  S      Ryd( 4S)     0.00022
    20    C    2  px     Val( 2p)     0.85258
    21    C    2  px     Ryd( 3p)     0.00600
    22    C    2  py     Val( 2p)     0.81677
    23    C    2  py     Ryd( 3p)     0.00573
    24    C    2  pz     Val( 2p)     1.21919
    25    C    2  pz     Ryd( 3p)     0.01204
    26    C    2  dxy    Ryd( 3d)     0.00245
    27    C    2  dxz    Ryd( 3d)     0.00238
    28    C    2  dyz    Ryd( 3d)     0.00102
    29    C    2  dx2y2  Ryd( 3d)     0.00160
    30    C    2  dz2    Ryd( 3d)     0.00060
 
    31    N    3  S      Cor( 1S)     1.99898
    32    N    3  S      Val( 2S)     1.27315
    33    N    3  S      Ryd( 3S)     0.00214
    34    N    3  S      Ryd( 4S)     0.00003
    35    N    3  px     Val( 2p)     1.23445
    36    N    3  px     Ryd( 3p)     0.00200
    37    N    3  py     Val( 2p)     1.13589
    38    N    3  py     Ryd( 3p)     0.00431
    39    N    3  pz     Val( 2p)     1.67178
    40    N    3  pz     Ryd( 3p)     0.00715
    41    N    3  dxy    Ryd( 3d)     0.00082
    42    N    3  dxz    Ryd( 3d)     0.00112
    43    N    3  dyz    Ryd( 3d)     0.00072
    44    N    3  dx2y2  Ryd( 3d)     0.00031
    45    N    3  dz2    Ryd( 3d)     0.00055
 
    46    C    4  S      Cor( 1S)     1.99908
    47    C    4  S      Val( 2S)     0.90539
    48    C    4  S      Ryd( 3S)     0.00068
    49    C    4  S      Ryd( 4S)     0.00003
    50    C    4  px     Val( 2p)     0.90370
    51    C    4  px     Ryd( 3p)     0.00291
    52    C    4  py     Val( 2p)     1.02532
    53    C    4  py     Ryd( 3p)     0.00462
    54    C    4  pz     Val( 2p)     1.04963
    55    C    4  pz     Ryd( 3p)     0.00487
    56    C    4  dxy    Ryd( 3d)     0.00125
    57    C    4  dxz    Ryd( 3d)     0.00169
    58    C    4  dyz    Ryd( 3d)     0.00102
    59    C    4  dx2y2  Ryd( 3d)     0.00101
    60    C    4  dz2    Ryd( 3d)     0.00093
 
    61    C    5  S      Cor( 1S)     1.99931
    62    C    5  S      Val( 2S)     1.09802
    63    C    5  S      Ryd( 3S)     0.00065
    64    C    5  S      Ryd( 4S)     0.00002
    65    C    5  px     Val( 2p)     1.24345
    66    C    5  px     Ryd( 3p)     0.00148
    67    C    5  py     Val( 2p)     1.14367
    68    C    5  py     Ryd( 3p)     0.00207
    69    C    5  pz     Val( 2p)     1.16720
    70    C    5  pz     Ryd( 3p)     0.00184
    71    C    5  dxy    Ryd( 3d)     0.00043
    72    C    5  dxz    Ryd( 3d)     0.00056
    73    C    5  dyz    Ryd( 3d)     0.00068
    74    C    5  dx2y2  Ryd( 3d)     0.00097
    75    C    5  dz2    Ryd( 3d)     0.00076
 
    76    C    6  S      Cor( 1S)     1.99935
    77    C    6  S      Val( 2S)     1.10074
    78    C    6  S      Ryd( 3S)     0.00078
    79    C    6  S      Ryd( 4S)     0.00001
    80    C    6  px     Val( 2p)     1.19102
    81    C    6  px     Ryd( 3p)     0.00181
    82    C    6  py     Val( 2p)     1.14013
    83    C    6  py     Ryd( 3p)     0.00216
    84    C    6  pz     Val( 2p)     1.22374
    85    C    6  pz     Ryd( 3p)     0.00212
    86    C    6  dxy    Ryd( 3d)     0.00041
    87    C    6  dxz    Ryd( 3d)     0.00040
    88    C    6  dyz    Ryd( 3d)     0.00100
    89    C    6  dx2y2  Ryd( 3d)     0.00096
    90    C    6  dz2    Ryd( 3d)     0.00066
 
    91    C    7  S      Cor( 1S)     1.99935
    92    C    7  S      Val( 2S)     1.10195
    93    C    7  S      Ryd( 3S)     0.00084
    94    C    7  S      Ryd( 4S)     0.00002
    95    C    7  px     Val( 2p)     1.20301
    96    C    7  px     Ryd( 3p)     0.00165
    97    C    7  py     Val( 2p)     1.23344
    98    C    7  py     Ryd( 3p)     0.00216
    99    C    7  pz     Val( 2p)     1.12818
   100    C    7  pz     Ryd( 3p)     0.00242
   101    C    7  dxy    Ryd( 3d)     0.00043
   102    C    7  dxz    Ryd( 3d)     0.00035
   103    C    7  dyz    Ryd( 3d)     0.00106
   104    C    7  dx2y2  Ryd( 3d)     0.00092
   105    C    7  dz2    Ryd( 3d)     0.00063
 
   106    N    8  S      Cor( 1S)     1.99939
   107    N    8  S      Val( 2S)     1.23290
   108    N    8  S      Ryd( 3S)     0.00145
   109    N    8  S      Ryd( 4S)     0.00003
   110    N    8  px     Val( 2p)     1.31489
   111    N    8  px     Ryd( 3p)     0.00214
   112    N    8  py     Val( 2p)     1.28293
   113    N    8  py     Ryd( 3p)     0.00207
   114    N    8  pz     Val( 2p)     1.65305
   115    N    8  pz     Ryd( 3p)     0.00431
   116    N    8  dxy    Ryd( 3d)     0.00058
   117    N    8  dxz    Ryd( 3d)     0.00118
   118    N    8  dyz    Ryd( 3d)     0.00076
   119    N    8  dx2y2  Ryd( 3d)     0.00059
   120    N    8  dz2    Ryd( 3d)     0.00077
 
   121    C    9  S      Cor( 1S)     1.99946
   122    C    9  S      Val( 2S)     1.08354
   123    C    9  S      Ryd( 3S)     0.00103
   124    C    9  S      Ryd( 4S)     0.00003
   125    C    9  px     Val( 2p)     1.00860
   126    C    9  px     Ryd( 3p)     0.00141
   127    C    9  py     Val( 2p)     1.22746
   128    C    9  py     Ryd( 3p)     0.00296
   129    C    9  pz     Val( 2p)     1.12920
   130    C    9  pz     Ryd( 3p)     0.00178
   131    C    9  dxy    Ryd( 3d)     0.00060
   132    C    9  dxz    Ryd( 3d)     0.00121
   133    C    9  dyz    Ryd( 3d)     0.00052
   134    C    9  dx2y2  Ryd( 3d)     0.00127
   135    C    9  dz2    Ryd( 3d)     0.00140
 
   136    C   10  S      Cor( 1S)     1.99949
   137    C   10  S      Val( 2S)     1.07933
   138    C   10  S      Ryd( 3S)     0.00111
   139    C   10  S      Ryd( 4S)     0.00003
   140    C   10  px     Val( 2p)     1.23705
   141    C   10  px     Ryd( 3p)     0.00296
   142    C   10  py     Val( 2p)     0.90601
   143    C   10  py     Ryd( 3p)     0.00201
   144    C   10  pz     Val( 2p)     1.23289
   145    C   10  pz     Ryd( 3p)     0.00151
   146    C   10  dxy    Ryd( 3d)     0.00084
   147    C   10  dxz    Ryd( 3d)     0.00092
   148    C   10  dyz    Ryd( 3d)     0.00140
   149    C   10  dx2y2  Ryd( 3d)     0.00116
   150    C   10  dz2    Ryd( 3d)     0.00071
 
   151    C   11  S      Cor( 1S)     1.99946
   152    C   11  S      Val( 2S)     1.08279
   153    C   11  S      Ryd( 3S)     0.00117
   154    C   11  S      Ryd( 4S)     0.00002
   155    C   11  px     Val( 2p)     1.09035
   156    C   11  px     Ryd( 3p)     0.00137
   157    C   11  py     Val( 2p)     1.21662
   158    C   11  py     Ryd( 3p)     0.00298
   159    C   11  pz     Val( 2p)     1.06768
   160    C   11  pz     Ryd( 3p)     0.00227
   161    C   11  dxy    Ryd( 3d)     0.00079
   162    C   11  dxz    Ryd( 3d)     0.00109
   163    C   11  dyz    Ryd( 3d)     0.00135
   164    C   11  dx2y2  Ryd( 3d)     0.00101
   165    C   11  dz2    Ryd( 3d)     0.00070
 
   166    C   12  S      Cor( 1S)     1.99946
   167    C   12  S      Val( 2S)     1.08113
   168    C   12  S      Ryd( 3S)     0.00112
   169    C   12  S      Ryd( 4S)     0.00002
   170    C   12  px     Val( 2p)     1.21651
   171    C   12  px     Ryd( 3p)     0.00147
   172    C   12  py     Val( 2p)     1.09132
   173    C   12  py     Ryd( 3p)     0.00218
   174    C   12  pz     Val( 2p)     1.06509
   175    C   12  pz     Ryd( 3p)     0.00254
   176    C   12  dxy    Ryd( 3d)     0.00140
   177    C   12  dxz    Ryd( 3d)     0.00107
   178    C   12  dyz    Ryd( 3d)     0.00131
   179    C   12  dx2y2  Ryd( 3d)     0.00047
   180    C   12  dz2    Ryd( 3d)     0.00072
 
   181    H   13  S      Val( 1S)     0.75709
   182    H   13  S      Ryd( 2S)     0.00105
 
   183    H   14  S      Val( 1S)     0.76319
   184    H   14  S      Ryd( 2S)     0.00107
 
   185    H   15  S      Val( 1S)     0.76152
   186    H   15  S      Ryd( 2S)     0.00137
 
   187    H   16  S      Val( 1S)     0.76517
   188    H   16  S      Ryd( 2S)     0.00120
 
   189    H   17  S      Val( 1S)     0.77654
   190    H   17  S      Ryd( 2S)     0.00158
 
   191    H   18  S      Val( 1S)     0.76368
   192    H   18  S      Ryd( 2S)     0.00121
 
   193    H   19  S      Val( 1S)     0.77712
   194    H   19  S      Ryd( 2S)     0.00092
 
   195    H   20  S      Val( 1S)     0.76112
   196    H   20  S      Ryd( 2S)     0.00143
 
   197    H   21  S      Val( 1S)     0.77709
   198    H   21  S      Ryd( 2S)     0.00177
 
   199    H   22  S      Val( 1S)     0.77625
   200    H   22  S      Ryd( 2S)     0.00090
 
   201    H   23  S      Val( 1S)     0.78373
   202    H   23  S      Ryd( 2S)     0.00226
 
   203    H   24  S      Val( 1S)     0.80648
   204    H   24  S      Ryd( 2S)     0.00651
 
   205    H   25  S      Val( 1S)     0.76446
   206    H   25  S      Ryd( 2S)     0.00088
 
   207    H   26  S      Val( 1S)     0.80292
   208    H   26  S      Ryd( 2S)     0.00469
 
   209    H   27  S      Val( 1S)     0.77751
   210    H   27  S      Ryd( 2S)     0.00097
 
   211    H   28  S      Val( 1S)     0.74820
   212    H   28  S      Ryd( 2S)     0.00102
 
   213    H   29  S      Val( 1S)     0.78735
   214    H   29  S      Ryd( 2S)     0.00203
 
   215    H   30  S      Val( 1S)     0.78807
   216    H   30  S      Ryd( 2S)     0.00255
 
   217    H   31  S      Val( 1S)     0.76343
   218    H   31  S      Ryd( 2S)     0.00090
 
   219    H   32  S      Val( 1S)     0.79192
   220    H   32  S      Ryd( 2S)     0.00186
 
   221    H   33  S      Val( 1S)     0.79017
   222    H   33  S      Ryd( 2S)     0.00378

 WARNING:  1 low occupancy (<1.9990e) core orbital  found on  N    3


 Summary of Natural Population Analysis:                  
                                                          
                                       Natural Population 
                Natural  -----------------------------------------------
    Atom  No    Charge         Core      Valence    Rydberg      Total
 -----------------------------------------------------------------------
      N    1   -0.45652      1.99935     5.44459    0.01258     7.45652
      C    2    0.37822      1.99913     3.58837    0.03428     5.62178
      N    3   -0.33340      1.99898     5.31527    0.01914     7.33340
      C    4    0.09788      1.99908     3.88404    0.01901     5.90212
      C    5   -0.66112      1.99931     4.65234    0.00947     6.66112
      C    6   -0.66529      1.99935     4.65562    0.01032     6.66529
      C    7   -0.67640      1.99935     4.66658    0.01047     6.67640
      N    8   -0.49703      1.99939     5.48377    0.01386     7.49703
      C    9   -0.46049      1.99946     4.44880    0.01223     6.46049
      C   10   -0.46742      1.99949     4.45528    0.01265     6.46742
      C   11   -0.46965      1.99946     4.45744    0.01275     6.46965
      C   12   -0.46580      1.99946     4.45405    0.01230     6.46580
      H   13    0.24186      0.00000     0.75709    0.00105     0.75814
      H   14    0.23573      0.00000     0.76319    0.00107     0.76427
      H   15    0.23711      0.00000     0.76152    0.00137     0.76289
      H   16    0.23363      0.00000     0.76517    0.00120     0.76637
      H   17    0.22188      0.00000     0.77654    0.00158     0.77812
      H   18    0.23511      0.00000     0.76368    0.00121     0.76489
      H   19    0.22196      0.00000     0.77712    0.00092     0.77804
      H   20    0.23745      0.00000     0.76112    0.00143     0.76255
      H   21    0.22114      0.00000     0.77709    0.00177     0.77886
      H   22    0.22286      0.00000     0.77625    0.00090     0.77714
      H   23    0.21401      0.00000     0.78373    0.00226     0.78599
      H   24    0.18700      0.00000     0.80648    0.00651     0.81300
      H   25    0.23466      0.00000     0.76446    0.00088     0.76534
      H   26    0.19239      0.00000     0.80292    0.00469     0.80761
      H   27    0.22152      0.00000     0.77751    0.00097     0.77848
      H   28    0.25078      0.00000     0.74820    0.00102     0.74922
      H   29    0.21063      0.00000     0.78735    0.00203     0.78937
      H   30    0.20938      0.00000     0.78807    0.00255     0.79062
      H   31    0.23567      0.00000     0.76343    0.00090     0.76433
      H   32    0.20623      0.00000     0.79192    0.00186     0.79377
      H   33    0.20605      0.00000     0.79017    0.00378     0.79395
 =======================================================================
   * Total *    0.00000     23.99182    71.78918    0.21900    96.00000

                                 Natural Population      
 --------------------------------------------------------
   Core                      23.99182 ( 99.9659% of  24)
   Valence                   71.78918 ( 99.7072% of  72)
   Natural Minimal Basis     95.78100 ( 99.7719% of  96)
   Natural Rydberg Basis      0.21900 (  0.2281% of  96)
 --------------------------------------------------------

    Atom  No          Natural Electron Configuration
 ----------------------------------------------------------------------------
      N    1      [core]2S( 1.19)2p( 4.26)3p( 0.01)
      C    2      [core]2S( 0.70)2p( 2.89)3p( 0.02)3d( 0.01)
      N    3      [core]2S( 1.27)2p( 4.04)3p( 0.01)
      C    4      [core]2S( 0.91)2p( 2.98)3p( 0.01)3d( 0.01)
      C    5      [core]2S( 1.10)2p( 3.55)3p( 0.01)
      C    6      [core]2S( 1.10)2p( 3.55)3p( 0.01)
      C    7      [core]2S( 1.10)2p( 3.56)3p( 0.01)
      N    8      [core]2S( 1.23)2p( 4.25)3p( 0.01)
      C    9      [core]2S( 1.08)2p( 3.37)3p( 0.01)3d( 0.01)
      C   10      [core]2S( 1.08)2p( 3.38)3p( 0.01)3d( 0.01)
      C   11      [core]2S( 1.08)2p( 3.37)3p( 0.01)
      C   12      [core]2S( 1.08)2p( 3.37)3p( 0.01)
      H   13            1S( 0.76)
      H   14            1S( 0.76)
      H   15            1S( 0.76)
      H   16            1S( 0.77)
      H   17            1S( 0.78)
      H   18            1S( 0.76)
      H   19            1S( 0.78)
      H   20            1S( 0.76)
      H   21            1S( 0.78)
      H   22            1S( 0.78)
      H   23            1S( 0.78)
      H   24            1S( 0.81)2S( 0.01)
      H   25            1S( 0.76)
      H   26            1S( 0.80)
      H   27            1S( 0.78)
      H   28            1S( 0.75)
      H   29            1S( 0.79)
      H   30            1S( 0.79)
      H   31            1S( 0.76)
      H   32            1S( 0.79)
      H   33            1S( 0.79)


 NBO analysis skipped by request.
 1\1\GINC-DELLA-R1C3N12\SP\RB3LYP TD-FC\6-31G(d)\C9H21N3\BJS4\24-Aug-20
 20\0\\# TD(NStates=10, Root=1) B3LYP/6-31G* scf=qc volume pop=NPA dens
 ity=current Geom=AllCheck Guess=Read\\Title Card Required\\0,1\N,0,1.2
 806753788,0.1927979436,0.2312488029\C,0,0.4533838817,-0.9001824981,-0.
 1015524927\N,0,-0.826864651,-0.9606185187,-0.1005579468\C,0,-1.7979044
 604,0.1393489062,-0.1356584152\C,0,-1.2847074347,1.489863941,-0.681004
 9965\C,0,-2.9113855474,-0.3618769625,-1.0863918181\C,0,-2.4196233836,0
 .3251572395,1.2649263703\N,0,1.1716887017,-2.0375604925,-0.5146392212\
 C,0,2.2501630372,-2.530024145,0.3360606116\C,0,0.4127832556,-3.1053434
 417,-1.1494732053\C,0,2.452614594,0.5302205226,-0.5538328202\C,0,1.194
 4735523,0.8326101655,1.5273307507\H,0,-0.784360194,1.3522836698,-1.646
 2277503\H,0,-0.5872292828,1.9883715439,-0.0050961594\H,0,-2.1338660287
 ,2.1663616278,-0.8376579751\H,0,-2.5144342965,-0.5027987697,-2.0982729
 982\H,0,-3.7413627637,0.3534783326,-1.1386649042\H,0,-3.2969323401,-1.
 325646536,-0.7393427977\H,0,-1.7059222071,0.7537569277,1.9757993798\H,
 0,-2.7554452092,-0.6400017634,1.6585286235\H,0,-3.2843317067,0.9979976
 87,1.2165955363\H,0,2.7560081111,-1.7006128125,0.8312300998\H,0,2.9862
 406816,-3.0738807449,-0.2676900068\H,0,1.8740835705,-3.2162083815,1.11
 38034321\H,0,-0.2832236477,-2.6796357295,-1.8728039406\H,0,-0.17362300
 8,-3.6922991507,-0.4263057866\H,0,1.113018819,-3.7748624287,-1.6630106
 515\H,0,2.4371426138,-0.0255276093,-1.4923136723\H,0,3.3970586497,0.30
 08894416,-0.0312152557\H,0,2.4560366716,1.6065768407,-0.7810569543\H,0
 ,0.3678395504,0.4064717648,2.0963698873\H,0,1.0377766279,1.9188709532,
 1.4455279174\H,0,2.1228284648,0.6772024773,2.1032483571\\Version=ES64L
 -G16RevA.03\State=1-A\HF=-519.8294524\RMSD=1.840e-10\Dipole=0.1867992,
 0.4319043,0.0273512\Quadrupole=0.7484379,0.2761647,-1.0246026,-0.11047
 48,0.6940749,0.7165175\PG=C01 [X(C9H21N3)]\\@


 IT CANNOT BE MY BEAUTY, FOR I HAVE NONE; AND IT CANNOT BE MY WIT,
 FOR HE HAS NOT ENOUGH TO KNOW THAT I HAVE ANY.
 -- CATHARINE SEDLEY, PUZZLED ABOUT WHY SHE WAS MISTRESS TO JAMES II
 Job cpu time:       0 days  0 hours 34 minutes 21.8 seconds.
 Elapsed time:       0 days  0 hours  6 minutes 53.5 seconds.
 File lengths (MBytes):  RWF=    456 Int=      0 D2E=      0 Chk=    268 Scr=      1
 Normal termination of Gaussian 16 at Mon Aug 24 16:51:33 2020.
