 Entering Gaussian System, Link 0=g16
 Input=base_9_conf18123.com
 Output=base_9_conf18123.log
 Initial command:
 /opt/export//g16/l1.exe "/scratch/bjs4/job.86983/Gau-86986.inp" -scrdir="/scratch/bjs4/job.86983/"
 Entering Link 1 = /opt/export//g16/l1.exe PID=     86988.
  
 Copyright (c) 1988,1990,1992,1993,1995,1998,2003,2009,2016,
            Gaussian, Inc.  All Rights Reserved.
  
 This is part of the Gaussian(R) 16 program.  It is based on
 the Gaussian(R) 09 system (copyright 2009, Gaussian, Inc.),
 the Gaussian(R) 03 system (copyright 2003, Gaussian, Inc.),
 the Gaussian(R) 98 system (copyright 1998, Gaussian, Inc.),
 the Gaussian(R) 94 system (copyright 1995, Gaussian, Inc.),
 the Gaussian 92(TM) system (copyright 1992, Gaussian, Inc.),
 the Gaussian 90(TM) system (copyright 1990, Gaussian, Inc.),
 the Gaussian 88(TM) system (copyright 1988, Gaussian, Inc.),
 the Gaussian 86(TM) system (copyright 1986, Carnegie Mellon
 University), and the Gaussian 82(TM) system (copyright 1983,
 Carnegie Mellon University). Gaussian is a federally registered
 trademark of Gaussian, Inc.
  
 This software contains proprietary and confidential information,
 including trade secrets, belonging to Gaussian, Inc.
  
 This software is provided under written license and may be
 used, copied, transmitted, or stored only in accord with that
 written license.
  
 The following legend is applicable only to US Government
 contracts under FAR:
  
                    RESTRICTED RIGHTS LEGEND
  
 Use, reproduction and disclosure by the US Government is
 subject to restrictions as set forth in subparagraphs (a)
 and (c) of the Commercial Computer Software - Restricted
 Rights clause in FAR 52.227-19.
  
 Gaussian, Inc.
 340 Quinnipiac St., Bldg. 40, Wallingford CT 06492
  
  
 ---------------------------------------------------------------
 Warning -- This program may not be used in any manner that
 competes with the business of Gaussian, Inc. or will provide
 assistance to any competitor of Gaussian, Inc.  The licensee
 of this program is prohibited from giving any competitor of
 Gaussian, Inc. access to this program.  By using this program,
 the user acknowledges that Gaussian, Inc. is engaged in the
 business of creating and licensing software in the field of
 computational chemistry and represents and warrants to the
 licensee that it is not a competitor of Gaussian, Inc. and that
 it will not use this program in any manner prohibited above.
 ---------------------------------------------------------------
  

 Cite this work as:
 Gaussian 16, Revision A.03,
 M. J. Frisch, G. W. Trucks, H. B. Schlegel, G. E. Scuseria, 
 M. A. Robb, J. R. Cheeseman, G. Scalmani, V. Barone, 
 G. A. Petersson, H. Nakatsuji, X. Li, M. Caricato, A. V. Marenich, 
 J. Bloino, B. G. Janesko, R. Gomperts, B. Mennucci, H. P. Hratchian, 
 J. V. Ortiz, A. F. Izmaylov, J. L. Sonnenberg, D. Williams-Young, 
 F. Ding, F. Lipparini, F. Egidi, J. Goings, B. Peng, A. Petrone, 
 T. Henderson, D. Ranasinghe, V. G. Zakrzewski, J. Gao, N. Rega, 
 G. Zheng, W. Liang, M. Hada, M. Ehara, K. Toyota, R. Fukuda, 
 J. Hasegawa, M. Ishida, T. Nakajima, Y. Honda, O. Kitao, H. Nakai, 
 T. Vreven, K. Throssell, J. A. Montgomery, Jr., J. E. Peralta, 
 F. Ogliaro, M. J. Bearpark, J. J. Heyd, E. N. Brothers, K. N. Kudin, 
 V. N. Staroverov, T. A. Keith, R. Kobayashi, J. Normand, 
 K. Raghavachari, A. P. Rendell, J. C. Burant, S. S. Iyengar, 
 J. Tomasi, M. Cossi, J. M. Millam, M. Klene, C. Adamo, R. Cammi, 
 J. W. Ochterski, R. L. Martin, K. Morokuma, O. Farkas, 
 J. B. Foresman, and D. J. Fox, Gaussian, Inc., Wallingford CT, 2016.
 
 ******************************************
 Gaussian 16:  ES64L-G16RevA.03 25-Dec-2016
                24-Aug-2020 
 ******************************************
 %nprocshared=7
 Will use up to    7 processors via shared memory.
 %Mem=14GB
 %Chk=base_9_conf181.chk
 ---------------------------------
 # opt=CalcAll B3LYP/6-31G* scf=qc
 ---------------------------------
 1/10=4,18=20,19=15,26=3,38=1/1,3;
 2/9=110,12=2,17=6,18=5,40=1/2;
 3/5=1,6=6,7=1,11=2,25=1,30=1,71=2,74=-5,140=1/1,2,3;
 4//1;
 5/5=2,8=3,38=5/8;
 8/6=4,10=90,11=11/1;
 11/6=1,8=1,9=11,15=111,16=1/1,2,10;
 10/6=1/2;
 6/7=2,8=2,9=2,10=2,18=1,28=1/1;
 7/10=1,25=1/1,2,3,16;
 1/10=4,18=20,19=15,26=3/3(3);
 2/9=110/2;
 7/8=1,9=1,25=1,44=-1/16;
 99//99;
 2/9=110/2;
 3/5=1,6=6,7=1,11=2,25=1,30=1,71=2,74=-5,140=1/1,2,3;
 4/5=5,16=3,69=1/1;
 5/5=2,8=3,38=5/8;
 8/6=4,10=90,11=11/1;
 11/6=1,8=1,9=11,15=111,16=1/1,2,10;
 10/6=1/2;
 7/10=1,25=1/1,2,3,16;
 1/10=4,18=20,19=15,26=3/3(-8);
 2/9=110/2;
 6/7=2,8=2,9=2,10=2,18=1,19=2,28=1/1;
 7/8=1,9=1,25=1,44=-1/16;
 99//99;
 -------------------
 Title Card Required
 -------------------
 Symbolic Z-matrix:
 Charge =  0 Multiplicity = 1
 P                     1.082    -0.0564    0.0094 
 N1                    1.0483    0.5576    1.4384 
 C                     1.0614   -0.1704    2.7563 
 C                     2.42563  -0.46155   3.39671 
 C                     0.26847   0.63454   3.8243 
 C                     0.22756  -1.47461   2.63046 
 N                     1.1236    1.2666   -1.0195 
 C                     1.71161   2.5681   -0.72194 
 C                     1.17882   3.48331  -1.8139 
 C                     1.06882   2.57233  -3.01376 
 C                     0.69957   1.22591  -2.41501 
 N                    -0.698    -0.0564    0.0094 
 C                    -1.3698    0.99515   0.80471 
 C                    -2.7694    1.19161   0.24774 
 C                    -2.6177    0.80556  -1.19554 
 C                    -1.559    -0.28092  -1.14651 
 N                     2.862    -0.0564    0.0094 
 C                     3.6924   -1.15986   0.47549 
 C                     5.0651   -0.92374  -0.1447 
 C                     4.7644   -0.15066  -1.4105 
 C                     3.5367    0.66583  -1.05818 
 H                     2.84044   0.42961   3.87233 
 H                     3.18982  -0.82348   2.7147 
 H                     2.32847  -1.20405   4.2004 
 H                     0.78261   1.55069   4.12236 
 H                     0.15026   0.04593   4.74523 
 H                    -0.73609   0.89923   3.47639 
 H                     0.71779  -2.25751   2.06198 
 H                    -0.74822  -1.28335   2.16528 
 H                     0.03443  -1.9236    3.61287 
 H                     2.80358   2.52325  -0.75843 
 H                     1.41427   2.95847   0.25835 
 H                     1.83024   4.33848  -2.00219 
 H                     0.18486   3.86541  -1.55017 
 H                     2.04066   2.51036  -3.51712 
 H                     0.32962   2.92401  -3.73947 
 H                     1.18516   0.4361   -2.99545 
 H                    -0.37952   1.0616   -2.46828 
 H                    -0.8173    1.9375    0.72906 
 H                    -1.4533    0.71936   1.85918 
 H                    -3.1286    2.21878   0.36548 
 H                    -3.4816    0.52175   0.74394 
 H                    -2.272     1.65671  -1.79121 
 H                    -3.5571    0.44216  -1.62603 
 H                    -1.0583   -0.30146  -2.10459 
 H                    -2.0907   -1.22221  -0.98619 
 H                     3.3475   -2.14509   0.18463 
 H                     3.7732   -1.1753    1.5731 
 H                     5.5891   -1.86209  -0.35576 
 H                     5.6907   -0.32316   0.52395 
 H                     4.5443   -0.84223  -2.23214 
 H                     5.6076    0.47433  -1.719 
 H                     2.9026    0.8292   -1.93293 
 H                     3.8322    1.65287  -0.68771 
 

 GradGradGradGradGradGradGradGradGradGradGradGradGradGradGradGradGradGrad
 Berny optimization.
 Initialization pass.
                           ----------------------------
                           !    Initial Parameters    !
                           ! (Angstroms and Degrees)  !
 --------------------------                            --------------------------
 ! Name  Definition              Value          Derivative Info.                !
 --------------------------------------------------------------------------------
 ! R1    R(1,2)                  1.5557         calculate D2E/DX2 analytically  !
 ! R2    R(1,7)                  1.6765         calculate D2E/DX2 analytically  !
 ! R3    R(1,12)                 1.78           calculate D2E/DX2 analytically  !
 ! R4    R(1,17)                 1.78           calculate D2E/DX2 analytically  !
 ! R5    R(2,3)                  1.5057         calculate D2E/DX2 analytically  !
 ! R6    R(3,4)                  1.5349         calculate D2E/DX2 analytically  !
 ! R7    R(3,5)                  1.5548         calculate D2E/DX2 analytically  !
 ! R8    R(3,6)                  1.5531         calculate D2E/DX2 analytically  !
 ! R9    R(4,22)                 1.092          calculate D2E/DX2 analytically  !
 ! R10   R(4,23)                 1.0863         calculate D2E/DX2 analytically  !
 ! R11   R(4,24)                 1.0985         calculate D2E/DX2 analytically  !
 ! R12   R(5,25)                 1.092          calculate D2E/DX2 analytically  !
 ! R13   R(5,26)                 1.0993         calculate D2E/DX2 analytically  !
 ! R14   R(5,27)                 1.0956         calculate D2E/DX2 analytically  !
 ! R15   R(6,28)                 1.0846         calculate D2E/DX2 analytically  !
 ! R16   R(6,29)                 1.0978         calculate D2E/DX2 analytically  !
 ! R17   R(6,30)                 1.0973         calculate D2E/DX2 analytically  !
 ! R18   R(7,8)                  1.4588         calculate D2E/DX2 analytically  !
 ! R19   R(7,11)                 1.4591         calculate D2E/DX2 analytically  !
 ! R20   R(8,9)                  1.5211         calculate D2E/DX2 analytically  !
 ! R21   R(8,31)                 1.0935         calculate D2E/DX2 analytically  !
 ! R22   R(8,32)                 1.0963         calculate D2E/DX2 analytically  !
 ! R23   R(9,10)                 1.5105         calculate D2E/DX2 analytically  !
 ! R24   R(9,33)                 1.0914         calculate D2E/DX2 analytically  !
 ! R25   R(9,34)                 1.097          calculate D2E/DX2 analytically  !
 ! R26   R(10,11)                1.5191         calculate D2E/DX2 analytically  !
 ! R27   R(10,35)                1.0962         calculate D2E/DX2 analytically  !
 ! R28   R(10,36)                1.094          calculate D2E/DX2 analytically  !
 ! R29   R(11,37)                1.0939         calculate D2E/DX2 analytically  !
 ! R30   R(11,38)                1.0928         calculate D2E/DX2 analytically  !
 ! R31   R(12,13)                1.4797         calculate D2E/DX2 analytically  !
 ! R32   R(12,16)                1.4587         calculate D2E/DX2 analytically  !
 ! R33   R(13,14)                1.5191         calculate D2E/DX2 analytically  !
 ! R34   R(13,39)                1.095          calculate D2E/DX2 analytically  !
 ! R35   R(13,40)                1.0931         calculate D2E/DX2 analytically  !
 ! R36   R(14,15)                1.5017         calculate D2E/DX2 analytically  !
 ! R37   R(14,41)                1.0945         calculate D2E/DX2 analytically  !
 ! R38   R(14,42)                1.0964         calculate D2E/DX2 analytically  !
 ! R39   R(15,16)                1.5178         calculate D2E/DX2 analytically  !
 ! R40   R(15,43)                1.0949         calculate D2E/DX2 analytically  !
 ! R41   R(15,44)                1.0954         calculate D2E/DX2 analytically  !
 ! R42   R(16,45)                1.0812         calculate D2E/DX2 analytically  !
 ! R43   R(16,46)                1.0929         calculate D2E/DX2 analytically  !
 ! R44   R(17,18)                1.4575         calculate D2E/DX2 analytically  !
 ! R45   R(17,21)                1.4548         calculate D2E/DX2 analytically  !
 ! R46   R(18,19)                1.5247         calculate D2E/DX2 analytically  !
 ! R47   R(18,47)                1.0836         calculate D2E/DX2 analytically  !
 ! R48   R(18,48)                1.1007         calculate D2E/DX2 analytically  !
 ! R49   R(19,20)                1.5134         calculate D2E/DX2 analytically  !
 ! R50   R(19,49)                1.0953         calculate D2E/DX2 analytically  !
 ! R51   R(19,50)                1.0951         calculate D2E/DX2 analytically  !
 ! R52   R(20,21)                1.5159         calculate D2E/DX2 analytically  !
 ! R53   R(20,51)                1.0963         calculate D2E/DX2 analytically  !
 ! R54   R(20,52)                1.094          calculate D2E/DX2 analytically  !
 ! R55   R(21,53)                1.0927         calculate D2E/DX2 analytically  !
 ! R56   R(21,54)                1.0949         calculate D2E/DX2 analytically  !
 ! A1    A(2,1,7)              104.6442         calculate D2E/DX2 analytically  !
 ! A2    A(2,1,12)              88.7587         calculate D2E/DX2 analytically  !
 ! A3    A(2,1,17)              91.2413         calculate D2E/DX2 analytically  !
 ! A4    A(7,1,12)              91.4218         calculate D2E/DX2 analytically  !
 ! A5    A(7,1,17)              88.5782         calculate D2E/DX2 analytically  !
 ! A6    A(1,2,3)              127.8064         calculate D2E/DX2 analytically  !
 ! A7    A(2,3,4)              117.687          calculate D2E/DX2 analytically  !
 ! A8    A(2,3,5)              110.2733         calculate D2E/DX2 analytically  !
 ! A9    A(2,3,6)              109.2951         calculate D2E/DX2 analytically  !
 ! A10   A(4,3,5)              105.3602         calculate D2E/DX2 analytically  !
 ! A11   A(4,3,6)              110.5914         calculate D2E/DX2 analytically  !
 ! A12   A(5,3,6)              102.5096         calculate D2E/DX2 analytically  !
 ! A13   A(3,4,22)             111.3796         calculate D2E/DX2 analytically  !
 ! A14   A(3,4,23)             115.2447         calculate D2E/DX2 analytically  !
 ! A15   A(3,4,24)             110.7846         calculate D2E/DX2 analytically  !
 ! A16   A(22,4,23)            106.1479         calculate D2E/DX2 analytically  !
 ! A17   A(22,4,24)            105.4592         calculate D2E/DX2 analytically  !
 ! A18   A(23,4,24)            107.2385         calculate D2E/DX2 analytically  !
 ! A19   A(3,5,25)             112.4402         calculate D2E/DX2 analytically  !
 ! A20   A(3,5,26)             110.6758         calculate D2E/DX2 analytically  !
 ! A21   A(3,5,27)             111.9985         calculate D2E/DX2 analytically  !
 ! A22   A(25,5,26)            105.7338         calculate D2E/DX2 analytically  !
 ! A23   A(25,5,27)            108.4027         calculate D2E/DX2 analytically  !
 ! A24   A(26,5,27)            107.2649         calculate D2E/DX2 analytically  !
 ! A25   A(3,6,28)             113.9505         calculate D2E/DX2 analytically  !
 ! A26   A(3,6,29)             111.4232         calculate D2E/DX2 analytically  !
 ! A27   A(3,6,30)             111.4425         calculate D2E/DX2 analytically  !
 ! A28   A(28,6,29)            107.7829         calculate D2E/DX2 analytically  !
 ! A29   A(28,6,30)            104.6819         calculate D2E/DX2 analytically  !
 ! A30   A(29,6,30)            107.1113         calculate D2E/DX2 analytically  !
 ! A31   A(1,7,8)              126.0755         calculate D2E/DX2 analytically  !
 ! A32   A(1,7,11)             123.9009         calculate D2E/DX2 analytically  !
 ! A33   A(8,7,11)             109.7004         calculate D2E/DX2 analytically  !
 ! A34   A(7,8,9)              104.4286         calculate D2E/DX2 analytically  !
 ! A35   A(7,8,31)             111.0453         calculate D2E/DX2 analytically  !
 ! A36   A(7,8,32)             113.0018         calculate D2E/DX2 analytically  !
 ! A37   A(9,8,31)             110.5173         calculate D2E/DX2 analytically  !
 ! A38   A(9,8,32)             109.4311         calculate D2E/DX2 analytically  !
 ! A39   A(31,8,32)            108.3789         calculate D2E/DX2 analytically  !
 ! A40   A(8,9,10)             103.4662         calculate D2E/DX2 analytically  !
 ! A41   A(8,9,33)             112.7201         calculate D2E/DX2 analytically  !
 ! A42   A(8,9,34)             110.7524         calculate D2E/DX2 analytically  !
 ! A43   A(10,9,33)            112.2709         calculate D2E/DX2 analytically  !
 ! A44   A(10,9,34)            109.5747         calculate D2E/DX2 analytically  !
 ! A45   A(33,9,34)            108.02           calculate D2E/DX2 analytically  !
 ! A46   A(9,10,11)            103.8364         calculate D2E/DX2 analytically  !
 ! A47   A(9,10,35)            109.5286         calculate D2E/DX2 analytically  !
 ! A48   A(9,10,36)            112.4747         calculate D2E/DX2 analytically  !
 ! A49   A(11,10,35)           110.2655         calculate D2E/DX2 analytically  !
 ! A50   A(11,10,36)           112.4671         calculate D2E/DX2 analytically  !
 ! A51   A(35,10,36)           108.2165         calculate D2E/DX2 analytically  !
 ! A52   A(7,11,10)            106.3567         calculate D2E/DX2 analytically  !
 ! A53   A(7,11,37)            113.4935         calculate D2E/DX2 analytically  !
 ! A54   A(7,11,38)            109.7415         calculate D2E/DX2 analytically  !
 ! A55   A(10,11,37)           108.839          calculate D2E/DX2 analytically  !
 ! A56   A(10,11,38)           110.736          calculate D2E/DX2 analytically  !
 ! A57   A(37,11,38)           107.6932         calculate D2E/DX2 analytically  !
 ! A58   A(1,12,13)            117.0008         calculate D2E/DX2 analytically  !
 ! A59   A(1,12,16)            126.1743         calculate D2E/DX2 analytically  !
 ! A60   A(13,12,16)           105.504          calculate D2E/DX2 analytically  !
 ! A61   A(12,13,14)           108.248          calculate D2E/DX2 analytically  !
 ! A62   A(12,13,39)           110.2042         calculate D2E/DX2 analytically  !
 ! A63   A(12,13,40)           111.9533         calculate D2E/DX2 analytically  !
 ! A64   A(14,13,39)           109.1625         calculate D2E/DX2 analytically  !
 ! A65   A(14,13,40)           108.4167         calculate D2E/DX2 analytically  !
 ! A66   A(39,13,40)           108.8027         calculate D2E/DX2 analytically  !
 ! A67   A(13,14,15)           103.0653         calculate D2E/DX2 analytically  !
 ! A68   A(13,14,41)           112.5997         calculate D2E/DX2 analytically  !
 ! A69   A(13,14,42)           110.7029         calculate D2E/DX2 analytically  !
 ! A70   A(15,14,41)           112.1973         calculate D2E/DX2 analytically  !
 ! A71   A(15,14,42)           110.0911         calculate D2E/DX2 analytically  !
 ! A72   A(41,14,42)           108.1495         calculate D2E/DX2 analytically  !
 ! A73   A(14,15,16)           102.9111         calculate D2E/DX2 analytically  !
 ! A74   A(14,15,43)           110.7891         calculate D2E/DX2 analytically  !
 ! A75   A(14,15,44)           112.109          calculate D2E/DX2 analytically  !
 ! A76   A(16,15,43)           110.7207         calculate D2E/DX2 analytically  !
 ! A77   A(16,15,44)           111.9264         calculate D2E/DX2 analytically  !
 ! A78   A(43,15,44)           108.3529         calculate D2E/DX2 analytically  !
 ! A79   A(12,16,15)           109.0948         calculate D2E/DX2 analytically  !
 ! A80   A(12,16,45)           115.579          calculate D2E/DX2 analytically  !
 ! A81   A(12,16,46)           107.6667         calculate D2E/DX2 analytically  !
 ! A82   A(15,16,45)           107.9382         calculate D2E/DX2 analytically  !
 ! A83   A(15,16,46)           106.3746         calculate D2E/DX2 analytically  !
 ! A84   A(45,16,46)           109.8109         calculate D2E/DX2 analytically  !
 ! A85   A(1,17,18)            124.7311         calculate D2E/DX2 analytically  !
 ! A86   A(1,17,21)            117.6301         calculate D2E/DX2 analytically  !
 ! A87   A(18,17,21)           110.2595         calculate D2E/DX2 analytically  !
 ! A88   A(17,18,19)           105.4035         calculate D2E/DX2 analytically  !
 ! A89   A(17,18,47)           114.9079         calculate D2E/DX2 analytically  !
 ! A90   A(17,18,48)           111.7974         calculate D2E/DX2 analytically  !
 ! A91   A(19,18,47)           108.5527         calculate D2E/DX2 analytically  !
 ! A92   A(19,18,48)           109.9809         calculate D2E/DX2 analytically  !
 ! A93   A(47,18,48)           106.1573         calculate D2E/DX2 analytically  !
 ! A94   A(18,19,20)           103.9126         calculate D2E/DX2 analytically  !
 ! A95   A(18,19,49)           112.113          calculate D2E/DX2 analytically  !
 ! A96   A(18,19,50)           110.5425         calculate D2E/DX2 analytically  !
 ! A97   A(20,19,49)           111.8097         calculate D2E/DX2 analytically  !
 ! A98   A(20,19,50)           110.1246         calculate D2E/DX2 analytically  !
 ! A99   A(49,19,50)           108.3133         calculate D2E/DX2 analytically  !
 ! A100  A(19,20,21)           103.9847         calculate D2E/DX2 analytically  !
 ! A101  A(19,20,51)           110.1523         calculate D2E/DX2 analytically  !
 ! A102  A(19,20,52)           111.997          calculate D2E/DX2 analytically  !
 ! A103  A(21,20,51)           110.5709         calculate D2E/DX2 analytically  !
 ! A104  A(21,20,52)           112.4609         calculate D2E/DX2 analytically  !
 ! A105  A(51,20,52)           107.6857         calculate D2E/DX2 analytically  !
 ! A106  A(17,21,20)           106.1856         calculate D2E/DX2 analytically  !
 ! A107  A(17,21,53)           113.1132         calculate D2E/DX2 analytically  !
 ! A108  A(17,21,54)           108.9291         calculate D2E/DX2 analytically  !
 ! A109  A(20,21,53)           111.3736         calculate D2E/DX2 analytically  !
 ! A110  A(20,21,54)           110.2192         calculate D2E/DX2 analytically  !
 ! A111  A(53,21,54)           107.0202         calculate D2E/DX2 analytically  !
 ! A112  L(12,1,17,2,-1)       180.0            calculate D2E/DX2 analytically  !
 ! A113  L(12,1,17,2,-2)       180.0            calculate D2E/DX2 analytically  !
 ! D1    D(7,1,2,3)           -177.26           calculate D2E/DX2 analytically  !
 ! D2    D(12,1,2,3)            91.5945         calculate D2E/DX2 analytically  !
 ! D3    D(17,1,2,3)           -88.4055         calculate D2E/DX2 analytically  !
 ! D4    D(2,1,7,8)             29.6472         calculate D2E/DX2 analytically  !
 ! D5    D(2,1,7,11)          -157.5622         calculate D2E/DX2 analytically  !
 ! D6    D(12,1,7,8)           118.7356         calculate D2E/DX2 analytically  !
 ! D7    D(12,1,7,11)          -68.4739         calculate D2E/DX2 analytically  !
 ! D8    D(17,1,7,8)           -61.2644         calculate D2E/DX2 analytically  !
 ! D9    D(17,1,7,11)          111.5261         calculate D2E/DX2 analytically  !
 ! D10   D(2,1,12,13)           29.6472         calculate D2E/DX2 analytically  !
 ! D11   D(2,1,12,16)          167.7403         calculate D2E/DX2 analytically  !
 ! D12   D(7,1,12,13)          -74.9733         calculate D2E/DX2 analytically  !
 ! D13   D(7,1,12,16)           63.1198         calculate D2E/DX2 analytically  !
 ! D14   D(13,12,17,18)        120.0003         calculate D2E/DX2 analytically  !
 ! D15   D(13,12,17,21)        -93.0222         calculate D2E/DX2 analytically  !
 ! D16   D(16,12,17,18)       -101.9066         calculate D2E/DX2 analytically  !
 ! D17   D(16,12,17,21)         45.0709         calculate D2E/DX2 analytically  !
 ! D18   D(2,1,17,18)           90.3531         calculate D2E/DX2 analytically  !
 ! D19   D(2,1,17,21)         -122.6694         calculate D2E/DX2 analytically  !
 ! D20   D(7,1,17,18)         -165.0264         calculate D2E/DX2 analytically  !
 ! D21   D(7,1,17,21)          -18.0489         calculate D2E/DX2 analytically  !
 ! D22   D(1,2,3,4)             90.3527         calculate D2E/DX2 analytically  !
 ! D23   D(1,2,3,5)           -148.8025         calculate D2E/DX2 analytically  !
 ! D24   D(1,2,3,6)            -36.8418         calculate D2E/DX2 analytically  !
 ! D25   D(2,3,4,22)            77.4319         calculate D2E/DX2 analytically  !
 ! D26   D(2,3,4,23)           -43.5521         calculate D2E/DX2 analytically  !
 ! D27   D(2,3,4,24)          -165.5181         calculate D2E/DX2 analytically  !
 ! D28   D(5,3,4,22)           -45.9308         calculate D2E/DX2 analytically  !
 ! D29   D(5,3,4,23)          -166.9148         calculate D2E/DX2 analytically  !
 ! D30   D(5,3,4,24)            71.1191         calculate D2E/DX2 analytically  !
 ! D31   D(6,3,4,22)          -156.0005         calculate D2E/DX2 analytically  !
 ! D32   D(6,3,4,23)            83.0155         calculate D2E/DX2 analytically  !
 ! D33   D(6,3,4,24)           -38.9506         calculate D2E/DX2 analytically  !
 ! D34   D(2,3,5,25)           -70.1151         calculate D2E/DX2 analytically  !
 ! D35   D(2,3,5,26)           171.887          calculate D2E/DX2 analytically  !
 ! D36   D(2,3,5,27)            52.244          calculate D2E/DX2 analytically  !
 ! D37   D(4,3,5,25)            57.8472         calculate D2E/DX2 analytically  !
 ! D38   D(4,3,5,26)           -60.1507         calculate D2E/DX2 analytically  !
 ! D39   D(4,3,5,27)          -179.7937         calculate D2E/DX2 analytically  !
 ! D40   D(6,3,5,25)           173.6037         calculate D2E/DX2 analytically  !
 ! D41   D(6,3,5,26)            55.6058         calculate D2E/DX2 analytically  !
 ! D42   D(6,3,5,27)           -64.0372         calculate D2E/DX2 analytically  !
 ! D43   D(2,3,6,28)            73.8471         calculate D2E/DX2 analytically  !
 ! D44   D(2,3,6,29)           -48.3798         calculate D2E/DX2 analytically  !
 ! D45   D(2,3,6,30)          -167.962          calculate D2E/DX2 analytically  !
 ! D46   D(4,3,6,28)           -57.2568         calculate D2E/DX2 analytically  !
 ! D47   D(4,3,6,29)          -179.4837         calculate D2E/DX2 analytically  !
 ! D48   D(4,3,6,30)            60.9342         calculate D2E/DX2 analytically  !
 ! D49   D(5,3,6,28)          -169.1701         calculate D2E/DX2 analytically  !
 ! D50   D(5,3,6,29)            68.603          calculate D2E/DX2 analytically  !
 ! D51   D(5,3,6,30)           -50.9791         calculate D2E/DX2 analytically  !
 ! D52   D(1,7,8,9)           -166.1339         calculate D2E/DX2 analytically  !
 ! D53   D(1,7,8,31)            74.7377         calculate D2E/DX2 analytically  !
 ! D54   D(1,7,8,32)           -47.2917         calculate D2E/DX2 analytically  !
 ! D55   D(11,7,8,9)            20.2182         calculate D2E/DX2 analytically  !
 ! D56   D(11,7,8,31)          -98.9102         calculate D2E/DX2 analytically  !
 ! D57   D(11,7,8,32)          139.0604         calculate D2E/DX2 analytically  !
 ! D58   D(1,7,11,10)         -172.8865         calculate D2E/DX2 analytically  !
 ! D59   D(1,7,11,37)          -53.2481         calculate D2E/DX2 analytically  !
 ! D60   D(1,7,11,38)           67.2876         calculate D2E/DX2 analytically  !
 ! D61   D(8,7,11,10)            0.9286         calculate D2E/DX2 analytically  !
 ! D62   D(8,7,11,37)          120.567          calculate D2E/DX2 analytically  !
 ! D63   D(8,7,11,38)         -118.8973         calculate D2E/DX2 analytically  !
 ! D64   D(7,8,9,10)           -33.2713         calculate D2E/DX2 analytically  !
 ! D65   D(7,8,9,33)          -154.7882         calculate D2E/DX2 analytically  !
 ! D66   D(7,8,9,34)            84.0605         calculate D2E/DX2 analytically  !
 ! D67   D(31,8,9,10)           86.214          calculate D2E/DX2 analytically  !
 ! D68   D(31,8,9,33)          -35.3028         calculate D2E/DX2 analytically  !
 ! D69   D(31,8,9,34)         -156.4542         calculate D2E/DX2 analytically  !
 ! D70   D(32,8,9,10)         -154.5109         calculate D2E/DX2 analytically  !
 ! D71   D(32,8,9,33)           83.9722         calculate D2E/DX2 analytically  !
 ! D72   D(32,8,9,34)          -37.1791         calculate D2E/DX2 analytically  !
 ! D73   D(8,9,10,11)           33.5732         calculate D2E/DX2 analytically  !
 ! D74   D(8,9,10,35)          -84.1922         calculate D2E/DX2 analytically  !
 ! D75   D(8,9,10,36)          155.4311         calculate D2E/DX2 analytically  !
 ! D76   D(33,9,10,11)         155.3916         calculate D2E/DX2 analytically  !
 ! D77   D(33,9,10,35)          37.6262         calculate D2E/DX2 analytically  !
 ! D78   D(33,9,10,36)         -82.7505         calculate D2E/DX2 analytically  !
 ! D79   D(34,9,10,11)         -84.5808         calculate D2E/DX2 analytically  !
 ! D80   D(34,9,10,35)         157.6538         calculate D2E/DX2 analytically  !
 ! D81   D(34,9,10,36)          37.2771         calculate D2E/DX2 analytically  !
 ! D82   D(9,10,11,7)          -21.7986         calculate D2E/DX2 analytically  !
 ! D83   D(9,10,11,37)        -144.4219         calculate D2E/DX2 analytically  !
 ! D84   D(9,10,11,38)          97.3792         calculate D2E/DX2 analytically  !
 ! D85   D(35,10,11,7)          95.4547         calculate D2E/DX2 analytically  !
 ! D86   D(35,10,11,37)        -27.1686         calculate D2E/DX2 analytically  !
 ! D87   D(35,10,11,38)       -145.3675         calculate D2E/DX2 analytically  !
 ! D88   D(36,10,11,7)        -143.6616         calculate D2E/DX2 analytically  !
 ! D89   D(36,10,11,37)         93.7151         calculate D2E/DX2 analytically  !
 ! D90   D(36,10,11,38)        -24.4838         calculate D2E/DX2 analytically  !
 ! D91   D(1,12,13,14)         157.0423         calculate D2E/DX2 analytically  !
 ! D92   D(1,12,13,39)          37.7261         calculate D2E/DX2 analytically  !
 ! D93   D(1,12,13,40)         -83.5144         calculate D2E/DX2 analytically  !
 ! D94   D(16,12,13,14)         11.0651         calculate D2E/DX2 analytically  !
 ! D95   D(16,12,13,39)       -108.2511         calculate D2E/DX2 analytically  !
 ! D96   D(16,12,13,40)        130.5084         calculate D2E/DX2 analytically  !
 ! D97   D(1,12,16,15)        -131.3984         calculate D2E/DX2 analytically  !
 ! D98   D(1,12,16,45)          -9.5926         calculate D2E/DX2 analytically  !
 ! D99   D(1,12,16,46)         113.555          calculate D2E/DX2 analytically  !
 ! D100  D(13,12,16,15)         10.4611         calculate D2E/DX2 analytically  !
 ! D101  D(13,12,16,45)        132.2669         calculate D2E/DX2 analytically  !
 ! D102  D(13,12,16,46)       -104.5855         calculate D2E/DX2 analytically  !
 ! D103  D(12,13,14,15)        -28.1236         calculate D2E/DX2 analytically  !
 ! D104  D(12,13,14,41)       -149.2344         calculate D2E/DX2 analytically  !
 ! D105  D(12,13,14,42)         89.5666         calculate D2E/DX2 analytically  !
 ! D106  D(39,13,14,15)         91.8475         calculate D2E/DX2 analytically  !
 ! D107  D(39,13,14,41)        -29.2633         calculate D2E/DX2 analytically  !
 ! D108  D(39,13,14,42)       -150.4623         calculate D2E/DX2 analytically  !
 ! D109  D(40,13,14,15)       -149.7706         calculate D2E/DX2 analytically  !
 ! D110  D(40,13,14,41)         89.1186         calculate D2E/DX2 analytically  !
 ! D111  D(40,13,14,42)        -32.0804         calculate D2E/DX2 analytically  !
 ! D112  D(13,14,15,16)         32.8583         calculate D2E/DX2 analytically  !
 ! D113  D(13,14,15,43)        -85.5203         calculate D2E/DX2 analytically  !
 ! D114  D(13,14,15,44)        153.2979         calculate D2E/DX2 analytically  !
 ! D115  D(41,14,15,16)        154.2425         calculate D2E/DX2 analytically  !
 ! D116  D(41,14,15,43)         35.8638         calculate D2E/DX2 analytically  !
 ! D117  D(41,14,15,44)        -85.3179         calculate D2E/DX2 analytically  !
 ! D118  D(42,14,15,16)        -85.2615         calculate D2E/DX2 analytically  !
 ! D119  D(42,14,15,43)        156.3598         calculate D2E/DX2 analytically  !
 ! D120  D(42,14,15,44)         35.1781         calculate D2E/DX2 analytically  !
 ! D121  D(14,15,16,12)        -27.8204         calculate D2E/DX2 analytically  !
 ! D122  D(14,15,16,45)       -154.1412         calculate D2E/DX2 analytically  !
 ! D123  D(14,15,16,46)         88.0569         calculate D2E/DX2 analytically  !
 ! D124  D(43,15,16,12)         90.6062         calculate D2E/DX2 analytically  !
 ! D125  D(43,15,16,45)        -35.7146         calculate D2E/DX2 analytically  !
 ! D126  D(43,15,16,46)       -153.5165         calculate D2E/DX2 analytically  !
 ! D127  D(44,15,16,12)       -148.3853         calculate D2E/DX2 analytically  !
 ! D128  D(44,15,16,45)         85.2938         calculate D2E/DX2 analytically  !
 ! D129  D(44,15,16,46)        -32.5081         calculate D2E/DX2 analytically  !
 ! D130  D(1,17,18,19)         160.9637         calculate D2E/DX2 analytically  !
 ! D131  D(1,17,18,47)          41.5041         calculate D2E/DX2 analytically  !
 ! D132  D(1,17,18,48)         -79.5698         calculate D2E/DX2 analytically  !
 ! D133  D(21,17,18,19)         11.9385         calculate D2E/DX2 analytically  !
 ! D134  D(21,17,18,47)       -107.5212         calculate D2E/DX2 analytically  !
 ! D135  D(21,17,18,48)        131.405          calculate D2E/DX2 analytically  !
 ! D136  D(1,17,21,20)        -143.121          calculate D2E/DX2 analytically  !
 ! D137  D(1,17,21,53)         -20.6758         calculate D2E/DX2 analytically  !
 ! D138  D(1,17,21,54)          98.194          calculate D2E/DX2 analytically  !
 ! D139  D(18,17,21,20)          8.3626         calculate D2E/DX2 analytically  !
 ! D140  D(18,17,21,53)        130.8078         calculate D2E/DX2 analytically  !
 ! D141  D(18,17,21,54)       -110.3223         calculate D2E/DX2 analytically  !
 ! D142  D(17,18,19,20)        -27.3402         calculate D2E/DX2 analytically  !
 ! D143  D(17,18,19,49)       -148.257          calculate D2E/DX2 analytically  !
 ! D144  D(17,18,19,50)         90.7821         calculate D2E/DX2 analytically  !
 ! D145  D(47,18,19,20)         96.2511         calculate D2E/DX2 analytically  !
 ! D146  D(47,18,19,49)        -24.6656         calculate D2E/DX2 analytically  !
 ! D147  D(47,18,19,50)       -145.6265         calculate D2E/DX2 analytically  !
 ! D148  D(48,18,19,20)       -148.0044         calculate D2E/DX2 analytically  !
 ! D149  D(48,18,19,49)         91.0789         calculate D2E/DX2 analytically  !
 ! D150  D(48,18,19,50)        -29.882          calculate D2E/DX2 analytically  !
 ! D151  D(18,19,20,21)         32.0466         calculate D2E/DX2 analytically  !
 ! D152  D(18,19,20,51)        -86.45           calculate D2E/DX2 analytically  !
 ! D153  D(18,19,20,52)        153.731          calculate D2E/DX2 analytically  !
 ! D154  D(49,19,20,21)        153.1668         calculate D2E/DX2 analytically  !
 ! D155  D(49,19,20,51)         34.6701         calculate D2E/DX2 analytically  !
 ! D156  D(49,19,20,52)        -85.1488         calculate D2E/DX2 analytically  !
 ! D157  D(50,19,20,21)        -86.3638         calculate D2E/DX2 analytically  !
 ! D158  D(50,19,20,51)        155.1396         calculate D2E/DX2 analytically  !
 ! D159  D(50,19,20,52)         35.3207         calculate D2E/DX2 analytically  !
 ! D160  D(19,20,21,17)        -25.2914         calculate D2E/DX2 analytically  !
 ! D161  D(19,20,21,53)       -148.8325         calculate D2E/DX2 analytically  !
 ! D162  D(19,20,21,54)         92.5401         calculate D2E/DX2 analytically  !
 ! D163  D(51,20,21,17)         92.9172         calculate D2E/DX2 analytically  !
 ! D164  D(51,20,21,53)        -30.6239         calculate D2E/DX2 analytically  !
 ! D165  D(51,20,21,54)       -149.2513         calculate D2E/DX2 analytically  !
 ! D166  D(52,20,21,17)       -146.6668         calculate D2E/DX2 analytically  !
 ! D167  D(52,20,21,53)         89.7921         calculate D2E/DX2 analytically  !
 ! D168  D(52,20,21,54)        -28.8353         calculate D2E/DX2 analytically  !
 --------------------------------------------------------------------------------
 Trust Radius=3.00D-01 FncErr=1.00D-07 GrdErr=1.00D-06 EigMax=2.50D+02 EigMin=1.00D-04
 Number of steps in this run=    324 maximum allowed number of steps=    324.
 GradGradGradGradGradGradGradGradGradGradGradGradGradGradGradGradGradGrad

 Stoichiometry    C16H33N4P
 Framework group  C1[X(C16H33N4P)]
 Deg. of freedom   156
 Full point group                 C1      NOp   1
 Largest Abelian subgroup         C1      NOp   1
 Largest concise Abelian subgroup C1      NOp   1
                         Standard orientation:                         
 ---------------------------------------------------------------------
 Center     Atomic      Atomic             Coordinates (Angstroms)
 Number     Number       Type             X           Y           Z
 ---------------------------------------------------------------------
      1         15           0       -0.125961    0.133950   -0.538338
      2          7           0       -0.112948    1.190827    0.603159
      3          6           0       -0.461010    2.652826    0.511369
      4          6           0       -1.921185    3.055311    0.760191
      5          6           0        0.372268    3.470486    1.538194
      6          6           0        0.036205    3.214335   -0.848622
      7          7           0        0.281070   -1.307797    0.214247
      8          6           0       -0.000733   -1.662401    1.600986
      9          6           0        0.866369   -2.884322    1.863465
     10          6           0        0.891474   -3.591107    0.528746
     11          6           0        0.845120   -2.458782   -0.482880
     12          7           0        1.586578    0.506147   -0.849916
     13          6           0        2.396276    0.958585    0.303027
     14          6           0        3.857318    0.674877   -0.001209
     15          6           0        3.788406   -0.506968   -0.925112
     16          6           0        2.497419   -0.267423   -1.686466
     17          7           0       -1.838499   -0.238247   -0.226760
     18          6           0       -2.963637    0.430695   -0.867860
     19          6           0       -4.152572   -0.504782   -0.678092
     20          6           0       -3.522949   -1.877075   -0.574607
     21          6           0       -2.183375   -1.616689    0.085523
     22          1           0       -2.158222    3.054510    1.826146
     23          1           0       -2.664051    2.420902    0.285015
     24          1           0       -2.105529    4.083398    0.420015
     25          1           0        0.066927    3.279613    2.569138
     26          1           0        0.231982    4.549393    1.380629
     27          1           0        1.445103    3.266049    1.451741
     28          1           0       -0.559883    2.900832   -1.698811
     29          1           0        1.077290    2.926566   -1.044712
     30          1           0       -0.005060    4.310645   -0.869152
     31          1           0       -1.057979   -1.906348    1.736858
     32          1           0        0.264458   -0.868219    2.308599
     33          1           0        0.471868   -3.517977    2.659685
     34          1           0        1.885024   -2.585849    2.140532
     35          1           0        0.001165   -4.223316    0.432075
     36          1           0        1.775310   -4.224234    0.407361
     37          1           0        0.253223   -2.779422   -1.345061
     38          1           0        1.849338   -2.218026   -0.840447
     39          1           0        2.104932    0.413489    1.206903
     40          1           0        2.283456    2.030344    0.486180
     41          1           0        4.440917    0.461831    0.899895
     42          1           0        4.319119    1.527114   -0.513643
     43          1           0        3.735533   -1.441593   -0.357249
     44          1           0        4.654271   -0.558351   -1.594060
     45          1           0        2.124673   -1.226031   -2.019888
     46          1           0        2.758936    0.349078   -2.550161
     47          1           0       -2.838929    0.619157   -1.927654
     48          1           0       -3.175786    1.407022   -0.406024
     49          1           0       -4.861827   -0.444210   -1.510505
     50          1           0       -4.686679   -0.264550    0.247210
     51          1           0       -3.383093   -2.304803   -1.574254
     52          1           0       -4.144133   -2.570654   -0.000281
     53          1           0       -1.429122   -2.333611   -0.247773
     54          1           0       -2.269586   -1.723908    1.171750
 ---------------------------------------------------------------------
 Rotational constants (GHZ):           0.3428788           0.2998675           0.1949996
 Standard basis: 6-31G(d) (6D, 7F)
 There are   385 symmetry adapted cartesian basis functions of A   symmetry.
 There are   385 symmetry adapted basis functions of A   symmetry.
   385 basis functions,   744 primitive gaussians,   385 cartesian basis functions
    86 alpha electrons       86 beta electrons
       nuclear repulsion energy      2213.6821841078 Hartrees.
 NAtoms=   54 NActive=   54 NUniq=   54 SFac= 1.00D+00 NAtFMM=   60 NAOKFM=F Big=F
 Integral buffers will be    131072 words long.
 Raffenetti 2 integral format.
 Two-electron integral symmetry is turned on.
 One-electron integrals computed using PRISM.
 NBasis=   385 RedAO= T EigKep=  1.75D-03  NBF=   385
 NBsUse=   385 1.00D-06 EigRej= -1.00D+00 NBFU=   385
 ExpMin= 9.98D-02 ExpMax= 1.94D+04 ExpMxC= 2.91D+03 IAcc=3 IRadAn=         5 AccDes= 0.00D+00
 Harris functional with IExCor=  402 and IRadAn=       5 diagonalized for initial guess.
 HarFok:  IExCor=  402 AccDes= 0.00D+00 IRadAn=         5 IDoV= 1 UseB2=F ITyADJ=14
 ICtDFT=  3500011 ScaDFX=  1.000000  1.000000  1.000000  1.000000
 FoFCou: FMM=F IPFlag=           0 FMFlag=      100000 FMFlg1=           0
         NFxFlg=           0 DoJE=T BraDBF=F KetDBF=T FulRan=T
         wScrn=  0.000000 ICntrl=       500 IOpCl=  0 I1Cent=   200000004 NGrid=           0
         NMat0=    1 NMatS0=      1 NMatT0=    0 NMatD0=    1 NMtDS0=    0 NMtDT0=    0
 Petite list used in FoFCou.
 Gradient too large for Newton-Raphson -- use scaled steepest descent instead.
 Gradient too large for Newton-Raphson -- use scaled steepest descent instead.
     Minimum is close to point  3 DX=  2.59D-02 DF= -1.94D-04 DXR=  4.92D-02 DFR=  2.42D-03 which will be used.
 Gradient too large for Newton-Raphson -- use scaled steepest descent instead.
 Gradient too large for Newton-Raphson -- use scaled steepest descent instead.
     Accept linear search using points  1 and  2.
 Gradient too large for Newton-Raphson -- use scaled steepest descent instead.
 Gradient too large for Newton-Raphson -- use scaled steepest descent instead.
     Accept linear search using points  1 and  2.
 Gradient too large for Newton-Raphson -- use scaled steepest descent instead.
 Restarting incremental Fock formation.
     Minimum is close to point  3 DX=  1.43D-01 DF= -3.43D-05 DXR=  9.91D-02 DFR=  1.16D-02 which will be used.
 Gradient too large for Newton-Raphson -- use scaled steepest descent instead.
     Minimum is close to point  3 DX= -2.45D-02 DF= -6.56D-06 DXR=  8.91D-02 DFR=  8.00D-03 which will be used.
 Gradient too large for Newton-Raphson -- use scaled steepest descent instead.
     Minimum is close to point  3 DX=  3.09D-02 DF= -1.23D-06 DXR=  5.82D-02 DFR=  3.39D-03 which will be used.
 Gradient too large for Newton-Raphson -- use scaled steepest descent instead.
     Accept linear search using points  1 and  2.
 LinEq1:  Iter=  0 NonCon=     1 RMS=2.91D-04 Max=4.46D-02 NDo=     1
 AX will form     1 AO Fock derivatives at one time.
 LinEq1:  Iter=  1 NonCon=     1 RMS=2.15D-04 Max=2.51D-02 NDo=     1
 LinEq1:  Iter=  2 NonCon=     1 RMS=6.78D-05 Max=2.88D-03 NDo=     1
 LinEq1:  Iter=  3 NonCon=     1 RMS=5.66D-05 Max=4.16D-03 NDo=     1
 LinEq1:  Iter=  4 NonCon=     1 RMS=3.90D-05 Max=3.02D-03 NDo=     1
 LinEq1:  Iter=  5 NonCon=     1 RMS=3.82D-05 Max=3.14D-03 NDo=     1
 LinEq1:  Iter=  6 NonCon=     1 RMS=2.64D-05 Max=2.38D-03 NDo=     1
 LinEq1:  Iter=  7 NonCon=     1 RMS=1.65D-05 Max=1.12D-03 NDo=     1
 LinEq1:  Iter=  8 NonCon=     1 RMS=8.14D-06 Max=4.01D-04 NDo=     1
 LinEq1:  Iter=  9 NonCon=     1 RMS=4.55D-06 Max=2.25D-04 NDo=     1
 LinEq1:  Iter= 10 NonCon=     1 RMS=2.80D-06 Max=1.19D-04 NDo=     1
 LinEq1:  Iter= 11 NonCon=     1 RMS=1.29D-06 Max=7.48D-05 NDo=     1
 LinEq1:  Iter= 12 NonCon=     1 RMS=9.77D-07 Max=3.17D-05 NDo=     1
 LinEq1:  Iter= 13 NonCon=     1 RMS=5.39D-07 Max=2.27D-05 NDo=     1
 LinEq1:  Iter= 14 NonCon=     1 RMS=2.37D-07 Max=8.24D-06 NDo=     1
 LinEq1:  Iter= 15 NonCon=     1 RMS=1.08D-07 Max=3.43D-06 NDo=     1
 LinEq1:  Iter= 16 NonCon=     1 RMS=3.98D-08 Max=1.16D-06 NDo=     1
 LinEq1:  Iter= 17 NonCon=     1 RMS=2.01D-08 Max=3.74D-07 NDo=     1
 LinEq1:  Iter= 18 NonCon=     0 RMS=8.42D-09 Max=1.99D-07 NDo=     1
 Linear equations converged to 2.268D-08 2.268D-07 after    18 iterations.
     Accept linear search using points  1 and  2.
     Minimum is close to point  2 DX= -8.64D-02 DF= -5.22D-06 DXR=  9.46D-02 DFR=  9.66D-03 which will be used.
 LinEq1:  Iter=  0 NonCon=     1 RMS=8.41D-05 Max=1.24D-02 NDo=     1
 LinEq1:  Iter=  1 NonCon=     1 RMS=5.76D-05 Max=5.97D-03 NDo=     1
 LinEq1:  Iter=  2 NonCon=     1 RMS=1.76D-05 Max=8.50D-04 NDo=     1
 LinEq1:  Iter=  3 NonCon=     1 RMS=1.07D-05 Max=5.62D-04 NDo=     1
 LinEq1:  Iter=  4 NonCon=     1 RMS=7.24D-06 Max=3.42D-04 NDo=     1
 LinEq1:  Iter=  5 NonCon=     1 RMS=7.69D-06 Max=7.72D-04 NDo=     1
 LinEq1:  Iter=  6 NonCon=     1 RMS=6.56D-06 Max=4.60D-04 NDo=     1
 LinEq1:  Iter=  7 NonCon=     1 RMS=5.13D-06 Max=5.51D-04 NDo=     1
 LinEq1:  Iter=  8 NonCon=     1 RMS=2.58D-06 Max=1.31D-04 NDo=     1
 LinEq1:  Iter=  9 NonCon=     1 RMS=2.20D-06 Max=1.35D-04 NDo=     1
 LinEq1:  Iter= 10 NonCon=     1 RMS=8.86D-07 Max=1.99D-05 NDo=     1
 LinEq1:  Iter= 11 NonCon=     1 RMS=5.28D-07 Max=1.70D-05 NDo=     1
 LinEq1:  Iter= 12 NonCon=     1 RMS=2.39D-07 Max=9.18D-06 NDo=     1
 LinEq1:  Iter= 13 NonCon=     1 RMS=8.84D-08 Max=4.20D-06 NDo=     1
 LinEq1:  Iter= 14 NonCon=     1 RMS=3.29D-08 Max=8.01D-07 NDo=     1
 LinEq1:  Iter= 15 NonCon=     1 RMS=1.77D-08 Max=5.06D-07 NDo=     1
 LinEq1:  Iter= 16 NonCon=     0 RMS=7.01D-09 Max=1.91D-07 NDo=     1
 Linear equations converged to 2.268D-08 2.268D-07 after    16 iterations.
     Minimum is close to point  2 DX=  1.81D-02 DF= -3.14D-09 DXR=  1.78D-02 DFR=  3.18D-04 which will be used.
 LinEq1:  Iter=  0 NonCon=     1 RMS=9.70D-07 Max=1.51D-04 NDo=     1
 LinEq1:  Iter=  1 NonCon=     1 RMS=1.25D-06 Max=1.46D-04 NDo=     1
 LinEq1:  Iter=  2 NonCon=     1 RMS=2.50D-07 Max=1.00D-05 NDo=     1
 LinEq1:  Iter=  3 NonCon=     1 RMS=2.46D-07 Max=2.48D-05 NDo=     1
 LinEq1:  Iter=  4 NonCon=     1 RMS=2.14D-07 Max=9.52D-06 NDo=     1
 LinEq1:  Iter=  5 NonCon=     1 RMS=1.37D-07 Max=6.25D-06 NDo=     1
 LinEq1:  Iter=  6 NonCon=     1 RMS=9.32D-08 Max=1.06D-05 NDo=     1
 LinEq1:  Iter=  7 NonCon=     1 RMS=6.53D-08 Max=3.86D-06 NDo=     1
 LinEq1:  Iter=  8 NonCon=     1 RMS=4.75D-08 Max=3.41D-06 NDo=     1
 LinEq1:  Iter=  9 NonCon=     1 RMS=2.01D-08 Max=5.23D-07 NDo=     1
 LinEq1:  Iter= 10 NonCon=     1 RMS=1.25D-08 Max=3.86D-07 NDo=     1
 LinEq1:  Iter= 11 NonCon=     1 RMS=6.60D-09 Max=1.49D-07 NDo=     1
 LinEq1:  Iter= 12 NonCon=     1 RMS=4.32D-09 Max=1.44D-07 NDo=     1
 LinEq1:  Iter= 13 NonCon=     1 RMS=1.66D-09 Max=6.53D-08 NDo=     1
 LinEq1:  Iter= 14 NonCon=     1 RMS=6.91D-10 Max=1.80D-08 NDo=     1
 LinEq1:  Iter= 15 NonCon=     1 RMS=4.42D-10 Max=1.77D-08 NDo=     1
 LinEq1:  Iter= 16 NonCon=     1 RMS=1.76D-10 Max=4.24D-09 NDo=     1
 LinEq1:  Iter= 17 NonCon=     0 RMS=8.69D-11 Max=2.19D-09 NDo=     1
 Linear equations converged to 2.494D-10 2.494D-09 after    17 iterations.
 SCF Done:  E(RB3LYP) =  -1189.67357253     a.u. after   14 cycles
            Convg  =    0.1325D-07                    82 Fock formations.
              S**2 =  0.0000                  -V/T =  2.0069
 DoSCS=F DFT=T ScalE2(SS,OS)=  1.000000  1.000000
 Range of M.O.s used for correlation:     1   385
 NBasis=   385 NAE=    86 NBE=    86 NFC=     0 NFV=     0
 NROrb=    385 NOA=    86 NOB=    86 NVA=   299 NVB=   299

 **** Warning!!: The smallest alpha delta epsilon is  0.70248311D-01

 Symmetrizing basis deriv contribution to polar:
 IMax=3 JMax=2 DiffMx= 0.00D+00
 G2DrvN: will do    55 centers at a time, making    1 passes.
 Calling FoFCou, ICntrl=  3107 FMM=F I1Cent=   0 AccDes= 0.00D+00.
 End of G2Drv F.D. properties file   721 does not exist.
 End of G2Drv F.D. properties file   722 does not exist.
 End of G2Drv F.D. properties file   788 does not exist.
          IDoAtm=11111111111111111111111111111111111111111111111111
          IDoAtm=1111
          Differentiating once with respect to electric field.
                with respect to dipole field.
          Differentiating once with respect to nuclear coordinates.
 CalDSu exits because no D1Ps are significant.
          There are   165 degrees of freedom in the 1st order CPHF.  IDoFFX=6 NUNeed=     3.
    162 vectors produced by pass  0 Test12= 2.57D-14 1.00D-09 XBig12= 3.34D+02 1.09D+01.
 AX will form   162 AO Fock derivatives at one time.
    162 vectors produced by pass  1 Test12= 2.57D-14 1.00D-09 XBig12= 6.38D+01 1.22D+00.
    162 vectors produced by pass  2 Test12= 2.57D-14 1.00D-09 XBig12= 6.03D-01 9.47D-02.
    162 vectors produced by pass  3 Test12= 2.57D-14 1.00D-09 XBig12= 1.52D-03 4.08D-03.
    162 vectors produced by pass  4 Test12= 2.57D-14 1.00D-09 XBig12= 1.67D-06 9.93D-05.
     79 vectors produced by pass  5 Test12= 2.57D-14 1.00D-09 XBig12= 1.24D-09 2.67D-06.
      8 vectors produced by pass  6 Test12= 2.57D-14 1.00D-09 XBig12= 8.01D-13 6.03D-08.
      3 vectors produced by pass  7 Test12= 2.57D-14 1.00D-09 XBig12= 6.01D-16 2.53D-09.
 InvSVY:  IOpt=1 It=  1 EMax= 7.11D-15
 Solved reduced A of dimension   900 with   165 vectors.
 Isotropic polarizability for W=    0.000000      228.84 Bohr**3.
 End of Minotr F.D. properties file   721 does not exist.
 End of Minotr F.D. properties file   722 does not exist.
 End of Minotr F.D. properties file   788 does not exist.

 **********************************************************************

            Population analysis using the SCF density.

 **********************************************************************

 Orbital symmetries:
       Occupied  (A) (A) (A) (A) (A) (A) (A) (A) (A) (A) (A) (A)
                 (A) (A) (A) (A) (A) (A) (A) (A) (A) (A) (A) (A)
                 (A) (A) (A) (A) (A) (A) (A) (A) (A) (A) (A) (A)
                 (A) (A) (A) (A) (A) (A) (A) (A) (A) (A) (A) (A)
                 (A) (A) (A) (A) (A) (A) (A) (A) (A) (A) (A) (A)
                 (A) (A) (A) (A) (A) (A) (A) (A) (A) (A) (A) (A)
                 (A) (A) (A) (A) (A) (A) (A) (A) (A) (A) (A) (A)
                 (A) (A)
       Virtual   (A) (A) (A) (A) (A) (A) (A) (A) (A) (A) (A) (A)
                 (A) (A) (A) (A) (A) (A) (A) (A) (A) (A) (A) (A)
                 (A) (A) (A) (A) (A) (A) (A) (A) (A) (A) (A) (A)
                 (A) (A) (A) (A) (A) (A) (A) (A) (A) (A) (A) (A)
                 (A) (A) (A) (A) (A) (A) (A) (A) (A) (A) (A) (A)
                 (A) (A) (A) (A) (A) (A) (A) (A) (A) (A) (A) (A)
                 (A) (A) (A) (A) (A) (A) (A) (A) (A) (A) (A) (A)
                 (A) (A) (A) (A) (A) (A) (A) (A) (A) (A) (A) (A)
                 (A) (A) (A) (A) (A) (A) (A) (A) (A) (A) (A) (A)
                 (A) (A) (A) (A) (A) (A) (A) (A) (A) (A) (A) (A)
                 (A) (A) (A) (A) (A) (A) (A) (A) (A) (A) (A) (A)
                 (A) (A) (A) (A) (A) (A) (A) (A) (A) (A) (A) (A)
                 (A) (A) (A) (A) (A) (A) (A) (A) (A) (A) (A) (A)
                 (A) (A) (A) (A) (A) (A) (A) (A) (A) (A) (A) (A)
                 (A) (A) (A) (A) (A) (A) (A) (A) (A) (A) (A) (A)
                 (A) (A) (A) (A) (A) (A) (A) (A) (A) (A) (A) (A)
                 (A) (A) (A) (A) (A) (A) (A) (A) (A) (A) (A) (A)
                 (A) (A) (A) (A) (A) (A) (A) (A) (A) (A) (A) (A)
                 (A) (A) (A) (A) (A) (A) (A) (A) (A) (A) (A) (A)
                 (A) (A) (A) (A) (A) (A) (A) (A) (A) (A) (A) (A)
                 (A) (A) (A) (A) (A) (A) (A) (A) (A) (A) (A) (A)
                 (A) (A) (A) (A) (A) (A) (A) (A) (A) (A) (A) (A)
                 (A) (A) (A) (A) (A) (A) (A) (A) (A) (A) (A) (A)
                 (A) (A) (A) (A) (A) (A) (A) (A) (A) (A) (A) (A)
                 (A) (A) (A) (A) (A) (A) (A) (A) (A) (A) (A)
 The electronic state is 1-A.
 Alpha  occ. eigenvalues --  -77.14384 -14.33817 -14.30134 -14.29337 -14.25623
 Alpha  occ. eigenvalues --  -10.21162 -10.20774 -10.20295 -10.20222 -10.18930
 Alpha  occ. eigenvalues --  -10.18368 -10.18188 -10.18013 -10.17943 -10.17714
 Alpha  occ. eigenvalues --  -10.17569 -10.16675 -10.16105 -10.15684 -10.15163
 Alpha  occ. eigenvalues --  -10.14515  -6.59596  -4.75929  -4.75848  -4.75772
 Alpha  occ. eigenvalues --   -0.94994  -0.91134  -0.88884  -0.84273  -0.78939
 Alpha  occ. eigenvalues --   -0.76187  -0.75350  -0.74033  -0.73274  -0.72303
 Alpha  occ. eigenvalues --   -0.70398  -0.67089  -0.65732  -0.63213  -0.59694
 Alpha  occ. eigenvalues --   -0.58675  -0.57527  -0.56605  -0.56247  -0.55726
 Alpha  occ. eigenvalues --   -0.52353  -0.51436  -0.49869  -0.48521  -0.47725
 Alpha  occ. eigenvalues --   -0.46973  -0.45949  -0.44893  -0.42976  -0.42314
 Alpha  occ. eigenvalues --   -0.41890  -0.41759  -0.41304  -0.40780  -0.40444
 Alpha  occ. eigenvalues --   -0.39200  -0.38955  -0.38217  -0.37786  -0.37349
 Alpha  occ. eigenvalues --   -0.36221  -0.35700  -0.35245  -0.34863  -0.34283
 Alpha  occ. eigenvalues --   -0.33996  -0.33649  -0.33408  -0.33097  -0.32693
 Alpha  occ. eigenvalues --   -0.32249  -0.31719  -0.31372  -0.30815  -0.30624
 Alpha  occ. eigenvalues --   -0.29940  -0.24040  -0.22010  -0.21216  -0.16554
 Alpha  occ. eigenvalues --   -0.16175
 Alpha virt. eigenvalues --   -0.09150   0.06073   0.07394   0.08386   0.09811
 Alpha virt. eigenvalues --    0.10565   0.10781   0.12059   0.12910   0.12980
 Alpha virt. eigenvalues --    0.13347   0.14290   0.14580   0.14914   0.15788
 Alpha virt. eigenvalues --    0.15854   0.16000   0.16957   0.17173   0.17428
 Alpha virt. eigenvalues --    0.17442   0.17820   0.18173   0.18253   0.19108
 Alpha virt. eigenvalues --    0.19596   0.19824   0.19923   0.20318   0.21207
 Alpha virt. eigenvalues --    0.21271   0.21736   0.22096   0.22567   0.22801
 Alpha virt. eigenvalues --    0.23203   0.23590   0.24214   0.24478   0.25601
 Alpha virt. eigenvalues --    0.27083   0.27318   0.27577   0.28271   0.28616
 Alpha virt. eigenvalues --    0.28986   0.29955   0.30415   0.31334   0.31910
 Alpha virt. eigenvalues --    0.32815   0.33120   0.34084   0.35535   0.36765
 Alpha virt. eigenvalues --    0.40563   0.42068   0.45189   0.47316   0.49541
 Alpha virt. eigenvalues --    0.50652   0.51648   0.52558   0.53664   0.53918
 Alpha virt. eigenvalues --    0.54907   0.55522   0.55759   0.56223   0.56871
 Alpha virt. eigenvalues --    0.57790   0.58342   0.58556   0.59848   0.60279
 Alpha virt. eigenvalues --    0.61175   0.62003   0.62158   0.62889   0.63938
 Alpha virt. eigenvalues --    0.64753   0.65074   0.65704   0.66004   0.67009
 Alpha virt. eigenvalues --    0.67345   0.69587   0.69825   0.70578   0.71079
 Alpha virt. eigenvalues --    0.71491   0.72068   0.74119   0.75033   0.75488
 Alpha virt. eigenvalues --    0.75870   0.77687   0.78134   0.79264   0.80392
 Alpha virt. eigenvalues --    0.80833   0.82654   0.83427   0.83693   0.84472
 Alpha virt. eigenvalues --    0.84805   0.85652   0.85915   0.86270   0.86923
 Alpha virt. eigenvalues --    0.87129   0.87596   0.88276   0.88614   0.89007
 Alpha virt. eigenvalues --    0.89383   0.90415   0.90735   0.90925   0.91245
 Alpha virt. eigenvalues --    0.91472   0.92122   0.93767   0.93946   0.94784
 Alpha virt. eigenvalues --    0.94811   0.95044   0.95826   0.96126   0.96341
 Alpha virt. eigenvalues --    0.96593   0.97594   0.98293   0.98978   0.99820
 Alpha virt. eigenvalues --    0.99976   1.01248   1.01792   1.02170   1.03232
 Alpha virt. eigenvalues --    1.03402   1.05469   1.06384   1.07528   1.08234
 Alpha virt. eigenvalues --    1.08777   1.08995   1.11003   1.12615   1.13653
 Alpha virt. eigenvalues --    1.14551   1.15895   1.17942   1.18571   1.20681
 Alpha virt. eigenvalues --    1.21814   1.23620   1.24290   1.27139   1.29234
 Alpha virt. eigenvalues --    1.31885   1.35444   1.37808   1.39789   1.41430
 Alpha virt. eigenvalues --    1.42828   1.45010   1.45486   1.46632   1.50064
 Alpha virt. eigenvalues --    1.50859   1.54383   1.55449   1.55934   1.59373
 Alpha virt. eigenvalues --    1.60894   1.61989   1.64304   1.68772   1.68941
 Alpha virt. eigenvalues --    1.71053   1.72608   1.73454   1.75425   1.76386
 Alpha virt. eigenvalues --    1.76650   1.78698   1.79599   1.81370   1.81840
 Alpha virt. eigenvalues --    1.83181   1.83978   1.84618   1.85626   1.86855
 Alpha virt. eigenvalues --    1.87365   1.87572   1.88832   1.89022   1.90125
 Alpha virt. eigenvalues --    1.91956   1.92452   1.92892   1.94836   1.97704
 Alpha virt. eigenvalues --    1.99538   2.00336   2.00809   2.01670   2.02509
 Alpha virt. eigenvalues --    2.03638   2.04867   2.05504   2.06204   2.06913
 Alpha virt. eigenvalues --    2.07235   2.08525   2.08955   2.10027   2.10296
 Alpha virt. eigenvalues --    2.11580   2.11697   2.12213   2.12710   2.13977
 Alpha virt. eigenvalues --    2.15578   2.16122   2.17859   2.19214   2.23141
 Alpha virt. eigenvalues --    2.23576   2.24574   2.25555   2.26853   2.27378
 Alpha virt. eigenvalues --    2.27954   2.28497   2.29615   2.29867   2.30479
 Alpha virt. eigenvalues --    2.33080   2.33920   2.35702   2.36329   2.37828
 Alpha virt. eigenvalues --    2.39952   2.40810   2.42136   2.46409   2.46881
 Alpha virt. eigenvalues --    2.47815   2.49483   2.50543   2.51302   2.52847
 Alpha virt. eigenvalues --    2.55050   2.55858   2.58139   2.59596   2.60277
 Alpha virt. eigenvalues --    2.61010   2.62804   2.65810   2.67539   2.69348
 Alpha virt. eigenvalues --    2.69940   2.70798   2.73455   2.74351   2.75810
 Alpha virt. eigenvalues --    2.75904   2.78254   2.80206   2.85065   2.88440
 Alpha virt. eigenvalues --    2.92490   2.94774   2.98455   3.65699   4.04909
 Alpha virt. eigenvalues --    4.11686   4.18020   4.19803   4.21517   4.24763
 Alpha virt. eigenvalues --    4.27696   4.29567   4.30885   4.32500   4.33869
 Alpha virt. eigenvalues --    4.35160   4.40152   4.55080   4.56546   4.58082
 Alpha virt. eigenvalues --    4.59331   4.59629   4.62431   4.72581
          Condensed to atoms (all electrons):
 Mulliken charges:
               1
     1  P    1.026542
     2  N   -0.566457
     3  C    0.236400
     4  C   -0.443404
     5  C   -0.443183
     6  C   -0.461270
     7  N   -0.540356
     8  C   -0.092317
     9  C   -0.281722
    10  C   -0.303331
    11  C   -0.116153
    12  N   -0.543135
    13  C   -0.085930
    14  C   -0.295238
    15  C   -0.290991
    16  C   -0.115278
    17  N   -0.445205
    18  C   -0.134625
    19  C   -0.295587
    20  C   -0.294850
    21  C   -0.156162
    22  H    0.142382
    23  H    0.130395
    24  H    0.136635
    25  H    0.135348
    26  H    0.129722
    27  H    0.148311
    28  H    0.126299
    29  H    0.172599
    30  H    0.116630
    31  H    0.104607
    32  H    0.162967
    33  H    0.136663
    34  H    0.142676
    35  H    0.135801
    36  H    0.143317
    37  H    0.126511
    38  H    0.147802
    39  H    0.134802
    40  H    0.132475
    41  H    0.134411
    42  H    0.133143
    43  H    0.134934
    44  H    0.135102
    45  H    0.133185
    46  H    0.118922
    47  H    0.159803
    48  H    0.163346
    49  H    0.141345
    50  H    0.145449
    51  H    0.135970
    52  H    0.137016
    53  H    0.181168
    54  H    0.182517
 Sum of Mulliken charges =   0.00000
 Mulliken charges with hydrogens summed into heavy atoms:
               1
     1  P    1.026542
     2  N   -0.566457
     3  C    0.236400
     4  C   -0.033993
     5  C   -0.029802
     6  C   -0.045742
     7  N   -0.540356
     8  C    0.175258
     9  C   -0.002383
    10  C   -0.024213
    11  C    0.158160
    12  N   -0.543135
    13  C    0.181347
    14  C   -0.027684
    15  C   -0.020954
    16  C    0.136829
    17  N   -0.445205
    18  C    0.188524
    19  C   -0.008793
    20  C   -0.021864
    21  C    0.207523
 APT charges:
               1
     1  P    0.820418
     2  N   -0.639419
     3  C    0.550180
     4  C   -0.019591
     5  C    0.061791
     6  C   -0.024370
     7  N   -0.737971
     8  C    0.223697
     9  C    0.117662
    10  C    0.089766
    11  C    0.369649
    12  N   -0.477178
    13  C    0.333201
    14  C    0.075592
    15  C    0.055703
    16  C    0.356339
    17  N   -0.416121
    18  C    0.297971
    19  C    0.113691
    20  C    0.097164
    21  C    0.180751
    22  H   -0.036167
    23  H    0.012227
    24  H   -0.050039
    25  H   -0.035454
    26  H   -0.056917
    27  H   -0.008035
    28  H   -0.034955
    29  H    0.013788
    30  H   -0.063590
    31  H   -0.047865
    32  H   -0.026435
    33  H   -0.044561
    34  H   -0.044039
    35  H   -0.042145
    36  H   -0.033684
    37  H   -0.078837
    38  H   -0.042603
    39  H   -0.066182
    40  H   -0.045281
    41  H   -0.050841
    42  H   -0.054124
    43  H   -0.043421
    44  H   -0.053697
    45  H   -0.033795
    46  H   -0.130600
    47  H   -0.067351
    48  H   -0.032018
    49  H   -0.052041
    50  H   -0.038955
    51  H   -0.053359
    52  H   -0.053399
    53  H   -0.007905
    54  H   -0.026644
 Sum of APT charges =   0.00000
 APT charges with hydrogens summed into heavy atoms:
               1
     1  P    0.820418
     2  N   -0.639419
     3  C    0.550180
     4  C   -0.093571
     5  C   -0.038615
     6  C   -0.109126
     7  N   -0.737971
     8  C    0.149396
     9  C    0.029061
    10  C    0.013936
    11  C    0.248209
    12  N   -0.477178
    13  C    0.221737
    14  C   -0.029373
    15  C   -0.041415
    16  C    0.191945
    17  N   -0.416121
    18  C    0.198602
    19  C    0.022695
    20  C   -0.009594
    21  C    0.146202
 Electronic spatial extent (au):  <R**2>=           6339.8005
 Charge=              0.0000 electrons
 Dipole moment (field-independent basis, Debye):
    X=             -1.5360    Y=             -2.4718    Z=             -0.5314  Tot=              2.9583
 Quadrupole moment (field-independent basis, Debye-Ang):
   XX=           -131.4669   YY=           -136.0171   ZZ=           -139.8374
   XY=             -0.7792   XZ=              1.8957   YZ=             -0.8644
 Traceless Quadrupole moment (field-independent basis, Debye-Ang):
   XX=              4.3069   YY=             -0.2433   ZZ=             -4.0636
   XY=             -0.7792   XZ=              1.8957   YZ=             -0.8644
 Octapole moment (field-independent basis, Debye-Ang**2):
  XXX=            -12.6940  YYY=            -13.7138  ZZZ=              1.7464  XYY=             -2.9038
  XXY=             -3.4118  XXZ=             -3.4689  XZZ=             -5.4041  YZZ=             -7.8380
  YYZ=              3.3599  XYZ=              2.8432
 Hexadecapole moment (field-independent basis, Debye-Ang**3):
 XXXX=          -4066.4118 YYYY=          -3595.6333 ZZZZ=          -1002.8880 XXXY=              2.6871
 XXXZ=              2.4207 YYYX=             -7.2337 YYYZ=             -4.5772 ZZZX=             10.0546
 ZZZY=             -4.8100 XXYY=          -1279.2350 XXZZ=           -834.0597 YYZZ=           -775.1773
 XXYZ=            -11.5289 YYXZ=             -5.7231 ZZXY=             -0.3666
 N-N= 2.213682184108D+03 E-N=-7.206319919929D+03  KE= 1.181534368127D+03
  Exact polarizability: 256.507   3.142 248.619  -1.342   6.974 181.407
 Approx polarizability: 368.166  16.760 362.193  -6.745  39.974 340.846
 Calling FoFJK, ICntrl=    100127 FMM=F ISym2X=0 I1Cent= 0 IOpClX= 0 NMat=1 NMatS=1 NMatT=0.
 ***** Axes restored to original set *****
 -------------------------------------------------------------------
 Center     Atomic                   Forces (Hartrees/Bohr)
 Number     Number              X              Y              Z
 -------------------------------------------------------------------
      1       15          -0.012418601    0.025688143   -0.014096842
      2        7           0.031488967   -0.001441934    0.111619248
      3        6          -0.042215701   -0.001057148   -0.010225658
      4        6           0.007805623    0.005258141    0.006372306
      5        6           0.000526644    0.008485669    0.002723280
      6        6          -0.003922896   -0.006703745    0.008318292
      7        7          -0.007389229    0.043440114   -0.025002442
      8        6          -0.011235090    0.016114995    0.010528791
      9        6          -0.004312235    0.008501743    0.000604309
     10        6           0.003807330    0.004884915   -0.010262321
     11        6          -0.012319428   -0.001504556   -0.005104812
     12        7          -0.033415617   -0.013372177   -0.004476291
     13        6          -0.000211804    0.008504877    0.009194544
     14        6          -0.008209011    0.001587412    0.006605474
     15        6          -0.004563735    0.002779718   -0.009846154
     16        6          -0.010877343   -0.027171498   -0.003776654
     17        7          -0.001706699   -0.021552597   -0.033095387
     18        6           0.021542615   -0.001524548    0.011406752
     19        6           0.011630618   -0.005204820    0.001798518
     20        6           0.010485750   -0.000829436   -0.010675369
     21        6           0.037063619   -0.025257901   -0.009208999
     22        1           0.000372835    0.005275929   -0.001467556
     23        1          -0.008632200    0.001248104    0.009951859
     24        1          -0.003687805   -0.000502404   -0.002018305
     25        1           0.001593496    0.004617088   -0.003650332
     26        1           0.001635905   -0.001184049   -0.003009889
     27        1           0.003559793   -0.000161548    0.002366528
     28        1           0.006053298   -0.003739554   -0.009387569
     29        1           0.005641619   -0.000270610    0.000194789
     30        1           0.001362482    0.001140693    0.002290361
     31        1          -0.012775605    0.020627624    0.002975803
     32        1           0.002094052   -0.008627414    0.002548091
     33        1           0.001088551    0.003049802    0.001485924
     34        1           0.000515082    0.000596485    0.002000672
     35        1          -0.000019729    0.000130672   -0.002485954
     36        1           0.001066799   -0.001525179   -0.002511737
     37        1          -0.000034781   -0.008016913   -0.000678369
     38        1           0.008103321    0.007445300   -0.006937785
     39        1           0.002581962    0.001370042    0.002335032
     40        1           0.004737662    0.000315920   -0.003532955
     41        1          -0.000438876    0.000299929    0.003467046
     42        1          -0.001069449    0.000102970    0.000666330
     43        1          -0.000198670    0.002714329   -0.001241340
     44        1           0.001273966    0.000357098   -0.003841546
     45        1           0.002785316   -0.015988404   -0.000437582
     46        1          -0.001107370   -0.009450449   -0.006713653
     47        1          -0.011559888   -0.004858658   -0.005077548
     48        1           0.002167591   -0.002345709   -0.018486721
     49        1           0.001958753    0.000233332    0.003219519
     50        1           0.001036358   -0.000098334    0.001318914
     51        1          -0.000484466   -0.000355546   -0.001503433
     52        1           0.001036993    0.000021145   -0.002864254
     53        1           0.006753383   -0.002522963    0.006591663
     54        1           0.011035844   -0.009524095    0.001033410
 -------------------------------------------------------------------
 Cartesian Forces:  Max     0.111619248 RMS     0.013649008
 FormGI is forming the generalized inverse of G from B-inverse, IUseBI=4.

 GradGradGradGradGradGradGradGradGradGradGradGradGradGradGradGradGradGrad
 Berny optimization.
 Internal  Forces:  Max     0.109082096 RMS     0.018706788
 Search for a local minimum.
 Step number   1 out of a maximum of  324
 All quantities printed in internal units (Hartrees-Bohrs-Radians)
 Mixed Optimization -- RFO/linear search
 Second derivative matrix not updated -- analytic derivatives used.
 ITU=  0
     Eigenvalues ---   -0.17800  -0.06801  -0.02495  -0.01202  -0.00305
     Eigenvalues ---   -0.00241  -0.00119   0.00051   0.00139   0.00183
     Eigenvalues ---    0.00229   0.00287   0.00377   0.00533   0.00663
     Eigenvalues ---    0.01141   0.01302   0.01761   0.02074   0.02135
     Eigenvalues ---    0.02321   0.02359   0.02566   0.03386   0.03959
     Eigenvalues ---    0.04186   0.04208   0.04212   0.04228   0.04310
     Eigenvalues ---    0.04352   0.04389   0.04406   0.04558   0.04609
     Eigenvalues ---    0.04694   0.04710   0.04756   0.04786   0.04861
     Eigenvalues ---    0.04892   0.04989   0.05010   0.05071   0.05201
     Eigenvalues ---    0.05279   0.05380   0.05443   0.05499   0.05584
     Eigenvalues ---    0.05819   0.06153   0.06231   0.06331   0.06394
     Eigenvalues ---    0.06449   0.06662   0.06800   0.06841   0.07096
     Eigenvalues ---    0.07192   0.07300   0.07492   0.07727   0.07826
     Eigenvalues ---    0.08259   0.08391   0.08918   0.09268   0.09429
     Eigenvalues ---    0.09568   0.09707   0.09781   0.10063   0.10338
     Eigenvalues ---    0.10512   0.10641   0.11173   0.11483   0.11876
     Eigenvalues ---    0.12404   0.12648   0.13538   0.13761   0.14636
     Eigenvalues ---    0.15099   0.15238   0.15806   0.16524   0.16852
     Eigenvalues ---    0.18628   0.20370   0.21806   0.22218   0.22774
     Eigenvalues ---    0.22926   0.23230   0.23798   0.24915   0.25463
     Eigenvalues ---    0.26520   0.26553   0.26857   0.26991   0.27247
     Eigenvalues ---    0.27636   0.27822   0.29289   0.29768   0.30279
     Eigenvalues ---    0.30350   0.31164   0.31658   0.31803   0.32095
     Eigenvalues ---    0.32222   0.32330   0.32473   0.32736   0.32985
     Eigenvalues ---    0.33066   0.33116   0.33195   0.33229   0.33270
     Eigenvalues ---    0.33357   0.33380   0.33458   0.33576   0.33618
     Eigenvalues ---    0.33726   0.33838   0.33925   0.34053   0.34164
     Eigenvalues ---    0.34197   0.34273   0.34340   0.34437   0.34530
     Eigenvalues ---    0.34769   0.34855   0.34963   0.35026   0.35628
     Eigenvalues ---    0.36082   0.36126   0.36202   0.36362   0.36960
     Eigenvalues ---    0.38678   0.42393   0.61956   1.01301   1.62491
     Eigenvalues ---    2.39500
 RFO step:  Lambda=-1.98470702D-01 EMin=-1.78001366D-01
 Linear search not attempted -- first point.
 Maximum step size (   0.300) exceeded in Quadratic search.
    -- Step size scaled by   0.436
 Iteration  1 RMS(Cart)=  0.21943649 RMS(Int)=  0.00644289
 Iteration  2 RMS(Cart)=  0.02767130 RMS(Int)=  0.00087365
 Iteration  3 RMS(Cart)=  0.00027601 RMS(Int)=  0.00087017
 Iteration  4 RMS(Cart)=  0.00000125 RMS(Int)=  0.00087017
 Iteration  5 RMS(Cart)=  0.00000001 RMS(Int)=  0.00087017
 Variable       Old X    -DE/DX   Delta X   Delta X   Delta X     New X
                                 (Linear)    (Quad)   (Total)
    R1        2.93983   0.10908   0.00000   0.01251   0.01251   2.95233
    R2        3.16815   0.08654   0.00000   0.01959   0.01959   3.18774
    R3        3.36371   0.04871   0.00000  -0.02559  -0.02567   3.33804
    R4        3.36371   0.09096   0.00000  -0.02090  -0.02082   3.34289
    R5        2.84529  -0.00411   0.00000  -0.06521  -0.06521   2.78008
    R6        2.90060  -0.00046   0.00000   0.01519   0.01519   2.91579
    R7        2.93808   0.00128   0.00000   0.00011   0.00011   2.93819
    R8        2.93491   0.00302   0.00000   0.00074   0.00074   2.93566
    R9        2.06357   0.00381   0.00000   0.00253   0.00253   2.06610
   R10        2.05287  -0.01274   0.00000   0.00798   0.00798   2.06085
   R11        2.07583  -0.00081   0.00000   0.00087   0.00087   2.07670
   R12        2.06362   0.00363   0.00000   0.00241   0.00241   2.06603
   R13        2.07745  -0.00206   0.00000  -0.00119  -0.00119   2.07627
   R14        2.07030  -0.00405   0.00000  -0.00029  -0.00029   2.07001
   R15        2.04966   0.01036   0.00000   0.00836   0.00836   2.05802
   R16        2.07450  -0.00514   0.00000  -0.00131  -0.00131   2.07320
   R17        2.07356   0.00134   0.00000   0.00135   0.00135   2.07491
   R18        2.75680   0.02211   0.00000   0.00212   0.00211   2.75891
   R19        2.75726   0.01872   0.00000   0.00506   0.00507   2.76233
   R20        2.87453   0.00741   0.00000   0.00655   0.00655   2.88108
   R21        2.06641  -0.01370   0.00000   0.00918   0.00918   2.07560
   R22        2.07162  -0.00136   0.00000  -0.00258  -0.00258   2.06903
   R23        2.85446   0.00995   0.00000   0.01316   0.01314   2.86759
   R24        2.06241   0.00278   0.00000   0.00209   0.00209   2.06450
   R25        2.07312   0.00022   0.00000  -0.00023  -0.00023   2.07288
   R26        2.87070   0.01349   0.00000   0.01244   0.01246   2.88316
   R27        2.07154   0.00112   0.00000   0.00045   0.00045   2.07200
   R28        2.06729   0.00046   0.00000   0.00050   0.00050   2.06779
   R29        2.06708   0.00613   0.00000   0.00593   0.00593   2.07301
   R30        2.06514  -0.00878   0.00000   0.00314   0.00314   2.06829
   R31        2.79628   0.00773   0.00000   0.00025   0.00016   2.79643
   R32        2.75658   0.02170   0.00000   0.01399   0.01396   2.77053
   R33        2.87070   0.01038   0.00000   0.01040   0.01041   2.88111
   R34        2.06923   0.00232   0.00000   0.00179   0.00179   2.07102
   R35        2.06572  -0.00385   0.00000  -0.00005  -0.00005   2.06568
   R36        2.83780   0.01695   0.00000   0.01864   0.01867   2.85647
   R37        2.06834   0.00080   0.00000   0.00020   0.00020   2.06853
   R38        2.07195   0.00093   0.00000   0.00022   0.00022   2.07217
   R39        2.86821   0.01005   0.00000   0.00935   0.00945   2.87766
   R40        2.06905   0.00272   0.00000   0.00090   0.00090   2.06994
   R41        2.06996   0.00030   0.00000  -0.00020  -0.00020   2.06976
   R42        2.04321   0.00198   0.00000   0.00828   0.00828   2.05149
   R43        2.06529   0.00769   0.00000   0.00451   0.00451   2.06979
   R44        2.75435   0.02689   0.00000   0.01562   0.01563   2.76999
   R45        2.74925   0.02757   0.00000   0.01069   0.01068   2.75994
   R46        2.88126   0.00770   0.00000   0.01301   0.01295   2.89420
   R47        2.04775   0.00946   0.00000   0.00579   0.00579   2.05353
   R48        2.08000  -0.01824   0.00000   0.00080   0.00080   2.08080
   R49        2.85988  -0.00391   0.00000   0.01959   0.01972   2.87959
   R50        2.06977   0.00012   0.00000  -0.00046  -0.00046   2.06931
   R51        2.06937   0.00134   0.00000   0.00077   0.00077   2.07014
   R52        2.86469   0.01240   0.00000   0.01446   0.01439   2.87907
   R53        2.07165   0.00145   0.00000   0.00051   0.00051   2.07215
   R54        2.06730   0.00162   0.00000   0.00073   0.00073   2.06803
   R55        2.06488  -0.00957   0.00000  -0.00196  -0.00196   2.06291
   R56        2.06907  -0.00526   0.00000   0.00460   0.00460   2.07367
    A1        1.82639  -0.02017   0.00000  -0.02018  -0.02327   1.80311
    A2        1.54913   0.00449   0.00000   0.07330   0.07389   1.62303
    A3        1.59246   0.05373   0.00000   0.07154   0.07293   1.66539
    A4        1.59561  -0.00945   0.00000   0.06423   0.06625   1.66186
    A5        1.54598   0.09252   0.00000   0.03607   0.03698   1.58296
    A6        2.23064   0.09582   0.00000   0.09627   0.09627   2.32691
    A7        2.05402   0.00779   0.00000  -0.03509  -0.03509   2.01894
    A8        1.92463  -0.00940   0.00000   0.00274   0.00252   1.92716
    A9        1.90756   0.00406   0.00000   0.01324   0.01333   1.92089
   A10        1.83888  -0.01045   0.00000   0.00274   0.00254   1.84143
   A11        1.93018  -0.00638   0.00000   0.01625   0.01629   1.94647
   A12        1.78913   0.01481   0.00000   0.00489   0.00480   1.79393
   A13        1.94394  -0.00325   0.00000  -0.00984  -0.00987   1.93407
   A14        2.01140   0.00417   0.00000  -0.00315  -0.00320   2.00820
   A15        1.93356  -0.00582   0.00000   0.00595   0.00595   1.93951
   A16        1.85263   0.00051   0.00000  -0.00393  -0.00401   1.84862
   A17        1.84061   0.00470   0.00000   0.00437   0.00440   1.84501
   A18        1.87167   0.00015   0.00000   0.00741   0.00740   1.87906
   A19        1.96245  -0.00340   0.00000  -0.00468  -0.00469   1.95776
   A20        1.93166  -0.00355   0.00000   0.00003   0.00004   1.93169
   A21        1.95474   0.00287   0.00000  -0.00442  -0.00444   1.95031
   A22        1.84540   0.00412   0.00000   0.00539   0.00540   1.85080
   A23        1.89198  -0.00062   0.00000   0.00094   0.00091   1.89290
   A24        1.87213   0.00085   0.00000   0.00367   0.00367   1.87580
   A25        1.98881  -0.00511   0.00000  -0.01061  -0.01062   1.97819
   A26        1.94470  -0.00025   0.00000  -0.00353  -0.00355   1.94115
   A27        1.94504  -0.00162   0.00000   0.00503   0.00505   1.95009
   A28        1.88117   0.00101   0.00000   0.00341   0.00337   1.88453
   A29        1.82704   0.00433   0.00000   0.00556   0.00558   1.83262
   A30        1.86944   0.00236   0.00000   0.00124   0.00124   1.87069
   A31        2.20043  -0.00203   0.00000  -0.04071  -0.04068   2.15975
   A32        2.16248   0.01202   0.00000   0.03135   0.03134   2.19382
   A33        1.91463  -0.00898   0.00000   0.00895   0.00893   1.92357
   A34        1.82262   0.00303   0.00000  -0.00544  -0.00547   1.81716
   A35        1.93811   0.01283   0.00000   0.00389   0.00386   1.94197
   A36        1.97225  -0.00822   0.00000  -0.00718  -0.00712   1.96514
   A37        1.92889  -0.00857   0.00000  -0.00283  -0.00279   1.92610
   A38        1.90993   0.00360   0.00000   0.01219   0.01215   1.92208
   A39        1.89157  -0.00279   0.00000  -0.00053  -0.00054   1.89103
   A40        1.80583   0.00213   0.00000  -0.00118  -0.00118   1.80465
   A41        1.96734  -0.00332   0.00000  -0.00308  -0.00308   1.96426
   A42        1.93299   0.00041   0.00000   0.00052   0.00052   1.93352
   A43        1.95950   0.00300   0.00000   0.00151   0.00153   1.96103
   A44        1.91244  -0.00206   0.00000   0.00214   0.00211   1.91455
   A45        1.88530  -0.00011   0.00000   0.00019   0.00019   1.88549
   A46        1.81229  -0.00253   0.00000  -0.00013  -0.00015   1.81214
   A47        1.91164   0.00226   0.00000  -0.00036  -0.00035   1.91129
   A48        1.96305   0.00125   0.00000   0.00324   0.00325   1.96630
   A49        1.92450   0.00303   0.00000   0.00170   0.00171   1.92620
   A50        1.96292  -0.00202   0.00000  -0.00284  -0.00283   1.96009
   A51        1.88873  -0.00174   0.00000  -0.00147  -0.00147   1.88726
   A52        1.85627   0.00410   0.00000  -0.00718  -0.00717   1.84910
   A53        1.98084  -0.00534   0.00000   0.00135   0.00135   1.98219
   A54        1.91535   0.00623   0.00000   0.00431   0.00430   1.91965
   A55        1.89960   0.00235   0.00000   0.00443   0.00442   1.90401
   A56        1.93271  -0.00775   0.00000  -0.00201  -0.00199   1.93072
   A57        1.87960   0.00006   0.00000  -0.00098  -0.00098   1.87862
   A58        2.04205  -0.00205   0.00000   0.00108   0.00077   2.04281
   A59        2.20216  -0.00230   0.00000  -0.02158  -0.02099   2.18117
   A60        1.84139   0.00207   0.00000   0.01919   0.01944   1.86083
[...]
   189    C   13  px     Val( 2p)     1.18068
   190    C   13  px     Ryd( 3p)     0.00312
   191    C   13  py     Val( 2p)     0.90913
   192    C   13  py     Ryd( 3p)     0.00280
   193    C   13  pz     Val( 2p)     1.12700
   194    C   13  pz     Ryd( 3p)     0.00231
   195    C   13  dxy    Ryd( 3d)     0.00120
   196    C   13  dxz    Ryd( 3d)     0.00127
   197    C   13  dyz    Ryd( 3d)     0.00092
   198    C   13  dx2y2  Ryd( 3d)     0.00103
   199    C   13  dz2    Ryd( 3d)     0.00072
 
   200    C   14  S      Cor( 1S)     1.99933
   201    C   14  S      Val( 2S)     1.04548
   202    C   14  S      Ryd( 3S)     0.00061
   203    C   14  S      Ryd( 4S)     0.00002
   204    C   14  px     Val( 2p)     1.16355
   205    C   14  px     Ryd( 3p)     0.00317
   206    C   14  py     Val( 2p)     1.14508
   207    C   14  py     Ryd( 3p)     0.00227
   208    C   14  pz     Val( 2p)     1.10166
   209    C   14  pz     Ryd( 3p)     0.00237
   210    C   14  dxy    Ryd( 3d)     0.00102
   211    C   14  dxz    Ryd( 3d)     0.00097
   212    C   14  dyz    Ryd( 3d)     0.00081
   213    C   14  dx2y2  Ryd( 3d)     0.00034
   214    C   14  dz2    Ryd( 3d)     0.00036
 
   215    C   15  S      Cor( 1S)     1.99933
   216    C   15  S      Val( 2S)     1.04882
   217    C   15  S      Ryd( 3S)     0.00053
   218    C   15  S      Ryd( 4S)     0.00002
   219    C   15  px     Val( 2p)     1.14471
   220    C   15  px     Ryd( 3p)     0.00148
   221    C   15  py     Val( 2p)     1.04787
   222    C   15  py     Ryd( 3p)     0.00182
   223    C   15  pz     Val( 2p)     1.21420
   224    C   15  pz     Ryd( 3p)     0.00401
   225    C   15  dxy    Ryd( 3d)     0.00081
   226    C   15  dxz    Ryd( 3d)     0.00087
   227    C   15  dyz    Ryd( 3d)     0.00053
   228    C   15  dx2y2  Ryd( 3d)     0.00050
   229    C   15  dz2    Ryd( 3d)     0.00080
 
   230    C   16  S      Cor( 1S)     1.99934
   231    C   16  S      Val( 2S)     1.02255
   232    C   16  S      Ryd( 3S)     0.00159
   233    C   16  S      Ryd( 4S)     0.00003
   234    C   16  px     Val( 2p)     1.05806
   235    C   16  px     Ryd( 3p)     0.00361
   236    C   16  py     Val( 2p)     1.18571
   237    C   16  py     Ryd( 3p)     0.00417
   238    C   16  pz     Val( 2p)     0.97043
   239    C   16  pz     Ryd( 3p)     0.00240
   240    C   16  dxy    Ryd( 3d)     0.00076
   241    C   16  dxz    Ryd( 3d)     0.00164
   242    C   16  dyz    Ryd( 3d)     0.00048
   243    C   16  dx2y2  Ryd( 3d)     0.00089
   244    C   16  dz2    Ryd( 3d)     0.00140
 
   245    N   17  S      Cor( 1S)     1.99946
   246    N   17  S      Val( 2S)     1.35521
   247    N   17  S      Ryd( 3S)     0.00181
   248    N   17  S      Ryd( 4S)     0.00008
   249    N   17  px     Val( 2p)     1.65315
   250    N   17  px     Ryd( 3p)     0.00336
   251    N   17  py     Val( 2p)     1.35759
   252    N   17  py     Ryd( 3p)     0.00235
   253    N   17  pz     Val( 2p)     1.40685
   254    N   17  pz     Ryd( 3p)     0.00222
   255    N   17  dxy    Ryd( 3d)     0.00064
   256    N   17  dxz    Ryd( 3d)     0.00092
   257    N   17  dyz    Ryd( 3d)     0.00068
   258    N   17  dx2y2  Ryd( 3d)     0.00053
   259    N   17  dz2    Ryd( 3d)     0.00042
 
   260    C   18  S      Cor( 1S)     1.99933
   261    C   18  S      Val( 2S)     1.03059
   262    C   18  S      Ryd( 3S)     0.00161
   263    C   18  S      Ryd( 4S)     0.00004
   264    C   18  px     Val( 2p)     1.02754
   265    C   18  px     Ryd( 3p)     0.00445
   266    C   18  py     Val( 2p)     1.19434
   267    C   18  py     Ryd( 3p)     0.00446
   268    C   18  pz     Val( 2p)     0.99436
   269    C   18  pz     Ryd( 3p)     0.00312
   270    C   18  dxy    Ryd( 3d)     0.00076
   271    C   18  dxz    Ryd( 3d)     0.00159
   272    C   18  dyz    Ryd( 3d)     0.00044
   273    C   18  dx2y2  Ryd( 3d)     0.00097
   274    C   18  dz2    Ryd( 3d)     0.00127
 
   275    C   19  S      Cor( 1S)     1.99933
   276    C   19  S      Val( 2S)     1.05457
   277    C   19  S      Ryd( 3S)     0.00065
   278    C   19  S      Ryd( 4S)     0.00004
   279    C   19  px     Val( 2p)     1.14671
   280    C   19  px     Ryd( 3p)     0.00163
   281    C   19  py     Val( 2p)     1.02715
   282    C   19  py     Ryd( 3p)     0.00190
   283    C   19  pz     Val( 2p)     1.23126
   284    C   19  pz     Ryd( 3p)     0.00414
   285    C   19  dxy    Ryd( 3d)     0.00078
   286    C   19  dxz    Ryd( 3d)     0.00101
   287    C   19  dyz    Ryd( 3d)     0.00041
   288    C   19  dx2y2  Ryd( 3d)     0.00047
   289    C   19  dz2    Ryd( 3d)     0.00076
 
   290    C   20  S      Cor( 1S)     1.99934
   291    C   20  S      Val( 2S)     1.04755
   292    C   20  S      Ryd( 3S)     0.00061
   293    C   20  S      Ryd( 4S)     0.00002
   294    C   20  px     Val( 2p)     1.14060
   295    C   20  px     Ryd( 3p)     0.00320
   296    C   20  py     Val( 2p)     1.15055
   297    C   20  py     Ryd( 3p)     0.00263
   298    C   20  pz     Val( 2p)     1.11873
   299    C   20  pz     Ryd( 3p)     0.00247
   300    C   20  dxy    Ryd( 3d)     0.00095
   301    C   20  dxz    Ryd( 3d)     0.00101
   302    C   20  dyz    Ryd( 3d)     0.00072
   303    C   20  dx2y2  Ryd( 3d)     0.00039
   304    C   20  dz2    Ryd( 3d)     0.00041
 
   305    C   21  S      Cor( 1S)     1.99935
   306    C   21  S      Val( 2S)     1.02989
   307    C   21  S      Ryd( 3S)     0.00173
   308    C   21  S      Ryd( 4S)     0.00004
   309    C   21  px     Val( 2p)     1.17978
   310    C   21  px     Ryd( 3p)     0.00317
   311    C   21  py     Val( 2p)     0.88253
   312    C   21  py     Ryd( 3p)     0.00289
   313    C   21  pz     Val( 2p)     1.15673
   314    C   21  pz     Ryd( 3p)     0.00305
   315    C   21  dxy    Ryd( 3d)     0.00122
   316    C   21  dxz    Ryd( 3d)     0.00099
   317    C   21  dyz    Ryd( 3d)     0.00081
   318    C   21  dx2y2  Ryd( 3d)     0.00109
   319    C   21  dz2    Ryd( 3d)     0.00095
 
   320    H   22  S      Val( 1S)     0.77191
   321    H   22  S      Ryd( 2S)     0.00654
 
   322    H   23  S      Val( 1S)     0.78423
   323    H   23  S      Ryd( 2S)     0.02461
 
   324    H   24  S      Val( 1S)     0.76456
   325    H   24  S      Ryd( 2S)     0.00478
 
   326    H   25  S      Val( 1S)     0.77026
   327    H   25  S      Ryd( 2S)     0.00642
 
   328    H   26  S      Val( 1S)     0.76448
   329    H   26  S      Ryd( 2S)     0.00479
 
   330    H   27  S      Val( 1S)     0.77532
   331    H   27  S      Ryd( 2S)     0.00763
 
   332    H   28  S      Val( 1S)     0.79044
   333    H   28  S      Ryd( 2S)     0.01910
 
   334    H   29  S      Val( 1S)     0.77976
   335    H   29  S      Ryd( 2S)     0.01061
 
   336    H   30  S      Val( 1S)     0.77433
   337    H   30  S      Ryd( 2S)     0.00565
 
   338    H   31  S      Val( 1S)     0.76884
   339    H   31  S      Ryd( 2S)     0.00717
 
   340    H   32  S      Val( 1S)     0.75242
   341    H   32  S      Ryd( 2S)     0.00908
 
   342    H   33  S      Val( 1S)     0.75342
   343    H   33  S      Ryd( 2S)     0.00202
 
   344    H   34  S      Val( 1S)     0.76494
   345    H   34  S      Ryd( 2S)     0.00466
 
   346    H   35  S      Val( 1S)     0.76447
   347    H   35  S      Ryd( 2S)     0.00490
 
   348    H   36  S      Val( 1S)     0.75429
   349    H   36  S      Ryd( 2S)     0.00287
 
   350    H   37  S      Val( 1S)     0.76358
   351    H   37  S      Ryd( 2S)     0.01303
 
   352    H   38  S      Val( 1S)     0.78229
   353    H   38  S      Ryd( 2S)     0.01839
 
   354    H   39  S      Val( 1S)     0.79302
   355    H   39  S      Ryd( 2S)     0.01458
 
   356    H   40  S      Val( 1S)     0.78288
   357    H   40  S      Ryd( 2S)     0.01503
 
   358    H   41  S      Val( 1S)     0.75922
   359    H   41  S      Ryd( 2S)     0.00367
 
   360    H   42  S      Val( 1S)     0.76554
   361    H   42  S      Ryd( 2S)     0.00583
 
   362    H   43  S      Val( 1S)     0.77608
   363    H   43  S      Ryd( 2S)     0.01029
 
   364    H   44  S      Val( 1S)     0.76202
   365    H   44  S      Ryd( 2S)     0.00527
 
   366    H   45  S      Val( 1S)     0.77236
   367    H   45  S      Ryd( 2S)     0.00937
 
   368    H   46  S      Val( 1S)     0.78056
   369    H   46  S      Ryd( 2S)     0.00837
 
   370    H   47  S      Val( 1S)     0.77784
   371    H   47  S      Ryd( 2S)     0.01043
 
   372    H   48  S      Val( 1S)     0.77212
   373    H   48  S      Ryd( 2S)     0.01361
 
   374    H   49  S      Val( 1S)     0.76509
   375    H   49  S      Ryd( 2S)     0.00565
 
   376    H   50  S      Val( 1S)     0.78569
   377    H   50  S      Ryd( 2S)     0.03070
 
   378    H   51  S      Val( 1S)     0.76999
   379    H   51  S      Ryd( 2S)     0.00676
 
   380    H   52  S      Val( 1S)     0.76537
   381    H   52  S      Ryd( 2S)     0.00803
 
   382    H   53  S      Val( 1S)     0.78012
   383    H   53  S      Ryd( 2S)     0.01271
 
   384    H   54  S      Val( 1S)     0.78889
   385    H   54  S      Ryd( 2S)     0.02268

 WARNING:  1 low occupancy (<1.9990e) core orbital  found on  P    1


 Summary of Natural Population Analysis:                  
                                                          
                                       Natural Population 
                Natural  -----------------------------------------------
    Atom  No    Charge         Core      Valence    Rydberg      Total
 -----------------------------------------------------------------------
      P    1    2.32364      9.99765     2.53635    0.14236    12.67636
      N    2   -0.81113      1.99938     5.79822    0.01353     7.81113
      C    3    0.11539      1.99912     3.86695    0.01853     5.88461
      C    4   -0.66743      1.99931     4.65694    0.01119     6.66743
      C    5   -0.66230      1.99932     4.65220    0.01077     6.66230
      C    6   -0.69293      1.99935     4.68282    0.01077     6.69293
      N    7   -0.78248      1.99942     5.76773    0.01532     7.78248
      C    8   -0.25030      1.99935     4.23464    0.01631     6.25030
      C    9   -0.47199      1.99933     4.46113    0.01152     6.47199
      C   10   -0.46847      1.99934     4.45699    0.01215     6.46847
      C   11   -0.26164      1.99933     4.24584    0.01647     6.26164
      N   12   -0.86072      1.99943     5.84839    0.01291     7.86072
      C   13   -0.25732      1.99936     4.24289    0.01507     6.25732
      C   14   -0.46703      1.99933     4.45577    0.01193     6.46703
      C   15   -0.46628      1.99933     4.45559    0.01136     6.46628
      C   16   -0.25308      1.99934     4.23676    0.01698     6.25308
      N   17   -0.78526      1.99946     5.77280    0.01300     7.78526
      C   18   -0.26487      1.99933     4.24683    0.01871     6.26487
      C   19   -0.47080      1.99933     4.45969    0.01179     6.47080
      C   20   -0.46918      1.99934     4.45742    0.01242     6.46918
      C   21   -0.26423      1.99935     4.24894    0.01594     6.26423
      H   22    0.22155      0.00000     0.77191    0.00654     0.77845
      H   23    0.19117      0.00000     0.78423    0.02461     0.80883
      H   24    0.23066      0.00000     0.76456    0.00478     0.76934
      H   25    0.22332      0.00000     0.77026    0.00642     0.77668
      H   26    0.23073      0.00000     0.76448    0.00479     0.76927
      H   27    0.21705      0.00000     0.77532    0.00763     0.78295
      H   28    0.19045      0.00000     0.79044    0.01910     0.80955
      H   29    0.20963      0.00000     0.77976    0.01061     0.79037
      H   30    0.22002      0.00000     0.77433    0.00565     0.77998
      H   31    0.22399      0.00000     0.76884    0.00717     0.77601
      H   32    0.23850      0.00000     0.75242    0.00908     0.76150
      H   33    0.24456      0.00000     0.75342    0.00202     0.75544
      H   34    0.23039      0.00000     0.76494    0.00466     0.76961
      H   35    0.23063      0.00000     0.76447    0.00490     0.76937
      H   36    0.24283      0.00000     0.75429    0.00287     0.75717
      H   37    0.22340      0.00000     0.76358    0.01303     0.77660
      H   38    0.19932      0.00000     0.78229    0.01839     0.80068
      H   39    0.19240      0.00000     0.79302    0.01458     0.80760
      H   40    0.20209      0.00000     0.78288    0.01503     0.79791
      H   41    0.23711      0.00000     0.75922    0.00367     0.76289
      H   42    0.22863      0.00000     0.76554    0.00583     0.77137
      H   43    0.21363      0.00000     0.77608    0.01029     0.78637
      H   44    0.23271      0.00000     0.76202    0.00527     0.76729
      H   45    0.21827      0.00000     0.77236    0.00937     0.78173
      H   46    0.21107      0.00000     0.78056    0.00837     0.78893
      H   47    0.21173      0.00000     0.77784    0.01043     0.78827
      H   48    0.21427      0.00000     0.77212    0.01361     0.78573
      H   49    0.22925      0.00000     0.76509    0.00565     0.77075
      H   50    0.18361      0.00000     0.78569    0.03070     0.81639
      H   51    0.22326      0.00000     0.76999    0.00676     0.77674
      H   52    0.22659      0.00000     0.76537    0.00803     0.77341
      H   53    0.20717      0.00000     0.78012    0.01271     0.79283
      H   54    0.18843      0.00000     0.78889    0.02268     0.81157
 =======================================================================
   * Total *   -0.00000     49.98449   121.26123    0.75428   172.00000

                                 Natural Population      
 --------------------------------------------------------
   Core                      49.98449 ( 99.9690% of  50)
   Valence                  121.26123 ( 99.3945% of 122)
   Natural Minimal Basis    171.24572 ( 99.5615% of 172)
   Natural Rydberg Basis      0.75428 (  0.4385% of 172)
 --------------------------------------------------------

    Atom  No          Natural Electron Configuration
 ----------------------------------------------------------------------------
      P    1      [core]3S( 0.80)3p( 1.74)4S( 0.03)3d( 0.09)4p( 0.02)
      N    2      [core]2S( 1.42)2p( 4.37)3p( 0.01)
      C    3      [core]2S( 0.90)2p( 2.97)3p( 0.01)3d( 0.01)
      C    4      [core]2S( 1.11)2p( 3.55)3p( 0.01)
      C    5      [core]2S( 1.11)2p( 3.55)3p( 0.01)
      C    6      [core]2S( 1.11)2p( 3.58)3p( 0.01)
      N    7      [core]2S( 1.32)2p( 4.45)3p( 0.01)
      C    8      [core]2S( 1.03)2p( 3.21)3p( 0.01)3d( 0.01)
      C    9      [core]2S( 1.05)2p( 3.42)3p( 0.01)
      C   10      [core]2S( 1.05)2p( 3.41)3p( 0.01)
      C   11      [core]2S( 1.03)2p( 3.21)3p( 0.01)3d( 0.01)
      N   12      [core]2S( 1.33)2p( 4.52)3p( 0.01)
      C   13      [core]2S( 1.03)2p( 3.22)3p( 0.01)3d( 0.01)
      C   14      [core]2S( 1.05)2p( 3.41)3p( 0.01)
      C   15      [core]2S( 1.05)2p( 3.41)3p( 0.01)
      C   16      [core]2S( 1.02)2p( 3.21)3p( 0.01)3d( 0.01)
      N   17      [core]2S( 1.36)2p( 4.42)3p( 0.01)
      C   18      [core]2S( 1.03)2p( 3.22)3p( 0.01)3d( 0.01)
      C   19      [core]2S( 1.05)2p( 3.41)3p( 0.01)
      C   20      [core]2S( 1.05)2p( 3.41)3p( 0.01)
      C   21      [core]2S( 1.03)2p( 3.22)3p( 0.01)3d( 0.01)
      H   22            1S( 0.77)2S( 0.01)
      H   23            1S( 0.78)2S( 0.02)
      H   24            1S( 0.76)
      H   25            1S( 0.77)2S( 0.01)
      H   26            1S( 0.76)
      H   27            1S( 0.78)2S( 0.01)
      H   28            1S( 0.79)2S( 0.02)
      H   29            1S( 0.78)2S( 0.01)
      H   30            1S( 0.77)2S( 0.01)
      H   31            1S( 0.77)2S( 0.01)
      H   32            1S( 0.75)2S( 0.01)
      H   33            1S( 0.75)
      H   34            1S( 0.76)
      H   35            1S( 0.76)
      H   36            1S( 0.75)
      H   37            1S( 0.76)2S( 0.01)
      H   38            1S( 0.78)2S( 0.02)
      H   39            1S( 0.79)2S( 0.01)
      H   40            1S( 0.78)2S( 0.02)
      H   41            1S( 0.76)
      H   42            1S( 0.77)2S( 0.01)
      H   43            1S( 0.78)2S( 0.01)
      H   44            1S( 0.76)2S( 0.01)
      H   45            1S( 0.77)2S( 0.01)
      H   46            1S( 0.78)2S( 0.01)
      H   47            1S( 0.78)2S( 0.01)
      H   48            1S( 0.77)2S( 0.01)
      H   49            1S( 0.77)2S( 0.01)
      H   50            1S( 0.79)2S( 0.03)
      H   51            1S( 0.77)2S( 0.01)
      H   52            1S( 0.77)2S( 0.01)
      H   53            1S( 0.78)2S( 0.01)
      H   54            1S( 0.79)2S( 0.02)


 NBO analysis skipped by request.
 1\1\GINC-DELLA-R2C1N9\SP\RB3LYP TD-FC\6-31G(d)\C16H33N4P1\BJS4\24-Aug-
 2020\0\\# TD(NStates=10, Root=1) B3LYP/6-31G* scf=qc volume pop=NPA de
 nsity=current Geom=AllCheck Guess=Read\\Title Card Required\\0,1\P,0,1
 .085419074,0.6710172102,0.1520804978\N,0,1.308928886,1.0776435241,1.62
 90355517\C,0,1.4649998269,0.4401165911,2.9238233558\C,0,2.9413592735,0
 .5653796287,3.3631551274\C,0,0.5861080331,1.2137903994,3.9322901835\C,
 0,1.0624585879,-1.0506459284,2.9610199289\N,0,1.2147323389,2.111605395
 7,-0.7126055217\C,0,1.4995008117,3.4223889642,-0.0980465101\C,0,1.0876
 558059,4.4279294855,-1.1846421316\C,0,1.3487802146,3.6623766295,-2.490
 5773167\C,0,0.9023270609,2.2341839951,-2.1413553876\N,0,-0.3960601819,
 -0.092541454,-0.1830144122\C,0,-1.6035516631,0.4186414515,0.5064354957
 \C,0,-2.7720236162,-0.2418450935,-0.2398771733\C,0,-2.2390226739,-0.36
 87675999,-1.6736520029\C,0,-0.7718738577,-0.760630493,-1.450113682\N,0
 ,2.1287662216,-0.3442081604,-0.7433264586\C,0,2.1190556369,-1.81919321
 8,-0.6157663393\C,0,3.5873435819,-2.2037218631,-0.3912144457\C,0,4.333
 7244975,-1.1389242705,-1.2066884747\C,0,3.5184834069,0.1366718177,-0.9
 408616639\H,0,3.2490587656,1.6162325697,3.34739453\H,0,3.5937857457,0.
 013437527,2.6757705701\H,0,3.0981625994,0.170510747,4.3756771021\H,0,0
 .8489052036,2.2767839454,3.9189243453\H,0,0.7162920271,0.8344652539,4.
 9539805374\H,0,-0.4732845623,1.1273362852,3.6649384752\H,0,1.723334934
 ,-1.6497981259,2.3237662929\H,0,0.0336300458,-1.1911495363,2.612114296
 1\H,0,1.1335098405,-1.4524040119,3.9798121054\H,0,2.568948107,3.516633
 4131,0.1409045877\H,0,0.9490727042,3.5446006052,0.8368395199\H,0,1.642
 4626254,5.3692376887,-1.1155685793\H,0,0.0190067411,4.6617047372,-1.09
 65340876\H,0,2.4208070934,3.6714768625,-2.7239861025\H,0,0.8132572072,
 4.0702174818,-3.3541214619\H,0,1.4274913652,1.4731624821,-2.7318219657
 \H,0,-0.1766523605,2.1125837682,-2.3339846843\H,0,-1.6667684179,1.5147
 051744,0.4337778625\H,0,-1.5880235443,0.1637887228,1.5702253593\H,0,-3
 .695238136,0.3415315713,-0.1654875125\H,0,-2.970468477,-1.2378468527,0
 .1752795931\H,0,-2.2981247714,0.6008691124,-2.1844966747\H,0,-2.782536
 2897,-1.1018122602,-2.2790129914\H,0,-0.1180304558,-0.4612440708,-2.27
 34231283\H,0,-0.684596489,-1.8520946209,-1.3446518125\H,0,1.7461896705
 ,-2.2751933435,-1.5449333071\H,0,1.4615622245,-2.1479902626,0.19369854
 05\H,0,3.8086537387,-3.2291514092,-0.7054122727\H,0,3.8429384421,-2.11
 22197245,0.6719655702\H,0,4.3026427831,-1.3938659274,-2.2734573084\H,0
 ,5.3843648465,-1.0255946458,-0.9211055547\H,0,3.5722302663,0.845942531
 ,-1.7744698021\H,0,3.8894652616,0.6517473011,-0.0433706628\\Version=ES
 64L-G16RevA.03\State=1-A\HF=-1189.9307416\RMSD=3.026e-13\Dipole=-0.356
 5004,0.7795429,-0.8095867\Quadrupole=-1.2235402,1.8973829,-0.6738427,1
 .5642041,-0.6149675,-0.5869682\PG=C01 [X(C16H33N4P1)]\\@


 WHEN ALL ELSE FAILS, LOOK AT THE SCHRODINGER EQUATION.
     -- RUSSELL T. PACK, APRIL 1978
 Job cpu time:       0 days  2 hours  2 minutes 15.3 seconds.
 Elapsed time:       0 days  0 hours 17 minutes 31.0 seconds.
 File lengths (MBytes):  RWF=   1207 Int=      0 D2E=      0 Chk=    268 Scr=      1
 Normal termination of Gaussian 16 at Mon Aug 24 16:34:11 2020.
