 Entering Gaussian System, Link 0=g16
 Input=base_3_conf9123.com
 Output=base_3_conf9123.log
 Initial command:
 /opt/export//g16/l1.exe "/scratch/bjs4/job.14838/Gau-14840.inp" -scrdir="/scratch/bjs4/job.14838/"
 Entering Link 1 = /opt/export//g16/l1.exe PID=     14841.
  
 Copyright (c) 1988,1990,1992,1993,1995,1998,2003,2009,2016,
            Gaussian, Inc.  All Rights Reserved.
  
 This is part of the Gaussian(R) 16 program.  It is based on
 the Gaussian(R) 09 system (copyright 2009, Gaussian, Inc.),
 the Gaussian(R) 03 system (copyright 2003, Gaussian, Inc.),
 the Gaussian(R) 98 system (copyright 1998, Gaussian, Inc.),
 the Gaussian(R) 94 system (copyright 1995, Gaussian, Inc.),
 the Gaussian 92(TM) system (copyright 1992, Gaussian, Inc.),
 the Gaussian 90(TM) system (copyright 1990, Gaussian, Inc.),
 the Gaussian 88(TM) system (copyright 1988, Gaussian, Inc.),
 the Gaussian 86(TM) system (copyright 1986, Carnegie Mellon
 University), and the Gaussian 82(TM) system (copyright 1983,
 Carnegie Mellon University). Gaussian is a federally registered
 trademark of Gaussian, Inc.
  
 This software contains proprietary and confidential information,
 including trade secrets, belonging to Gaussian, Inc.
  
 This software is provided under written license and may be
 used, copied, transmitted, or stored only in accord with that
 written license.
  
 The following legend is applicable only to US Government
 contracts under FAR:
  
                    RESTRICTED RIGHTS LEGEND
  
 Use, reproduction and disclosure by the US Government is
 subject to restrictions as set forth in subparagraphs (a)
 and (c) of the Commercial Computer Software - Restricted
 Rights clause in FAR 52.227-19.
  
 Gaussian, Inc.
 340 Quinnipiac St., Bldg. 40, Wallingford CT 06492
  
  
 ---------------------------------------------------------------
 Warning -- This program may not be used in any manner that
 competes with the business of Gaussian, Inc. or will provide
 assistance to any competitor of Gaussian, Inc.  The licensee
 of this program is prohibited from giving any competitor of
 Gaussian, Inc. access to this program.  By using this program,
 the user acknowledges that Gaussian, Inc. is engaged in the
 business of creating and licensing software in the field of
 computational chemistry and represents and warrants to the
 licensee that it is not a competitor of Gaussian, Inc. and that
 it will not use this program in any manner prohibited above.
 ---------------------------------------------------------------
  

 Cite this work as:
 Gaussian 16, Revision A.03,
 M. J. Frisch, G. W. Trucks, H. B. Schlegel, G. E. Scuseria, 
 M. A. Robb, J. R. Cheeseman, G. Scalmani, V. Barone, 
 G. A. Petersson, H. Nakatsuji, X. Li, M. Caricato, A. V. Marenich, 
 J. Bloino, B. G. Janesko, R. Gomperts, B. Mennucci, H. P. Hratchian, 
 J. V. Ortiz, A. F. Izmaylov, J. L. Sonnenberg, D. Williams-Young, 
 F. Ding, F. Lipparini, F. Egidi, J. Goings, B. Peng, A. Petrone, 
 T. Henderson, D. Ranasinghe, V. G. Zakrzewski, J. Gao, N. Rega, 
 G. Zheng, W. Liang, M. Hada, M. Ehara, K. Toyota, R. Fukuda, 
 J. Hasegawa, M. Ishida, T. Nakajima, Y. Honda, O. Kitao, H. Nakai, 
 T. Vreven, K. Throssell, J. A. Montgomery, Jr., J. E. Peralta, 
 F. Ogliaro, M. J. Bearpark, J. J. Heyd, E. N. Brothers, K. N. Kudin, 
 V. N. Staroverov, T. A. Keith, R. Kobayashi, J. Normand, 
 K. Raghavachari, A. P. Rendell, J. C. Burant, S. S. Iyengar, 
 J. Tomasi, M. Cossi, J. M. Millam, M. Klene, C. Adamo, R. Cammi, 
 J. W. Ochterski, R. L. Martin, K. Morokuma, O. Farkas, 
 J. B. Foresman, and D. J. Fox, Gaussian, Inc., Wallingford CT, 2016.
 
 ******************************************
 Gaussian 16:  ES64L-G16RevA.03 25-Dec-2016
                24-Aug-2020 
 ******************************************
 %nprocshared=5
 Will use up to    5 processors via shared memory.
 %Mem=10GB
 %Chk=base_3_conf91.chk
 ---------------------------------
 # opt=CalcAll B3LYP/6-31G* scf=qc
 ---------------------------------
 1/10=4,18=20,19=15,26=3,38=1/1,3;
 2/9=110,12=2,17=6,18=5,40=1/2;
 3/5=1,6=6,7=1,11=2,25=1,30=1,71=2,74=-5,140=1/1,2,3;
 4//1;
 5/5=2,8=3,38=5/8;
 8/6=4,10=90,11=11/1;
 11/6=1,8=1,9=11,15=111,16=1/1,2,10;
 10/6=1/2;
 6/7=2,8=2,9=2,10=2,18=1,28=1/1;
 7/10=1,25=1/1,2,3,16;
 1/10=4,18=20,19=15,26=3/3(3);
 2/9=110/2;
 7/8=1,9=1,25=1,44=-1/16;
 99//99;
 2/9=110/2;
 3/5=1,6=6,7=1,11=2,25=1,30=1,71=2,74=-5,140=1/1,2,3;
 4/5=5,16=3,69=1/1;
 5/5=2,8=3,38=5/8;
 8/6=4,10=90,11=11/1;
 11/6=1,8=1,9=11,15=111,16=1/1,2,10;
 10/6=1/2;
 7/10=1,25=1/1,2,3,16;
 1/10=4,18=20,19=15,26=3/3(-8);
 2/9=110/2;
 6/7=2,8=2,9=2,10=2,18=1,19=2,28=1/1;
 7/8=1,9=1,25=1,44=-1/16;
 99//99;
 -------------------
 Title Card Required
 -------------------
 Symbolic Z-matrix:
 Charge =  0 Multiplicity = 1
 N                     1.4187    0.1287    0.123 
 C                     0.481    -0.8828   -0.0433 
 N1                   -0.7977   -0.8604   -0.0093 
 C                    -1.8463    0.1303    0.1023 
 C                    -1.30693   1.55851   0.21174 
 C                    -2.62619   0.0393   -1.23793 
 C                    -2.85405  -0.22913   1.20135 
 N                     1.052    -2.1118   -0.3736 
 C                     0.37923  -3.11527  -1.19206 
 C                     2.51064  -2.26117  -0.38362 
 C                     1.16998   1.3008    0.97024 
 C                     2.81891   0.0352   -0.2462 
 H                    -0.35452   1.67091  -0.31805 
 H                    -1.16512   1.8648    1.2488 
 H                    -2.0034    2.29238  -0.2114 
 H                    -1.9448    0.05112  -2.09696 
 H                    -3.33168   0.87283  -1.35349 
 H                    -3.20709  -0.88631  -1.2998 
 H                    -2.40641  -0.33712   2.1863 
 H                    -3.34209  -1.18814   0.99106 
 H                    -3.63804   0.5332    1.27861 
 H                    -0.69406  -2.93185  -1.31141 
 H                     0.49955  -4.10324  -0.73248 
 H                     0.81478  -3.15443  -2.1949 
 H                     3.02486  -1.49845   0.21105 
 H                     2.89856  -2.21887  -1.40772 
 H                     2.78456  -3.22879   0.04987 
 H                     0.12828   1.39895   1.29683 
 H                     1.42836   2.21205   0.41765 
 H                     1.78423   1.2541    1.86773 
 H                     3.02749  -0.77161  -0.93965 
 H                     3.44581  -0.072     0.64295 
 H                     3.13808   0.95315  -0.75505 
 

 GradGradGradGradGradGradGradGradGradGradGradGradGradGradGradGradGradGrad
 Berny optimization.
 Initialization pass.
                           ----------------------------
                           !    Initial Parameters    !
                           ! (Angstroms and Degrees)  !
 --------------------------                            --------------------------
 ! Name  Definition              Value          Derivative Info.                !
 --------------------------------------------------------------------------------
 ! R1    R(1,2)                  1.3893         calculate D2E/DX2 analytically  !
 ! R2    R(1,11)                 1.4675         calculate D2E/DX2 analytically  !
 ! R3    R(1,12)                 1.4511         calculate D2E/DX2 analytically  !
 ! R4    R(2,3)                  1.2793         calculate D2E/DX2 analytically  !
 ! R5    R(2,8)                  1.3948         calculate D2E/DX2 analytically  !
 ! R6    R(3,4)                  1.4469         calculate D2E/DX2 analytically  !
 ! R7    R(4,5)                  1.5306         calculate D2E/DX2 analytically  !
 ! R8    R(4,6)                  1.5533         calculate D2E/DX2 analytically  !
 ! R9    R(4,7)                  1.5338         calculate D2E/DX2 analytically  !
 ! R10   R(5,13)                 1.0956         calculate D2E/DX2 analytically  !
 ! R11   R(5,14)                 1.0906         calculate D2E/DX2 analytically  !
 ! R12   R(5,15)                 1.0967         calculate D2E/DX2 analytically  !
 ! R13   R(6,16)                 1.0965         calculate D2E/DX2 analytically  !
 ! R14   R(6,17)                 1.0981         calculate D2E/DX2 analytically  !
 ! R15   R(6,18)                 1.0945         calculate D2E/DX2 analytically  !
 ! R16   R(7,19)                 1.0873         calculate D2E/DX2 analytically  !
 ! R17   R(7,20)                 1.0964         calculate D2E/DX2 analytically  !
 ! R18   R(7,21)                 1.0962         calculate D2E/DX2 analytically  !
 ! R19   R(8,9)                  1.4593         calculate D2E/DX2 analytically  !
 ! R20   R(8,10)                 1.4663         calculate D2E/DX2 analytically  !
 ! R21   R(9,22)                 1.0954         calculate D2E/DX2 analytically  !
 ! R22   R(9,23)                 1.0963         calculate D2E/DX2 analytically  !
 ! R23   R(9,24)                 1.094          calculate D2E/DX2 analytically  !
 ! R24   R(10,25)                1.0954         calculate D2E/DX2 analytically  !
 ! R25   R(10,26)                1.0959         calculate D2E/DX2 analytically  !
 ! R26   R(10,27)                1.0951         calculate D2E/DX2 analytically  !
 ! R27   R(11,28)                1.0961         calculate D2E/DX2 analytically  !
 ! R28   R(11,29)                1.0966         calculate D2E/DX2 analytically  !
 ! R29   R(11,30)                1.0886         calculate D2E/DX2 analytically  !
 ! R30   R(12,31)                1.0841         calculate D2E/DX2 analytically  !
 ! R31   R(12,32)                1.0932         calculate D2E/DX2 analytically  !
 ! R32   R(12,33)                1.097          calculate D2E/DX2 analytically  !
 ! A1    A(2,1,11)             122.4282         calculate D2E/DX2 analytically  !
 ! A2    A(2,1,12)             125.0245         calculate D2E/DX2 analytically  !
 ! A3    A(11,1,12)            111.2172         calculate D2E/DX2 analytically  !
 ! A4    A(1,2,3)              131.1999         calculate D2E/DX2 analytically  !
 ! A5    A(1,2,8)              113.1759         calculate D2E/DX2 analytically  !
 ! A6    A(3,2,8)              115.5233         calculate D2E/DX2 analytically  !
 ! A7    A(2,3,4)              137.595          calculate D2E/DX2 analytically  !
 ! A8    A(3,4,5)              112.8946         calculate D2E/DX2 analytically  !
 ! A9    A(3,4,6)              104.9046         calculate D2E/DX2 analytically  !
 ! A10   A(3,4,7)              111.7754         calculate D2E/DX2 analytically  !
 ! A11   A(5,4,6)              107.0553         calculate D2E/DX2 analytically  !
 ! A12   A(5,4,7)              113.5128         calculate D2E/DX2 analytically  !
 ! A13   A(6,4,7)              105.9407         calculate D2E/DX2 analytically  !
 ! A14   A(4,5,13)             111.5606         calculate D2E/DX2 analytically  !
 ! A15   A(4,5,14)             112.0783         calculate D2E/DX2 analytically  !
 ! A16   A(4,5,15)             111.903          calculate D2E/DX2 analytically  !
 ! A17   A(13,5,14)            108.54           calculate D2E/DX2 analytically  !
 ! A18   A(13,5,15)            107.2678         calculate D2E/DX2 analytically  !
 ! A19   A(14,5,15)            105.1615         calculate D2E/DX2 analytically  !
 ! A20   A(4,6,16)             111.3041         calculate D2E/DX2 analytically  !
 ! A21   A(4,6,17)             111.6479         calculate D2E/DX2 analytically  !
 ! A22   A(4,6,18)             111.3943         calculate D2E/DX2 analytically  !
 ! A23   A(16,6,17)            107.9752         calculate D2E/DX2 analytically  !
 ! A24   A(16,6,18)            107.1353         calculate D2E/DX2 analytically  !
 ! A25   A(17,6,18)            107.1568         calculate D2E/DX2 analytically  !
 ! A26   A(4,7,19)             113.6956         calculate D2E/DX2 analytically  !
 ! A27   A(4,7,20)             111.0996         calculate D2E/DX2 analytically  !
 ! A28   A(4,7,21)             110.9413         calculate D2E/DX2 analytically  !
 ! A29   A(19,7,20)            105.6724         calculate D2E/DX2 analytically  !
 ! A30   A(19,7,21)            107.4372         calculate D2E/DX2 analytically  !
 ! A31   A(20,7,21)            107.6642         calculate D2E/DX2 analytically  !
 ! A32   A(2,8,9)              123.3656         calculate D2E/DX2 analytically  !
 ! A33   A(2,8,10)             119.9075         calculate D2E/DX2 analytically  !
 ! A34   A(9,8,10)             112.6277         calculate D2E/DX2 analytically  !
 ! A35   A(8,9,22)             113.4347         calculate D2E/DX2 analytically  !
 ! A36   A(8,9,23)             109.5115         calculate D2E/DX2 analytically  !
 ! A37   A(8,9,24)             110.805          calculate D2E/DX2 analytically  !
 ! A38   A(22,9,23)            107.7059         calculate D2E/DX2 analytically  !
 ! A39   A(22,9,24)            107.2297         calculate D2E/DX2 analytically  !
 ! A40   A(23,9,24)            107.9584         calculate D2E/DX2 analytically  !
 ! A41   A(8,10,25)            113.1014         calculate D2E/DX2 analytically  !
 ! A42   A(8,10,26)            110.7671         calculate D2E/DX2 analytically  !
 ! A43   A(8,10,27)            109.6414         calculate D2E/DX2 analytically  !
 ! A44   A(25,10,26)           108.317          calculate D2E/DX2 analytically  !
 ! A45   A(25,10,27)           106.4354         calculate D2E/DX2 analytically  !
 ! A46   A(26,10,27)           108.3892         calculate D2E/DX2 analytically  !
 ! A47   A(1,11,28)            113.8674         calculate D2E/DX2 analytically  !
 ! A48   A(1,11,29)            109.4422         calculate D2E/DX2 analytically  !
 ! A49   A(1,11,30)            110.249          calculate D2E/DX2 analytically  !
 ! A50   A(28,11,29)           107.4375         calculate D2E/DX2 analytically  !
 ! A51   A(28,11,30)           107.1249         calculate D2E/DX2 analytically  !
 ! A52   A(29,11,30)           108.5518         calculate D2E/DX2 analytically  !
 ! A53   A(1,12,31)            113.35           calculate D2E/DX2 analytically  !
 ! A54   A(1,12,32)            110.6543         calculate D2E/DX2 analytically  !
 ! A55   A(1,12,33)            110.1724         calculate D2E/DX2 analytically  !
 ! A56   A(31,12,32)           109.6908         calculate D2E/DX2 analytically  !
 ! A57   A(31,12,33)           105.6677         calculate D2E/DX2 analytically  !
 ! A58   A(32,12,33)           107.0067         calculate D2E/DX2 analytically  !
 ! D1    D(11,1,2,3)            29.6472         calculate D2E/DX2 analytically  !
 ! D2    D(11,1,2,8)          -154.2354         calculate D2E/DX2 analytically  !
 ! D3    D(12,1,2,3)          -164.6944         calculate D2E/DX2 analytically  !
 ! D4    D(12,1,2,8)            11.423          calculate D2E/DX2 analytically  !
 ! D5    D(2,1,11,28)          -11.0498         calculate D2E/DX2 analytically  !
 ! D6    D(2,1,11,29)         -131.2937         calculate D2E/DX2 analytically  !
 ! D7    D(2,1,11,30)          109.3761         calculate D2E/DX2 analytically  !
 ! D8    D(12,1,11,28)        -178.482          calculate D2E/DX2 analytically  !
 ! D9    D(12,1,11,29)          61.2741         calculate D2E/DX2 analytically  !
 ! D10   D(12,1,11,30)         -58.0561         calculate D2E/DX2 analytically  !
 ! D11   D(2,1,12,31)           17.7559         calculate D2E/DX2 analytically  !
 ! D12   D(2,1,12,32)         -105.9509         calculate D2E/DX2 analytically  !
 ! D13   D(2,1,12,33)          135.9182         calculate D2E/DX2 analytically  !
 ! D14   D(11,1,12,31)        -175.2046         calculate D2E/DX2 analytically  !
 ! D15   D(11,1,12,32)          61.0885         calculate D2E/DX2 analytically  !
 ! D16   D(11,1,12,33)         -57.0424         calculate D2E/DX2 analytically  !
 ! D17   D(1,2,3,4)              5.6172         calculate D2E/DX2 analytically  !
 ! D18   D(8,2,3,4)           -170.4274         calculate D2E/DX2 analytically  !
 ! D19   D(1,2,8,9)           -149.6469         calculate D2E/DX2 analytically  !
 ! D20   D(1,2,8,10)             5.8891         calculate D2E/DX2 analytically  !
 ! D21   D(3,2,8,9)             27.1166         calculate D2E/DX2 analytically  !
 ! D22   D(3,2,8,10)          -177.3474         calculate D2E/DX2 analytically  !
 ! D23   D(2,3,4,5)              0.0001         calculate D2E/DX2 analytically  !
 ! D24   D(2,3,4,6)            116.2229         calculate D2E/DX2 analytically  !
 ! D25   D(2,3,4,7)           -129.4234         calculate D2E/DX2 analytically  !
 ! D26   D(3,4,5,13)            30.2624         calculate D2E/DX2 analytically  !
 ! D27   D(3,4,5,14)           -91.69           calculate D2E/DX2 analytically  !
 ! D28   D(3,4,5,15)           150.4524         calculate D2E/DX2 analytically  !
 ! D29   D(6,4,5,13)           -84.6737         calculate D2E/DX2 analytically  !
 ! D30   D(6,4,5,14)           153.3739         calculate D2E/DX2 analytically  !
 ! D31   D(6,4,5,15)            35.5163         calculate D2E/DX2 analytically  !
 ! D32   D(7,4,5,13)           158.79           calculate D2E/DX2 analytically  !
 ! D33   D(7,4,5,14)            36.8376         calculate D2E/DX2 analytically  !
 ! D34   D(7,4,5,15)           -81.02           calculate D2E/DX2 analytically  !
 ! D35   D(3,4,6,16)           -48.4767         calculate D2E/DX2 analytically  !
 ! D36   D(3,4,6,17)          -169.2173         calculate D2E/DX2 analytically  !
 ! D37   D(3,4,6,18)            71.0234         calculate D2E/DX2 analytically  !
 ! D38   D(5,4,6,16)            71.7059         calculate D2E/DX2 analytically  !
 ! D39   D(5,4,6,17)           -49.0347         calculate D2E/DX2 analytically  !
 ! D40   D(5,4,6,18)          -168.794          calculate D2E/DX2 analytically  !
 ! D41   D(7,4,6,16)          -166.853          calculate D2E/DX2 analytically  !
 ! D42   D(7,4,6,17)            72.4064         calculate D2E/DX2 analytically  !
 ! D43   D(7,4,6,18)           -47.3529         calculate D2E/DX2 analytically  !
 ! D44   D(3,4,7,19)            58.3984         calculate D2E/DX2 analytically  !
 ! D45   D(3,4,7,20)           -60.6503         calculate D2E/DX2 analytically  !
 ! D46   D(3,4,7,21)           179.6199         calculate D2E/DX2 analytically  !
 ! D47   D(5,4,7,19)           -70.7008         calculate D2E/DX2 analytically  !
 ! D48   D(5,4,7,20)           170.2505         calculate D2E/DX2 analytically  !
 ! D49   D(5,4,7,21)            50.5207         calculate D2E/DX2 analytically  !
 ! D50   D(6,4,7,19)           172.1111         calculate D2E/DX2 analytically  !
 ! D51   D(6,4,7,20)            53.0624         calculate D2E/DX2 analytically  !
 ! D52   D(6,4,7,21)           -66.6674         calculate D2E/DX2 analytically  !
 ! D53   D(2,8,9,22)           -14.5885         calculate D2E/DX2 analytically  !
 ! D54   D(2,8,9,23)          -134.9372         calculate D2E/DX2 analytically  !
 ! D55   D(2,8,9,24)           106.0787         calculate D2E/DX2 analytically  !
 ! D56   D(10,8,9,22)         -171.7018         calculate D2E/DX2 analytically  !
 ! D57   D(10,8,9,23)           67.9495         calculate D2E/DX2 analytically  !
 ! D58   D(10,8,9,24)          -51.0346         calculate D2E/DX2 analytically  !
 ! D59   D(2,8,10,25)           20.7617         calculate D2E/DX2 analytically  !
 ! D60   D(2,8,10,26)         -101.0528         calculate D2E/DX2 analytically  !
 ! D61   D(2,8,10,27)          139.3716         calculate D2E/DX2 analytically  !
 ! D62   D(9,8,10,25)          178.7554         calculate D2E/DX2 analytically  !
 ! D63   D(9,8,10,26)           56.9409         calculate D2E/DX2 analytically  !
 ! D64   D(9,8,10,27)          -62.6347         calculate D2E/DX2 analytically  !
 --------------------------------------------------------------------------------
 Trust Radius=3.00D-01 FncErr=1.00D-07 GrdErr=1.00D-06 EigMax=2.50D+02 EigMin=1.00D-04
 Number of steps in this run=    164 maximum allowed number of steps=    198.
 GradGradGradGradGradGradGradGradGradGradGradGradGradGradGradGradGradGrad

                          Input orientation:                          
 ---------------------------------------------------------------------
 Center     Atomic      Atomic             Coordinates (Angstroms)
 Number     Number       Type             X           Y           Z
 ---------------------------------------------------------------------
      1          7           0        1.418700    0.128700    0.123000
      2          6           0        0.481000   -0.882800   -0.043300
      3          7           0       -0.797700   -0.860400   -0.009300
      4          6           0       -1.846300    0.130300    0.102300
      5          6           0       -1.306930    1.558510    0.211740
      6          6           0       -2.626190    0.039300   -1.237930
      7          6           0       -2.854050   -0.229130    1.201350
      8          7           0        1.052000   -2.111800   -0.373600
      9          6           0        0.379230   -3.115270   -1.192060
     10          6           0        2.510640   -2.261170   -0.383620
     11          6           0        1.169980    1.300800    0.970240
     12          6           0        2.818910    0.035200   -0.246200
     13          1           0       -0.354520    1.670910   -0.318050
     14          1           0       -1.165120    1.864800    1.248800
     15          1           0       -2.003400    2.292380   -0.211400
     16          1           0       -1.944800    0.051120   -2.096960
     17          1           0       -3.331680    0.872830   -1.353490
     18          1           0       -3.207090   -0.886310   -1.299800
     19          1           0       -2.406410   -0.337120    2.186300
     20          1           0       -3.342090   -1.188140    0.991060
     21          1           0       -3.638040    0.533200    1.278610
     22          1           0       -0.694060   -2.931850   -1.311410
     23          1           0        0.499550   -4.103240   -0.732480
     24          1           0        0.814780   -3.154430   -2.194900
     25          1           0        3.024860   -1.498450    0.211050
     26          1           0        2.898560   -2.218870   -1.407720
     27          1           0        2.784560   -3.228790    0.049870
     28          1           0        0.128280    1.398950    1.296830
     29          1           0        1.428360    2.212050    0.417650
     30          1           0        1.784230    1.254100    1.867730
     31          1           0        3.027490   -0.771610   -0.939650
     32          1           0        3.445810   -0.072000    0.642950
     33          1           0        3.138080    0.953150   -0.755050
 ---------------------------------------------------------------------
                    Distance matrix (angstroms):
                    1          2          3          4          5
     1  N    0.000000
     2  C    1.389269   0.000000
     3  N    2.430689   1.279348   0.000000
     4  C    3.265066   2.542419   1.446894   0.000000
     5  C    3.079170   3.036731   2.481794   1.530582   0.000000
     6  C    4.268637   3.454278   2.379573   1.553295   2.479917
     7  C    4.421230   3.619254   2.468350   1.533839   2.562921
     8  N    2.323988   1.394841   2.262765   3.695083   4.402085
     9  C    3.651468   2.512753   2.805089   4.142714   5.163139
    10  C    2.675906   2.476926   3.612117   4.993813   5.433070
    11  C    1.467479   2.504010   3.082539   3.349826   2.603233
    12  C    1.451082   2.519864   3.733375   4.679175   4.421848
    13  H    2.391076   2.700929   2.588294   2.185310   1.095626
    14  H    3.310226   3.453772   3.023992   2.187912   1.090604
    15  H    4.062524   4.035129   3.381505   2.190360   1.096669
    16  H    4.030803   3.312738   2.550496   2.202888   2.830053
    17  H    5.029897   4.397199   3.351416   2.208400   2.649474
    18  H    4.944951   3.896256   2.733354   2.202528   3.445650
    19  H    4.371002   3.688634   2.771720   2.207999   2.949772
    20  H    5.015248   3.972298   2.753553   2.183018   3.506181
    21  H    5.202853   4.551812   3.415899   2.180909   2.761077
    22  H    3.986007   2.680947   2.448905   3.564126   4.781101
    23  H    4.414295   3.293410   3.566771   4.911490   6.017502
    24  H    4.064028   3.146600   3.555209   4.811229   5.701348
    25  H    2.288038   2.629628   3.881704   5.137397   5.301831
    26  H    3.169255   3.080799   4.178918   5.505675   5.880255
    27  H    3.625419   3.289185   4.294806   5.721110   6.299582
    28  H    2.157915   2.669596   2.769129   2.633504   1.806297
    29  H    2.104105   3.269260   3.818060   3.893138   2.819809
    30  H    2.108132   3.149093   3.828931   4.190515   3.519977
    31  H    2.127907   2.701929   3.937704   5.064872   5.053944
    32  H    2.102333   3.149355   4.365133   5.323500   5.043118
    33  H    2.099275   3.307170   4.397212   5.124078   4.589037
                    6          7          8          9         10
     6  C    0.000000
     7  C    2.464561   0.000000
     8  N    4.347802   4.613257   0.000000
     9  C    4.357289   4.950991   1.459263   0.000000
    10  C    5.692893   5.951573   1.466302   2.434332   0.000000
    11  C    4.569278   4.311254   3.669559   4.980211   4.039547
    12  C    5.534678   5.860695   2.783489   4.095382   2.321041
    13  H    2.944285   3.488034   4.036122   4.920346   4.865665
    14  H    3.413356   2.690591   4.833337   5.757075   5.761912
    15  H    2.553038   3.012886   5.362703   5.990100   6.414128
    16  H    1.096524   3.432801   4.077867   4.030631   5.304071
    17  H    1.098109   2.823058   5.393037   5.449941   6.700396
    18  H    1.094544   2.610033   4.527640   4.223927   5.951644
    19  H    3.451861   1.087276   4.654372   5.185675   5.872294
    20  H    2.643391   1.096406   4.692917   4.725258   6.107011
    21  H    2.756946   1.096247   5.632255   5.962718   6.955414
    22  H    3.544892   4.276005   2.144923   1.095372   3.403044
    23  H    5.214055   5.476775   2.097577   1.096255   2.749438
    24  H    4.791240   5.792427   2.111986   1.094041   2.637156
    25  H    6.033124   6.095363   2.147135   3.403261   1.095352
    26  H    5.970848   6.622600   2.119116   2.682735   1.095925
    27  H    6.450973   6.489822   2.104461   2.709408   1.095096
    28  H    3.982557   3.399125   3.996118   5.160982   4.679319
    29  H    4.888882   4.991250   4.411735   5.663230   4.671516
    30  H    5.529256   4.915046   4.109623   5.516134   4.237142
    31  H    5.719322   6.282569   2.453382   3.545382   1.671853
    32  H    6.357616   6.326511   3.305221   4.693897   2.592461
    33  H    5.856202   6.413338   3.727084   4.935005   3.295982
                   11         12         13         14         15
    11  C    0.000000
    12  C    2.408410   0.000000
    13  H    2.029969   3.570906   0.000000
    14  H    2.418343   4.631950   1.774735   0.000000
    15  H    3.528434   5.324542   1.765334   1.737159   0.000000
    16  H    4.546567   5.110626   2.883961   3.884771   2.929508
    17  H    5.084075   6.305353   3.251546   3.528442   2.254733
    18  H    5.394003   6.186431   3.954790   4.270083   3.568971
    19  H    4.117299   5.775781   3.809751   2.695952   3.581292
    20  H    5.153060   6.401976   4.337454   3.758467   3.918165
    21  H    4.878664   6.653214   3.824292   2.808804   2.826109
    22  H    5.157121   4.720065   4.720959   5.457511   5.496997
    23  H    5.705469   4.768919   5.851666   6.504929   6.887687
    24  H    5.476619   4.241192   5.307894   6.400917   6.445475
    25  H    3.442782   1.613560   4.663153   5.472139   6.311280
    26  H    4.585931   2.536987   5.186550   6.344049   6.768439
    27  H    4.896033   3.277570   5.830630   6.556071   7.312738
    28  H    1.096099   3.388251   1.707307   1.375575   2.759898
    29  H    1.096582   2.667021   2.003184   2.745457   3.489862
    30  H    1.088564   2.650468   3.086360   3.074849   4.443754
    31  H    3.375338   1.084122   4.217853   5.414605   5.935338
    32  H    2.677891   1.093199   4.289961   5.037750   6.001175
    33  H    2.640247   1.097010   3.592270   4.833637   5.340778
                   16         17         18         19         20
    16  H    0.000000
    17  H    1.775216   0.000000
    18  H    1.762843   1.764364   0.000000
    19  H    4.325521   3.853598   3.618783   0.000000
    20  H    3.608885   3.121637   2.314598   1.740210   0.000000
    21  H    3.807090   2.671546   2.974714   1.760190   1.770108
    22  H    3.328596   4.629730   3.240322   4.679609   3.918412
    23  H    5.009527   6.310725   4.940614   5.580998   5.121191
    24  H    4.230889   5.841226   4.703298   6.124395   5.594301
    25  H    5.694348   6.962496   6.441629   5.894828   6.422053
    26  H    5.393148   6.955389   6.250306   6.678373   6.764781
    27  H    6.142763   7.496739   6.573332   6.314448   6.525790
    28  H    4.199061   4.390025   4.805163   3.198398   4.339355
    29  H    4.729809   5.252469   5.834112   4.932733   5.886194
    30  H    5.574190   6.057570   6.287120   4.493877   5.745628
    31  H    5.171066   6.581374   6.246027   6.283917   6.668785
    32  H    6.048218   7.128313   6.978428   6.058110   6.887854
    33  H    5.333859   6.497875   6.628842   6.407629   7.044617
                   21         22         23         24         25
    21  H    0.000000
    22  H    5.232762   0.000000
    23  H    6.531517   1.769751   0.000000
    24  H    6.744738   1.762582   1.771520   0.000000
    25  H    7.047093   4.266484   3.748649   3.662693   0.000000
    26  H    7.584023   3.663951   3.124428   2.416002   1.776337
    27  H    7.544015   3.747273   2.568658   2.987399   1.754366
    28  H    3.864586   5.122010   5.876226   5.778990   4.238398
    29  H    5.406311   5.827008   6.486014   6.000084   4.044664
    30  H    5.501615   5.811285   6.092010   6.072885   3.443876
    31  H    7.145103   4.319118   4.187261   3.485623   1.361034
    32  H    7.138015   5.397850   5.179107   4.947432   1.548708
    33  H    7.087167   5.485258   5.703458   4.933873   2.637520
                   26         27         28         29         30
    26  H    0.000000
    27  H    1.776936   0.000000
    28  H    5.298836   5.479663   0.000000
    29  H    5.012636   5.619367   1.767568   0.000000
    30  H    4.902227   4.939795   1.757578   1.773991   0.000000
    31  H    1.526523   2.660056   4.256594   3.647151   3.678394
    32  H    3.018904   3.279378   3.687446   3.055773   2.453462
    33  H    3.247316   4.273347   3.669856   2.425530   2.966893
                   31         32         33
    31  H    0.000000
    32  H    1.780188   0.000000
    33  H    1.738132   1.760691   0.000000
 Stoichiometry    C9H21N3
 Framework group  C1[X(C9H21N3)]
 Deg. of freedom    93
 Full point group                 C1      NOp   1
 Largest Abelian subgroup         C1      NOp   1
 Largest concise Abelian subgroup C1      NOp   1
                         Standard orientation:                         
 ---------------------------------------------------------------------
 Center     Atomic      Atomic             Coordinates (Angstroms)
 Number     Number       Type             X           Y           Z
 ---------------------------------------------------------------------
      1          7           0       -0.988787    1.149002    0.072073
      2          6           0       -0.537372   -0.144631   -0.157727
      3          7           0        0.646647   -0.624625   -0.224331
      4          6           0        2.001093   -0.159956   -0.016817
      5          6           0        2.068676    1.311549    0.398858
      6          6           0        2.531439   -0.996227    1.179891
      7          6           0        2.908495   -0.502466   -1.205081
      8          7           0       -1.570266   -1.076443   -0.259887
      9          6           0       -1.431112   -2.475074    0.132434
     10          6           0       -2.965346   -0.625043   -0.254196
     11          6           0       -0.215526    2.333377   -0.318851
     12          6           0       -2.348819    1.504934    0.431604
     13          1           0        1.180297    1.610962    0.965893
     14          1           0        2.172068    1.975781   -0.459934
     15          1           0        2.942115    1.519026    1.028732
     16          1           0        1.816022   -1.000763    2.010868
     17          1           0        3.485737   -0.604606    1.556443
     18          1           0        2.700613   -2.039226    0.894307
     19          1           0        2.566445   -0.087320   -2.149975
     20          1           0        2.963208   -1.586444   -1.360333
     21          1           0        3.928788   -0.138646   -1.036575
     22          1           0       -0.390410   -2.786729    0.272613
     23          1           0       -1.870376   -3.117393   -0.639738
     24          1           0       -1.956906   -2.669276    1.071983
     25          1           0       -3.076788    0.430021   -0.526623
     26          1           0       -3.418519   -0.775788    0.732192
     27          1           0       -3.540420   -1.197371   -0.989700
     28          1           0        0.813066    2.110318   -0.624918
     29          1           0       -0.163126    3.030322    0.526142
     30          1           0       -0.696385    2.838191   -1.154859
     31          1           0       -2.927610    0.667804    0.805150
     32          1           0       -2.865479    1.960350   -0.417362
     33          1           0       -2.344670    2.246465    1.240025
 ---------------------------------------------------------------------
 Rotational constants (GHZ):           1.2965149           0.6888574           0.5112578
 Standard basis: 6-31G(d) (6D, 7F)
 There are   222 symmetry adapted cartesian basis functions of A   symmetry.
 There are   222 symmetry adapted basis functions of A   symmetry.
   222 basis functions,   420 primitive gaussians,   222 cartesian basis functions
    48 alpha electrons       48 beta electrons
       nuclear repulsion energy       811.7852252806 Hartrees.
 NAtoms=   33 NActive=   33 NUniq=   33 SFac= 1.00D+00 NAtFMM=   60 NAOKFM=F Big=F
 Integral buffers will be    131072 words long.
 Raffenetti 2 integral format.
 Two-electron integral symmetry is turned on.
 One-electron integrals computed using PRISM.
 NBasis=   222 RedAO= T EigKep=  1.58D-03  NBF=   222
 NBsUse=   222 1.00D-06 EigRej= -1.00D+00 NBFU=   222
 ExpMin= 1.61D-01 ExpMax= 4.17D+03 ExpMxC= 6.27D+02 IAcc=3 IRadAn=         5 AccDes= 0.00D+00
 Harris functional with IExCor=  402 and IRadAn=       5 diagonalized for initial guess.
 HarFok:  IExCor=  402 AccDes= 0.00D+00 IRadAn=         5 IDoV= 1 UseB2=F ITyADJ=14
 ICtDFT=  3500011 ScaDFX=  1.000000  1.000000  1.000000  1.000000
 FoFCou: FMM=F IPFlag=           0 FMFlag=      100000 FMFlg1=           0
         NFxFlg=           0 DoJE=T BraDBF=F KetDBF=T FulRan=T
         wScrn=  0.000000 ICntrl=       500 IOpCl=  0 I1Cent=   200000004 NGrid=           0
         NMat0=    1 NMatS0=      1 NMatT0=    0 NMatD0=    1 NMtDS0=    0 NMtDT0=    0
 Petite list used in FoFCou.
 Gradient too large for Newton-Raphson -- use scaled steepest descent instead.
     Minimum is close to point  3 DX=  7.25D-03 DF= -1.27D-04 DXR=  1.78D-02 DFR=  3.19D-04 which will be used.
 Gradient too large for Newton-Raphson -- use scaled steepest descent instead.
 Gradient too large for Newton-Raphson -- use scaled steepest descent instead.
 Gradient too large for Newton-Raphson -- use scaled steepest descent instead.
 Gradient too large for Newton-Raphson -- use scaled steepest descent instead.
     Accept linear search using points  1 and  2.
 Gradient too large for Newton-Raphson -- use scaled steepest descent instead.
 LinEq1:  Iter=  0 NonCon=     1 RMS=4.71D-05 Max=3.25D-03 NDo=     1
 AX will form     1 AO Fock derivatives at one time.
 LinEq1:  Iter=  1 NonCon=     1 RMS=3.21D-05 Max=9.13D-04 NDo=     1
 LinEq1:  Iter=  2 NonCon=     1 RMS=5.96D-06 Max=1.35D-04 NDo=     1
 LinEq1:  Iter=  3 NonCon=     1 RMS=2.80D-06 Max=4.81D-05 NDo=     1
 LinEq1:  Iter=  4 NonCon=     1 RMS=1.33D-06 Max=3.56D-05 NDo=     1
 LinEq1:  Iter=  5 NonCon=     1 RMS=6.94D-07 Max=1.75D-05 NDo=     1
 LinEq1:  Iter=  6 NonCon=     1 RMS=2.58D-07 Max=5.11D-06 NDo=     1
 LinEq1:  Iter=  7 NonCon=     1 RMS=1.33D-07 Max=3.08D-06 NDo=     1
 LinEq1:  Iter=  8 NonCon=     1 RMS=5.24D-08 Max=1.64D-06 NDo=     1
 LinEq1:  Iter=  9 NonCon=     1 RMS=1.69D-08 Max=4.82D-07 NDo=     1
 LinEq1:  Iter= 10 NonCon=     1 RMS=8.41D-09 Max=2.58D-07 NDo=     1
 LinEq1:  Iter= 11 NonCon=     0 RMS=2.98D-09 Max=9.05D-08 NDo=     1
 Linear equations converged to 1.292D-08 1.292D-07 after    11 iterations.
     Accept linear search using points  1 and  2.
     Minimum is close to point  2 DX= -4.99D-04 DF= -1.71D-12 DXR=  5.00D-04 DFR=  2.48D-07 which will be used.
 LinEq1:  Iter=  0 NonCon=     1 RMS=4.80D-08 Max=2.89D-06 NDo=     1
 LinEq1:  Iter=  1 NonCon=     1 RMS=3.64D-08 Max=9.79D-07 NDo=     1
 LinEq1:  Iter=  2 NonCon=     1 RMS=1.50D-08 Max=4.64D-07 NDo=     1
 LinEq1:  Iter=  3 NonCon=     1 RMS=7.33D-09 Max=1.48D-07 NDo=     1
 LinEq1:  Iter=  4 NonCon=     1 RMS=4.03D-09 Max=1.01D-07 NDo=     1
 LinEq1:  Iter=  5 NonCon=     1 RMS=2.53D-09 Max=6.37D-08 NDo=     1
 LinEq1:  Iter=  6 NonCon=     1 RMS=8.94D-10 Max=1.90D-08 NDo=     1
 LinEq1:  Iter=  7 NonCon=     1 RMS=4.32D-10 Max=1.02D-08 NDo=     1
 LinEq1:  Iter=  8 NonCon=     1 RMS=1.31D-10 Max=4.63D-09 NDo=     1
 LinEq1:  Iter=  9 NonCon=     1 RMS=5.65D-11 Max=1.47D-09 NDo=     1
 LinEq1:  Iter= 10 NonCon=     1 RMS=2.53D-11 Max=6.84D-10 NDo=     1
 LinEq1:  Iter= 11 NonCon=     0 RMS=7.16D-12 Max=1.49D-10 NDo=     1
 Linear equations converged to 2.536D-11 2.536D-10 after    11 iterations.
 Restarting incremental Fock formation.
 SCF Done:  E(RB3LYP) =  -519.680532666     a.u. after    9 cycles
            Convg  =    0.9411D-10                    43 Fock formations.
              S**2 =  0.0000                  -V/T =  2.0083
 DoSCS=F DFT=T ScalE2(SS,OS)=  1.000000  1.000000
 Range of M.O.s used for correlation:     1   222
 NBasis=   222 NAE=    48 NBE=    48 NFC=     0 NFV=     0
 NROrb=    222 NOA=    48 NOB=    48 NVA=   174 NVB=   174
 Symmetrizing basis deriv contribution to polar:
 IMax=3 JMax=2 DiffMx= 0.00D+00
 G2DrvN: will do    34 centers at a time, making    1 passes.
 Calling FoFCou, ICntrl=  3107 FMM=F I1Cent=   0 AccDes= 0.00D+00.
 End of G2Drv F.D. properties file   721 does not exist.
 End of G2Drv F.D. properties file   722 does not exist.
 End of G2Drv F.D. properties file   788 does not exist.
          IDoAtm=111111111111111111111111111111111
          Differentiating once with respect to electric field.
                with respect to dipole field.
          Differentiating once with respect to nuclear coordinates.
 Keep R1 ints in memory in canonical form, NReq=311927578.
          There are   102 degrees of freedom in the 1st order CPHF.  IDoFFX=6 NUNeed=     3.
     99 vectors produced by pass  0 Test12= 8.35D-15 1.00D-09 XBig12= 1.12D+02 6.39D+00.
 AX will form    99 AO Fock derivatives at one time.
     99 vectors produced by pass  1 Test12= 8.35D-15 1.00D-09 XBig12= 1.39D+01 9.89D-01.
     99 vectors produced by pass  2 Test12= 8.35D-15 1.00D-09 XBig12= 6.31D-02 2.66D-02.
     99 vectors produced by pass  3 Test12= 8.35D-15 1.00D-09 XBig12= 1.34D-04 1.42D-03.
     99 vectors produced by pass  4 Test12= 8.35D-15 1.00D-09 XBig12= 1.20D-07 3.28D-05.
     42 vectors produced by pass  5 Test12= 8.35D-15 1.00D-09 XBig12= 7.37D-11 8.16D-07.
      5 vectors produced by pass  6 Test12= 8.35D-15 1.00D-09 XBig12= 5.00D-14 2.70D-08.
 InvSVY:  IOpt=1 It=  1 EMax= 7.11D-15
 Solved reduced A of dimension   542 with   102 vectors.
 Isotropic polarizability for W=    0.000000      122.47 Bohr**3.
 End of Minotr F.D. properties file   721 does not exist.
 End of Minotr F.D. properties file   722 does not exist.
 End of Minotr F.D. properties file   788 does not exist.

 **********************************************************************

            Population analysis using the SCF density.

 **********************************************************************

 Orbital symmetries:
       Occupied  (A) (A) (A) (A) (A) (A) (A) (A) (A) (A) (A) (A)
                 (A) (A) (A) (A) (A) (A) (A) (A) (A) (A) (A) (A)
                 (A) (A) (A) (A) (A) (A) (A) (A) (A) (A) (A) (A)
                 (A) (A) (A) (A) (A) (A) (A) (A) (A) (A) (A) (A)
       Virtual   (A) (A) (A) (A) (A) (A) (A) (A) (A) (A) (A) (A)
                 (A) (A) (A) (A) (A) (A) (A) (A) (A) (A) (A) (A)
                 (A) (A) (A) (A) (A) (A) (A) (A) (A) (A) (A) (A)
                 (A) (A) (A) (A) (A) (A) (A) (A) (A) (A) (A) (A)
                 (A) (A) (A) (A) (A) (A) (A) (A) (A) (A) (A) (A)
                 (A) (A) (A) (A) (A) (A) (A) (A) (A) (A) (A) (A)
                 (A) (A) (A) (A) (A) (A) (A) (A) (A) (A) (A) (A)
                 (A) (A) (A) (A) (A) (A) (A) (A) (A) (A) (A) (A)
                 (A) (A) (A) (A) (A) (A) (A) (A) (A) (A) (A) (A)
                 (A) (A) (A) (A) (A) (A) (A) (A) (A) (A) (A) (A)
                 (A) (A) (A) (A) (A) (A) (A) (A) (A) (A) (A) (A)
                 (A) (A) (A) (A) (A) (A) (A) (A) (A) (A) (A) (A)
                 (A) (A) (A) (A) (A) (A) (A) (A) (A) (A) (A) (A)
                 (A) (A) (A) (A) (A) (A) (A) (A) (A) (A) (A) (A)
                 (A) (A) (A) (A) (A) (A)
 The electronic state is 1-A.
 Alpha  occ. eigenvalues --  -14.34775 -14.33525 -14.25954 -10.26948 -10.21110
 Alpha  occ. eigenvalues --  -10.20474 -10.19728 -10.19601 -10.19591 -10.15868
 Alpha  occ. eigenvalues --  -10.15719 -10.15344  -0.97621  -0.89739  -0.86692
 Alpha  occ. eigenvalues --   -0.78268  -0.74994  -0.70260  -0.69718  -0.67204
 Alpha  occ. eigenvalues --   -0.66465  -0.63751  -0.58657  -0.53909  -0.50222
 Alpha  occ. eigenvalues --   -0.48669  -0.47639  -0.45668  -0.44919  -0.44343
 Alpha  occ. eigenvalues --   -0.42980  -0.42132  -0.42046  -0.41377  -0.39534
 Alpha  occ. eigenvalues --   -0.38635  -0.37604  -0.36790  -0.35933  -0.35387
 Alpha  occ. eigenvalues --   -0.34022  -0.33668  -0.31600  -0.29766  -0.29256
 Alpha  occ. eigenvalues --   -0.21875  -0.20271  -0.18358
 Alpha virt. eigenvalues --    0.06747   0.08437   0.10140   0.10597   0.11482
 Alpha virt. eigenvalues --    0.12716   0.13571   0.14268   0.15307   0.16036
 Alpha virt. eigenvalues --    0.16296   0.16586   0.17097   0.17693   0.18482
 Alpha virt. eigenvalues --    0.18662   0.18867   0.19212   0.19862   0.20689
 Alpha virt. eigenvalues --    0.21806   0.22085   0.23042   0.23921   0.25648
 Alpha virt. eigenvalues --    0.26244   0.27791   0.28503   0.29017   0.34590
 Alpha virt. eigenvalues --    0.35986   0.37427   0.46157   0.47944   0.50162
 Alpha virt. eigenvalues --    0.50934   0.51848   0.52790   0.54054   0.55274
 Alpha virt. eigenvalues --    0.56832   0.57491   0.59197   0.61482   0.62665
 Alpha virt. eigenvalues --    0.63118   0.66095   0.66859   0.68563   0.69883
 Alpha virt. eigenvalues --    0.70919   0.72496   0.73116   0.75059   0.75799
 Alpha virt. eigenvalues --    0.77035   0.78842   0.80182   0.82129   0.83325
 Alpha virt. eigenvalues --    0.84113   0.84513   0.85325   0.87221   0.88274
 Alpha virt. eigenvalues --    0.88459   0.89487   0.90759   0.90882   0.91749
 Alpha virt. eigenvalues --    0.92406   0.92764   0.93211   0.94147   0.95674
 Alpha virt. eigenvalues --    0.96818   0.97862   0.98399   0.99034   0.99810
 Alpha virt. eigenvalues --    1.00387   1.01754   1.02695   1.04512   1.06036
 Alpha virt. eigenvalues --    1.07220   1.10608   1.13180   1.15199   1.20489
 Alpha virt. eigenvalues --    1.24655   1.25561   1.30036   1.34543   1.36381
 Alpha virt. eigenvalues --    1.37801   1.41527   1.43846   1.48010   1.50482
 Alpha virt. eigenvalues --    1.52468   1.56897   1.58885   1.61019   1.67893
 Alpha virt. eigenvalues --    1.68079   1.69266   1.75106   1.75830   1.81381
 Alpha virt. eigenvalues --    1.82374   1.83187   1.87763   1.88649   1.90514
 Alpha virt. eigenvalues --    1.90898   1.92554   1.94017   1.95150   1.97746
 Alpha virt. eigenvalues --    1.98691   2.01006   2.03014   2.05185   2.07497
 Alpha virt. eigenvalues --    2.07682   2.09465   2.11874   2.12553   2.14582
 Alpha virt. eigenvalues --    2.14846   2.19298   2.21481   2.22404   2.24041
 Alpha virt. eigenvalues --    2.25182   2.27752   2.29064   2.30219   2.31197
 Alpha virt. eigenvalues --    2.31978   2.33850   2.37025   2.40742   2.42982
 Alpha virt. eigenvalues --    2.43641   2.45624   2.49222   2.53401   2.57622
 Alpha virt. eigenvalues --    2.58722   2.62519   2.66174   2.67356   2.70388
 Alpha virt. eigenvalues --    2.76225   2.79489   2.82912   2.86345   3.00977
 Alpha virt. eigenvalues --    3.24658   3.32983   4.02193   4.04198   4.17417
 Alpha virt. eigenvalues --    4.25099   4.30281   4.31585   4.32999   4.33654
 Alpha virt. eigenvalues --    4.39648   4.42474   4.54591   4.77703
          Condensed to atoms (all electrons):
               1          2          3          4          5          6
     1  N    7.044845   0.264918  -0.095418  -0.011104  -0.000876   0.000333
     2  C    0.264918   4.323348   0.601112  -0.053165  -0.006929   0.001360
     3  N   -0.095418   0.601112   6.983370   0.310939  -0.056235  -0.088277
     4  C   -0.011104  -0.053165   0.310939   4.651199   0.320930   0.380449
     5  C   -0.000876  -0.006929  -0.056235   0.320930   5.383952  -0.068969
     6  C    0.000333   0.001360  -0.088277   0.380449  -0.068969   5.223255
     7  C    0.000119   0.000437  -0.067553   0.383107  -0.065669  -0.075127
     8  N   -0.109769   0.307061  -0.102414   0.007243  -0.000401  -0.000002
     9  C    0.005223  -0.028425  -0.014588   0.000082  -0.000006  -0.000038
    10  C    0.003824  -0.032530   0.004469  -0.000258   0.000024   0.000005
    11  C    0.305952  -0.033537  -0.003808  -0.000862  -0.058787  -0.000164
    12  C    0.291788  -0.014689   0.004427   0.000105  -0.000099   0.000009
    13  H    0.005222   0.001072  -0.008666  -0.028914   0.392837  -0.002470
    14  H    0.001202   0.000501   0.001281  -0.035797   0.370264   0.005884
    15  H   -0.000126   0.000230   0.004311  -0.014668   0.329814  -0.010909
    16  H   -0.000078   0.001994  -0.000894  -0.025428  -0.002676   0.359926
    17  H   -0.000001  -0.000087   0.006159  -0.026149  -0.005134   0.341005
    18  H    0.000005  -0.000149   0.001460  -0.026420   0.006353   0.363470
    19  H   -0.000058   0.001139  -0.000505  -0.021718  -0.004488   0.006587
    20  H    0.000012   0.000000   0.002167  -0.024216   0.006029  -0.010275
    21  H    0.000003  -0.000063   0.004626  -0.028079  -0.000668  -0.001640
    22  H    0.000520  -0.001033   0.022719  -0.001551   0.000113   0.000271
    23  H   -0.000077   0.001887   0.000459  -0.000002   0.000000   0.000004
    24  H    0.000156   0.002287   0.001578   0.000016   0.000001  -0.000038
    25  H   -0.010705  -0.005195  -0.000264  -0.000009  -0.000002   0.000001
    26  H    0.002366   0.001330  -0.000009   0.000009  -0.000001  -0.000002
    27  H    0.000093   0.001749  -0.000021   0.000003  -0.000000   0.000000
    28  H   -0.028651  -0.002396   0.004885  -0.004051  -0.016621   0.000611
    29  H   -0.050182   0.002359   0.000514   0.000354  -0.001320  -0.000013
    30  H   -0.046780   0.001119  -0.000083  -0.000031   0.002333   0.000006
    31  H   -0.033480   0.001260   0.000074   0.000031  -0.000003  -0.000002
    32  H   -0.053988  -0.001745  -0.000185  -0.000003  -0.000014   0.000000
    33  H   -0.041398   0.001447   0.000014  -0.000015   0.000075  -0.000002
               7          8          9         10         11         12
     1  N    0.000119  -0.109769   0.005223   0.003824   0.305952   0.291788
     2  C    0.000437   0.307061  -0.028425  -0.032530  -0.033537  -0.014689
     3  N   -0.067553  -0.102414  -0.014588   0.004469  -0.003808   0.004427
     4  C    0.383107   0.007243   0.000082  -0.000258  -0.000862   0.000105
     5  C   -0.065669  -0.000401  -0.000006   0.000024  -0.058787  -0.000099
     6  C   -0.075127  -0.000002  -0.000038   0.000005  -0.000164   0.000009
     7  C    5.189760  -0.000123  -0.000009   0.000004   0.000034   0.000001
     8  N   -0.000123   6.952536   0.312753   0.292324   0.004218   0.001935
     9  C   -0.000009   0.312753   4.975242  -0.056989  -0.000113  -0.000608
    10  C    0.000004   0.292324  -0.056989   5.243888  -0.000162  -0.146358
    11  C    0.000034   0.004218  -0.000113  -0.000162   5.100333  -0.061743
    12  C    0.000001   0.001935  -0.000608  -0.146358  -0.061743   5.240737
    13  H    0.005284  -0.000340  -0.000006   0.000004  -0.016122  -0.000332
    14  H   -0.005043  -0.000002  -0.000000  -0.000001  -0.043982  -0.000060
    15  H    0.001053   0.000007   0.000000  -0.000000   0.004627   0.000012
    16  H    0.006078  -0.000229   0.000081   0.000001  -0.000036  -0.000000
    17  H   -0.000385  -0.000005   0.000001   0.000000   0.000006  -0.000000
    18  H   -0.008957  -0.000006  -0.000148   0.000000   0.000010  -0.000000
    19  H    0.356136  -0.000025   0.000002  -0.000000  -0.000078   0.000000
    20  H    0.366297  -0.000017  -0.000020   0.000000  -0.000007  -0.000000
    21  H    0.350601   0.000000   0.000000  -0.000000   0.000020  -0.000000
    22  H   -0.000027  -0.028882   0.365406   0.004910  -0.000001  -0.000010
    23  H   -0.000001  -0.047704   0.381356  -0.000304   0.000006   0.000021
    24  H    0.000002  -0.054325   0.365543  -0.005323  -0.000008  -0.000171
    25  H   -0.000000  -0.028097   0.005289   0.434928  -0.000632  -0.060313
    26  H    0.000000  -0.055807  -0.002196   0.362967  -0.000249  -0.035512
    27  H   -0.000000  -0.041093  -0.004170   0.345626   0.000078   0.009395
    28  H   -0.001271   0.000053  -0.000002   0.000035   0.391444   0.005001
    29  H    0.000001  -0.000122   0.000006   0.000026   0.386170  -0.001423
    30  H   -0.000008  -0.000001  -0.000002  -0.000014   0.355545  -0.005089
    31  H    0.000000  -0.007216  -0.001006  -0.061072   0.004892   0.434239
    32  H   -0.000000   0.002731  -0.000121  -0.031171  -0.000495   0.370061
    33  H    0.000000  -0.000363   0.000078   0.010456  -0.005688   0.343179
              13         14         15         16         17         18
     1  N    0.005222   0.001202  -0.000126  -0.000078  -0.000001   0.000005
     2  C    0.001072   0.000501   0.000230   0.001994  -0.000087  -0.000149
     3  N   -0.008666   0.001281   0.004311  -0.000894   0.006159   0.001460
     4  C   -0.028914  -0.035797  -0.014668  -0.025428  -0.026149  -0.026420
     5  C    0.392837   0.370264   0.329814  -0.002676  -0.005134   0.006353
     6  C   -0.002470   0.005884  -0.010909   0.359926   0.341005   0.363470
     7  C    0.005284  -0.005043   0.001053   0.006078  -0.000385  -0.008957
     8  N   -0.000340  -0.000002   0.000007  -0.000229  -0.000005  -0.000006
     9  C   -0.000006  -0.000000   0.000000   0.000081   0.000001  -0.000148
    10  C    0.000004  -0.000001  -0.000000   0.000001   0.000000   0.000000
    11  C   -0.016122  -0.043982   0.004627  -0.000036   0.000006   0.000010
    12  C   -0.000332  -0.000060   0.000012  -0.000000  -0.000000  -0.000000
    13  H    0.564510  -0.036319  -0.030096   0.001801   0.000334  -0.000142
    14  H   -0.036319   0.596277  -0.030859  -0.000109  -0.000012  -0.000234
    15  H   -0.030096  -0.030859   0.614248   0.000647   0.003585   0.000283
    16  H    0.001801  -0.000109   0.000647   0.580050  -0.028746  -0.029394
    17  H    0.000334  -0.000012   0.003585  -0.028746   0.615291  -0.030968
    18  H   -0.000142  -0.000234   0.000283  -0.029394  -0.030968   0.578818
    19  H   -0.000122   0.003166  -0.000119  -0.000229  -0.000205   0.000088
    20  H   -0.000160  -0.000030  -0.000185   0.000105   0.000294   0.006335
    21  H    0.000027   0.000343   0.000803  -0.000089   0.001349   0.000151
    22  H    0.000004  -0.000002  -0.000002   0.000184   0.000009   0.000826
    23  H   -0.000000  -0.000000  -0.000000  -0.000001  -0.000000   0.000000
    24  H    0.000004  -0.000000  -0.000000   0.000031   0.000001   0.000004
    25  H   -0.000001  -0.000000  -0.000000  -0.000000  -0.000000   0.000000
    26  H    0.000003  -0.000000   0.000000   0.000001   0.000000   0.000000
    27  H   -0.000001   0.000000  -0.000000  -0.000000  -0.000000  -0.000000
    28  H   -0.034118   0.007736   0.002419  -0.000038  -0.000023  -0.000003
    29  H   -0.005000   0.001146  -0.000132  -0.000001   0.000002   0.000000
    30  H    0.003591   0.001396  -0.000138  -0.000000  -0.000000  -0.000000
    31  H    0.000036   0.000003  -0.000000   0.000001   0.000000  -0.000000
    32  H    0.000064   0.000003  -0.000000  -0.000000  -0.000000  -0.000000
    33  H   -0.000166  -0.000008  -0.000002   0.000001   0.000000   0.000000
              19         20         21         22         23         24
     1  N   -0.000058   0.000012   0.000003   0.000520  -0.000077   0.000156
     2  C    0.001139   0.000000  -0.000063  -0.001033   0.001887   0.002287
     3  N   -0.000505   0.002167   0.004626   0.022719   0.000459   0.001578
     4  C   -0.021718  -0.024216  -0.028079  -0.001551  -0.000002   0.000016
     5  C   -0.004488   0.006029  -0.000668   0.000113   0.000000   0.000001
     6  C    0.006587  -0.010275  -0.001640   0.000271   0.000004  -0.000038
     7  C    0.356136   0.366297   0.350601  -0.000027  -0.000001   0.000002
     8  N   -0.000025  -0.000017   0.000000  -0.028882  -0.047704  -0.054325
     9  C    0.000002  -0.000020   0.000000   0.365406   0.381356   0.365543
    10  C   -0.000000   0.000000  -0.000000   0.004910  -0.000304  -0.005323
    11  C   -0.000078  -0.000007   0.000020  -0.000001   0.000006  -0.000008
    12  C    0.000000  -0.000000  -0.000000  -0.000010   0.000021  -0.000171
    13  H   -0.000122  -0.000160   0.000027   0.000004  -0.000000   0.000004
    14  H    0.003166  -0.000030   0.000343  -0.000002  -0.000000  -0.000000
    15  H   -0.000119  -0.000185   0.000803  -0.000002  -0.000000  -0.000000
    16  H   -0.000229   0.000105  -0.000089   0.000184  -0.000001   0.000031
    17  H   -0.000205   0.000294   0.001349   0.000009  -0.000000   0.000001
    18  H    0.000088   0.006335   0.000151   0.000826   0.000000   0.000004
    19  H    0.586311  -0.032199  -0.030758  -0.000006   0.000000  -0.000000
    20  H   -0.032199   0.568265  -0.030024   0.000133   0.000000   0.000000
    21  H   -0.030758  -0.030024   0.602757   0.000001   0.000000  -0.000000
    22  H   -0.000006   0.000133   0.000001   0.500024  -0.025920  -0.027165
    23  H    0.000000   0.000000   0.000000  -0.025920   0.589558  -0.049466
    24  H   -0.000000   0.000000  -0.000000  -0.027165  -0.049466   0.626942
    25  H    0.000000   0.000000   0.000000  -0.000204  -0.000092   0.000175
    26  H   -0.000000  -0.000000  -0.000000  -0.000011  -0.002392   0.012707
    27  H    0.000000  -0.000000   0.000000  -0.000015   0.006509  -0.002818
    28  H    0.000599   0.000010  -0.000018  -0.000002   0.000000  -0.000000
    29  H   -0.000002   0.000000  -0.000001   0.000000  -0.000000  -0.000000
    30  H    0.000020  -0.000000   0.000001   0.000000  -0.000000   0.000000
    31  H   -0.000000  -0.000000  -0.000000   0.000017   0.000001   0.000073
    32  H    0.000000   0.000000   0.000000   0.000003  -0.000002   0.000010
    33  H   -0.000000   0.000000  -0.000000  -0.000000   0.000000  -0.000008
              25         26         27         28         29         30
     1  N   -0.010705   0.002366   0.000093  -0.028651  -0.050182  -0.046780
     2  C   -0.005195   0.001330   0.001749  -0.002396   0.002359   0.001119
     3  N   -0.000264  -0.000009  -0.000021   0.004885   0.000514  -0.000083
     4  C   -0.000009   0.000009   0.000003  -0.004051   0.000354  -0.000031
     5  C   -0.000002  -0.000001  -0.000000  -0.016621  -0.001320   0.002333
     6  C    0.000001  -0.000002   0.000000   0.000611  -0.000013   0.000006
     7  C   -0.000000   0.000000  -0.000000  -0.001271   0.000001  -0.000008
     8  N   -0.028097  -0.055807  -0.041093   0.000053  -0.000122  -0.000001
     9  C    0.005289  -0.002196  -0.004170  -0.000002   0.000006  -0.000002
    10  C    0.434928   0.362967   0.345626   0.000035   0.000026  -0.000014
    11  C   -0.000632  -0.000249   0.000078   0.391444   0.386170   0.355545
    12  C   -0.060313  -0.035512   0.009395   0.005001  -0.001423  -0.005089
    13  H   -0.000001   0.000003  -0.000001  -0.034118  -0.005000   0.003591
    14  H   -0.000000  -0.000000   0.000000   0.007736   0.001146   0.001396
    15  H   -0.000000   0.000000  -0.000000   0.002419  -0.000132  -0.000138
    16  H   -0.000000   0.000001  -0.000000  -0.000038  -0.000001  -0.000000
    17  H   -0.000000   0.000000  -0.000000  -0.000023   0.000002  -0.000000
    18  H    0.000000   0.000000  -0.000000  -0.000003   0.000000  -0.000000
    19  H    0.000000  -0.000000   0.000000   0.000599  -0.000002   0.000020
    20  H    0.000000  -0.000000  -0.000000   0.000010   0.000000  -0.000000
    21  H    0.000000  -0.000000   0.000000  -0.000018  -0.000001   0.000001
    22  H   -0.000204  -0.000011  -0.000015  -0.000002   0.000000   0.000000
    23  H   -0.000092  -0.002392   0.006509   0.000000  -0.000000  -0.000000
    24  H    0.000175   0.012707  -0.002818  -0.000000  -0.000000   0.000000
    25  H    0.601415  -0.038369  -0.030235   0.000056   0.000002   0.000091
    26  H   -0.038369   0.632907  -0.051333   0.000001  -0.000002   0.000003
    27  H   -0.030235  -0.051333   0.628385  -0.000001   0.000000  -0.000008
    28  H    0.000056   0.000001  -0.000001   0.563670  -0.037178  -0.024601
    29  H    0.000002  -0.000002   0.000000  -0.037178   0.595022  -0.046527
    30  H    0.000091   0.000003  -0.000008  -0.024601  -0.046527   0.619756
    31  H   -0.089702   0.013586   0.006436  -0.000277   0.000048   0.000049
    32  H    0.006892   0.002186   0.000052   0.000055  -0.002926   0.010907
    33  H    0.008539  -0.000030  -0.000298   0.000096   0.008455  -0.002184
              31         32         33
     1  N   -0.033480  -0.053988  -0.041398
     2  C    0.001260  -0.001745   0.001447
     3  N    0.000074  -0.000185   0.000014
     4  C    0.000031  -0.000003  -0.000015
     5  C   -0.000003  -0.000014   0.000075
     6  C   -0.000002   0.000000  -0.000002
     7  C    0.000000  -0.000000   0.000000
     8  N   -0.007216   0.002731  -0.000363
     9  C   -0.001006  -0.000121   0.000078
    10  C   -0.061072  -0.031171   0.010456
    11  C    0.004892  -0.000495  -0.005688
    12  C    0.434239   0.370061   0.343179
    13  H    0.000036   0.000064  -0.000166
    14  H    0.000003   0.000003  -0.000008
    15  H   -0.000000  -0.000000  -0.000002
    16  H    0.000001  -0.000000   0.000001
    17  H    0.000000  -0.000000   0.000000
    18  H   -0.000000  -0.000000   0.000000
    19  H   -0.000000   0.000000  -0.000000
    20  H   -0.000000   0.000000   0.000000
    21  H   -0.000000   0.000000  -0.000000
    22  H    0.000017   0.000003  -0.000000
    23  H    0.000001  -0.000002   0.000000
    24  H    0.000073   0.000010  -0.000008
    25  H   -0.089702   0.006892   0.008539
    26  H    0.013586   0.002186  -0.000030
    27  H    0.006436   0.000052  -0.000298
    28  H   -0.000277   0.000055   0.000096
    29  H    0.000048  -0.002926   0.008455
    30  H    0.000049   0.010907  -0.002184
    31  H    0.596035  -0.034564  -0.033139
    32  H   -0.034564   0.616076  -0.051641
    33  H   -0.033139  -0.051641   0.630991
 Mulliken charges:
               1
     1  N   -0.443891
     2  C    0.663335
     3  N   -0.515643
     4  C    0.247977
     5  C   -0.523829
     6  C   -0.425250
     7  C   -0.434738
     8  N   -0.403918
     9  C   -0.302615
    10  C   -0.369310
    11  C   -0.326861
    12  C   -0.374500
    13  H    0.188182
    14  H    0.163258
    15  H    0.125195
    16  H    0.137048
    17  H    0.123682
    18  H    0.138617
    19  H    0.136464
    20  H    0.147487
    21  H    0.130659
    22  H    0.189691
    23  H    0.146159
    24  H    0.129792
    25  H    0.206432
    26  H    0.157845
    27  H    0.131667
    28  H    0.172580
    29  H    0.150729
    30  H    0.130649
    31  H    0.203680
    32  H    0.167815
    33  H    0.131609
 Sum of Mulliken charges =   0.00000
 Mulliken charges with hydrogens summed into heavy atoms:
               1
     1  N   -0.443891
     2  C    0.663335
     3  N   -0.515643
     4  C    0.247977
     5  C   -0.047194
     6  C   -0.025903
     7  C   -0.020128
     8  N   -0.403918
     9  C    0.163027
    10  C    0.126635
    11  C    0.127098
    12  C    0.128604
 APT charges:
               1
     1  N   -0.777285
     2  C    1.373387
     3  N   -1.036840
     4  C    0.570447
     5  C   -0.040478
     6  C    0.027942
     7  C    0.036767
     8  N   -0.803179
     9  C    0.343509
    10  C    0.325236
    11  C    0.281581
    12  C    0.360350
    13  H    0.006668
    14  H   -0.049560
    15  H   -0.054199
    16  H   -0.025068
    17  H   -0.058142
    18  H   -0.026224
    19  H   -0.030440
    20  H   -0.015456
    21  H   -0.045334
    22  H    0.049397
    23  H   -0.056964
    24  H   -0.084066
    25  H    0.077184
    26  H   -0.108914
    27  H   -0.095626
    28  H    0.120051
    29  H   -0.052548
    30  H   -0.088121
    31  H    0.068992
    32  H   -0.094729
    33  H   -0.098338
 Sum of APT charges =   0.00000
 APT charges with hydrogens summed into heavy atoms:
               1
     1  N   -0.777285
     2  C    1.373387
     3  N   -1.036840
     4  C    0.570447
     5  C   -0.137570
     6  C   -0.081491
     7  C   -0.054462
     8  N   -0.803179
     9  C    0.251875
    10  C    0.197879
    11  C    0.260963
    12  C    0.236275
 Electronic spatial extent (au):  <R**2>=           2465.3498
 Charge=              0.0000 electrons
 Dipole moment (field-independent basis, Debye):
    X=             -1.8835    Y=              1.5300    Z=              0.5339  Tot=              2.4846
 Quadrupole moment (field-independent basis, Debye-Ang):
   XX=            -71.9096   YY=            -74.8820   ZZ=            -79.1427
   XY=              0.4946   XZ=             -1.0983   YZ=             -1.5577
 Traceless Quadrupole moment (field-independent basis, Debye-Ang):
   XX=              3.4019   YY=              0.4294   ZZ=             -3.8313
   XY=              0.4946   XZ=             -1.0983   YZ=             -1.5577
 Octapole moment (field-independent basis, Debye-Ang**2):
  XXX=            -21.4279  YYY=             -3.9972  ZZZ=             -0.5050  XYY=             -4.4455
  XXY=              3.0103  XXZ=              0.3714  XZZ=             -3.2960  YZZ=              1.5282
  YYZ=             -0.7869  XYZ=              0.9161
 Hexadecapole moment (field-independent basis, Debye-Ang**3):
 XXXX=          -2000.2388 YYYY=          -1017.3523 ZZZZ=           -304.9881 XXXY=             -8.2152
 XXXZ=             -3.3094 YYYX=              5.1378 YYYZ=              1.6084 ZZZX=             -3.7924
 ZZZY=             -0.7988 XXYY=           -509.9381 XXZZ=           -394.2034 YYZZ=           -223.3082
 XXYZ=             -1.1671 YYXZ=             -1.1079 ZZXY=              2.7703
 N-N= 8.117852252806D+02 E-N=-2.828399994010D+03  KE= 5.153821563408D+02
  Exact polarizability: 149.995  -1.698 125.359   1.338   1.352  92.059
 Approx polarizability: 195.406  -6.540 170.388   0.525   3.074 135.983
 Calling FoFJK, ICntrl=    100127 FMM=F ISym2X=0 I1Cent= 0 IOpClX= 0 NMat=1 NMatS=1 NMatT=0.
 ***** Axes restored to original set *****
 -------------------------------------------------------------------
 Center     Atomic                   Forces (Hartrees/Bohr)
 Number     Number              X              Y              Z
 -------------------------------------------------------------------
      1        7           0.000637363    0.019297757    0.010384593
      2        6          -0.016377778   -0.003771412   -0.012169167
      3        7          -0.008330273   -0.014730667    0.014061380
      4        6           0.009337076    0.001301017   -0.022082709
      5        6          -0.030608426    0.021426003   -0.013893517
      6        6          -0.003693069    0.000592936   -0.007169956
      7        6          -0.001882005   -0.002319481    0.005395992
      8        7           0.024782134   -0.005306603   -0.004349037
      9        6          -0.006311226    0.000966992    0.004465063
     10        6          -0.014064696   -0.064231053    0.033557664
     11        6           0.012478460   -0.010698502    0.015286744
     12        6           0.002590133    0.067696808   -0.032816307
     13        1          -0.019775689    0.001731723   -0.007414634
     14        1          -0.013074877    0.004856080   -0.001173414
     15        1          -0.004851078   -0.000975327   -0.001028981
     16        1           0.000768173    0.002069531    0.001529531
     17        1          -0.000089927   -0.000428739    0.001330611
     18        1           0.002093462   -0.002172479    0.000823081
     19        1           0.006677350    0.002514002    0.004851589
     20        1           0.001800786    0.000782948   -0.002544954
     21        1          -0.000109356    0.001155806   -0.001555181
     22        1           0.004861565    0.006235945    0.006785270
     23        1           0.000946187   -0.001039007   -0.000131856
     24        1           0.004059005   -0.000435633   -0.004617853
     25        1          -0.013942754   -0.066169459    0.013266433
     26        1           0.005233985   -0.008732410   -0.003923220
     27        1          -0.004368914   -0.011206775   -0.004239828
     28        1           0.041348177   -0.013832895    0.006389244
     29        1           0.001142998    0.001743772    0.001701241
     30        1           0.011181717   -0.000494712    0.005264031
     31        1           0.002755613    0.057315846   -0.013156440
     32        1           0.008433796    0.004299449    0.002799837
     33        1          -0.003647908    0.012558539    0.004374751
 -------------------------------------------------------------------
 Cartesian Forces:  Max     0.067696808 RMS     0.016762928
 FormGI is forming the generalized inverse of G from B-inverse, IUseBI=4.

 GradGradGradGradGradGradGradGradGradGradGradGradGradGradGradGradGradGrad
 Berny optimization.
 Internal  Forces:  Max     0.319854565 RMS     0.064718072
 Search for a local minimum.
 Step number   1 out of a maximum of  164
 All quantities printed in internal units (Hartrees-Bohrs-Radians)
 Mixed Optimization -- RFO/linear search
 Second derivative matrix not updated -- analytic derivatives used.
 ITU=  0
     Eigenvalues ---   -0.18484  -0.13186  -0.08472  -0.03656  -0.02907
     Eigenvalues ---   -0.02169  -0.00251   0.00110   0.00202   0.00328
     Eigenvalues ---    0.01647   0.01817   0.03790   0.04044   0.04461
     Eigenvalues ---    0.04634   0.04710   0.04791   0.04887   0.05113
     Eigenvalues ---    0.05806   0.05967   0.06442   0.06483   0.06518
     Eigenvalues ---    0.06654   0.06754   0.07448   0.07963   0.08170
     Eigenvalues ---    0.08435   0.09559   0.11094   0.11581   0.11878
     Eigenvalues ---    0.12048   0.12116   0.12472   0.12629   0.13112
     Eigenvalues ---    0.13481   0.13678   0.14473   0.15111   0.15389
     Eigenvalues ---    0.15546   0.15650   0.16364   0.17638   0.17745
     Eigenvalues ---    0.18054   0.18533   0.18873   0.19709   0.20414
     Eigenvalues ---    0.21194   0.21921   0.24481   0.26065   0.27828
     Eigenvalues ---    0.28535   0.29198   0.31000   0.31982   0.32288
     Eigenvalues ---    0.32468   0.32961   0.33175   0.33230   0.33322
     Eigenvalues ---    0.33436   0.33575   0.33685   0.33709   0.33869
     Eigenvalues ---    0.33936   0.34142   0.34527   0.34610   0.34664
     Eigenvalues ---    0.35182   0.35802   0.36034   0.36769   0.37433
     Eigenvalues ---    0.38166   0.38520   0.39104   0.40506   0.43629
     Eigenvalues ---    0.72771   4.42626   6.40061
 RFO step:  Lambda=-1.97463571D-01 EMin=-1.84837914D-01
 Linear search not attempted -- first point.
 Maximum step size (   0.300) exceeded in Quadratic search.
    -- Step size scaled by   0.566
 Iteration  1 RMS(Cart)=  0.24234080 RMS(Int)=  0.01661122
 Iteration  2 RMS(Cart)=  0.06077472 RMS(Int)=  0.00092313
 Iteration  3 RMS(Cart)=  0.00172613 RMS(Int)=  0.00034486
 Iteration  4 RMS(Cart)=  0.00000262 RMS(Int)=  0.00034485
 Iteration  5 RMS(Cart)=  0.00000000 RMS(Int)=  0.00034485
 Variable       Old X    -DE/DX   Delta X   Delta X   Delta X     New X
                                 (Linear)    (Quad)   (Total)
    R1        2.62534   0.15234   0.00000  -0.02944  -0.02944   2.59589
    R2        2.77313  -0.01327   0.00000  -0.04621  -0.04621   2.72692
    R3        2.74215   0.01051   0.00000  -0.00686  -0.00686   2.73529
    R4        2.41762   0.06122   0.00000  -0.00269  -0.00269   2.41493
    R5        2.63587   0.12292   0.00000   0.00694   0.00694   2.64280
    R6        2.73423   0.05630   0.00000   0.03808   0.03808   2.77232
    R7        2.89238  -0.00052   0.00000   0.07722   0.07722   2.96961
    R8        2.93530   0.00347   0.00000   0.00290   0.00290   2.93821
    R9        2.89853  -0.00036   0.00000  -0.00288  -0.00288   2.89566
   R10        2.07043  -0.01343   0.00000   0.01543   0.01543   2.08586
   R11        2.06094  -0.00145   0.00000  -0.01753  -0.01753   2.04341
   R12        2.07240   0.00282   0.00000   0.00063   0.00063   2.07304
   R13        2.07213  -0.00070   0.00000  -0.00160  -0.00160   2.07053
   R14        2.07512  -0.00041   0.00000  -0.00031  -0.00031   2.07482
   R15        2.06839   0.00068   0.00000   0.00095   0.00095   2.06934
   R16        2.05465   0.00689   0.00000   0.00722   0.00722   2.06188
   R17        2.07191  -0.00100   0.00000  -0.00095  -0.00095   2.07096
   R18        2.07161   0.00077   0.00000   0.00031   0.00031   2.07192
   R19        2.75761  -0.00922   0.00000  -0.00929  -0.00929   2.74832
   R20        2.77091  -0.01195   0.00000   0.01466   0.01466   2.78557
   R21        2.06995  -0.00446   0.00000  -0.00391  -0.00391   2.06604
   R22        2.07162   0.00098   0.00000   0.00139   0.00139   2.07302
   R23        2.06744   0.00587   0.00000   0.00613   0.00613   2.07357
   R24        2.06992  -0.04542   0.00000  -0.00927  -0.00927   2.06064
   R25        2.07100   0.00518   0.00000   0.00218   0.00218   2.07318
   R26        2.06943   0.00713   0.00000   0.00243   0.00243   2.07186
   R27        2.07133  -0.03863   0.00000   0.00557   0.00557   2.07690
   R28        2.07224   0.00086   0.00000  -0.00471  -0.00471   2.06753
   R29        2.05709   0.01067   0.00000   0.01164   0.01164   2.06873
   R30        2.04869  -0.03371   0.00000   0.01106   0.01106   2.05976
   R31        2.06585   0.00669   0.00000   0.00385   0.00385   2.06970
   R32        2.07305   0.00742   0.00000   0.00366   0.00366   2.07671
    A1        2.13678  -0.04857   0.00000  -0.13312  -0.13310   2.00367
    A2        2.18209   0.21833   0.00000   0.00273   0.00304   2.18513
    A3        1.94111  -0.16636   0.00000   0.12815   0.12802   2.06913
    A4        2.28987  -0.02931   0.00000  -0.06954  -0.06967   2.22020
    A5        1.97529   0.31985   0.00000   0.02148   0.02139   1.99668
    A6        2.01626  -0.28937   0.00000   0.04955   0.04946   2.06573
    A7        2.40148   0.28847   0.00000  -0.05398  -0.05398   2.34750
    A8        1.97038   0.07021   0.00000   0.06124   0.06094   2.03133
    A9        1.83093  -0.01983   0.00000  -0.04260  -0.04201   1.78892
   A10        1.95085  -0.03255   0.00000  -0.00395  -0.00406   1.94679
   A11        1.86847  -0.03380   0.00000  -0.02499  -0.02448   1.84399
   A12        1.98117  -0.01758   0.00000  -0.01844  -0.01862   1.96255
   A13        1.84901   0.03030   0.00000   0.02249   0.02214   1.87116
   A14        1.94710   0.00160   0.00000   0.02280   0.02245   1.96955
   A15        1.95614   0.00413   0.00000   0.05174   0.05157   2.00771
   A16        1.95308  -0.01020   0.00000  -0.03475  -0.03430   1.91878
   A17        1.89438   0.00792   0.00000  -0.03370  -0.03449   1.85989
   A18        1.87218  -0.00132   0.00000   0.01225   0.01248   1.88466
   A19        1.83541  -0.00212   0.00000  -0.02270  -0.02213   1.81329
   A20        1.94262  -0.00193   0.00000  -0.00500  -0.00501   1.93761
   A21        1.94862  -0.00046   0.00000   0.00143   0.00143   1.95006
   A22        1.94420  -0.00217   0.00000  -0.00537  -0.00538   1.93882
   A23        1.88452   0.00109   0.00000   0.00172   0.00172   1.88625
   A24        1.86986   0.00186   0.00000   0.00421   0.00419   1.87406
   A25        1.87024   0.00192   0.00000   0.00361   0.00362   1.87386
   A26        1.98436  -0.00550   0.00000  -0.00820  -0.00821   1.97615
   A27        1.93905  -0.00259   0.00000  -0.00397  -0.00398   1.93508
   A28        1.93629  -0.00082   0.00000  -0.00194  -0.00195   1.93434
   A29        1.84433   0.00473   0.00000   0.00744   0.00743   1.85176
   A30        1.87513   0.00287   0.00000   0.00392   0.00390   1.87904
   A31        1.87909   0.00203   0.00000   0.00394   0.00394   1.88303
   A32        2.15314  -0.15183   0.00000  -0.01762  -0.01775   2.13539
   A33        2.09278   0.26927   0.00000   0.02138   0.02140   2.11418
   A34        1.96572  -0.10462   0.00000   0.00277   0.00274   1.96847
   A35        1.97981  -0.01354   0.00000  -0.02374  -0.02375   1.95606
   A36        1.91134   0.00247   0.00000   0.00617   0.00617   1.91750
   A37        1.93391   0.00108   0.00000   0.00306   0.00305   1.93696
   A38        1.87982   0.00455   0.00000   0.00596   0.00596   1.88578
   A39        1.87151   0.00630   0.00000   0.01045   0.01044   1.88195
   A40        1.88423  -0.00022   0.00000  -0.00094  -0.00096   1.88327
   A41        1.97399   0.02129   0.00000   0.01157   0.01155   1.98554
   A42        1.93325   0.01283   0.00000   0.00496   0.00494   1.93819
   A43        1.91360  -0.02431   0.00000  -0.00706  -0.00707   1.90653
   A44        1.89049   0.01096   0.00000  -0.00900  -0.00902   1.88146
   A45        1.85765  -0.01690   0.00000   0.00929   0.00929   1.86693
   A46        1.89175  -0.00571   0.00000  -0.01058  -0.01059   1.88116
   A47        1.98736   0.00367   0.00000  -0.09791  -0.09792   1.88944
   A48        1.91013   0.00644   0.00000   0.04664   0.04685   1.95698
   A49        1.92421  -0.00983   0.00000   0.00686   0.00600   1.93020
   A50        1.87514   0.00585   0.00000   0.03578   0.03682   1.91195
   A51        1.86968  -0.00421   0.00000   0.01606   0.01490   1.88458
   A52        1.89459  -0.00200   0.00000  -0.00461  -0.00519   1.88940
   A53        1.97833   0.02905   0.00000  -0.03232  -0.03228   1.94606
   A54        1.93128   0.01147   0.00000   0.01992   0.01998   1.95127
   A55        1.92287  -0.02829   0.00000  -0.00340  -0.00341   1.91946
   A56        1.91446   0.00443   0.00000   0.00126   0.00136   1.91583
   A57        1.84425  -0.01646   0.00000   0.02520   0.02518   1.86942
   A58        1.86762  -0.00338   0.00000  -0.00964  -0.00963   1.85799
    D1        0.51744   0.11076   0.00000   0.12751   0.12735   0.64479
    D2       -2.69192   0.12487   0.00000   0.15874   0.15765  -2.53426
    D3       -2.87446   0.10532   0.00000   0.13229   0.13337  -2.74109
    D4        0.19937   0.11943   0.00000   0.16352   0.16367   0.36304
    D5       -0.19286   0.03801   0.00000   0.02795   0.02651  -0.16635
    D6       -2.29151   0.02345   0.00000   0.01390   0.01399  -2.27752
    D7        1.90897   0.02792   0.00000  -0.01363  -0.01393   1.89504
    D8       -3.11510  -0.00576   0.00000   0.03445   0.03411  -3.08099
    D9        1.06943  -0.02032   0.00000   0.02040   0.02159   1.09103
   D10       -1.01327  -0.01585   0.00000  -0.00713  -0.00633  -1.01960
   D11        0.30990   0.03285   0.00000  -0.03140  -0.03154   0.27835
   D12       -1.84919  -0.00335   0.00000  -0.02445  -0.02450  -1.87370
   D13        2.37222   0.01139   0.00000  -0.02273  -0.02281   2.34941
   D14       -3.05790   0.03571   0.00000  -0.05801  -0.05798  -3.11587
   D15        1.06620  -0.00049   0.00000  -0.05106  -0.05093   1.01526
   D16       -0.99558   0.01425   0.00000  -0.04935  -0.04924  -1.04482
   D17        0.09804   0.10774   0.00000   0.22035   0.22007   0.31811
   D18       -2.97452   0.07434   0.00000   0.18953   0.18981  -2.78471
   D19       -2.61183   0.04968   0.00000  -0.01381  -0.01445  -2.62629
   D20        0.10278   0.06554   0.00000   0.00578   0.00508   0.10786
   D21        0.47327   0.06780   0.00000   0.00743   0.00813   0.48140
   D22       -3.09530   0.08366   0.00000   0.02702   0.02766  -3.06763
   D23        0.00000   0.04629   0.00000   0.05251   0.05327   0.05327
   D24        2.02847   0.02934   0.00000   0.02785   0.02734   2.05582
   D25       -2.25886   0.03849   0.00000   0.02863   0.02838  -2.23049
   D26        0.52818   0.00534   0.00000  -0.05574  -0.05583   0.47235
   D27       -1.60029  -0.00905   0.00000  -0.06575  -0.06645  -1.66674
   D28        2.62589  -0.00228   0.00000  -0.04822  -0.04848   2.57741
   D29       -1.47783   0.01236   0.00000  -0.02172  -0.02112  -1.49896
   D30        2.67688  -0.00203   0.00000  -0.03174  -0.03173   2.64515
   D31        0.61988   0.00474   0.00000  -0.01420  -0.01377   0.60611
   D32        2.77141   0.00668   0.00000  -0.02298  -0.02272   2.74868
   D33        0.64294  -0.00772   0.00000  -0.03300  -0.03334   0.60960
   D34       -1.41407  -0.00094   0.00000  -0.01546  -0.01537  -1.42944
   D35       -0.84608  -0.03002   0.00000  -0.01981  -0.02021  -0.86629
   D36       -2.95340  -0.02975   0.00000  -0.01953  -0.01993  -2.97332
   D37        1.23959  -0.03041   0.00000  -0.02144  -0.02183   1.21776
   D38        1.25150   0.02443   0.00000   0.01695   0.01733   1.26884
   D39       -0.85582   0.02469   0.00000   0.01724   0.01762  -0.83820
   D40       -2.94601   0.02404   0.00000   0.01533   0.01572  -2.93029
   D41       -2.91213   0.00240   0.00000  -0.00565  -0.00564  -2.91778
   D42        1.26373   0.00267   0.00000  -0.00537  -0.00536   1.25837
   D43       -0.82646   0.00201   0.00000  -0.00727  -0.00726  -0.83372
   D44        1.01924   0.02630   0.00000   0.03754   0.03729   1.05654
   D45       -1.05855   0.02582   0.00000   0.03641   0.03616  -1.02239
   D46        3.13496   0.02551   0.00000   0.03536   0.03511  -3.11311
   D47       -1.23396  -0.02750   0.00000  -0.02831  -0.02813  -1.26209
   D48        2.97143  -0.02798   0.00000  -0.02945  -0.02926   2.94217
   D49        0.88175  -0.02829   0.00000  -0.03050  -0.03031   0.85144
   D50        3.00391   0.00401   0.00000  -0.00210  -0.00204   3.00186
   D51        0.92611   0.00353   0.00000  -0.00324  -0.00318   0.92294
   D52       -1.16357   0.00322   0.00000  -0.00429  -0.00422  -1.16779
   D53       -0.25462   0.04870   0.00000   0.00984   0.00975  -0.24487
   D54       -2.35510   0.05014   0.00000   0.01363   0.01355  -2.34155
   D55        1.85142   0.04819   0.00000   0.00901   0.00892   1.86034
   D56       -2.99676  -0.04980   0.00000  -0.01304  -0.01295  -3.00972
   D57        1.18594  -0.04837   0.00000  -0.00925  -0.00915   1.17679
   D58       -0.89072  -0.05031   0.00000  -0.01387  -0.01379  -0.90451
   D59        0.36236   0.04153   0.00000  -0.03764  -0.03776   0.32460
   D60       -1.76370   0.00271   0.00000  -0.03784  -0.03797  -1.80167
   D61        2.43249   0.01728   0.00000  -0.02333  -0.02345   2.40905
   D62        3.11987   0.03283   0.00000  -0.02539  -0.02527   3.09460
[...]
   XX=              1.0012   YY=              0.9988   ZZ=             -2.0000
   XY=             -0.2933   XZ=              0.3605   YZ=             -0.3634
 Octapole moment (field-independent basis, Debye-Ang**2):
  XXX=             -7.6229  YYY=              0.7670  ZZZ=              3.6742  XYY=             -5.3606
  XXY=              2.4532  XXZ=              3.6714  XZZ=             -1.3694  YZZ=              1.0989
  YYZ=              0.5919  XYZ=              1.0838
 Hexadecapole moment (field-independent basis, Debye-Ang**3):
 XXXX=          -1823.7009 YYYY=          -1017.7100 ZZZZ=           -419.7502 XXXY=              5.8692
 XXXZ=              2.5531 YYYX=              4.1897 YYYZ=             -2.4377 ZZZX=             -3.4120
 ZZZY=             -0.3465 XXYY=           -473.5384 XXZZ=           -386.9404 YYZZ=           -239.5687
 XXYZ=              3.1673 YYXZ=             -5.5486 ZZXY=             -4.1213
 N-N= 8.082625594148D+02 E-N=-2.821120359112D+03  KE= 5.149012460676D+02
 Evaluate density.
 Using the total density.
 Monte-Carlo method of calculating molar volume:
 based on  0.001 e/bohr**3 density envelope.
 Number of points per bohr**3 =   20 CutOff= 1.00D-04
 Using the CI density.
 There are       417 points.  Will hold       417 in memory.
 LenV=  1342033532 MDV=  1342177280.
 Box volume = 9074.815 fraction occupied=0.213
 Integrated density= 1.3099334857629105D+02 error= 3.4993348576291055D+01
 Molar volume = 1936.831 bohr**3/mol (172.841 cm**3/mol)
 Recommended a0 for SCRF calculation =  5.00 angstrom (  9.46 bohr)
 ******************************Gaussian NBO Version 3.1******************************
             N A T U R A L   A T O M I C   O R B I T A L   A N D
          N A T U R A L   B O N D   O R B I T A L   A N A L Y S I S
 ******************************Gaussian NBO Version 3.1******************************
       /RESON  / : Allow strongly delocalized NBO set

 Analyzing the CI density

 Job title: Title Card Required                                             

 Storage needed:    151374 in NPA (1342171505 available)


 NATURAL POPULATIONS:  Natural atomic orbital occupancies 
                                                          
   NAO  Atom  No  lang   Type(AO)    Occupancy
 --------------------------------------------
     1    N    1  S      Cor( 1S)     1.99935
     2    N    1  S      Val( 2S)     1.18672
     3    N    1  S      Ryd( 3S)     0.00085
     4    N    1  S      Ryd( 4S)     0.00002
     5    N    1  px     Val( 2p)     1.55849
     6    N    1  px     Ryd( 3p)     0.00570
     7    N    1  py     Val( 2p)     1.30475
     8    N    1  py     Ryd( 3p)     0.00109
     9    N    1  pz     Val( 2p)     1.39470
    10    N    1  pz     Ryd( 3p)     0.00173
    11    N    1  dxy    Ryd( 3d)     0.00037
    12    N    1  dxz    Ryd( 3d)     0.00058
    13    N    1  dyz    Ryd( 3d)     0.00129
    14    N    1  dx2y2  Ryd( 3d)     0.00053
    15    N    1  dz2    Ryd( 3d)     0.00041
 
    16    C    2  S      Cor( 1S)     1.99913
    17    C    2  S      Val( 2S)     0.69984
    18    C    2  S      Ryd( 3S)     0.00224
    19    C    2  S      Ryd( 4S)     0.00022
    20    C    2  px     Val( 2p)     0.85258
    21    C    2  px     Ryd( 3p)     0.00600
    22    C    2  py     Val( 2p)     0.81678
    23    C    2  py     Ryd( 3p)     0.00573
    24    C    2  pz     Val( 2p)     1.21918
    25    C    2  pz     Ryd( 3p)     0.01203
    26    C    2  dxy    Ryd( 3d)     0.00245
    27    C    2  dxz    Ryd( 3d)     0.00238
    28    C    2  dyz    Ryd( 3d)     0.00102
    29    C    2  dx2y2  Ryd( 3d)     0.00160
    30    C    2  dz2    Ryd( 3d)     0.00060
 
    31    N    3  S      Cor( 1S)     1.99898
    32    N    3  S      Val( 2S)     1.27312
    33    N    3  S      Ryd( 3S)     0.00214
    34    N    3  S      Ryd( 4S)     0.00003
    35    N    3  px     Val( 2p)     1.23445
    36    N    3  px     Ryd( 3p)     0.00200
    37    N    3  py     Val( 2p)     1.13578
    38    N    3  py     Ryd( 3p)     0.00431
    39    N    3  pz     Val( 2p)     1.67185
    40    N    3  pz     Ryd( 3p)     0.00715
    41    N    3  dxy    Ryd( 3d)     0.00082
    42    N    3  dxz    Ryd( 3d)     0.00112
    43    N    3  dyz    Ryd( 3d)     0.00072
    44    N    3  dx2y2  Ryd( 3d)     0.00031
    45    N    3  dz2    Ryd( 3d)     0.00055
 
    46    C    4  S      Cor( 1S)     1.99908
    47    C    4  S      Val( 2S)     0.90539
    48    C    4  S      Ryd( 3S)     0.00068
    49    C    4  S      Ryd( 4S)     0.00003
    50    C    4  px     Val( 2p)     0.90370
    51    C    4  px     Ryd( 3p)     0.00291
    52    C    4  py     Val( 2p)     1.02532
    53    C    4  py     Ryd( 3p)     0.00462
    54    C    4  pz     Val( 2p)     1.04963
    55    C    4  pz     Ryd( 3p)     0.00487
    56    C    4  dxy    Ryd( 3d)     0.00125
    57    C    4  dxz    Ryd( 3d)     0.00169
    58    C    4  dyz    Ryd( 3d)     0.00102
    59    C    4  dx2y2  Ryd( 3d)     0.00101
    60    C    4  dz2    Ryd( 3d)     0.00093
 
    61    C    5  S      Cor( 1S)     1.99931
    62    C    5  S      Val( 2S)     1.09802
    63    C    5  S      Ryd( 3S)     0.00065
    64    C    5  S      Ryd( 4S)     0.00002
    65    C    5  px     Val( 2p)     1.24345
    66    C    5  px     Ryd( 3p)     0.00148
    67    C    5  py     Val( 2p)     1.14364
    68    C    5  py     Ryd( 3p)     0.00207
    69    C    5  pz     Val( 2p)     1.16723
    70    C    5  pz     Ryd( 3p)     0.00184
    71    C    5  dxy    Ryd( 3d)     0.00043
    72    C    5  dxz    Ryd( 3d)     0.00056
    73    C    5  dyz    Ryd( 3d)     0.00068
    74    C    5  dx2y2  Ryd( 3d)     0.00097
    75    C    5  dz2    Ryd( 3d)     0.00076
 
    76    C    6  S      Cor( 1S)     1.99935
    77    C    6  S      Val( 2S)     1.10074
    78    C    6  S      Ryd( 3S)     0.00078
    79    C    6  S      Ryd( 4S)     0.00001
    80    C    6  px     Val( 2p)     1.19102
    81    C    6  px     Ryd( 3p)     0.00181
    82    C    6  py     Val( 2p)     1.14014
    83    C    6  py     Ryd( 3p)     0.00216
    84    C    6  pz     Val( 2p)     1.22372
    85    C    6  pz     Ryd( 3p)     0.00212
    86    C    6  dxy    Ryd( 3d)     0.00041
    87    C    6  dxz    Ryd( 3d)     0.00040
    88    C    6  dyz    Ryd( 3d)     0.00100
    89    C    6  dx2y2  Ryd( 3d)     0.00096
    90    C    6  dz2    Ryd( 3d)     0.00066
 
    91    C    7  S      Cor( 1S)     1.99935
    92    C    7  S      Val( 2S)     1.10195
    93    C    7  S      Ryd( 3S)     0.00084
    94    C    7  S      Ryd( 4S)     0.00002
    95    C    7  px     Val( 2p)     1.20301
    96    C    7  px     Ryd( 3p)     0.00165
    97    C    7  py     Val( 2p)     1.23345
    98    C    7  py     Ryd( 3p)     0.00216
    99    C    7  pz     Val( 2p)     1.12816
   100    C    7  pz     Ryd( 3p)     0.00242
   101    C    7  dxy    Ryd( 3d)     0.00043
   102    C    7  dxz    Ryd( 3d)     0.00035
   103    C    7  dyz    Ryd( 3d)     0.00106
   104    C    7  dx2y2  Ryd( 3d)     0.00092
   105    C    7  dz2    Ryd( 3d)     0.00063
 
   106    N    8  S      Cor( 1S)     1.99939
   107    N    8  S      Val( 2S)     1.23292
   108    N    8  S      Ryd( 3S)     0.00145
   109    N    8  S      Ryd( 4S)     0.00003
   110    N    8  px     Val( 2p)     1.31490
   111    N    8  px     Ryd( 3p)     0.00214
   112    N    8  py     Val( 2p)     1.28291
   113    N    8  py     Ryd( 3p)     0.00207
   114    N    8  pz     Val( 2p)     1.65305
   115    N    8  pz     Ryd( 3p)     0.00431
   116    N    8  dxy    Ryd( 3d)     0.00058
   117    N    8  dxz    Ryd( 3d)     0.00118
   118    N    8  dyz    Ryd( 3d)     0.00076
   119    N    8  dx2y2  Ryd( 3d)     0.00059
   120    N    8  dz2    Ryd( 3d)     0.00077
 
   121    C    9  S      Cor( 1S)     1.99949
   122    C    9  S      Val( 2S)     1.07933
   123    C    9  S      Ryd( 3S)     0.00111
   124    C    9  S      Ryd( 4S)     0.00003
   125    C    9  px     Val( 2p)     1.23704
   126    C    9  px     Ryd( 3p)     0.00296
   127    C    9  py     Val( 2p)     0.90601
   128    C    9  py     Ryd( 3p)     0.00201
   129    C    9  pz     Val( 2p)     1.23290
   130    C    9  pz     Ryd( 3p)     0.00151
   131    C    9  dxy    Ryd( 3d)     0.00085
   132    C    9  dxz    Ryd( 3d)     0.00092
   133    C    9  dyz    Ryd( 3d)     0.00140
   134    C    9  dx2y2  Ryd( 3d)     0.00116
   135    C    9  dz2    Ryd( 3d)     0.00071
 
   136    C   10  S      Cor( 1S)     1.99946
   137    C   10  S      Val( 2S)     1.08354
   138    C   10  S      Ryd( 3S)     0.00103
   139    C   10  S      Ryd( 4S)     0.00003
   140    C   10  px     Val( 2p)     1.00863
   141    C   10  px     Ryd( 3p)     0.00141
   142    C   10  py     Val( 2p)     1.22746
   143    C   10  py     Ryd( 3p)     0.00296
   144    C   10  pz     Val( 2p)     1.12917
   145    C   10  pz     Ryd( 3p)     0.00178
   146    C   10  dxy    Ryd( 3d)     0.00060
   147    C   10  dxz    Ryd( 3d)     0.00122
   148    C   10  dyz    Ryd( 3d)     0.00052
   149    C   10  dx2y2  Ryd( 3d)     0.00127
   150    C   10  dz2    Ryd( 3d)     0.00140
 
   151    C   11  S      Cor( 1S)     1.99946
   152    C   11  S      Val( 2S)     1.08113
   153    C   11  S      Ryd( 3S)     0.00112
   154    C   11  S      Ryd( 4S)     0.00002
   155    C   11  px     Val( 2p)     1.21652
   156    C   11  px     Ryd( 3p)     0.00147
   157    C   11  py     Val( 2p)     1.09131
   158    C   11  py     Ryd( 3p)     0.00217
   159    C   11  pz     Val( 2p)     1.06508
   160    C   11  pz     Ryd( 3p)     0.00255
   161    C   11  dxy    Ryd( 3d)     0.00140
   162    C   11  dxz    Ryd( 3d)     0.00107
   163    C   11  dyz    Ryd( 3d)     0.00131
   164    C   11  dx2y2  Ryd( 3d)     0.00047
   165    C   11  dz2    Ryd( 3d)     0.00072
 
   166    C   12  S      Cor( 1S)     1.99946
   167    C   12  S      Val( 2S)     1.08278
   168    C   12  S      Ryd( 3S)     0.00117
   169    C   12  S      Ryd( 4S)     0.00002
   170    C   12  px     Val( 2p)     1.09027
   171    C   12  px     Ryd( 3p)     0.00137
   172    C   12  py     Val( 2p)     1.21663
   173    C   12  py     Ryd( 3p)     0.00298
   174    C   12  pz     Val( 2p)     1.06775
   175    C   12  pz     Ryd( 3p)     0.00227
   176    C   12  dxy    Ryd( 3d)     0.00079
   177    C   12  dxz    Ryd( 3d)     0.00109
   178    C   12  dyz    Ryd( 3d)     0.00135
   179    C   12  dx2y2  Ryd( 3d)     0.00101
   180    C   12  dz2    Ryd( 3d)     0.00070
 
   181    H   13  S      Val( 1S)     0.75708
   182    H   13  S      Ryd( 2S)     0.00105
 
   183    H   14  S      Val( 1S)     0.76318
   184    H   14  S      Ryd( 2S)     0.00107
 
   185    H   15  S      Val( 1S)     0.76152
   186    H   15  S      Ryd( 2S)     0.00137
 
   187    H   16  S      Val( 1S)     0.76517
   188    H   16  S      Ryd( 2S)     0.00120
 
   189    H   17  S      Val( 1S)     0.77654
   190    H   17  S      Ryd( 2S)     0.00158
 
   191    H   18  S      Val( 1S)     0.76368
   192    H   18  S      Ryd( 2S)     0.00121
 
   193    H   19  S      Val( 1S)     0.77712
   194    H   19  S      Ryd( 2S)     0.00092
 
   195    H   20  S      Val( 1S)     0.76112
   196    H   20  S      Ryd( 2S)     0.00143
 
   197    H   21  S      Val( 1S)     0.77709
   198    H   21  S      Ryd( 2S)     0.00177
 
   199    H   22  S      Val( 1S)     0.76446
   200    H   22  S      Ryd( 2S)     0.00088
 
   201    H   23  S      Val( 1S)     0.80292
   202    H   23  S      Ryd( 2S)     0.00469
 
   203    H   24  S      Val( 1S)     0.77750
   204    H   24  S      Ryd( 2S)     0.00097
 
   205    H   25  S      Val( 1S)     0.77624
   206    H   25  S      Ryd( 2S)     0.00090
 
   207    H   26  S      Val( 1S)     0.78373
   208    H   26  S      Ryd( 2S)     0.00226
 
   209    H   27  S      Val( 1S)     0.80648
   210    H   27  S      Ryd( 2S)     0.00651
 
   211    H   28  S      Val( 1S)     0.76344
   212    H   28  S      Ryd( 2S)     0.00090
 
   213    H   29  S      Val( 1S)     0.79192
   214    H   29  S      Ryd( 2S)     0.00186
 
   215    H   30  S      Val( 1S)     0.79019
   216    H   30  S      Ryd( 2S)     0.00378
 
   217    H   31  S      Val( 1S)     0.74821
   218    H   31  S      Ryd( 2S)     0.00102
 
   219    H   32  S      Val( 1S)     0.78737
   220    H   32  S      Ryd( 2S)     0.00203
 
   221    H   33  S      Val( 1S)     0.78807
   222    H   33  S      Ryd( 2S)     0.00255

 WARNING:  1 low occupancy (<1.9990e) core orbital  found on  N    3


 Summary of Natural Population Analysis:                  
                                                          
                                       Natural Population 
                Natural  -----------------------------------------------
    Atom  No    Charge         Core      Valence    Rydberg      Total
 -----------------------------------------------------------------------
      N    1   -0.45659      1.99935     5.44465    0.01258     7.45659
      C    2    0.37823      1.99913     3.58837    0.03427     5.62177
      N    3   -0.33333      1.99898     5.31521    0.01914     7.33333
      C    4    0.09787      1.99908     3.88404    0.01901     5.90213
      C    5   -0.66112      1.99931     4.65234    0.00947     6.66112
      C    6   -0.66530      1.99935     4.65563    0.01032     6.66530
      C    7   -0.67640      1.99935     4.66658    0.01047     6.67640
      N    8   -0.49703      1.99939     5.48377    0.01386     7.49703
      C    9   -0.46742      1.99949     4.45528    0.01265     6.46742
      C   10   -0.46050      1.99946     4.44881    0.01223     6.46050
      C   11   -0.46580      1.99946     4.45404    0.01230     6.46580
      C   12   -0.46964      1.99946     4.45743    0.01275     6.46964
      H   13    0.24187      0.00000     0.75708    0.00105     0.75813
      H   14    0.23574      0.00000     0.76318    0.00107     0.76426
      H   15    0.23711      0.00000     0.76152    0.00137     0.76289
      H   16    0.23363      0.00000     0.76517    0.00120     0.76637
      H   17    0.22188      0.00000     0.77654    0.00158     0.77812
      H   18    0.23511      0.00000     0.76368    0.00121     0.76489
      H   19    0.22196      0.00000     0.77712    0.00092     0.77804
      H   20    0.23745      0.00000     0.76112    0.00143     0.76255
      H   21    0.22114      0.00000     0.77709    0.00177     0.77886
      H   22    0.23466      0.00000     0.76446    0.00088     0.76534
      H   23    0.19239      0.00000     0.80292    0.00469     0.80761
      H   24    0.22153      0.00000     0.77750    0.00097     0.77847
      H   25    0.22286      0.00000     0.77624    0.00090     0.77714
      H   26    0.21400      0.00000     0.78373    0.00226     0.78600
      H   27    0.18701      0.00000     0.80648    0.00651     0.81299
      H   28    0.23566      0.00000     0.76344    0.00090     0.76434
      H   29    0.20623      0.00000     0.79192    0.00186     0.79377
      H   30    0.20603      0.00000     0.79019    0.00378     0.79397
      H   31    0.25078      0.00000     0.74821    0.00102     0.74922
      H   32    0.21061      0.00000     0.78737    0.00203     0.78939
      H   33    0.20938      0.00000     0.78807    0.00255     0.79062
 =======================================================================
   * Total *   -0.00000     23.99182    71.78918    0.21900    96.00000

                                 Natural Population      
 --------------------------------------------------------
   Core                      23.99182 ( 99.9659% of  24)
   Valence                   71.78918 ( 99.7072% of  72)
   Natural Minimal Basis     95.78100 ( 99.7719% of  96)
   Natural Rydberg Basis      0.21900 (  0.2281% of  96)
 --------------------------------------------------------

    Atom  No          Natural Electron Configuration
 ----------------------------------------------------------------------------
      N    1      [core]2S( 1.19)2p( 4.26)3p( 0.01)
      C    2      [core]2S( 0.70)2p( 2.89)3p( 0.02)3d( 0.01)
      N    3      [core]2S( 1.27)2p( 4.04)3p( 0.01)
      C    4      [core]2S( 0.91)2p( 2.98)3p( 0.01)3d( 0.01)
      C    5      [core]2S( 1.10)2p( 3.55)3p( 0.01)
      C    6      [core]2S( 1.10)2p( 3.55)3p( 0.01)
      C    7      [core]2S( 1.10)2p( 3.56)3p( 0.01)
      N    8      [core]2S( 1.23)2p( 4.25)3p( 0.01)
      C    9      [core]2S( 1.08)2p( 3.38)3p( 0.01)3d( 0.01)
      C   10      [core]2S( 1.08)2p( 3.37)3p( 0.01)3d( 0.01)
      C   11      [core]2S( 1.08)2p( 3.37)3p( 0.01)
      C   12      [core]2S( 1.08)2p( 3.37)3p( 0.01)
      H   13            1S( 0.76)
      H   14            1S( 0.76)
      H   15            1S( 0.76)
      H   16            1S( 0.77)
      H   17            1S( 0.78)
      H   18            1S( 0.76)
      H   19            1S( 0.78)
      H   20            1S( 0.76)
      H   21            1S( 0.78)
      H   22            1S( 0.76)
      H   23            1S( 0.80)
      H   24            1S( 0.78)
      H   25            1S( 0.78)
      H   26            1S( 0.78)
      H   27            1S( 0.81)2S( 0.01)
      H   28            1S( 0.76)
      H   29            1S( 0.79)
      H   30            1S( 0.79)
      H   31            1S( 0.75)
      H   32            1S( 0.79)
      H   33            1S( 0.79)


 NBO analysis skipped by request.
 1\1\GINC-DELLA-R1C4N11\SP\RB3LYP TD-FC\6-31G(d)\C9H21N3\BJS4\24-Aug-20
 20\0\\# TD(NStates=10, Root=1) B3LYP/6-31G* scf=qc volume pop=NPA dens
 ity=current Geom=AllCheck Guess=Read\\Title Card Required\\0,1\N,0,1.3
 25378084,0.1959421443,0.2889317499\C,0,0.5243438517,-0.8502928123,-0.2
 145632648\N,0,-0.7543686548,-0.9321096798,-0.2443030167\C,0,-1.7460239
 279,0.1442732126,-0.1343418308\C,0,-1.2513906877,1.5688814317,-0.46675
 04472\C,0,-2.8356539374,-0.2307574858,-1.1673100347\C,0,-2.3914526248,
 0.1114927051,1.2674593064\N,0,1.27047469,-1.9022337163,-0.7775597215\C
 ,0,0.5416006059,-2.878046668,-1.5748427383\C,0,2.3458863252,-2.4957564
 702,0.010205455\C,0,1.2081237801,0.6368595797,1.6631484822\C,0,2.50190
 70589,0.6647577932,-0.4179226815\H,0,-0.7345477746,1.5832956138,-1.432
 9773645\H,0,-0.5736068396,1.9744915901,0.2868595401\H,0,-2.1112127524,
 2.2463986262,-0.5370080298\H,0,-2.4214243553,-0.2145813065,-2.18194532
 39\H,0,-3.6785603434,0.4701822808,-1.1283231742\H,0,-3.2073440559,-1.2
 415360724,-0.9720815782\H,0,-1.6965997641,0.4431091784,2.0456759127\H,
 0,-2.7140713688,-0.9066534492,1.5093807156\H,0,-3.2683116791,0.7692073
 706,1.3035173494\H,0,-0.1519501432,-2.3626908415,-2.239867112\H,0,-0.0
 437690782,-3.574631267,-0.9555935432\H,0,1.2619969881,-3.4529651435,-2
 .168813637\H,0,2.8280809449,-1.7395757572,0.6304378994\H,0,3.101252725
 7,-2.9321261628,-0.6539562048\H,0,1.9720099645,-3.2952325565,0.6721755
 153\H,0,0.3815782684,0.1179660114,2.1492463213\H,0,1.0319209683,1.7205
 715333,1.7387969931\H,0,2.1307917375,0.414111403,2.225951675\H,0,2.510
 7304862,0.2527681964,-1.4278870138\H,0,3.442895603,0.3770803618,0.0815
 564475\H,0,2.4879559047,1.7627203565,-0.4847366459\\Version=ES64L-G16R
 evA.03\State=1-A\HF=-519.8294524\RMSD=2.600e-13\Dipole=0.1775877,0.426
 1229,0.0935168\Quadrupole=0.7323626,0.0335942,-0.7659567,-0.214816,0.6
 812111,0.8822046\PG=C01 [X(C9H21N3)]\\@


    UPON JULIA'S CLOTHES

 WHENAS IN SILKS MY JULIA GOES,
 THEN, THEN, METHINKS, HOW SWEETLY FLOWS
 THAT LIQUEFACTION OF HER CLOTHES.

 NEXT, WHEN I CAST MINE EYES, AND SEE
 THAT BRAVE VIBRATION, EACH WAY FREE,
 O, HOW THAT GLITTERING TAKETH ME!
     -- ROBERT HERRICK, 1648
 Job cpu time:       0 days  0 hours 35 minutes 33.5 seconds.
 Elapsed time:       0 days  0 hours  7 minutes  7.9 seconds.
 File lengths (MBytes):  RWF=    456 Int=      0 D2E=      0 Chk=    268 Scr=      1
 Normal termination of Gaussian 16 at Mon Aug 24 17:40:45 2020.
