 Entering Gaussian System, Link 0=g16
 Input=base_4_conf20123.com
 Output=base_4_conf20123.log
 Initial command:
 /opt/export//g16/l1.exe "/scratch/bjs4/job.8267/Gau-8269.inp" -scrdir="/scratch/bjs4/job.8267/"
 Entering Link 1 = /opt/export//g16/l1.exe PID=      8270.
  
 Copyright (c) 1988,1990,1992,1993,1995,1998,2003,2009,2016,
            Gaussian, Inc.  All Rights Reserved.
  
 This is part of the Gaussian(R) 16 program.  It is based on
 the Gaussian(R) 09 system (copyright 2009, Gaussian, Inc.),
 the Gaussian(R) 03 system (copyright 2003, Gaussian, Inc.),
 the Gaussian(R) 98 system (copyright 1998, Gaussian, Inc.),
 the Gaussian(R) 94 system (copyright 1995, Gaussian, Inc.),
 the Gaussian 92(TM) system (copyright 1992, Gaussian, Inc.),
 the Gaussian 90(TM) system (copyright 1990, Gaussian, Inc.),
 the Gaussian 88(TM) system (copyright 1988, Gaussian, Inc.),
 the Gaussian 86(TM) system (copyright 1986, Carnegie Mellon
 University), and the Gaussian 82(TM) system (copyright 1983,
 Carnegie Mellon University). Gaussian is a federally registered
 trademark of Gaussian, Inc.
  
 This software contains proprietary and confidential information,
 including trade secrets, belonging to Gaussian, Inc.
  
 This software is provided under written license and may be
 used, copied, transmitted, or stored only in accord with that
 written license.
  
 The following legend is applicable only to US Government
 contracts under FAR:
  
                    RESTRICTED RIGHTS LEGEND
  
 Use, reproduction and disclosure by the US Government is
 subject to restrictions as set forth in subparagraphs (a)
 and (c) of the Commercial Computer Software - Restricted
 Rights clause in FAR 52.227-19.
  
 Gaussian, Inc.
 340 Quinnipiac St., Bldg. 40, Wallingford CT 06492
  
  
 ---------------------------------------------------------------
 Warning -- This program may not be used in any manner that
 competes with the business of Gaussian, Inc. or will provide
 assistance to any competitor of Gaussian, Inc.  The licensee
 of this program is prohibited from giving any competitor of
 Gaussian, Inc. access to this program.  By using this program,
 the user acknowledges that Gaussian, Inc. is engaged in the
 business of creating and licensing software in the field of
 computational chemistry and represents and warrants to the
 licensee that it is not a competitor of Gaussian, Inc. and that
 it will not use this program in any manner prohibited above.
 ---------------------------------------------------------------
  

 Cite this work as:
 Gaussian 16, Revision A.03,
 M. J. Frisch, G. W. Trucks, H. B. Schlegel, G. E. Scuseria, 
 M. A. Robb, J. R. Cheeseman, G. Scalmani, V. Barone, 
 G. A. Petersson, H. Nakatsuji, X. Li, M. Caricato, A. V. Marenich, 
 J. Bloino, B. G. Janesko, R. Gomperts, B. Mennucci, H. P. Hratchian, 
 J. V. Ortiz, A. F. Izmaylov, J. L. Sonnenberg, D. Williams-Young, 
 F. Ding, F. Lipparini, F. Egidi, J. Goings, B. Peng, A. Petrone, 
 T. Henderson, D. Ranasinghe, V. G. Zakrzewski, J. Gao, N. Rega, 
 G. Zheng, W. Liang, M. Hada, M. Ehara, K. Toyota, R. Fukuda, 
 J. Hasegawa, M. Ishida, T. Nakajima, Y. Honda, O. Kitao, H. Nakai, 
 T. Vreven, K. Throssell, J. A. Montgomery, Jr., J. E. Peralta, 
 F. Ogliaro, M. J. Bearpark, J. J. Heyd, E. N. Brothers, K. N. Kudin, 
 V. N. Staroverov, T. A. Keith, R. Kobayashi, J. Normand, 
 K. Raghavachari, A. P. Rendell, J. C. Burant, S. S. Iyengar, 
 J. Tomasi, M. Cossi, J. M. Millam, M. Klene, C. Adamo, R. Cammi, 
 J. W. Ochterski, R. L. Martin, K. Morokuma, O. Farkas, 
 J. B. Foresman, and D. J. Fox, Gaussian, Inc., Wallingford CT, 2016.
 
 ******************************************
 Gaussian 16:  ES64L-G16RevA.03 25-Dec-2016
                24-Aug-2020 
 ******************************************
 %nprocshared=3
 Will use up to    3 processors via shared memory.
 %Mem=6GB
 %Chk=base_4_conf201.chk
 ---------------------------------
 # opt=CalcAll B3LYP/6-31G* scf=qc
 ---------------------------------
 1/10=4,18=20,19=15,26=3,38=1/1,3;
 2/9=110,12=2,17=6,18=5,40=1/2;
 3/5=1,6=6,7=1,11=2,25=1,30=1,71=2,74=-5,140=1/1,2,3;
 4//1;
 5/5=2,8=3,38=5/8;
 8/6=4,10=90,11=11/1;
 11/6=1,8=1,9=11,15=111,16=1/1,2,10;
 10/6=1/2;
 6/7=2,8=2,9=2,10=2,18=1,28=1/1;
 7/10=1,25=1/1,2,3,16;
 1/10=4,18=20,19=15,26=3/3(3);
 2/9=110/2;
 7/8=1,9=1,25=1,44=-1/16;
 99//99;
 2/9=110/2;
 3/5=1,6=6,7=1,11=2,25=1,30=1,71=2,74=-5,140=1/1,2,3;
 4/5=5,16=3,69=1/1;
 5/5=2,8=3,38=5/8;
 8/6=4,10=90,11=11/1;
 11/6=1,8=1,9=11,15=111,16=1/1,2,10;
 10/6=1/2;
 7/10=1,25=1/1,2,3,16;
 1/10=4,18=20,19=15,26=3/3(-8);
 2/9=110/2;
 6/7=2,8=2,9=2,10=2,18=1,19=2,28=1/1;
 7/8=1,9=1,25=1,44=-1/16;
 99//99;
 -------------------
 Title Card Required
 -------------------
 Symbolic Z-matrix:
 Charge =  0 Multiplicity = 1
 C                     3.09993  -0.53297  -1.28273 
 C                     2.5217    0.0373    0.0088 
 N1                    2.953     1.4118    0.3252 
 C                     2.4005    1.9412    1.5807 
 C                     2.73071   1.15904   2.84715 
 C                     4.4213    1.4981    0.2306 
 C                     4.99746   2.87277   0.55323 
 H                     2.89556  -1.60747  -1.33896 
 H                     4.18486  -0.39565  -1.32842 
 H                     2.64907  -0.07054  -2.16659 
 H                     2.85343  -0.6229    0.82058 
 H                     1.42792  -0.03579  -0.02653 
 H                     1.3109    2.03257   1.49572 
 H                     2.73164   2.97848   1.71215 
 H                     2.46661   0.10181   2.75745 
 H                     2.16556   1.56829   3.69112 
 H                     3.79356   1.23233   3.09689 
 H                     4.71863   1.26584  -0.80068 
 H                     4.90215   0.74655   0.86972 
 H                     4.51659   3.65247  -0.04502 
 H                     6.06844   2.88768   0.32593 
 H                     4.88646   3.12439   1.61218 
 

 GradGradGradGradGradGradGradGradGradGradGradGradGradGradGradGradGradGrad
 Berny optimization.
 Initialization pass.
                           ----------------------------
                           !    Initial Parameters    !
                           ! (Angstroms and Degrees)  !
 --------------------------                            --------------------------
 ! Name  Definition              Value          Derivative Info.                !
 --------------------------------------------------------------------------------
 ! R1    R(1,2)                  1.5256         calculate D2E/DX2 analytically  !
 ! R2    R(1,8)                  1.0952         calculate D2E/DX2 analytically  !
 ! R3    R(1,9)                  1.0945         calculate D2E/DX2 analytically  !
 ! R4    R(1,10)                 1.0947         calculate D2E/DX2 analytically  !
 ! R5    R(2,3)                  1.4749         calculate D2E/DX2 analytically  !
 ! R6    R(2,11)                 1.0977         calculate D2E/DX2 analytically  !
 ! R7    R(2,12)                 1.0968         calculate D2E/DX2 analytically  !
 ! R8    R(3,4)                  1.4703         calculate D2E/DX2 analytically  !
 ! R9    R(3,6)                  1.4739         calculate D2E/DX2 analytically  !
 ! R10   R(4,5)                  1.5247         calculate D2E/DX2 analytically  !
 ! R11   R(4,13)                 1.0967         calculate D2E/DX2 analytically  !
 ! R12   R(4,14)                 1.0968         calculate D2E/DX2 analytically  !
 ! R13   R(5,15)                 1.0934         calculate D2E/DX2 analytically  !
 ! R14   R(5,16)                 1.0951         calculate D2E/DX2 analytically  !
 ! R15   R(5,17)                 1.0943         calculate D2E/DX2 analytically  !
 ! R16   R(6,7)                  1.525          calculate D2E/DX2 analytically  !
 ! R17   R(6,18)                 1.0981         calculate D2E/DX2 analytically  !
 ! R18   R(6,19)                 1.0975         calculate D2E/DX2 analytically  !
 ! R19   R(7,20)                 1.0941         calculate D2E/DX2 analytically  !
 ! R20   R(7,21)                 1.0949         calculate D2E/DX2 analytically  !
 ! R21   R(7,22)                 1.0941         calculate D2E/DX2 analytically  !
 ! A1    A(2,1,8)              109.844          calculate D2E/DX2 analytically  !
 ! A2    A(2,1,9)              111.3535         calculate D2E/DX2 analytically  !
 ! A3    A(2,1,10)             111.6855         calculate D2E/DX2 analytically  !
 ! A4    A(8,1,9)              107.8129         calculate D2E/DX2 analytically  !
 ! A5    A(8,1,10)             107.2257         calculate D2E/DX2 analytically  !
 ! A6    A(9,1,10)             108.7564         calculate D2E/DX2 analytically  !
 ! A7    A(1,2,3)              114.7785         calculate D2E/DX2 analytically  !
 ! A8    A(1,2,11)             106.6605         calculate D2E/DX2 analytically  !
 ! A9    A(1,2,12)             109.0133         calculate D2E/DX2 analytically  !
 ! A10   A(3,2,11)             108.2692         calculate D2E/DX2 analytically  !
 ! A11   A(3,2,12)             111.1392         calculate D2E/DX2 analytically  !
 ! A12   A(11,2,12)            106.5662         calculate D2E/DX2 analytically  !
 ! A13   A(2,3,4)              114.1321         calculate D2E/DX2 analytically  !
 ! A14   A(2,3,6)              109.3972         calculate D2E/DX2 analytically  !
 ! A15   A(4,3,6)              114.084          calculate D2E/DX2 analytically  !
 ! A16   A(3,4,5)              116.307          calculate D2E/DX2 analytically  !
 ! A17   A(3,4,13)             109.7042         calculate D2E/DX2 analytically  !
 ! A18   A(3,4,14)             109.2337         calculate D2E/DX2 analytically  !
 ! A19   A(5,4,13)             108.8001         calculate D2E/DX2 analytically  !
 ! A20   A(5,4,14)             108.6768         calculate D2E/DX2 analytically  !
 ! A21   A(13,4,14)            103.3241         calculate D2E/DX2 analytically  !
 ! A22   A(4,5,15)             112.0594         calculate D2E/DX2 analytically  !
 ! A23   A(4,5,16)             109.6745         calculate D2E/DX2 analytically  !
 ! A24   A(4,5,17)             111.4428         calculate D2E/DX2 analytically  !
 ! A25   A(15,5,16)            107.4534         calculate D2E/DX2 analytically  !
 ! A26   A(15,5,17)            108.5476         calculate D2E/DX2 analytically  !
 ! A27   A(16,5,17)            107.4786         calculate D2E/DX2 analytically  !
 ! A28   A(3,6,7)              114.5553         calculate D2E/DX2 analytically  !
 ! A29   A(3,6,18)             108.5196         calculate D2E/DX2 analytically  !
 ! A30   A(3,6,19)             111.0388         calculate D2E/DX2 analytically  !
 ! A31   A(7,6,18)             106.6804         calculate D2E/DX2 analytically  !
 ! A32   A(7,6,19)             109.18           calculate D2E/DX2 analytically  !
 ! A33   A(18,6,19)            106.4648         calculate D2E/DX2 analytically  !
 ! A34   A(6,7,20)             111.1398         calculate D2E/DX2 analytically  !
 ! A35   A(6,7,21)             109.7484         calculate D2E/DX2 analytically  !
 ! A36   A(6,7,22)             111.9463         calculate D2E/DX2 analytically  !
 ! A37   A(20,7,21)            107.8592         calculate D2E/DX2 analytically  !
 ! A38   A(20,7,22)            108.7084         calculate D2E/DX2 analytically  !
 ! A39   A(21,7,22)            107.2793         calculate D2E/DX2 analytically  !
 ! D1    D(8,1,2,3)            168.7481         calculate D2E/DX2 analytically  !
 ! D2    D(8,1,2,11)            48.8445         calculate D2E/DX2 analytically  !
 ! D3    D(8,1,2,12)           -65.8585         calculate D2E/DX2 analytically  !
 ! D4    D(9,1,2,3)             49.3887         calculate D2E/DX2 analytically  !
 ! D5    D(9,1,2,11)           -70.5148         calculate D2E/DX2 analytically  !
 ! D6    D(9,1,2,12)           174.7822         calculate D2E/DX2 analytically  !
 ! D7    D(10,1,2,3)           -72.4149         calculate D2E/DX2 analytically  !
 ! D8    D(10,1,2,11)          167.6816         calculate D2E/DX2 analytically  !
 ! D9    D(10,1,2,12)           52.9786         calculate D2E/DX2 analytically  !
 ! D10   D(1,2,3,4)           -179.294          calculate D2E/DX2 analytically  !
 ! D11   D(1,2,3,6)            -50.1107         calculate D2E/DX2 analytically  !
 ! D12   D(11,2,3,4)           -60.2866         calculate D2E/DX2 analytically  !
 ! D13   D(11,2,3,6)            68.8966         calculate D2E/DX2 analytically  !
 ! D14   D(12,2,3,4)            56.4291         calculate D2E/DX2 analytically  !
 ! D15   D(12,2,3,6)          -174.3877         calculate D2E/DX2 analytically  !
 ! D16   D(2,3,4,5)             59.2942         calculate D2E/DX2 analytically  !
 ! D17   D(2,3,4,13)           -64.6866         calculate D2E/DX2 analytically  !
 ! D18   D(2,3,4,14)          -177.2816         calculate D2E/DX2 analytically  !
 ! D19   D(6,3,4,5)            -67.4948         calculate D2E/DX2 analytically  !
 ! D20   D(6,3,4,13)           168.5245         calculate D2E/DX2 analytically  !
 ! D21   D(6,3,4,14)            55.9295         calculate D2E/DX2 analytically  !
 ! D22   D(2,3,6,7)           -179.294          calculate D2E/DX2 analytically  !
 ! D23   D(2,3,6,18)            61.6375         calculate D2E/DX2 analytically  !
 ! D24   D(2,3,6,19)           -55.0484         calculate D2E/DX2 analytically  !
 ! D25   D(4,3,6,7)            -50.0843         calculate D2E/DX2 analytically  !
 ! D26   D(4,3,6,18)          -169.1528         calculate D2E/DX2 analytically  !
 ! D27   D(4,3,6,19)            74.1613         calculate D2E/DX2 analytically  !
 ! D28   D(3,4,5,15)           -53.5259         calculate D2E/DX2 analytically  !
 ! D29   D(3,4,5,16)          -172.7729         calculate D2E/DX2 analytically  !
 ! D30   D(3,4,5,17)            68.3377         calculate D2E/DX2 analytically  !
 ! D31   D(13,4,5,15)           70.9193         calculate D2E/DX2 analytically  !
 ! D32   D(13,4,5,16)          -48.3277         calculate D2E/DX2 analytically  !
 ! D33   D(13,4,5,17)         -167.2171         calculate D2E/DX2 analytically  !
 ! D34   D(14,4,5,15)         -177.2383         calculate D2E/DX2 analytically  !
 ! D35   D(14,4,5,16)           63.5147         calculate D2E/DX2 analytically  !
 ! D36   D(14,4,5,17)          -55.3747         calculate D2E/DX2 analytically  !
 ! D37   D(3,6,7,20)           -52.9706         calculate D2E/DX2 analytically  !
 ! D38   D(3,6,7,21)          -172.1909         calculate D2E/DX2 analytically  !
 ! D39   D(3,6,7,22)            68.803          calculate D2E/DX2 analytically  !
 ! D40   D(18,6,7,20)           67.1257         calculate D2E/DX2 analytically  !
 ! D41   D(18,6,7,21)          -52.0945         calculate D2E/DX2 analytically  !
 ! D42   D(18,6,7,22)         -171.1007         calculate D2E/DX2 analytically  !
 ! D43   D(19,6,7,20)         -178.1978         calculate D2E/DX2 analytically  !
 ! D44   D(19,6,7,21)           62.5819         calculate D2E/DX2 analytically  !
 ! D45   D(19,6,7,22)          -56.4242         calculate D2E/DX2 analytically  !
 --------------------------------------------------------------------------------
 Trust Radius=3.00D-01 FncErr=1.00D-07 GrdErr=1.00D-06 EigMax=2.50D+02 EigMin=1.00D-04
 Number of steps in this run=    115 maximum allowed number of steps=    132.
 GradGradGradGradGradGradGradGradGradGradGradGradGradGradGradGradGradGrad

                          Input orientation:                          
 ---------------------------------------------------------------------
 Center     Atomic      Atomic             Coordinates (Angstroms)
 Number     Number       Type             X           Y           Z
 ---------------------------------------------------------------------
      1          6           0        3.099930   -0.532970   -1.282730
      2          6           0        2.521700    0.037300    0.008800
      3          7           0        2.953000    1.411800    0.325200
      4          6           0        2.400500    1.941200    1.580700
      5          6           0        2.730710    1.159040    2.847150
      6          6           0        4.421300    1.498100    0.230600
      7          6           0        4.997460    2.872770    0.553230
      8          1           0        2.895560   -1.607470   -1.338960
      9          1           0        4.184860   -0.395650   -1.328420
     10          1           0        2.649070   -0.070540   -2.166590
     11          1           0        2.853430   -0.622900    0.820580
     12          1           0        1.427920   -0.035790   -0.026530
     13          1           0        1.310900    2.032570    1.495720
     14          1           0        2.731640    2.978480    1.712150
     15          1           0        2.466610    0.101810    2.757450
     16          1           0        2.165560    1.568290    3.691120
     17          1           0        3.793560    1.232330    3.096890
     18          1           0        4.718630    1.265840   -0.800680
     19          1           0        4.902150    0.746550    0.869720
     20          1           0        4.516590    3.652470   -0.045020
     21          1           0        6.068440    2.887680    0.325930
     22          1           0        4.886460    3.124390    1.612180
 ---------------------------------------------------------------------
                    Distance matrix (angstroms):
                    1          2          3          4          5
     1  C    0.000000
     2  C    1.525650   0.000000
     3  N    2.527678   1.474917   0.000000
     4  C    3.848370   2.471921   1.470306   0.000000
     5  C    4.478295   3.059120   2.544314   1.524699   0.000000
     6  C    2.856822   2.406577   1.473873   2.470372   3.133591
     7  C    4.309343   3.803378   2.523142   2.944099   3.651999
     8  H    1.095207   2.159050   3.448002   4.621965   5.020385
     9  H    1.094540   2.177545   2.742046   4.136156   4.686896
    10  H    1.094680   2.181782   2.915257   4.260407   5.162957
    11  H    2.119614   1.097677   2.096502   2.712478   2.701362
    12  H    2.149615   1.096789   2.131924   2.727194   3.373858
    13  H    4.183588   2.767322   2.109968   1.096722   2.145991
    14  H    4.629819   3.405292   2.104071   1.096760   2.144432
    15  H    4.138489   2.749959   2.805083   2.184598   1.093403
    16  H    5.479738   4.003779   3.460342   2.155953   1.095064
    17  H    4.772680   3.547115   2.901899   2.177601   1.094254
    18  H    2.467444   2.644063   2.099133   3.391284   4.155706
    19  H    3.085160   2.628833   2.130316   2.861981   2.965726
    20  H    4.588764   4.129399   2.757259   3.170055   4.215591
    21  H    4.806317   4.561206   3.447345   3.990496   4.526057
    22  H    4.994845   4.206310   2.885749   2.753348   3.167808
                    6          7          8          9         10
     6  C    0.000000
     7  C    1.525047   0.000000
     8  H    3.799469   5.298199   0.000000
     9  H    2.464292   3.857913   1.769439   0.000000
    10  H    3.368672   4.644936   1.762919   1.779572   0.000000
    11  H    2.702764   4.109507   2.373766   2.538218   3.044676
    12  H    3.373316   4.640847   2.519249   3.070038   2.464198
    13  H    3.400114   3.896787   4.878160   4.704430   4.430156
    14  H    2.690997   2.547197   5.510633   4.768822   4.934366
    15  H    3.486461   4.352242   4.459396   4.460290   4.930433
    16  H    4.131403   4.423537   5.993334   5.755903   6.101829
    17  H    2.946237   3.257395   5.342999   4.731469   5.541800
    18  H    1.098129   2.119680   3.445176   1.823176   2.816860
    19  H    1.097506   2.151758   3.800800   2.578943   3.868227
    20  H    2.174019   1.094107   5.654112   4.259629   4.674344
    21  H    2.157102   1.094936   5.748513   4.130981   5.162927
    22  H    2.184023   1.094079   5.921436   4.640049   5.430708
                   11         12         13         14         15
    11  H    0.000000
    12  H    1.759083   0.000000
    13  H    3.144318   2.570808   0.000000
    14  H    3.712097   3.715981   1.720491   0.000000
    15  H    2.103877   2.974619   2.579818   3.072153   0.000000
    16  H    3.676204   4.115593   2.401204   2.495076   1.764351
    17  H    3.083393   4.118268   3.060675   2.468647   1.775976
    18  H    3.110433   3.622474   4.180186   3.632572   4.368850
    19  H    2.464764   3.672274   3.865592   3.225262   3.148185
    20  H    4.668421   4.810768   3.908248   2.593830   4.966230
    21  H    4.785931   5.495938   4.973310   3.614427   5.162029
    22  H    4.336130   4.963225   3.740356   2.162067   4.037735
                   16         17         18         19         20
    16  H    0.000000
    17  H    1.765322   0.000000
    18  H    5.175511   4.005987   0.000000
    19  H    4.015530   2.534806   1.758857   0.000000
    20  H    4.881587   4.031309   2.511542   3.070794   0.000000
    21  H    5.319564   3.948858   2.391987   2.498075   1.769391
    22  H    3.761215   2.641720   3.050290   2.491107   1.778197
                   21         22
    21  H    0.000000
    22  H    1.762824   0.000000
 Stoichiometry    C6H15N
 Framework group  C1[X(C6H15N)]
 Deg. of freedom    60
 Full point group                 C1      NOp   1
 Largest Abelian subgroup         C1      NOp   1
 Largest concise Abelian subgroup C1      NOp   1
                         Standard orientation:                         
 ---------------------------------------------------------------------
 Center     Atomic      Atomic             Coordinates (Angstroms)
 Number     Number       Type             X           Y           Z
 ---------------------------------------------------------------------
      1          6           0       -2.576620    0.092073   -0.104581
      2          6           0       -1.327724   -0.766720    0.069608
      3          7           0       -0.130771   -0.032641    0.521060
      4          6           0        1.068305   -0.870668    0.668466
      5          6           0        1.542632   -1.597972   -0.584830
      6          6           0        0.065819    1.154080   -0.330614
      7          6           0        1.288246    1.993783    0.024829
      8          1           0       -3.351542   -0.480091   -0.625737
      9          1           0       -2.365212    0.987168   -0.697987
     10          1           0       -2.993878    0.399444    0.859651
     11          1           0       -1.110560   -1.208942   -0.911297
     12          1           0       -1.558422   -1.600159    0.744221
     13          1           0        0.909120   -1.607005    1.465502
     14          1           0        1.892793   -0.257410    1.051896
     15          1           0        0.745644   -2.190620   -1.042113
     16          1           0        2.355903   -2.284524   -0.327141
     17          1           0        1.928085   -0.897611   -1.332033
     18          1           0       -0.808793    1.809347   -0.223067
     19          1           0        0.116405    0.874286   -1.390649
     20          1           0        1.286418    2.264330    1.084957
     21          1           0        1.282740    2.920539   -0.558248
     22          1           0        2.222746    1.472271   -0.202644
 ---------------------------------------------------------------------
 Rotational constants (GHZ):           2.8522323           2.0724778           1.3811811
 Standard basis: 6-31G(d) (6D, 7F)
 There are   135 symmetry adapted cartesian basis functions of A   symmetry.
 There are   135 symmetry adapted basis functions of A   symmetry.
   135 basis functions,   256 primitive gaussians,   135 cartesian basis functions
    29 alpha electrons       29 beta electrons
       nuclear repulsion energy       339.5083003247 Hartrees.
 NAtoms=   22 NActive=   22 NUniq=   22 SFac= 1.00D+00 NAtFMM=   60 NAOKFM=F Big=F
 Integral buffers will be    131072 words long.
 Raffenetti 2 integral format.
 Two-electron integral symmetry is turned on.
 One-electron integrals computed using PRISM.
 NBasis=   135 RedAO= T EigKep=  4.11D-03  NBF=   135
 NBsUse=   135 1.00D-06 EigRej= -1.00D+00 NBFU=   135
 ExpMin= 1.61D-01 ExpMax= 4.17D+03 ExpMxC= 6.27D+02 IAcc=3 IRadAn=         5 AccDes= 0.00D+00
 Harris functional with IExCor=  402 and IRadAn=       5 diagonalized for initial guess.
 HarFok:  IExCor=  402 AccDes= 0.00D+00 IRadAn=         5 IDoV= 1 UseB2=F ITyADJ=14
 ICtDFT=  3500011 ScaDFX=  1.000000  1.000000  1.000000  1.000000
 FoFCou: FMM=F IPFlag=           0 FMFlag=      100000 FMFlg1=           0
         NFxFlg=           0 DoJE=T BraDBF=F KetDBF=T FulRan=T
         wScrn=  0.000000 ICntrl=       500 IOpCl=  0 I1Cent=   200000004 NGrid=           0
         NMat0=    1 NMatS0=      1 NMatT0=    0 NMatD0=    1 NMtDS0=    0 NMtDT0=    0
 Petite list used in FoFCou.
 Keep R1 ints in memory in canonical form, NReq=45019892.
 Gradient too large for Newton-Raphson -- use scaled steepest descent instead.
     Accept linear search using points  2 and  3.
 Gradient too large for Newton-Raphson -- use scaled steepest descent instead.
     Minimum is close to point  3 DX=  6.60D-02 DF= -9.98D-05 DXR=  8.61D-02 DFR=  7.51D-03 which will be used.
 Gradient too large for Newton-Raphson -- use scaled steepest descent instead.
 Gradient too large for Newton-Raphson -- use scaled steepest descent instead.
     Accept linear search using points  1 and  2.
 LinEq1:  Iter=  0 NonCon=     1 RMS=5.36D-05 Max=3.53D-04 NDo=     1
 AX will form     1 AO Fock derivatives at one time.
 LinEq1:  Iter=  1 NonCon=     1 RMS=2.34D-05 Max=1.84D-04 NDo=     1
 LinEq1:  Iter=  2 NonCon=     1 RMS=5.99D-06 Max=8.00D-05 NDo=     1
 LinEq1:  Iter=  3 NonCon=     1 RMS=3.62D-06 Max=3.87D-05 NDo=     1
 LinEq1:  Iter=  4 NonCon=     1 RMS=8.17D-07 Max=1.10D-05 NDo=     1
 LinEq1:  Iter=  5 NonCon=     1 RMS=3.58D-07 Max=5.56D-06 NDo=     1
 LinEq1:  Iter=  6 NonCon=     1 RMS=1.52D-07 Max=2.69D-06 NDo=     1
 LinEq1:  Iter=  7 NonCon=     1 RMS=4.88D-08 Max=4.34D-07 NDo=     1
 LinEq1:  Iter=  8 NonCon=     1 RMS=1.26D-08 Max=1.35D-07 NDo=     1
 LinEq1:  Iter=  9 NonCon=     0 RMS=7.33D-09 Max=6.98D-08 NDo=     1
 Linear equations converged to 7.841D-09 7.841D-08 after     9 iterations.
     Minimum is close to point  2 DX=  1.33D-04 DF= -3.98D-13 DXR=  1.33D-04 DFR=  1.64D-08 which will be used.
 LinEq1:  Iter=  0 NonCon=     1 RMS=3.23D-08 Max=3.31D-07 NDo=     1
 LinEq1:  Iter=  1 NonCon=     1 RMS=1.27D-08 Max=1.41D-07 NDo=     1
 LinEq1:  Iter=  2 NonCon=     1 RMS=6.64D-09 Max=5.46D-08 NDo=     1
 LinEq1:  Iter=  3 NonCon=     1 RMS=1.64D-09 Max=2.06D-08 NDo=     1
 LinEq1:  Iter=  4 NonCon=     1 RMS=5.94D-10 Max=6.02D-09 NDo=     1
 LinEq1:  Iter=  5 NonCon=     1 RMS=2.21D-10 Max=2.11D-09 NDo=     1
 LinEq1:  Iter=  6 NonCon=     1 RMS=7.53D-11 Max=9.50D-10 NDo=     1
 LinEq1:  Iter=  7 NonCon=     1 RMS=2.31D-11 Max=2.65D-10 NDo=     1
 LinEq1:  Iter=  8 NonCon=     0 RMS=1.16D-11 Max=1.18D-10 NDo=     1
 Linear equations converged to 1.922D-11 1.922D-10 after     8 iterations.
 SCF Done:  E(RB3LYP) =  -292.406106541     a.u. after    7 cycles
            Convg  =    0.2923D-10                    32 Fock formations.
              S**2 =  0.0000                  -V/T =  2.0099
 DoSCS=F DFT=T ScalE2(SS,OS)=  1.000000  1.000000
 Range of M.O.s used for correlation:     1   135
 NBasis=   135 NAE=    29 NBE=    29 NFC=     0 NFV=     0
 NROrb=    135 NOA=    29 NOB=    29 NVA=   106 NVB=   106
 Symmetrizing basis deriv contribution to polar:
 IMax=3 JMax=2 DiffMx= 0.00D+00
 G2DrvN: will do    23 centers at a time, making    1 passes.
 Calling FoFCou, ICntrl=  3107 FMM=F I1Cent=   0 AccDes= 0.00D+00.
 End of G2Drv F.D. properties file   721 does not exist.
 End of G2Drv F.D. properties file   722 does not exist.
 End of G2Drv F.D. properties file   788 does not exist.
          IDoAtm=1111111111111111111111
          Differentiating once with respect to electric field.
                with respect to dipole field.
          Differentiating once with respect to nuclear coordinates.
 Keep R1 ints in memory in canonical form, NReq=45034167.
          There are    69 degrees of freedom in the 1st order CPHF.  IDoFFX=6 NUNeed=     3.
     66 vectors produced by pass  0 Test12= 4.46D-15 1.45D-09 XBig12= 4.33D+01 1.62D+00.
 AX will form    66 AO Fock derivatives at one time.
     66 vectors produced by pass  1 Test12= 4.46D-15 1.45D-09 XBig12= 2.16D+00 2.44D-01.
     66 vectors produced by pass  2 Test12= 4.46D-15 1.45D-09 XBig12= 1.19D-02 1.62D-02.
     66 vectors produced by pass  3 Test12= 4.46D-15 1.45D-09 XBig12= 1.55D-05 4.62D-04.
     66 vectors produced by pass  4 Test12= 4.46D-15 1.45D-09 XBig12= 1.02D-08 1.05D-05.
     22 vectors produced by pass  5 Test12= 4.46D-15 1.45D-09 XBig12= 4.92D-12 2.47D-07.
      3 vectors produced by pass  6 Test12= 4.46D-15 1.45D-09 XBig12= 2.55D-15 7.91D-09.
 InvSVY:  IOpt=1 It=  1 EMax= 8.88D-16
 Solved reduced A of dimension   355 with    69 vectors.
 Isotropic polarizability for W=    0.000000       71.86 Bohr**3.
 End of Minotr F.D. properties file   721 does not exist.
 End of Minotr F.D. properties file   722 does not exist.
 End of Minotr F.D. properties file   788 does not exist.

 **********************************************************************

            Population analysis using the SCF density.

 **********************************************************************

 Orbital symmetries:
       Occupied  (A) (A) (A) (A) (A) (A) (A) (A) (A) (A) (A) (A)
                 (A) (A) (A) (A) (A) (A) (A) (A) (A) (A) (A) (A)
                 (A) (A) (A) (A) (A)
       Virtual   (A) (A) (A) (A) (A) (A) (A) (A) (A) (A) (A) (A)
                 (A) (A) (A) (A) (A) (A) (A) (A) (A) (A) (A) (A)
                 (A) (A) (A) (A) (A) (A) (A) (A) (A) (A) (A) (A)
                 (A) (A) (A) (A) (A) (A) (A) (A) (A) (A) (A) (A)
                 (A) (A) (A) (A) (A) (A) (A) (A) (A) (A) (A) (A)
                 (A) (A) (A) (A) (A) (A) (A) (A) (A) (A) (A) (A)
                 (A) (A) (A) (A) (A) (A) (A) (A) (A) (A) (A) (A)
                 (A) (A) (A) (A) (A) (A) (A) (A) (A) (A) (A) (A)
                 (A) (A) (A) (A) (A) (A) (A) (A) (A) (A)
 The electronic state is 1-A.
 Alpha  occ. eigenvalues --  -14.31198 -10.19931 -10.19894 -10.19793 -10.17109
 Alpha  occ. eigenvalues --  -10.17037 -10.16767  -0.90586  -0.75615  -0.75033
 Alpha  occ. eigenvalues --   -0.70314  -0.62735  -0.61605  -0.54394  -0.48145
 Alpha  occ. eigenvalues --   -0.46490  -0.45287  -0.43639  -0.41063  -0.39408
 Alpha  occ. eigenvalues --   -0.38662  -0.37087  -0.36039  -0.35429  -0.34947
 Alpha  occ. eigenvalues --   -0.33986  -0.32375  -0.31935  -0.19701
 Alpha virt. eigenvalues --    0.08472   0.10735   0.12093   0.13347   0.14473
 Alpha virt. eigenvalues --    0.15360   0.15601   0.16529   0.17093   0.18150
 Alpha virt. eigenvalues --    0.18687   0.19597   0.20821   0.21643   0.22300
 Alpha virt. eigenvalues --    0.24026   0.24908   0.25844   0.26239   0.28339
 Alpha virt. eigenvalues --    0.29673   0.50144   0.51456   0.52088   0.54133
 Alpha virt. eigenvalues --    0.54728   0.56302   0.59015   0.60300   0.61433
 Alpha virt. eigenvalues --    0.64345   0.67024   0.67852   0.68172   0.70923
 Alpha virt. eigenvalues --    0.74247   0.79833   0.81403   0.84397   0.85964
 Alpha virt. eigenvalues --    0.87747   0.88946   0.89541   0.90024   0.90658
 Alpha virt. eigenvalues --    0.91132   0.91983   0.92290   0.94922   0.96227
 Alpha virt. eigenvalues --    0.98740   0.99687   1.02199   1.02428   1.06901
 Alpha virt. eigenvalues --    1.07621   1.10602   1.13224   1.19642   1.33084
 Alpha virt. eigenvalues --    1.35552   1.40676   1.42883   1.54555   1.58141
 Alpha virt. eigenvalues --    1.61531   1.64039   1.68356   1.72630   1.75389
 Alpha virt. eigenvalues --    1.86614   1.89295   1.91144   1.97585   1.98844
 Alpha virt. eigenvalues --    1.99082   1.99674   2.00831   2.04011   2.07705
 Alpha virt. eigenvalues --    2.14206   2.16651   2.17919   2.22149   2.29804
 Alpha virt. eigenvalues --    2.31341   2.32930   2.33899   2.34935   2.36131
 Alpha virt. eigenvalues --    2.37060   2.43897   2.50509   2.57710   2.61435
 Alpha virt. eigenvalues --    2.69916   2.79517   2.85174   2.87324   4.03264
 Alpha virt. eigenvalues --    4.20686   4.21458   4.23671   4.41174   4.43877
 Alpha virt. eigenvalues --    4.51986
          Condensed to atoms (all electrons):
               1          2          3          4          5          6
     1  C    5.109907   0.376317  -0.043328   0.004489   0.000148  -0.010718
     2  C    0.376317   4.882767   0.321569  -0.048849  -0.010802  -0.050602
     3  N   -0.043328   0.321569   6.810245   0.353926  -0.061938   0.326145
     4  C    0.004489  -0.048849   0.353926   4.879487   0.339650  -0.055506
     5  C    0.000148  -0.010802  -0.061938   0.339650   5.183568  -0.004206
     6  C   -0.010718  -0.050602   0.326145  -0.055506  -0.004206   4.899217
     7  C    0.000767   0.005724  -0.049120  -0.003568  -0.002816   0.371278
     8  H    0.365454  -0.028449   0.003283  -0.000108   0.000013   0.000329
     9  H    0.378658  -0.035841  -0.006623   0.000124  -0.000041   0.002104
    10  H    0.369115  -0.031045   0.002985  -0.000029   0.000013  -0.001003
    11  H   -0.053593   0.352606  -0.059312  -0.008133   0.008057  -0.012304
    12  H   -0.032590   0.377895  -0.039930  -0.001611  -0.001739   0.005974
    13  H    0.000045  -0.003151  -0.040707   0.382071  -0.057090   0.006709
    14  H   -0.000179   0.005512  -0.036922   0.382887  -0.054083  -0.009741
    15  H   -0.000170   0.002498  -0.004761  -0.034300   0.378857  -0.000669
    16  H   -0.000001   0.000352   0.004182  -0.022902   0.357051   0.000041
    17  H   -0.000017  -0.000262  -0.002577  -0.034070   0.377163   0.003242
    18  H   -0.002445  -0.006658  -0.042652   0.005168  -0.000331   0.387730
    19  H   -0.001714  -0.008455  -0.056798  -0.006672   0.007913   0.345930
    20  H   -0.000045   0.000045   0.003642  -0.001486   0.000459  -0.030905
    21  H    0.000008  -0.000153   0.003362   0.000308   0.000030  -0.027661
    22  H   -0.000012  -0.000105  -0.003768   0.001062  -0.000176  -0.032084
               7          8          9         10         11         12
     1  C    0.000767   0.365454   0.378658   0.369115  -0.053593  -0.032590
     2  C    0.005724  -0.028449  -0.035841  -0.031045   0.352606   0.377895
     3  N   -0.049120   0.003283  -0.006623   0.002985  -0.059312  -0.039930
     4  C   -0.003568  -0.000108   0.000124  -0.000029  -0.008133  -0.001611
     5  C   -0.002816   0.000013  -0.000041   0.000013   0.008057  -0.001739
     6  C    0.371278   0.000329   0.002104  -0.001003  -0.012304   0.005974
     7  C    5.106581  -0.000013  -0.000118  -0.000088  -0.000285  -0.000167
     8  H   -0.000013   0.578295  -0.027508  -0.030244  -0.002275  -0.000885
     9  H   -0.000118  -0.027508   0.564398  -0.032200  -0.004168   0.005008
    10  H   -0.000088  -0.030244  -0.032200   0.570954   0.006796  -0.007403
    11  H   -0.000285  -0.002275  -0.004168   0.006796   0.696069  -0.052793
    12  H   -0.000167  -0.000885   0.005008  -0.007403  -0.052793   0.607541
    13  H    0.000109  -0.000008   0.000005  -0.000030  -0.001558   0.005636
    14  H    0.006380   0.000003   0.000003  -0.000004  -0.000420   0.000079
    15  H    0.000105   0.000015   0.000012   0.000001   0.003990   0.000421
    16  H    0.000016  -0.000000   0.000000   0.000000  -0.000486   0.000011
    17  H    0.000103  -0.000001  -0.000001   0.000000   0.000168   0.000058
    18  H   -0.030710   0.000007   0.002646   0.000207  -0.001636   0.000083
    19  H   -0.050013   0.000065   0.000648   0.000438   0.017959  -0.000480
    20  H    0.367697   0.000000   0.000019   0.000020   0.000049  -0.000006
    21  H    0.367147  -0.000000   0.000038   0.000001   0.000013   0.000003
    22  H    0.375933   0.000001  -0.000004   0.000000  -0.000026  -0.000001
              13         14         15         16         17         18
     1  C    0.000045  -0.000179  -0.000170  -0.000001  -0.000017  -0.002445
     2  C   -0.003151   0.005512   0.002498   0.000352  -0.000262  -0.006658
     3  N   -0.040707  -0.036922  -0.004761   0.004182  -0.002577  -0.042652
     4  C    0.382071   0.382887  -0.034300  -0.022902  -0.034070   0.005168
     5  C   -0.057090  -0.054083   0.378857   0.357051   0.377163  -0.000331
     6  C    0.006709  -0.009741  -0.000669   0.000041   0.003242   0.387730
     7  C    0.000109   0.006380   0.000105   0.000016   0.000103  -0.030710
     8  H   -0.000008   0.000003   0.000015  -0.000000  -0.000001   0.000007
     9  H    0.000005   0.000003   0.000012   0.000000  -0.000001   0.002646
    10  H   -0.000030  -0.000004   0.000001   0.000000   0.000000   0.000207
    11  H   -0.001558  -0.000420   0.003990  -0.000486   0.000168  -0.001636
    12  H    0.005636   0.000079   0.000421   0.000011   0.000058   0.000083
    13  H    0.609470  -0.036150  -0.003428  -0.002061   0.005399  -0.000120
    14  H   -0.036150   0.599223   0.005026   0.000503  -0.006673   0.000205
    15  H   -0.003428   0.005026   0.561890  -0.029271  -0.032077  -0.000020
    16  H   -0.002061   0.000503  -0.029271   0.583119  -0.030269   0.000005
    17  H    0.005399  -0.006673  -0.032077  -0.030269   0.571260  -0.000005
    18  H   -0.000120   0.000205  -0.000020   0.000005  -0.000005   0.605732
    19  H   -0.000428  -0.000873   0.000075  -0.000242   0.000223  -0.058281
    20  H   -0.000151  -0.000071  -0.000004  -0.000008  -0.000028  -0.006191
    21  H   -0.000008  -0.000009   0.000003  -0.000001  -0.000073  -0.004204
    22  H    0.000057   0.000965  -0.000045  -0.000009   0.002194   0.005237
              19         20         21         22
     1  C   -0.001714  -0.000045   0.000008  -0.000012
     2  C   -0.008455   0.000045  -0.000153  -0.000105
     3  N   -0.056798   0.003642   0.003362  -0.003768
     4  C   -0.006672  -0.001486   0.000308   0.001062
     5  C    0.007913   0.000459   0.000030  -0.000176
     6  C    0.345930  -0.030905  -0.027661  -0.032084
     7  C   -0.050013   0.367697   0.367147   0.375933
     8  H    0.000065   0.000000  -0.000000   0.000001
     9  H    0.000648   0.000019   0.000038  -0.000004
    10  H    0.000438   0.000020   0.000001   0.000000
    11  H    0.017959   0.000049   0.000013  -0.000026
    12  H   -0.000480  -0.000006   0.000003  -0.000001
    13  H   -0.000428  -0.000151  -0.000008   0.000057
    14  H   -0.000873  -0.000071  -0.000009   0.000965
    15  H    0.000075  -0.000004   0.000003  -0.000045
    16  H   -0.000242  -0.000008  -0.000001  -0.000009
    17  H    0.000223  -0.000028  -0.000073   0.002194
    18  H   -0.058281  -0.006191  -0.004204   0.005237
    19  H    0.701045   0.006783   0.000497  -0.007084
    20  H    0.006783   0.565033  -0.027968  -0.033101
    21  H    0.000497  -0.027968   0.577009  -0.030911
    22  H   -0.007084  -0.033101  -0.030911   0.574944
 Mulliken charges:
               1
     1  C   -0.460098
     2  C   -0.100911
     3  N   -0.380902
     4  C   -0.131938
     5  C   -0.459699
     6  C   -0.113298
     7  C   -0.464941
     8  H    0.142028
     9  H    0.152841
    10  H    0.151517
    11  H    0.111283
    12  H    0.134898
    13  H    0.135391
    14  H    0.144341
    15  H    0.151852
    16  H    0.139971
    17  H    0.146244
    18  H    0.146233
    19  H    0.109465
    20  H    0.156217
    21  H    0.142571
    22  H    0.146934
 Sum of Mulliken charges =   0.00000
 Mulliken charges with hydrogens summed into heavy atoms:
               1
     1  C   -0.013712
     2  C    0.145270
     3  N   -0.380902
     4  C    0.147794
     5  C   -0.021631
     6  C    0.142401
     7  C   -0.019219
 APT charges:
               1
     1  C    0.055793
     2  C    0.383355
     3  N   -0.639717
     4  C    0.398979
     5  C   -0.010769
     6  C    0.358303
     7  C    0.067681
     8  H   -0.029195
     9  H   -0.003378
    10  H   -0.026256
    11  H   -0.107434
    12  H   -0.056990
    13  H   -0.063565
    14  H   -0.047099
    15  H   -0.009510
    16  H   -0.029574
    17  H   -0.020713
    18  H   -0.042664
    19  H   -0.108661
    20  H   -0.012979
    21  H   -0.027094
    22  H   -0.028514
 Sum of APT charges =   0.00000
 APT charges with hydrogens summed into heavy atoms:
               1
     1  C   -0.003035
     2  C    0.218932
     3  N   -0.639717
     4  C    0.288315
     5  C   -0.070566
     6  C    0.206978
     7  C   -0.000906
 Electronic spatial extent (au):  <R**2>=            991.4835
 Charge=              0.0000 electrons
 Dipole moment (field-independent basis, Debye):
    X=              0.1289    Y=             -0.1576    Z=             -0.5755  Tot=              0.6104
 Quadrupole moment (field-independent basis, Debye-Ang):
   XX=            -45.9679   YY=            -45.9176   ZZ=            -48.6850
   XY=              0.1856   XZ=              0.6360   YZ=             -1.0839
 Traceless Quadrupole moment (field-independent basis, Debye-Ang):
   XX=              0.8889   YY=              0.9393   ZZ=             -1.8282
   XY=              0.1856   XZ=              0.6360   YZ=             -1.0839
 Octapole moment (field-independent basis, Debye-Ang**2):
  XXX=             -0.2811  YYY=              1.3915  ZZZ=              0.9436  XYY=             -1.1677
  XXY=             -1.8710  XXZ=              1.8286  XZZ=              0.2267  YZZ=             -0.2436
  YYZ=              1.3632  XYZ=             -0.6483
 Hexadecapole moment (field-independent basis, Debye-Ang**3):
 XXXX=           -708.6079 YYYY=           -505.0019 ZZZZ=           -147.3337 XXXY=              1.3758
 XXXZ=              0.8096 YYYX=             -1.3929 YYYZ=             -5.6208 ZZZX=              0.6010
 ZZZY=             -1.3422 XXYY=           -203.2455 XXZZ=           -140.9754 YYZZ=           -107.1799
 XXYZ=             -1.3215 YYXZ=              1.7233 ZZXY=              1.7217
 N-N= 3.395083003247D+02 E-N=-1.355197113525D+03  KE= 2.895399176133D+02
  Exact polarizability:  78.737   0.257  74.419   0.888  -1.740  62.413
 Approx polarizability:  97.373   0.428  96.727   1.345  -2.681  91.920
 Calling FoFJK, ICntrl=    100127 FMM=F ISym2X=0 I1Cent= 0 IOpClX= 0 NMat=1 NMatS=1 NMatT=0.
 ***** Axes restored to original set *****
 -------------------------------------------------------------------
 Center     Atomic                   Forces (Hartrees/Bohr)
 Number     Number              X              Y              Z
 -------------------------------------------------------------------
      1        6          -0.002467728   -0.000054197   -0.005412673
      2        6           0.004731576    0.000587668    0.008978183
      3        7           0.002065341    0.003545307   -0.012424416
      4        6          -0.002913848    0.000933693   -0.002985156
      5        6           0.000286322   -0.000084435    0.006649258
      6        6          -0.002407192    0.008515720   -0.002114018
      7        6           0.000326121    0.001034356    0.002571138
      8        1          -0.000787704   -0.000223936    0.000921027
      9        1          -0.003589430   -0.005423991   -0.002824178
     10        1           0.001745844    0.002527846   -0.000970607
     11        1          -0.001005061   -0.007095162    0.003059508
     12        1          -0.000629404    0.005273960    0.001501949
     13        1          -0.001673218   -0.005214586   -0.005294113
     14        1           0.002050064   -0.001556379   -0.003158510
     15        1           0.000241636   -0.000567262    0.001285800
     16        1           0.000131878    0.000214930    0.001525873
     17        1           0.001404488   -0.001916544    0.000692289
     18        1          -0.002183177    0.002163933    0.004555301
     19        1           0.004658771   -0.004639183    0.003429431
     20        1          -0.001243795    0.000537046   -0.000043006
     21        1           0.000594095   -0.000561280   -0.000156588
     22        1           0.000664421    0.002002496    0.000213509
 -------------------------------------------------------------------
 Cartesian Forces:  Max     0.012424416 RMS     0.003468072
 FormGI is forming the generalized inverse of G from B-inverse, IUseBI=4.

 GradGradGradGradGradGradGradGradGradGradGradGradGradGradGradGradGradGrad
 Berny optimization.
 Internal  Forces:  Max     0.020542664 RMS     0.004596517
 Search for a local minimum.
 Step number   1 out of a maximum of  115
 All quantities printed in internal units (Hartrees-Bohrs-Radians)
 Mixed Optimization -- RFO/linear search
 Second derivative matrix not updated -- analytic derivatives used.
 ITU=  0
     Eigenvalues ---   -0.00328   0.00173   0.00187   0.00319   0.00422
     Eigenvalues ---    0.00676   0.02322   0.04339   0.04432   0.04589
     Eigenvalues ---    0.04645   0.04675   0.04741   0.04775   0.04824
     Eigenvalues ---    0.04870   0.04930   0.05197   0.05373   0.08557
     Eigenvalues ---    0.08749   0.09131   0.11632   0.11741   0.11911
     Eigenvalues ---    0.12689   0.12744   0.12828   0.14092   0.14317
     Eigenvalues ---    0.14850   0.16506   0.16595   0.16771   0.18646
     Eigenvalues ---    0.21050   0.25084   0.25822   0.27936   0.28872
     Eigenvalues ---    0.29685   0.30109   0.31960   0.32429   0.32575
     Eigenvalues ---    0.33184   0.33628   0.33692   0.33932   0.33966
     Eigenvalues ---    0.34078   0.34122   0.34199   0.34279   0.34936
     Eigenvalues ---    0.35033   0.35125   0.38316   0.39338   0.60492
 RFO step:  Lambda=-1.10305440D-02 EMin=-3.27956791D-03
 Linear search not attempted -- first point.
 Iteration  1 RMS(Cart)=  0.13002733 RMS(Int)=  0.03378595
 Iteration  2 RMS(Cart)=  0.08463800 RMS(Int)=  0.00324627
 Iteration  3 RMS(Cart)=  0.00536086 RMS(Int)=  0.00059781
 Iteration  4 RMS(Cart)=  0.00001273 RMS(Int)=  0.00059777
 Iteration  5 RMS(Cart)=  0.00000001 RMS(Int)=  0.00059777
 Variable       Old X    -DE/DX   Delta X   Delta X   Delta X     New X
                                 (Linear)    (Quad)   (Total)
    R1        2.88306   0.00627   0.00000   0.01218   0.01218   2.89524
    R2        2.06964   0.00032   0.00000   0.00120   0.00120   2.07085
    R3        2.06838  -0.00412   0.00000  -0.00155  -0.00155   2.06683
    R4        2.06865   0.00113   0.00000   0.00038   0.00038   2.06903
    R5        2.78719   0.00357   0.00000  -0.02387  -0.02387   2.76332
    R6        2.07431   0.00623   0.00000   0.01950   0.01950   2.09381
    R7        2.07263   0.00023   0.00000   0.00114   0.00114   2.07377
    R8        2.77848  -0.00387   0.00000  -0.00360  -0.00360   2.77487
    R9        2.78522   0.00039   0.00000  -0.00503  -0.00503   2.78019
   R10        2.88126   0.01009   0.00000   0.02727   0.02727   2.90854
   R11        2.07250   0.00164   0.00000   0.00278   0.00278   2.07529
   R12        2.07258  -0.00123   0.00000  -0.00363  -0.00363   2.06894
   R13        2.06623   0.00038   0.00000   0.00317   0.00317   2.06940
   R14        2.06937   0.00119   0.00000   0.00243   0.00243   2.07180
   R15        2.06784   0.00139   0.00000   0.00346   0.00346   2.07130
   R16        2.88192   0.00339   0.00000   0.00865   0.00865   2.89057
   R17        2.07516  -0.00533   0.00000  -0.01144  -0.01144   2.06373
   R18        2.07398   0.00721   0.00000   0.02051   0.02051   2.09450
   R19        2.06756   0.00095   0.00000   0.00285   0.00285   2.07041
   R20        2.06913   0.00061   0.00000   0.00151   0.00151   2.07064
   R21        2.06751   0.00060   0.00000   0.00128   0.00128   2.06879
    A1        1.91714  -0.00304   0.00000   0.00625   0.00618   1.92332
    A2        1.94348   0.00722   0.00000   0.02704   0.02703   1.97051
    A3        1.94928  -0.00051   0.00000  -0.02290  -0.02279   1.92649
    A4        1.88169  -0.00267   0.00000  -0.01048  -0.01066   1.87103
    A5        1.87144   0.00150   0.00000   0.01912   0.01919   1.89063
    A6        1.89816  -0.00280   0.00000  -0.01916  -0.01901   1.87915
    A7        2.00326   0.01486   0.00000  -0.02994  -0.03244   1.97082
    A8        1.86158  -0.00302   0.00000   0.05885   0.05827   1.91985
    A9        1.90264  -0.00391   0.00000  -0.01990  -0.02342   1.87922
   A10        1.88965   0.00202   0.00000   0.06502   0.06501   1.95467
   A11        1.93974  -0.01171   0.00000  -0.06656  -0.06879   1.87095
   A12        1.85993   0.00137   0.00000   0.00133   0.00291   1.86284
   A13        1.99198  -0.01351   0.00000  -0.04360  -0.04348   1.94850
   A14        1.90934   0.02054   0.00000   0.03060   0.03028   1.93962
   A15        1.99114  -0.00597   0.00000  -0.00585  -0.00562   1.98553
   A16        2.02994   0.01007   0.00000   0.02177   0.02188   2.05182
   A17        1.91470  -0.00712   0.00000  -0.04747  -0.04749   1.86721
   A18        1.90649  -0.00524   0.00000  -0.01925  -0.01937   1.88712
   A19        1.89892   0.00004   0.00000   0.00595   0.00603   1.90495
   A20        1.89677  -0.00179   0.00000   0.00404   0.00407   1.90084
   A21        1.80334   0.00335   0.00000   0.03758   0.03715   1.84050
   A22        1.95581   0.00129   0.00000  -0.00106  -0.00106   1.95475
   A23        1.91418   0.00074   0.00000   0.00197   0.00196   1.91614
   A24        1.94504   0.00152   0.00000   0.00867   0.00866   1.95370
   A25        1.87541  -0.00099   0.00000   0.00167   0.00167   1.87708
   A26        1.89451  -0.00186   0.00000  -0.01163  -0.01162   1.88290
   A27        1.87586  -0.00089   0.00000   0.00011   0.00008   1.87593
   A28        1.99937  -0.00188   0.00000  -0.00420  -0.00420   1.99517
   A29        1.89402  -0.00040   0.00000  -0.00868  -0.00866   1.88536
   A30        1.93799   0.00232   0.00000   0.00652   0.00652   1.94451
   A31        1.86192   0.00067   0.00000   0.01140   0.01139   1.87331
   A32        1.90555  -0.00057   0.00000   0.00605   0.00603   1.91158
   A33        1.85816  -0.00009   0.00000  -0.01183  -0.01185   1.84631
   A34        1.93976  -0.00100   0.00000  -0.00870  -0.00869   1.93106
   A35        1.91547  -0.00110   0.00000  -0.00334  -0.00336   1.91211
   A36        1.95383   0.00315   0.00000   0.01477   0.01478   1.96862
   A37        1.88250   0.00084   0.00000   0.00534   0.00532   1.88782
   A38        1.89732  -0.00121   0.00000  -0.00721  -0.00718   1.89014
   A39        1.87238  -0.00074   0.00000  -0.00087  -0.00088   1.87149
    D1        2.94521   0.00695   0.00000   0.06508   0.06486   3.01007
    D2        0.85250  -0.00254   0.00000  -0.03999  -0.04007   0.81242
    D3       -1.14945  -0.00067   0.00000  -0.06225  -0.06175  -1.21120
    D4        0.86200   0.00768   0.00000   0.05693   0.05655   0.91855
    D5       -1.23072  -0.00182   0.00000  -0.04814  -0.04838  -1.27910
    D6        3.05052   0.00006   0.00000  -0.07041  -0.07006   2.98047
    D7       -1.26388   0.00651   0.00000   0.07856   0.07830  -1.18558
    D8        2.92660  -0.00298   0.00000  -0.02650  -0.02663   2.89996
    D9        0.92465  -0.00111   0.00000  -0.04877  -0.04831   0.87634
   D10       -3.12927  -0.00537   0.00000  -0.39084  -0.38970   2.76422
   D11       -0.87460  -0.00685   0.00000  -0.40811  -0.40725  -1.28185
   D12       -1.05220   0.00164   0.00000  -0.28882  -0.28795  -1.34015
   D13        1.20247   0.00017   0.00000  -0.30609  -0.30550   0.89698
   D14        0.98487  -0.00210   0.00000  -0.28581  -0.28740   0.69747
   D15       -3.04364  -0.00357   0.00000  -0.30308  -0.30495   2.93459
   D16        1.03488   0.00737   0.00000   0.03261   0.03282   1.06770
   D17       -1.12899   0.00558   0.00000   0.04767   0.04805  -1.08095
   D18       -3.09415   0.00815   0.00000   0.03838   0.03840  -3.05575
   D19       -1.17801  -0.00427   0.00000   0.03352   0.03333  -1.14468
   D20        2.94131  -0.00606   0.00000   0.04859   0.04856   2.98986
   D21        0.97615  -0.00349   0.00000   0.03930   0.03891   1.01506
   D22       -3.12927   0.00340   0.00000  -0.04119  -0.04111   3.11280
   D23        1.07578   0.00404   0.00000  -0.04684  -0.04678   1.02900
   D24       -0.96078   0.00307   0.00000  -0.03100  -0.03093  -0.99170
   D25       -0.87414  -0.00221   0.00000  -0.07917  -0.07924  -0.95337
   D26       -2.95227  -0.00158   0.00000  -0.08482  -0.08490  -3.03718
   D27        1.29436  -0.00255   0.00000  -0.06898  -0.06905   1.22531
   D28       -0.93420   0.00001   0.00000  -0.01027  -0.01024  -0.94444
   D29       -3.01546  -0.00006   0.00000  -0.01299  -0.01296  -3.02841
   D30        1.19272  -0.00038   0.00000  -0.01982  -0.01980   1.17291
   D31        1.23777  -0.00197   0.00000  -0.05281  -0.05286   1.18492
   D32       -0.84348  -0.00204   0.00000  -0.05553  -0.05557  -0.89905
   D33       -2.91849  -0.00236   0.00000  -0.06236  -0.06242  -2.98091
   D34       -3.09339   0.00107   0.00000  -0.00387  -0.00386  -3.09725
   D35        1.10854   0.00100   0.00000  -0.00659  -0.00657   1.10197
   D36       -0.96647   0.00068   0.00000  -0.01342  -0.01342  -0.97989
   D37       -0.92451   0.00084   0.00000   0.01570   0.01572  -0.90879
   D38       -3.00530   0.00113   0.00000   0.01668   0.01668  -2.98862
   D39        1.20084   0.00078   0.00000   0.01061   0.01060   1.21144
   D40        1.17157  -0.00035   0.00000   0.01021   0.01022   1.18178
   D41       -0.90922  -0.00005   0.00000   0.01119   0.01117  -0.89805
   D42       -2.98627  -0.00040   0.00000   0.00512   0.00509  -2.98118
   D43       -3.11014  -0.00038   0.00000   0.00531   0.00533  -3.10481
   D44        1.09226  -0.00009   0.00000   0.00628   0.00629   1.09855
   D45       -0.98479  -0.00043   0.00000   0.00021   0.00020  -0.98459
         Item               Value     Threshold  Converged?
 Maximum Force            0.020543     0.000450     NO 
 RMS     Force            0.004597     0.000300     NO 
 Maximum Displacement     0.764781     0.001800     NO 
 RMS     Displacement     0.206937     0.001200     NO 
 Predicted change in Energy=-8.794970D-03
 GradGradGradGradGradGradGradGradGradGradGradGradGradGradGradGradGradGrad

                          Input orientation:                          
 ---------------------------------------------------------------------
 Center     Atomic      Atomic             Coordinates (Angstroms)
 Number     Number       Type             X           Y           Z
 ---------------------------------------------------------------------
      1          6           0        2.920551   -0.481405   -1.382527
      2          6           0        2.682799   -0.046444    0.067163
      3          7           0        3.080727    1.337957    0.318898
      4          6           0        2.405842    1.889010    1.500875
      5          6           0        2.662957    1.200691    2.853293
      6          6           0        4.545483    1.470227    0.357109
      7          6           0        5.043251    2.899760    0.577149
      8          1           0        2.735156   -1.556056   -1.490364
      9          1           0        3.943664   -0.294128   -1.720749
     10          1           0        2.244365    0.053959   -2.057010
     11          1           0        3.178858   -0.753526    0.761152
     12          1           0        1.605219   -0.115051    0.263080
     13          1           0        1.328209    1.876942    1.289704
     14          1           0        2.674914    2.946979    1.584372
     15          1           0        2.451941    0.126865    2.813717
     16          1           0        2.013532    1.637116    3.621251
     17          1           0        3.699175    1.327985    3.187135
     18          1           0        4.940427    1.132416   -0.603378
     19          1           0        4.992462    0.800911    1.119138
     20          1           0        4.583116    3.584260   -0.144033
     21          1           0        6.129405    2.935574    0.437072
     22          1           0        4.833926    3.271260    1.585444
 ---------------------------------------------------------------------
                    Distance matrix (angstroms):
                    1          2          3          4          5
     1  C    0.000000
     2  C    1.532096   0.000000
     3  N    2.496113   1.462287   0.000000
     4  C    3.767997   2.424503   1.468400   0.000000
     5  C    4.564863   3.052582   2.572262   1.539131   0.000000
     6  C    3.078247   2.419494   1.471212   2.462040   3.138071
     7  C    4.447298   3.809454   2.521394   2.971668   3.705870
     8  H    1.095844   2.169691   3.430475   4.574323   5.145116
     9  H    1.093722   2.201763   2.751095   4.184477   4.979614
    10  H    1.094883   2.171271   2.827205   4.006499   5.059772
    11  H    2.176266   1.107998   2.139981   2.850919   2.908982
    12  H    2.138302   1.097392   2.071586   2.487850   3.091794
    13  H    3.903610   2.651214   2.074677   1.098195   2.164180
    14  H    4.540555   3.355975   2.086879   1.094838   2.158663
    15  H    4.265917   2.761682   2.843631   2.197916   1.095079
    16  H    5.508957   3.989214   3.483380   2.171026   1.096348
    17  H    4.976139   3.557569   2.934172   2.197938   1.096084
    18  H    2.700257   2.633670   2.085983   3.380005   4.140061
    19  H    3.492202   2.675669   2.140919   2.832010   2.931503
    20  H    4.563729   4.103392   2.741780   3.212494   4.283968
    21  H    5.028263   4.572566   3.443949   4.011470   4.567736
    22  H    5.152897   4.235527   2.900950   2.795239   3.256963
                    6          7          8          9         10
     6  C    0.000000
     7  C    1.529626   0.000000
     8  H    3.981058   5.427357   0.000000
     9  H    2.791528   4.085382   1.762393   0.000000
    10  H    3.623386   4.782378   1.775982   1.766877   0.000000
    11  H    2.641210   4.105645   2.431100   2.637386   3.076905
    12  H    3.341721   4.583426   2.535314   3.071802   2.412445
    13  H    3.374314   3.918600   4.636135   4.540592   3.919579
    14  H    2.680672   2.574053   5.452977   4.799826   4.670610
    15  H    3.496063   4.405233   4.630069   4.792061   4.875693
    16  H    4.134398   4.476609   6.070065   5.999340   5.899349
    17  H    2.957282   3.330023   5.579070   5.174780   5.589335
    18  H    1.092077   2.127844   3.588571   2.068110   3.247285
    19  H    1.108360   2.168294   4.178543   3.219324   4.265898
    20  H    2.172947   1.095613   5.625870   4.235190   4.646748
    21  H    2.159270   1.095735   5.950686   4.456975   5.442213
    22  H    2.199029   1.094755   6.096590   4.943225   5.506752
                   11         12         13         14         15
    11  H    0.000000
    12  H    1.769764   0.000000
    13  H    3.259391   2.258037   0.000000
    14  H    3.824316   3.502298   1.745114   0.000000
    15  H    2.348727   2.698372   2.578402   3.084486   0.000000
    16  H    3.905550   3.809741   2.441986   2.510388   1.767816
    17  H    3.238644   3.875191   3.085948   2.497820   1.771362
    18  H    2.919219   3.664769   4.145624   3.634755   4.345139
    19  H    2.415282   3.611819   3.822784   3.192661   3.127328
    20  H    4.648408   4.766395   3.945245   2.652310   5.024319
    21  H    4.734999   5.459381   4.989907   3.640047   5.202022
    22  H    4.429178   4.862129   3.784394   2.183230   4.131553
                   16         17         18         19         20
    16  H    0.000000
    17  H    1.767883   0.000000
    18  H    5.164197   3.993363   0.000000
    19  H    3.979175   2.495398   1.754897   0.000000
    20  H    4.956965   4.119322   2.519963   3.083861   0.000000
    21  H    5.363339   4.006646   2.397412   2.512895   1.774680
    22  H    3.843119   2.762136   3.062179   2.518968   1.775377
                   21         22
    21  H    0.000000
    22  H    1.763437   0.000000
 Stoichiometry    C6H15N
 Framework group  C1[X(C6H15N)]
 Deg. of freedom    60
 Full point group                 C1      NOp   1
 Largest Abelian subgroup         C1      NOp   1
 Largest concise Abelian subgroup C1      NOp   1
                         Standard orientation:                         
 ---------------------------------------------------------------------
 Center     Atomic      Atomic             Coordinates (Angstroms)
 Number     Number       Type             X           Y           Z
 ---------------------------------------------------------------------
      1          6           0       -2.634169    0.202541    0.033571
      2          6           0       -1.356976   -0.626359   -0.136789
      3          7           0       -0.172755    0.032937    0.412059
      4          6           0        0.896224   -0.930144    0.705245
      5          6           0        1.463860   -1.744055   -0.471302
      6          6           0        0.255179    1.151756   -0.442096
      7          6           0        1.467949    1.919599    0.086451
      8          1           0       -3.464277   -0.266079   -0.506976
      9          1           0       -2.533895    1.222339   -0.348769
     10          1           0       -2.906783    0.269737    1.091841
     11          1           0       -1.222803   -0.901165   -1.201748
     12          1           0       -1.492141   -1.564144    0.416888
     13          1           0        0.506728   -1.620034    1.465756
     14          1           0        1.715679   -0.391605    1.192216
     15          1           0        0.677764   -2.269606   -1.023614
     16          1           0        2.165388   -2.498565   -0.096398
     17          1           0        2.008928   -1.111680   -1.181516
     18          1           0       -0.573263    1.859917   -0.511554
     19          1           0        0.452715    0.816080   -1.479768
     20          1           0        1.306966    2.228171    1.125314
     21          1           0        1.623213    2.820667   -0.517374
     22          1           0        2.392658    1.335374    0.040809
 ---------------------------------------------------------------------
 Rotational constants (GHZ):           2.8290761           2.0318330           1.3532941
 Standard basis: 6-31G(d) (6D, 7F)
 There are   135 symmetry adapted cartesian basis functions of A   symmetry.
 There are   135 symmetry adapted basis functions of A   symmetry.
   135 basis functions,   256 primitive gaussians,   135 cartesian basis functions
    29 alpha electrons       29 beta electrons
       nuclear repulsion energy       338.0566280906 Hartrees.
 NAtoms=   22 NActive=   22 NUniq=   22 SFac= 1.00D+00 NAtFMM=   60 NAOKFM=F Big=F
 Integral buffers will be    131072 words long.
 Raffenetti 2 integral format.
 Two-electron integral symmetry is turned on.
 One-electron integrals computed using PRISM.
 NBasis=   135 RedAO= T EigKep=  4.40D-03  NBF=   135
 NBsUse=   135 1.00D-06 EigRej= -1.00D+00 NBFU=   135
 Initial guess from the checkpoint file:  "base_4_conf201.chk"
 B after Tr=    -0.000000   -0.000000    0.000000
         Rot=    0.999254    0.000067    0.013503    0.036192 Ang=   4.43 deg.
 ExpMin= 1.61D-01 ExpMax= 4.17D+03 ExpMxC= 6.27D+02 IAcc=2 IRadAn=         4 AccDes= 0.00D+00
 Harris functional with IExCor=  402 and IRadAn=       4 diagonalized for initial guess.
 HarFok:  IExCor=  402 AccDes= 0.00D+00 IRadAn=         4 IDoV= 1 UseB2=F ITyADJ=14
 ICtDFT=  3500011 ScaDFX=  1.000000  1.000000  1.000000  1.000000
 FoFCou: FMM=F IPFlag=           0 FMFlag=      100000 FMFlg1=           0
         NFxFlg=           0 DoJE=T BraDBF=F KetDBF=T FulRan=T
         wScrn=  0.000000 ICntrl=       500 IOpCl=  0 I1Cent=   200000004 NGrid=           0
         NMat0=    1 NMatS0=      1 NMatT0=    0 NMatD0=    1 NMtDS0=    0 NMtDT0=    0
 Petite list used in FoFCou.
 Keep R1 ints in memory in canonical form, NReq=45019892.
 Gradient too large for Newton-Raphson -- use scaled steepest descent instead.
     Minimum is close to point  4 DX=  1.23D-01 DF= -3.86D-04 DXR=  9.30D-02 DFR=  8.73D-03 which will be used.
 Gradient too large for Newton-Raphson -- use scaled steepest descent instead.
     Accept linear search using points  2 and  3.
 Gradient too large for Newton-Raphson -- use scaled steepest descent instead.
     Accept linear search using points  1 and  2.
 Gradient too large for Newton-Raphson -- use scaled steepest descent instead.
     Accept linear search using points  1 and  2.
 Gradient too large for Newton-Raphson -- use scaled steepest descent instead.
 Gradient too large for Newton-Raphson -- use scaled steepest descent instead.
     Accept linear search using points  1 and  2.
 Gradient too large for Newton-Raphson -- use scaled steepest descent instead.
     Minimum is close to point  3 DX=  4.10D-03 DF= -3.35D-09 DXR=  3.15D-03 DFR=  9.90D-06 which will be used.
 Gradient too large for Newton-Raphson -- use scaled steepest descent instead.
     Accept linear search using points  1 and  2.
 Gradient too large for Newton-Raphson -- use scaled steepest descent instead.
     Minimum is close to point  3 DX=  1.20D-01 DF= -6.37D-07 DXR=  7.42D-02 DFR=  5.53D-03 which will be used.
 Gradient too large for Newton-Raphson -- use scaled steepest descent instead.
 LinEq1:  Iter=  0 NonCon=     1 RMS=1.42D-04 Max=2.13D-03 NDo=     1
 AX will form     1 AO Fock derivatives at one time.
 LinEq1:  Iter=  1 NonCon=     1 RMS=5.42D-06 Max=6.29D-05 NDo=     1
 LinEq1:  Iter=  2 NonCon=     1 RMS=3.18D-06 Max=3.36D-05 NDo=     1
 LinEq1:  Iter=  3 NonCon=     1 RMS=1.02D-06 Max=1.07D-05 NDo=     1
 LinEq1:  Iter=  4 NonCon=     1 RMS=3.25D-07 Max=3.71D-06 NDo=     1
 LinEq1:  Iter=  5 NonCon=     1 RMS=1.74D-07 Max=2.51D-06 NDo=     1
 LinEq1:  Iter=  6 NonCon=     1 RMS=7.84D-08 Max=9.02D-07 NDo=     1
 LinEq1:  Iter=  7 NonCon=     1 RMS=4.18D-08 Max=4.98D-07 NDo=     1
 LinEq1:  Iter=  8 NonCon=     1 RMS=1.25D-08 Max=9.66D-08 NDo=     1
 LinEq1:  Iter=  9 NonCon=     0 RMS=3.50D-09 Max=2.49D-08 NDo=     1
 Linear equations converged to 7.841D-09 7.841D-08 after     9 iterations.
     Minimum is close to point  2 DX=  6.94D-05 DF= -3.41D-13 DXR=  6.94D-05 DFR=  4.97D-09 which will be used.
 LinEq1:  Iter=  0 NonCon=     1 RMS=3.04D-07 Max=2.95D-06 NDo=     1
 LinEq1:  Iter=  1 NonCon=     1 RMS=9.34D-08 Max=7.56D-07 NDo=     1
 LinEq1:  Iter=  2 NonCon=     1 RMS=5.31D-08 Max=5.34D-07 NDo=     1
 LinEq1:  Iter=  3 NonCon=     1 RMS=1.75D-08 Max=3.03D-07 NDo=     1
 LinEq1:  Iter=  4 NonCon=     1 RMS=4.86D-09 Max=4.43D-08 NDo=     1
 LinEq1:  Iter=  5 NonCon=     1 RMS=2.53D-09 Max=2.85D-08 NDo=     1
 LinEq1:  Iter=  6 NonCon=     1 RMS=7.93D-10 Max=9.80D-09 NDo=     1
 LinEq1:  Iter=  7 NonCon=     1 RMS=2.10D-10 Max=2.21D-09 NDo=     1
 LinEq1:  Iter=  8 NonCon=     0 RMS=1.07D-10 Max=1.04D-09 NDo=     1
 Linear equations converged to 1.750D-10 1.750D-09 after     8 iterations.
 SCF Done:  E(RB3LYP) =  -292.413458468     a.u. after   13 cycles
            Convg  =    0.2367D-09                    48 Fock formations.
              S**2 =  0.0000                  -V/T =  2.0101
 DoSCS=F DFT=T ScalE2(SS,OS)=  1.000000  1.000000
 Range of M.O.s used for correlation:     1   135
 NBasis=   135 NAE=    29 NBE=    29 NFC=     0 NFV=     0
 NROrb=    135 NOA=    29 NOB=    29 NVA=   106 NVB=   106
 Symmetrizing basis deriv contribution to polar:
 IMax=3 JMax=2 DiffMx= 0.00D+00
 G2DrvN: will do    23 centers at a time, making    1 passes.
 Calling FoFCou, ICntrl=  3107 FMM=F I1Cent=   0 AccDes= 0.00D+00.
 End of G2Drv F.D. properties file   721 does not exist.
 End of G2Drv F.D. properties file   722 does not exist.
 End of G2Drv F.D. properties file   788 does not exist.
          IDoAtm=1111111111111111111111
          Differentiating once with respect to electric field.
                with respect to dipole field.
          Differentiating once with respect to nuclear coordinates.
 Keep R1 ints in memory in canonical form, NReq=45034167.
          There are    69 degrees of freedom in the 1st order CPHF.  IDoFFX=6 NUNeed=     3.
     66 vectors produced by pass  0 Test12= 4.46D-15 1.45D-09 XBig12= 4.31D+01 1.64D+00.
 AX will form    66 AO Fock derivatives at one time.
     66 vectors produced by pass  1 Test12= 4.46D-15 1.45D-09 XBig12= 1.97D+00 2.55D-01.
     66 vectors produced by pass  2 Test12= 4.46D-15 1.45D-09 XBig12= 9.75D-03 1.71D-02.
     66 vectors produced by pass  3 Test12= 4.46D-15 1.45D-09 XBig12= 1.17D-05 4.13D-04.
     66 vectors produced by pass  4 Test12= 4.46D-15 1.45D-09 XBig12= 7.80D-09 8.79D-06.
     23 vectors produced by pass  5 Test12= 4.46D-15 1.45D-09 XBig12= 3.92D-12 2.01D-07.
      3 vectors produced by pass  6 Test12= 4.46D-15 1.45D-09 XBig12= 1.79D-15 5.14D-09.
 InvSVY:  IOpt=1 It=  1 EMax= 1.78D-15
 Solved reduced A of dimension   356 with    69 vectors.
 Isotropic polarizability for W=    0.000000       72.02 Bohr**3.
 End of Minotr F.D. properties file   721 does not exist.
 End of Minotr F.D. properties file   722 does not exist.
 End of Minotr F.D. properties file   788 does not exist.
 Calling FoFJK, ICntrl=    100127 FMM=F ISym2X=0 I1Cent= 0 IOpClX= 0 NMat=1 NMatS=1 NMatT=0.
 ***** Axes restored to original set *****
 -------------------------------------------------------------------
 Center     Atomic                   Forces (Hartrees/Bohr)
 Number     Number              X              Y              Z
 -------------------------------------------------------------------
      1        6          -0.001343832   -0.001170388   -0.000727736
      2        6          -0.001536947   -0.000647824   -0.004009426
      3        7           0.004442972    0.001317068    0.002975970
      4        6          -0.002034546    0.002047066   -0.000356846
      5        6           0.000383127    0.000541828    0.000660414
      6        6          -0.000559191    0.001294250    0.002815137
      7        6           0.000046619    0.000139409   -0.000280311
      8        1          -0.000825800   -0.000240222   -0.000183410
      9        1           0.000612504   -0.000559509    0.000677098
     10        1           0.000558647    0.000608801   -0.000232642
     11        1           0.000256655   -0.000080586   -0.001262998
     12        1           0.000447536   -0.001183778    0.001292669
     13        1           0.000160759   -0.001361768   -0.000144825
     14        1          -0.000352624    0.000161156   -0.000284376
     15        1          -0.000296663    0.000050008    0.000270322
     16        1           0.000252512    0.000227181    0.000153821
     17        1           0.000146251   -0.000515108   -0.000186574
     18        1          -0.000693559   -0.001392825   -0.001664070
     19        1           0.000453757    0.000640333    0.000498703
     20        1          -0.000178324    0.000023946    0.000088472
     21        1           0.000033131    0.000004188   -0.000110110
     22        1           0.000027018    0.000096776    0.000010719
 -------------------------------------------------------------------
 Cartesian Forces:  Max     0.004442972 RMS     0.001159364
 FormGI is forming the generalized inverse of G from B-inverse, IUseBI=4.

 GradGradGradGradGradGradGradGradGradGradGradGradGradGradGradGradGradGrad
 Berny optimization.
 Using GEDIIS/GDIIS optimizer.
 Internal  Forces:  Max     0.004358797 RMS     0.000794514
 Search for a local minimum.
 Step number   2 out of a maximum of  115
 All quantities printed in internal units (Hartrees-Bohrs-Radians)
 Mixed Optimization -- En-DIIS/RFO-DIIS
 Second derivative matrix not updated -- analytic derivatives used.
 DE= -7.35D-03 DEPred=-8.79D-03 R= 8.36D-01
 TightC=F SS=  1.41D+00  RLast= 8.78D-01 DXNew= 5.0454D-01 2.6333D+00
 Trust test= 8.36D-01 RLast= 8.78D-01 DXMaxT set to 5.05D-01
 ITU=  1  0
 Use linear search instead of GDIIS.
     Eigenvalues ---    0.00103   0.00213   0.00285   0.00305   0.00615
     Eigenvalues ---    0.00752   0.02361   0.04390   0.04523   0.04547
     Eigenvalues ---    0.04585   0.04664   0.04699   0.04786   0.04800
     Eigenvalues ---    0.04836   0.04930   0.05118   0.05266   0.08598
     Eigenvalues ---    0.08722   0.09161   0.11853   0.11912   0.12182
     Eigenvalues ---    0.12433   0.12634   0.12665   0.14019   0.14122
     Eigenvalues ---    0.14424   0.16313   0.16396   0.16569   0.19804
     Eigenvalues ---    0.20204   0.24044   0.25077   0.26776   0.27312
     Eigenvalues ---    0.28999   0.29609   0.30415   0.30664   0.32667
     Eigenvalues ---    0.33278   0.33364   0.33742   0.33795   0.33893
     Eigenvalues ---    0.33912   0.33946   0.34047   0.34305   0.34779
     Eigenvalues ---    0.34862   0.35009   0.36711   0.38389   0.39365
 RFO step:  Lambda=-1.92388272D-03 EMin= 1.03408154D-03
 Quintic linear search produced a step of  0.10601.
 Iteration  1 RMS(Cart)=  0.09677273 RMS(Int)=  0.00444458
 Iteration  2 RMS(Cart)=  0.00613336 RMS(Int)=  0.00009801
 Iteration  3 RMS(Cart)=  0.00001494 RMS(Int)=  0.00009754
 Iteration  4 RMS(Cart)=  0.00000000 RMS(Int)=  0.00009754
 Variable       Old X    -DE/DX   Delta X   Delta X   Delta X     New X
                                 (Linear)    (Quad)   (Total)
    R1        2.89524   0.00067   0.00129  -0.00268  -0.00139   2.89385
    R2        2.07085   0.00039   0.00013   0.00103   0.00116   2.07200
    R3        2.06683   0.00027  -0.00016   0.00295   0.00279   2.06963
    R4        2.06903   0.00010   0.00004  -0.00008  -0.00004   2.06899
    R5        2.76332   0.00436  -0.00253   0.00989   0.00736   2.77068
    R6        2.09381  -0.00063   0.00207  -0.00284  -0.00077   2.09304
    R7        2.07377  -0.00013   0.00012  -0.00117  -0.00105   2.07272
    R8        2.77487   0.00132  -0.00038  -0.00106  -0.00144   2.77343
    R9        2.78019  -0.00076  -0.00053  -0.01022  -0.01075   2.76944
   R10        2.90854   0.00074   0.00289  -0.00158   0.00132   2.90985
   R11        2.07529  -0.00012   0.00030  -0.00156  -0.00126   2.07402
   R12        2.06894   0.00005  -0.00039   0.00180   0.00141   2.07036
   R13        2.06940   0.00000   0.00034   0.00121   0.00155   2.07095
   R14        2.07180   0.00005   0.00026  -0.00004   0.00021   2.07201
   R15        2.07130   0.00002   0.00037  -0.00090  -0.00053   2.07077
   R16        2.89057   0.00018   0.00092  -0.00047   0.00045   2.89102
   R17        2.06373   0.00164  -0.00121   0.00632   0.00511   2.06884
   R18        2.09450   0.00014   0.00217  -0.00234  -0.00017   2.09433
   R19        2.07041   0.00003   0.00030  -0.00065  -0.00035   2.07006
   R20        2.07064   0.00005   0.00016  -0.00003   0.00013   2.07077
   R21        2.06879   0.00004   0.00014   0.00056   0.00070   2.06948
    A1        1.92332   0.00008   0.00066   0.00014   0.00079   1.92411
    A2        1.97051  -0.00083   0.00287  -0.01245  -0.00960   1.96092
    A3        1.92649   0.00032  -0.00242   0.00177  -0.00064   1.92585
    A4        1.87103   0.00028  -0.00113   0.00343   0.00227   1.87330
    A5        1.89063  -0.00005   0.00203   0.00303   0.00506   1.89569
    A6        1.87915   0.00023  -0.00201   0.00474   0.00272   1.88187
    A7        1.97082   0.00216  -0.00344   0.00219  -0.00152   1.96930
    A8        1.91985  -0.00139   0.00618  -0.01108  -0.00496   1.91489
    A9        1.87922  -0.00023  -0.00248   0.00953   0.00667   1.88589
   A10        1.95467   0.00015   0.00689  -0.00138   0.00551   1.96017
   A11        1.87095  -0.00078  -0.00729   0.00946   0.00192   1.87287
   A12        1.86284  -0.00004   0.00031  -0.00818  -0.00768   1.85516
   A13        1.94850   0.00093  -0.00461   0.02213   0.01720   1.96570
   A14        1.93962   0.00131   0.00321   0.01206   0.01487   1.95450
   A15        1.98553  -0.00089  -0.00060   0.00790   0.00684   1.99237
   A16        2.05182   0.00085   0.00232  -0.00906  -0.00674   2.04508
   A17        1.86721  -0.00044  -0.00503   0.00377  -0.00129   1.86593
   A18        1.88712  -0.00042  -0.00205   0.00139  -0.00067   1.88645
   A19        1.90495  -0.00009   0.00064  -0.00178  -0.00116   1.90379
   A20        1.90084  -0.00031   0.00043   0.00343   0.00386   1.90470
   A21        1.84050   0.00037   0.00394   0.00355   0.00744   1.84794
   A22        1.95475   0.00020  -0.00011  -0.00537  -0.00548   1.94927
   A23        1.91614   0.00006   0.00021   0.00366   0.00387   1.92001
   A24        1.95370   0.00006   0.00092   0.00016   0.00107   1.95477
   A25        1.87708  -0.00012   0.00018   0.00154   0.00172   1.87880
   A26        1.88290  -0.00020  -0.00123  -0.00005  -0.00129   1.88161
   A27        1.87593  -0.00002   0.00001   0.00028   0.00027   1.87621
   A28        1.99517  -0.00002  -0.00044  -0.01026  -0.01070   1.98446
   A29        1.88536  -0.00131  -0.00092  -0.01245  -0.01333   1.87203
   A30        1.94451   0.00079   0.00069   0.01080   0.01152   1.95603
   A31        1.87331   0.00086   0.00121   0.01049   0.01161   1.88492
   A32        1.91158  -0.00046   0.00064   0.00087   0.00151   1.91309
   A33        1.84631   0.00015  -0.00126   0.00117  -0.00008   1.84623
   A34        1.93106  -0.00009  -0.00092  -0.00343  -0.00436   1.92670
   A35        1.91211  -0.00001  -0.00036   0.00623   0.00588   1.91799
   A36        1.96862   0.00014   0.00157  -0.00531  -0.00375   1.96487
   A37        1.88782   0.00006   0.00056   0.00349   0.00405   1.89187
   A38        1.89014  -0.00008  -0.00076  -0.00127  -0.00205   1.88809
   A39        1.87149  -0.00001  -0.00009   0.00070   0.00061   1.87210
    D1        3.01007   0.00062   0.00688   0.10054   0.10739   3.11746
    D2        0.81242  -0.00013  -0.00425   0.10941   0.10515   0.91758
    D3       -1.21120   0.00079  -0.00655   0.11970   0.11321  -1.09799
    D4        0.91855   0.00077   0.00599   0.10436   0.11032   1.02887
    D5       -1.27910   0.00002  -0.00513   0.11324   0.10808  -1.17101
    D6        2.98047   0.00093  -0.00743   0.12352   0.11614   3.09661
    D7       -1.18558   0.00081   0.00830   0.10551   0.11377  -1.07180
    D8        2.89996   0.00007  -0.00282   0.11438   0.11154   3.01150
    D9        0.87634   0.00098  -0.00512   0.12467   0.11960   0.99594
   D10        2.76422  -0.00077  -0.04131  -0.06151  -0.10280   2.66142
   D11       -1.28185  -0.00015  -0.04317  -0.02337  -0.06635  -1.34819
   D12       -1.34015  -0.00081  -0.03052  -0.07575  -0.10628  -1.44642
   D13        0.89698  -0.00019  -0.03238  -0.03760  -0.06982   0.82715
   D14        0.69747  -0.00125  -0.03047  -0.08065  -0.11138   0.58609
   D15        2.93459  -0.00063  -0.03233  -0.04250  -0.07493   2.85966
   D16        1.06770   0.00169   0.00348   0.06787   0.07139   1.13909
   D17       -1.08095   0.00157   0.00509   0.07353   0.07868  -1.00227
   D18       -3.05575   0.00155   0.00407   0.06694   0.07104  -2.98471
   D19       -1.14468  -0.00017   0.00353   0.02612   0.02962  -1.11506
   D20        2.98986  -0.00029   0.00515   0.03178   0.03690   3.02676
   D21        1.01506  -0.00031   0.00412   0.02520   0.02926   1.04433
   D22        3.11280  -0.00138  -0.00436  -0.15218  -0.15648   2.95632
   D23        1.02900  -0.00153  -0.00496  -0.15026  -0.15527   0.87373
   D24       -0.99170  -0.00137  -0.00328  -0.15024  -0.15351  -1.14521
   D25       -0.95337   0.00027  -0.00840  -0.10538  -0.11373  -1.06710
   D26       -3.03718   0.00012  -0.00900  -0.10345  -0.11252   3.13349
   D27        1.22531   0.00029  -0.00732  -0.10344  -0.11075   1.11455
   D28       -0.94444  -0.00030  -0.00109  -0.04257  -0.04366  -0.98811
   D29       -3.02841  -0.00032  -0.00137  -0.04350  -0.04487  -3.07329
   D30        1.17291  -0.00037  -0.00210  -0.04638  -0.04848   1.12443
   D31        1.18492  -0.00034  -0.00560  -0.04565  -0.05125   1.13366
   D32       -0.89905  -0.00035  -0.00589  -0.04658  -0.05247  -0.95151
   D33       -2.98091  -0.00040  -0.00662  -0.04945  -0.05607  -3.03698
   D34       -3.09725  -0.00011  -0.00041  -0.04054  -0.04095  -3.13820
[...]
     4  C    0.010898  -0.000323  -0.000237  -0.001523  -0.004387  -0.052778
     5  C    0.001191  -0.000029  -0.000060  -0.000013  -0.021367  -0.017183
     6  C    0.421542  -0.001877  -0.022700  -0.002211  -0.054410  -0.005411
     7  C    5.598630   0.000036   0.000424   0.000124   0.001053  -0.000074
     8  H    0.000036   0.632124   0.007142  -0.005520   0.019250   0.024940
     9  H    0.000424   0.007142   0.602217  -0.012204   0.013751   0.013181
    10  H    0.000124  -0.005520  -0.012204   0.578107   0.008897   0.010354
    11  H    0.001053   0.019250   0.013751   0.008897   0.680179   0.060672
    12  H   -0.000074   0.024940   0.013181   0.010354   0.060672   0.782516
    13  H   -0.002335   0.000518   0.000409   0.001836   0.011694   0.080176
    14  H   -0.032167   0.000032   0.000135   0.000220   0.002277   0.006881
    15  H   -0.000073   0.000177   0.000111   0.000065   0.027863   0.028666
    16  H   -0.000524   0.000003   0.000003   0.000004   0.001737   0.003386
    17  H   -0.006189   0.000014   0.000051   0.000014   0.009346   0.004043
    18  H   -0.050756   0.003718   0.046104   0.005166   0.030454   0.007141
    19  H   -0.056710   0.000355   0.003845   0.000333   0.030709   0.005313
    20  H    0.261114   0.000015   0.000599   0.000270   0.000237   0.000216
    21  H    0.217189   0.000003   0.000262   0.000021   0.000197   0.000034
    22  H    0.095787   0.000003   0.000098   0.000034   0.000469   0.000250
              13         14         15         16         17         18
     1  C    0.003453   0.000283   0.000945   0.000040   0.000193  -0.014608
     2  C   -0.061711  -0.000027  -0.033317  -0.002881  -0.007376  -0.022621
     3  N   -0.042045  -0.042296  -0.004209   0.002883  -0.004808  -0.061325
     4  C   -0.075111   0.096349  -0.073836  -0.112508  -0.064748   0.003049
     5  C   -0.101119  -0.089623   0.031145   0.001299  -0.073664  -0.002386
     6  C    0.003802  -0.013657  -0.006578  -0.000699  -0.024942  -0.066166
     7  C   -0.002335  -0.032167  -0.000073  -0.000524  -0.006189  -0.050756
     8  H    0.000518   0.000032   0.000177   0.000003   0.000014   0.003718
     9  H    0.000409   0.000135   0.000111   0.000003   0.000051   0.046104
    10  H    0.001836   0.000220   0.000065   0.000004   0.000014   0.005166
    11  H    0.011694   0.002277   0.027863   0.001737   0.009346   0.030454
    12  H    0.080176   0.006881   0.028666   0.003386   0.004043   0.007141
    13  H    0.911108   0.074254   0.037842   0.047530   0.024870   0.002200
    14  H    0.074254   0.711892   0.016772   0.033175   0.032181   0.004859
    15  H    0.037842   0.016772   0.743628   0.062939   0.063776   0.001186
    16  H    0.047530   0.033175   0.062939   0.781544   0.081503   0.000145
    17  H    0.024870   0.032181   0.063776   0.081503   0.811813   0.003882
    18  H    0.002200   0.004859   0.001186   0.000145   0.003882   0.871589
    19  H    0.005293   0.014624   0.012500   0.003564   0.059486   0.092084
    20  H    0.001339   0.010658   0.000045   0.000061   0.000564   0.019784
    21  H    0.000131   0.002637   0.000039   0.000032   0.001219   0.031833
    22  H    0.004132   0.050909   0.000783   0.002089   0.016475   0.021425
              19         20         21         22
     1  C    0.001530  -0.000032  -0.000012   0.000049
     2  C   -0.014681   0.000515   0.000100   0.000165
     3  N   -0.038054  -0.007103   0.002126  -0.006896
     4  C   -0.002983  -0.006778  -0.000254  -0.019551
     5  C   -0.043300  -0.000204  -0.000359  -0.008343
     6  C    0.007154  -0.068538  -0.102332  -0.084854
     7  C   -0.056710   0.261114   0.217189   0.095787
     8  H    0.000355   0.000015   0.000003   0.000003
     9  H    0.003845   0.000599   0.000262   0.000098
    10  H    0.000333   0.000270   0.000021   0.000034
    11  H    0.030709   0.000237   0.000197   0.000469
    12  H    0.005313   0.000216   0.000034   0.000250
    13  H    0.005293   0.001339   0.000131   0.004132
    14  H    0.014624   0.010658   0.002637   0.050909
    15  H    0.012500   0.000045   0.000039   0.000783
    16  H    0.003564   0.000061   0.000032   0.002089
    17  H    0.059486   0.000564   0.001219   0.016475
    18  H    0.092084   0.019784   0.031833   0.021425
    19  H    0.723736   0.012082   0.025263   0.033421
    20  H    0.012082   0.622737   0.006511   0.015345
    21  H    0.025263   0.006511   0.654570   0.036420
    22  H    0.033421   0.015345   0.036420   0.738446
 Mulliken charges:
               1
     1  C   -0.448890
     2  C   -0.091159
     3  N   -0.194339
     4  C   -0.096188
     5  C   -0.352587
     6  C   -0.073942
     7  C   -0.423040
     8  H    0.139782
     9  H    0.144061
    10  H    0.150609
    11  H    0.143427
    12  H    0.098438
    13  H    0.071737
    14  H    0.119632
    15  H    0.089530
    16  H    0.094674
    17  H    0.072297
    18  H    0.073244
    19  H    0.124437
    20  H    0.130561
    21  H    0.124371
    22  H    0.103345
 Sum of Mulliken charges =  -0.00000
 Mulliken charges with hydrogens summed into heavy atoms:
               1
     1  C   -0.014438
     2  C    0.150707
     3  N   -0.194339
     4  C    0.095180
     5  C   -0.096086
     6  C    0.123739
     7  C   -0.064763
 Electronic spatial extent (au):  <R**2>=           1028.2315
 Charge=              0.0000 electrons
 Dipole moment (field-independent basis, Debye):
    X=             -1.4329    Y=              0.4081    Z=              0.2302  Tot=              1.5075
 Quadrupole moment (field-independent basis, Debye-Ang):
   XX=            -51.6249   YY=            -52.9861   ZZ=            -49.5792
   XY=              1.0340   XZ=              0.7669   YZ=              0.2601
 Traceless Quadrupole moment (field-independent basis, Debye-Ang):
   XX=             -0.2282   YY=             -1.5893   ZZ=              1.8176
   XY=              1.0340   XZ=              0.7669   YZ=              0.2601
 Octapole moment (field-independent basis, Debye-Ang**2):
  XXX=            -11.8860  YYY=              5.7328  ZZZ=              2.3879  XYY=             -3.1481
  XXY=             -0.3175  XXZ=              1.1187  XZZ=             -2.3640  YZZ=              2.3487
  YYZ=             -1.1009  XYZ=             -1.9886
 Hexadecapole moment (field-independent basis, Debye-Ang**3):
 XXXX=           -764.0097 YYYY=           -600.5594 ZZZZ=           -159.2861 XXXY=              5.8915
 XXXZ=              5.0092 YYYX=              7.6578 YYYZ=              2.5958 ZZZX=              0.2395
 ZZZY=              2.4857 XXYY=           -225.9905 XXZZ=           -152.1854 YYZZ=           -122.9222
 XXYZ=              1.5251 YYXZ=             -0.2318 ZZXY=              1.5248
 N-N= 3.367836588719D+02 E-N=-1.347755092502D+03  KE= 2.896296517044D+02
 Evaluate density.
 Using the total density.
 Monte-Carlo method of calculating molar volume:
 based on  0.001 e/bohr**3 density envelope.
 Number of points per bohr**3 =   20 CutOff= 1.00D-04
 Using the CI density.
 There are       374 points.  Will hold       374 in memory.
 LenV=   805236022 MDV=   805306368.
 Box volume = 6543.498 fraction occupied=0.203
 Integrated density= 5.2242602295123007D+01 error=-5.7573977048769933D+00
 Molar volume = 1329.695 bohr**3/mol (118.661 cm**3/mol)
 Recommended a0 for SCRF calculation =  4.47 angstrom (  8.45 bohr)
 ******************************Gaussian NBO Version 3.1******************************
             N A T U R A L   A T O M I C   O R B I T A L   A N D
          N A T U R A L   B O N D   O R B I T A L   A N A L Y S I S
 ******************************Gaussian NBO Version 3.1******************************
       /RESON  / : Allow strongly delocalized NBO set

 Analyzing the CI density

 Job title: Title Card Required                                             

 Storage needed:     56284 in NPA ( 805303728 available)


 NATURAL POPULATIONS:  Natural atomic orbital occupancies 
                                                          
   NAO  Atom  No  lang   Type(AO)    Occupancy
 --------------------------------------------
     1    C    1  S      Cor( 1S)     1.99944
     2    C    1  S      Val( 2S)     1.10993
     3    C    1  S      Ryd( 3S)     0.00046
     4    C    1  S      Ryd( 4S)     0.00001
     5    C    1  px     Val( 2p)     1.11906
     6    C    1  px     Ryd( 3p)     0.00370
     7    C    1  py     Val( 2p)     1.21291
     8    C    1  py     Ryd( 3p)     0.00232
     9    C    1  pz     Val( 2p)     1.24383
    10    C    1  pz     Ryd( 3p)     0.00149
    11    C    1  dxy    Ryd( 3d)     0.00072
    12    C    1  dxz    Ryd( 3d)     0.00028
    13    C    1  dyz    Ryd( 3d)     0.00063
    14    C    1  dx2y2  Ryd( 3d)     0.00057
    15    C    1  dz2    Ryd( 3d)     0.00094
 
    16    C    2  S      Cor( 1S)     1.99931
    17    C    2  S      Val( 2S)     1.05030
    18    C    2  S      Ryd( 3S)     0.00208
    19    C    2  S      Ryd( 4S)     0.00005
    20    C    2  px     Val( 2p)     0.90494
    21    C    2  px     Ryd( 3p)     0.00365
    22    C    2  py     Val( 2p)     1.13506
    23    C    2  py     Ryd( 3p)     0.00283
    24    C    2  pz     Val( 2p)     1.20917
    25    C    2  pz     Ryd( 3p)     0.00390
    26    C    2  dxy    Ryd( 3d)     0.00109
    27    C    2  dxz    Ryd( 3d)     0.00072
    28    C    2  dyz    Ryd( 3d)     0.00084
    29    C    2  dx2y2  Ryd( 3d)     0.00092
    30    C    2  dz2    Ryd( 3d)     0.00102
 
    31    N    3  S      Cor( 1S)     1.99932
    32    N    3  S      Val( 2S)     1.28558
    33    N    3  S      Ryd( 3S)     0.00149
    34    N    3  S      Ryd( 4S)     0.00004
    35    N    3  px     Val( 2p)     1.28224
    36    N    3  px     Ryd( 3p)     0.00092
    37    N    3  py     Val( 2p)     1.27057
    38    N    3  py     Ryd( 3p)     0.00102
    39    N    3  pz     Val( 2p)     1.18500
    40    N    3  pz     Ryd( 3p)     0.00224
    41    N    3  dxy    Ryd( 3d)     0.00099
    42    N    3  dxz    Ryd( 3d)     0.00068
    43    N    3  dyz    Ryd( 3d)     0.00072
    44    N    3  dx2y2  Ryd( 3d)     0.00061
    45    N    3  dz2    Ryd( 3d)     0.00052
 
    46    C    4  S      Cor( 1S)     1.99933
    47    C    4  S      Val( 2S)     1.04463
    48    C    4  S      Ryd( 3S)     0.00148
    49    C    4  S      Ryd( 4S)     0.00007
    50    C    4  px     Val( 2p)     1.01782
    51    C    4  px     Ryd( 3p)     0.00394
    52    C    4  py     Val( 2p)     1.07314
    53    C    4  py     Ryd( 3p)     0.00430
    54    C    4  pz     Val( 2p)     1.16123
    55    C    4  pz     Ryd( 3p)     0.00505
    56    C    4  dxy    Ryd( 3d)     0.00163
    57    C    4  dxz    Ryd( 3d)     0.00093
    58    C    4  dyz    Ryd( 3d)     0.00110
    59    C    4  dx2y2  Ryd( 3d)     0.00041
    60    C    4  dz2    Ryd( 3d)     0.00056
 
    61    C    5  S      Cor( 1S)     1.99940
    62    C    5  S      Val( 2S)     1.15054
    63    C    5  S      Ryd( 3S)     0.00077
    64    C    5  S      Ryd( 4S)     0.00008
    65    C    5  px     Val( 2p)     1.20644
    66    C    5  px     Ryd( 3p)     0.00220
    67    C    5  py     Val( 2p)     1.18514
    68    C    5  py     Ryd( 3p)     0.00192
    69    C    5  pz     Val( 2p)     1.13563
    70    C    5  pz     Ryd( 3p)     0.00344
    71    C    5  dxy    Ryd( 3d)     0.00096
    72    C    5  dxz    Ryd( 3d)     0.00085
    73    C    5  dyz    Ryd( 3d)     0.00096
    74    C    5  dx2y2  Ryd( 3d)     0.00011
    75    C    5  dz2    Ryd( 3d)     0.00023
 
    76    C    6  S      Cor( 1S)     1.99929
    77    C    6  S      Val( 2S)     1.05703
    78    C    6  S      Ryd( 3S)     0.00223
    79    C    6  S      Ryd( 4S)     0.00005
    80    C    6  px     Val( 2p)     1.18623
    81    C    6  px     Ryd( 3p)     0.00457
    82    C    6  py     Val( 2p)     0.96499
    83    C    6  py     Ryd( 3p)     0.00301
    84    C    6  pz     Val( 2p)     1.09253
    85    C    6  pz     Ryd( 3p)     0.00343
    86    C    6  dxy    Ryd( 3d)     0.00104
    87    C    6  dxz    Ryd( 3d)     0.00070
    88    C    6  dyz    Ryd( 3d)     0.00132
    89    C    6  dx2y2  Ryd( 3d)     0.00081
    90    C    6  dz2    Ryd( 3d)     0.00070
 
    91    C    7  S      Cor( 1S)     1.99945
    92    C    7  S      Val( 2S)     1.11784
    93    C    7  S      Ryd( 3S)     0.00050
    94    C    7  S      Ryd( 4S)     0.00002
    95    C    7  px     Val( 2p)     1.19190
    96    C    7  px     Ryd( 3p)     0.00348
    97    C    7  py     Val( 2p)     1.17108
    98    C    7  py     Ryd( 3p)     0.00195
    99    C    7  pz     Val( 2p)     1.21133
   100    C    7  pz     Ryd( 3p)     0.00275
   101    C    7  dxy    Ryd( 3d)     0.00063
   102    C    7  dxz    Ryd( 3d)     0.00051
   103    C    7  dyz    Ryd( 3d)     0.00085
   104    C    7  dx2y2  Ryd( 3d)     0.00054
   105    C    7  dz2    Ryd( 3d)     0.00055
 
   106    H    8  S      Val( 1S)     0.76532
   107    H    8  S      Ryd( 2S)     0.00854
 
   108    H    9  S      Val( 1S)     0.77063
   109    H    9  S      Ryd( 2S)     0.01087
 
   110    H   10  S      Val( 1S)     0.76501
   111    H   10  S      Ryd( 2S)     0.00479
 
   112    H   11  S      Val( 1S)     0.74214
   113    H   11  S      Ryd( 2S)     0.02626
 
   114    H   12  S      Val( 1S)     0.76876
   115    H   12  S      Ryd( 2S)     0.03453
 
   116    H   13  S      Val( 1S)     0.78777
   117    H   13  S      Ryd( 2S)     0.03758
 
   118    H   14  S      Val( 1S)     0.76438
   119    H   14  S      Ryd( 2S)     0.02507
 
   120    H   15  S      Val( 1S)     0.78804
   121    H   15  S      Ryd( 2S)     0.02511
 
   122    H   16  S      Val( 1S)     0.78084
   123    H   16  S      Ryd( 2S)     0.02208
 
   124    H   17  S      Val( 1S)     0.79116
   125    H   17  S      Ryd( 2S)     0.03563
 
   126    H   18  S      Val( 1S)     0.79128
   127    H   18  S      Ryd( 2S)     0.03409
 
   128    H   19  S      Val( 1S)     0.74397
   129    H   19  S      Ryd( 2S)     0.03656
 
   130    H   20  S      Val( 1S)     0.77207
   131    H   20  S      Ryd( 2S)     0.00757
 
   132    H   21  S      Val( 1S)     0.76966
   133    H   21  S      Ryd( 2S)     0.01109
 
   134    H   22  S      Val( 1S)     0.78326
   135    H   22  S      Ryd( 2S)     0.02625


 Summary of Natural Population Analysis:                  
                                                          
                                       Natural Population 
                Natural  -----------------------------------------------
    Atom  No    Charge         Core      Valence    Rydberg      Total
 -----------------------------------------------------------------------
      C    1   -0.69629      1.99944     4.68573    0.01112     6.69629
      C    2   -0.31586      1.99931     4.29946    0.01709     6.31586
      N    3   -0.03194      1.99932     5.02339    0.00923     7.03194
      C    4   -0.31561      1.99933     4.29682    0.01947     6.31561
      C    5   -0.68868      1.99940     4.67775    0.01153     6.68868
      C    6   -0.31794      1.99929     4.30078    0.01787     6.31794
      C    7   -0.70337      1.99945     4.69215    0.01178     6.70337
      H    8    0.22614      0.00000     0.76532    0.00854     0.77386
      H    9    0.21850      0.00000     0.77063    0.01087     0.78150
      H   10    0.23020      0.00000     0.76501    0.00479     0.76980
      H   11    0.23160      0.00000     0.74214    0.02626     0.76840
      H   12    0.19671      0.00000     0.76876    0.03453     0.80329
      H   13    0.17465      0.00000     0.78777    0.03758     0.82535
      H   14    0.21056      0.00000     0.76438    0.02507     0.78944
      H   15    0.18685      0.00000     0.78804    0.02511     0.81315
      H   16    0.19708      0.00000     0.78084    0.02208     0.80292
      H   17    0.17321      0.00000     0.79116    0.03563     0.82679
      H   18    0.17463      0.00000     0.79128    0.03409     0.82537
      H   19    0.21947      0.00000     0.74397    0.03656     0.78053
      H   20    0.22036      0.00000     0.77207    0.00757     0.77964
      H   21    0.21925      0.00000     0.76966    0.01109     0.78075
      H   22    0.19049      0.00000     0.78326    0.02625     0.80951
 =======================================================================
   * Total *   -0.00000     13.99553    43.56036    0.44411    58.00000

                                 Natural Population      
 --------------------------------------------------------
   Core                      13.99553 ( 99.9681% of  14)
   Valence                   43.56036 ( 99.0008% of  44)
   Natural Minimal Basis     57.55589 ( 99.2343% of  58)
   Natural Rydberg Basis      0.44411 (  0.7657% of  58)
 --------------------------------------------------------

    Atom  No          Natural Electron Configuration
 ----------------------------------------------------------------------------
      C    1      [core]2S( 1.11)2p( 3.58)3p( 0.01)
      C    2      [core]2S( 1.05)2p( 3.25)3p( 0.01)
      N    3      [core]2S( 1.29)2p( 3.74)
      C    4      [core]2S( 1.04)2p( 3.25)3p( 0.01)
      C    5      [core]2S( 1.15)2p( 3.53)3p( 0.01)
      C    6      [core]2S( 1.06)2p( 3.24)3p( 0.01)
      C    7      [core]2S( 1.12)2p( 3.57)3p( 0.01)
      H    8            1S( 0.77)2S( 0.01)
      H    9            1S( 0.77)2S( 0.01)
      H   10            1S( 0.77)
      H   11            1S( 0.74)2S( 0.03)
      H   12            1S( 0.77)2S( 0.03)
      H   13            1S( 0.79)2S( 0.04)
      H   14            1S( 0.76)2S( 0.03)
      H   15            1S( 0.79)2S( 0.03)
      H   16            1S( 0.78)2S( 0.02)
      H   17            1S( 0.79)2S( 0.04)
      H   18            1S( 0.79)2S( 0.03)
      H   19            1S( 0.74)2S( 0.04)
      H   20            1S( 0.77)2S( 0.01)
      H   21            1S( 0.77)2S( 0.01)
      H   22            1S( 0.78)2S( 0.03)


 NBO analysis skipped by request.
 1\1\GINC-DELLA-R1C3N13\SP\RB3LYP TD-FC\6-31G(d)\C6H15N1\BJS4\24-Aug-20
 20\0\\# TD(NStates=10, Root=1) B3LYP/6-31G* scf=qc volume pop=NPA dens
 ity=current Geom=AllCheck Guess=Read\\Title Card Required\\0,1\C,0,2.9
 011218916,-0.3917041873,-1.433436806\C,0,2.7303731528,-0.0752371928,0.
 0554698493\N,0,3.1297390824,1.2935654564,0.39809914\C,0,2.3941578701,1
 .8400230776,1.5432507426\C,0,2.6302887736,1.1784694764,2.9137277166\C,
 0,4.583792364,1.4531785509,0.4755798624\C,0,5.041299846,2.9133108349,0
 .4505949901\H,0,2.5334696846,-1.4015248532,-1.6513140948\H,0,3.9492202
 334,-0.3508867062,-1.7492871737\H,0,2.3382843803,0.3246687128,-2.04070
 1669\H,0,3.2688098575,-0.8325855072,0.6574060978\H,0,1.6689732704,-0.1
 815484048,0.3101879464\H,0,1.326420699,1.7791592441,1.2966542675\H,0,2
 .6243053478,2.9089395924,1.6164699995\H,0,2.3710222322,0.1137330799,2.
 8990008997\H,0,2.0078099206,1.6619368556,3.6760526336\H,0,3.6735582258
 ,1.2648884479,3.237198169\H,0,5.0118340983,0.9482833158,-0.3967219838\
 H,0,5.0151162634,0.944902778,1.3603533571\H,0,4.6092938235,3.433344992
 2,-0.4110836483\H,0,6.133555917,2.9625163685,0.3747013281\H,0,4.753533
 0658,3.457866068,1.3562883759\\Version=ES64L-G16RevA.03\State=1-A\HF=-
 292.4150242\RMSD=2.058e-09\Dipole=-0.0331449,-0.2225318,-0.5487787\Qua
 drupole=-0.2214196,1.2854913,-1.0640717,-0.6756969,0.8319488,-0.115963
 4\PG=C01 [X(C6H15N1)]\\@


 ... SUBJECTS WHICH DISCLOSE THEIR FULL POWER, MEANING AND BEAUTY AS SOON
 AS THEY ARE PRESENTED TO THE MIND HAVE VERY LITTLE OF THOSE QUALITIES
 TO DISCLOSE.
                           -- CHARLES DUTTON (1882)
 Job cpu time:       0 days  0 hours 12 minutes  6.1 seconds.
 Elapsed time:       0 days  0 hours  4 minutes  3.9 seconds.
 File lengths (MBytes):  RWF=    210 Int=      0 D2E=      0 Chk=     16 Scr=      1
 Normal termination of Gaussian 16 at Mon Aug 24 16:49:02 2020.
