 Entering Gaussian System, Link 0=g16
 Input=base_6_conf7123.com
 Output=base_6_conf7123.log
 Initial command:
 /opt/export//g16/l1.exe "/scratch/bjs4/job.14802/Gau-14806.inp" -scrdir="/scratch/bjs4/job.14802/"
 Entering Link 1 = /opt/export//g16/l1.exe PID=     14808.
  
 Copyright (c) 1988,1990,1992,1993,1995,1998,2003,2009,2016,
            Gaussian, Inc.  All Rights Reserved.
  
 This is part of the Gaussian(R) 16 program.  It is based on
 the Gaussian(R) 09 system (copyright 2009, Gaussian, Inc.),
 the Gaussian(R) 03 system (copyright 2003, Gaussian, Inc.),
 the Gaussian(R) 98 system (copyright 1998, Gaussian, Inc.),
 the Gaussian(R) 94 system (copyright 1995, Gaussian, Inc.),
 the Gaussian 92(TM) system (copyright 1992, Gaussian, Inc.),
 the Gaussian 90(TM) system (copyright 1990, Gaussian, Inc.),
 the Gaussian 88(TM) system (copyright 1988, Gaussian, Inc.),
 the Gaussian 86(TM) system (copyright 1986, Carnegie Mellon
 University), and the Gaussian 82(TM) system (copyright 1983,
 Carnegie Mellon University). Gaussian is a federally registered
 trademark of Gaussian, Inc.
  
 This software contains proprietary and confidential information,
 including trade secrets, belonging to Gaussian, Inc.
  
 This software is provided under written license and may be
 used, copied, transmitted, or stored only in accord with that
 written license.
  
 The following legend is applicable only to US Government
 contracts under FAR:
  
                    RESTRICTED RIGHTS LEGEND
  
 Use, reproduction and disclosure by the US Government is
 subject to restrictions as set forth in subparagraphs (a)
 and (c) of the Commercial Computer Software - Restricted
 Rights clause in FAR 52.227-19.
  
 Gaussian, Inc.
 340 Quinnipiac St., Bldg. 40, Wallingford CT 06492
  
  
 ---------------------------------------------------------------
 Warning -- This program may not be used in any manner that
 competes with the business of Gaussian, Inc. or will provide
 assistance to any competitor of Gaussian, Inc.  The licensee
 of this program is prohibited from giving any competitor of
 Gaussian, Inc. access to this program.  By using this program,
 the user acknowledges that Gaussian, Inc. is engaged in the
 business of creating and licensing software in the field of
 computational chemistry and represents and warrants to the
 licensee that it is not a competitor of Gaussian, Inc. and that
 it will not use this program in any manner prohibited above.
 ---------------------------------------------------------------
  

 Cite this work as:
 Gaussian 16, Revision A.03,
 M. J. Frisch, G. W. Trucks, H. B. Schlegel, G. E. Scuseria, 
 M. A. Robb, J. R. Cheeseman, G. Scalmani, V. Barone, 
 G. A. Petersson, H. Nakatsuji, X. Li, M. Caricato, A. V. Marenich, 
 J. Bloino, B. G. Janesko, R. Gomperts, B. Mennucci, H. P. Hratchian, 
 J. V. Ortiz, A. F. Izmaylov, J. L. Sonnenberg, D. Williams-Young, 
 F. Ding, F. Lipparini, F. Egidi, J. Goings, B. Peng, A. Petrone, 
 T. Henderson, D. Ranasinghe, V. G. Zakrzewski, J. Gao, N. Rega, 
 G. Zheng, W. Liang, M. Hada, M. Ehara, K. Toyota, R. Fukuda, 
 J. Hasegawa, M. Ishida, T. Nakajima, Y. Honda, O. Kitao, H. Nakai, 
 T. Vreven, K. Throssell, J. A. Montgomery, Jr., J. E. Peralta, 
 F. Ogliaro, M. J. Bearpark, J. J. Heyd, E. N. Brothers, K. N. Kudin, 
 V. N. Staroverov, T. A. Keith, R. Kobayashi, J. Normand, 
 K. Raghavachari, A. P. Rendell, J. C. Burant, S. S. Iyengar, 
 J. Tomasi, M. Cossi, J. M. Millam, M. Klene, C. Adamo, R. Cammi, 
 J. W. Ochterski, R. L. Martin, K. Morokuma, O. Farkas, 
 J. B. Foresman, and D. J. Fox, Gaussian, Inc., Wallingford CT, 2016.
 
 ******************************************
 Gaussian 16:  ES64L-G16RevA.03 25-Dec-2016
                24-Aug-2020 
 ******************************************
 %nprocshared=7
 Will use up to    7 processors via shared memory.
 %Mem=14GB
 %Chk=base_6_conf71.chk
 ---------------------------------
 # opt=CalcAll B3LYP/6-31G* scf=qc
 ---------------------------------
 1/10=4,18=20,19=15,26=3,38=1/1,3;
 2/9=110,12=2,17=6,18=5,40=1/2;
 3/5=1,6=6,7=1,11=2,25=1,30=1,71=2,74=-5,140=1/1,2,3;
 4//1;
 5/5=2,8=3,38=5/8;
 8/6=4,10=90,11=11/1;
 11/6=1,8=1,9=11,15=111,16=1/1,2,10;
 10/6=1/2;
 6/7=2,8=2,9=2,10=2,18=1,28=1/1;
 7/10=1,25=1/1,2,3,16;
 1/10=4,18=20,19=15,26=3/3(3);
 2/9=110/2;
 7/8=1,9=1,25=1,44=-1/16;
 99//99;
 2/9=110/2;
 3/5=1,6=6,7=1,11=2,25=1,30=1,71=2,74=-5,140=1/1,2,3;
 4/5=5,16=3,69=1/1;
 5/5=2,8=3,38=5/8;
 8/6=4,10=90,11=11/1;
 11/6=1,8=1,9=11,15=111,16=1/1,2,10;
 10/6=1/2;
 7/10=1,25=1/1,2,3,16;
 1/10=4,18=20,19=15,26=3/3(-8);
 2/9=110/2;
 6/7=2,8=2,9=2,10=2,18=1,19=2,28=1/1;
 7/8=1,9=1,25=1,44=-1/16;
 99//99;
 -------------------
 Title Card Required
 -------------------
 Symbolic Z-matrix:
 Charge =  0 Multiplicity = 1
 N                    -1.3325    0.0965    1.2627 
 C                    -1.3347   -0.677     0.0182 
 C                    -0.0666   -0.9542   -0.8227 
 N1                    1.1923   -1.3331   -0.1966 
 C                     2.2526   -0.3428   -0.3632 
 C                     2.1781    1.0394    0.3401 
 N                     0.8633    1.5949    0.6743 
 P                    -0.0423    0.9382    1.9236 
 N                     0.8413   -0.1292    2.8862 
 C                     1.5867   -1.2768    2.35 
 C                     1.0899   -2.0077    1.0914 
 C                     1.4522    0.2657    4.1847 
 C                     2.23578  -0.82672   4.92117 
 C                     2.24742   1.57265   4.108 
 C                     0.3903    2.6135   -0.2921 
 C                     0.22582   2.19595  -1.76767 
 C                    -0.95248   3.24283   0.13362 
 C                    -2.6256    0.0807    1.981 
 C                    -3.79533   0.67183   1.1707 
 C                    -2.99576  -1.33238   2.45026 
 H                    -2.0236   -0.1957   -0.6861 
 H                    -1.7651   -1.6605    0.2217 
 H                     0.0784   -0.1219   -1.5231 
 H                    -0.3264   -1.7969   -1.4792 
 H                     2.3486   -0.1513   -1.4414 
 H                     3.212    -0.8052   -0.0938 
 H                     2.743     1.7228   -0.3027 
 H                     2.7948    1.0104    1.243 
 H                     1.589    -2.0553    3.1279 
 H                     2.6431   -1.0107    2.2176 
 H                     0.0892   -2.415     1.2778 
 H                     1.7144   -2.9071    1.0026 
 H                     0.63732   0.52073   4.8774 
 H                     3.17335  -1.08045   4.41825 
 H                     1.63792  -1.73548   5.03491 
 H                     2.4792   -0.48943   5.93738 
 H                     3.17727   1.45874   3.54367 
 H                     2.52255   1.89774   5.1274 
 H                     1.65551   2.37359   3.66545 
 H                     1.13345   3.42232  -0.3042 
 H                    -0.49198   1.37739  -1.88649 
 H                     1.17902   1.90825  -2.21447 
 H                    -0.14443   3.03772  -2.36634 
 H                    -1.76004   2.50469   0.12457 
 H                    -1.22898   4.05033  -0.55681 
 H                    -0.91657   3.69667   1.12655 
 H                    -2.55503   0.70161   2.88624 
 H                    -3.99236   0.1171    0.24691 
 H                    -3.60541   1.71739   0.91068 
 H                    -4.72269   0.64188   1.75487 
 H                    -3.22961  -2.00061   1.61532 
 H                    -3.88356  -1.29947   3.0917 
 H                    -2.18559  -1.77886   3.03308 
 

 GradGradGradGradGradGradGradGradGradGradGradGradGradGradGradGradGradGrad
 Berny optimization.
 Initialization pass.
                           ----------------------------
                           !    Initial Parameters    !
                           ! (Angstroms and Degrees)  !
 --------------------------                            --------------------------
 ! Name  Definition              Value          Derivative Info.                !
 --------------------------------------------------------------------------------
 ! R1    R(1,2)                  1.4653         calculate D2E/DX2 analytically  !
 ! R2    R(1,8)                  1.6763         calculate D2E/DX2 analytically  !
 ! R3    R(1,18)                 1.4793         calculate D2E/DX2 analytically  !
 ! R4    R(2,3)                  1.5466         calculate D2E/DX2 analytically  !
 ! R5    R(2,21)                 1.0965         calculate D2E/DX2 analytically  !
 ! R6    R(2,22)                 1.0927         calculate D2E/DX2 analytically  !
 ! R7    R(3,4)                  1.4562         calculate D2E/DX2 analytically  !
 ! R8    R(3,23)                 1.0974         calculate D2E/DX2 analytically  !
 ! R9    R(3,24)                 1.0994         calculate D2E/DX2 analytically  !
 ! R10   R(4,5)                  1.4604         calculate D2E/DX2 analytically  !
 ! R11   R(4,11)                 1.4576         calculate D2E/DX2 analytically  !
 ! R12   R(5,6)                  1.5526         calculate D2E/DX2 analytically  !
 ! R13   R(5,25)                 1.0993         calculate D2E/DX2 analytically  !
 ! R14   R(5,26)                 1.0986         calculate D2E/DX2 analytically  !
 ! R15   R(6,7)                  1.4659         calculate D2E/DX2 analytically  !
 ! R16   R(6,27)                 1.0951         calculate D2E/DX2 analytically  !
 ! R17   R(6,28)                 1.0938         calculate D2E/DX2 analytically  !
 ! R18   R(7,8)                  1.6769         calculate D2E/DX2 analytically  !
 ! R19   R(7,15)                 1.4816         calculate D2E/DX2 analytically  !
 ! R20   R(8,9)                  1.6872         calculate D2E/DX2 analytically  !
 ! R21   R(9,10)                 1.4697         calculate D2E/DX2 analytically  !
 ! R22   R(9,12)                 1.4884         calculate D2E/DX2 analytically  !
 ! R23   R(10,11)                1.5379         calculate D2E/DX2 analytically  !
 ! R24   R(10,29)                1.1005         calculate D2E/DX2 analytically  !
 ! R25   R(10,30)                1.0974         calculate D2E/DX2 analytically  !
 ! R26   R(11,31)                1.0964         calculate D2E/DX2 analytically  !
 ! R27   R(11,32)                1.0985         calculate D2E/DX2 analytically  !
 ! R28   R(12,13)                1.5329         calculate D2E/DX2 analytically  !
 ! R29   R(12,14)                1.5318         calculate D2E/DX2 analytically  !
 ! R30   R(12,33)                1.0995         calculate D2E/DX2 analytically  !
 ! R31   R(13,34)                1.0938         calculate D2E/DX2 analytically  !
 ! R32   R(13,35)                1.0937         calculate D2E/DX2 analytically  !
 ! R33   R(13,36)                1.098          calculate D2E/DX2 analytically  !
 ! R34   R(14,37)                1.0936         calculate D2E/DX2 analytically  !
 ! R35   R(14,38)                1.1048         calculate D2E/DX2 analytically  !
 ! R36   R(14,39)                1.0898         calculate D2E/DX2 analytically  !
 ! R37   R(15,16)                1.5423         calculate D2E/DX2 analytically  !
 ! R38   R(15,17)                1.5428         calculate D2E/DX2 analytically  !
 ! R39   R(15,40)                1.0985         calculate D2E/DX2 analytically  !
 ! R40   R(16,41)                1.0952         calculate D2E/DX2 analytically  !
 ! R41   R(16,42)                1.0913         calculate D2E/DX2 analytically  !
 ! R42   R(16,43)                1.0973         calculate D2E/DX2 analytically  !
 ! R43   R(17,44)                1.0941         calculate D2E/DX2 analytically  !
 ! R44   R(17,45)                1.0978         calculate D2E/DX2 analytically  !
 ! R45   R(17,46)                1.0923         calculate D2E/DX2 analytically  !
 ! R46   R(18,19)                1.5409         calculate D2E/DX2 analytically  !
 ! R47   R(18,20)                1.5343         calculate D2E/DX2 analytically  !
 ! R48   R(18,47)                1.1            calculate D2E/DX2 analytically  !
 ! R49   R(19,48)                1.0954         calculate D2E/DX2 analytically  !
 ! R50   R(19,49)                1.094          calculate D2E/DX2 analytically  !
 ! R51   R(19,50)                1.0964         calculate D2E/DX2 analytically  !
 ! R52   R(20,51)                1.0947         calculate D2E/DX2 analytically  !
 ! R53   R(20,52)                1.0958         calculate D2E/DX2 analytically  !
 ! R54   R(20,53)                1.0933         calculate D2E/DX2 analytically  !
 ! A1    A(2,1,8)              126.9472         calculate D2E/DX2 analytically  !
 ! A2    A(2,1,18)             113.9194         calculate D2E/DX2 analytically  !
 ! A3    A(8,1,18)             119.1257         calculate D2E/DX2 analytically  !
 ! A4    A(1,2,3)              123.7215         calculate D2E/DX2 analytically  !
 ! A5    A(1,2,21)             108.3469         calculate D2E/DX2 analytically  !
 ! A6    A(1,2,22)             108.515          calculate D2E/DX2 analytically  !
 ! A7    A(3,2,21)             104.1569         calculate D2E/DX2 analytically  !
 ! A8    A(3,2,22)             105.2422         calculate D2E/DX2 analytically  !
 ! A9    A(21,2,22)            105.5002         calculate D2E/DX2 analytically  !
 ! A10   A(2,3,4)              121.447          calculate D2E/DX2 analytically  !
 ! A11   A(2,3,23)             108.6273         calculate D2E/DX2 analytically  !
 ! A12   A(2,3,24)             105.5631         calculate D2E/DX2 analytically  !
 ! A13   A(4,3,23)             110.9488         calculate D2E/DX2 analytically  !
 ! A14   A(4,3,24)             105.1654         calculate D2E/DX2 analytically  !
 ! A15   A(23,3,24)            103.3825         calculate D2E/DX2 analytically  !
 ! A16   A(3,4,5)              113.7154         calculate D2E/DX2 analytically  !
 ! A17   A(3,4,11)             116.0808         calculate D2E/DX2 analytically  !
 ! A18   A(5,4,11)             117.7532         calculate D2E/DX2 analytically  !
 ! A19   A(4,5,6)              121.1423         calculate D2E/DX2 analytically  !
 ! A20   A(4,5,25)             107.0635         calculate D2E/DX2 analytically  !
 ! A21   A(4,5,26)             108.7035         calculate D2E/DX2 analytically  !
 ! A22   A(6,5,25)             107.0614         calculate D2E/DX2 analytically  !
 ! A23   A(6,5,26)             107.7902         calculate D2E/DX2 analytically  !
 ! A24   A(25,5,26)            103.7441         calculate D2E/DX2 analytically  !
 ! A25   A(5,6,7)              118.9239         calculate D2E/DX2 analytically  !
 ! A26   A(5,6,27)             105.3612         calculate D2E/DX2 analytically  !
 ! A27   A(5,6,28)             108.8603         calculate D2E/DX2 analytically  !
 ! A28   A(7,6,27)             111.0993         calculate D2E/DX2 analytically  !
 ! A29   A(7,6,28)             109.1199         calculate D2E/DX2 analytically  !
 ! A30   A(27,6,28)            102.1359         calculate D2E/DX2 analytically  !
 ! A31   A(6,7,8)              120.3846         calculate D2E/DX2 analytically  !
 ! A32   A(6,7,15)             113.4624         calculate D2E/DX2 analytically  !
 ! A33   A(8,7,15)             125.6441         calculate D2E/DX2 analytically  !
 ! A34   A(1,8,7)              108.5763         calculate D2E/DX2 analytically  !
 ! A35   A(1,8,9)              108.0811         calculate D2E/DX2 analytically  !
 ! A36   A(7,8,9)              112.9524         calculate D2E/DX2 analytically  !
 ! A37   A(8,9,10)             123.4659         calculate D2E/DX2 analytically  !
 ! A38   A(8,9,12)             123.014          calculate D2E/DX2 analytically  !
 ! A39   A(10,9,12)            108.4992         calculate D2E/DX2 analytically  !
 ! A40   A(9,10,11)            120.3867         calculate D2E/DX2 analytically  !
 ! A41   A(9,10,29)            107.1889         calculate D2E/DX2 analytically  !
 ! A42   A(9,10,30)            110.0533         calculate D2E/DX2 analytically  !
 ! A43   A(11,10,29)           104.0609         calculate D2E/DX2 analytically  !
 ! A44   A(11,10,30)           109.1154         calculate D2E/DX2 analytically  !
 ! A45   A(29,10,30)           104.7611         calculate D2E/DX2 analytically  !
 ! A46   A(4,11,10)            118.7198         calculate D2E/DX2 analytically  !
 ! A47   A(4,11,31)            112.7243         calculate D2E/DX2 analytically  !
 ! A48   A(4,11,32)            105.5188         calculate D2E/DX2 analytically  !
 ! A49   A(10,11,31)           109.4066         calculate D2E/DX2 analytically  !
 ! A50   A(10,11,32)           105.7606         calculate D2E/DX2 analytically  !
 ! A51   A(31,11,32)           103.2065         calculate D2E/DX2 analytically  !
 ! A52   A(9,12,13)            116.0964         calculate D2E/DX2 analytically  !
 ! A53   A(9,12,14)            113.3144         calculate D2E/DX2 analytically  !
 ! A54   A(9,12,33)            107.8777         calculate D2E/DX2 analytically  !
 ! A55   A(13,12,14)           111.5141         calculate D2E/DX2 analytically  !
 ! A56   A(13,12,33)           103.9731         calculate D2E/DX2 analytically  !
 ! A57   A(14,12,33)           102.615          calculate D2E/DX2 analytically  !
 ! A58   A(12,13,34)           112.4938         calculate D2E/DX2 analytically  !
 ! A59   A(12,13,35)           111.2645         calculate D2E/DX2 analytically  !
 ! A60   A(12,13,36)           109.819          calculate D2E/DX2 analytically  !
 ! A61   A(34,13,35)           108.8829         calculate D2E/DX2 analytically  !
 ! A62   A(34,13,36)           107.8644         calculate D2E/DX2 analytically  !
 ! A63   A(35,13,36)           106.27           calculate D2E/DX2 analytically  !
 ! A64   A(12,14,37)           112.2322         calculate D2E/DX2 analytically  !
 ! A65   A(12,14,38)           109.5207         calculate D2E/DX2 analytically  !
 ! A66   A(12,14,39)           111.4338         calculate D2E/DX2 analytically  !
 ! A67   A(37,14,38)           107.1598         calculate D2E/DX2 analytically  !
 ! A68   A(37,14,39)           109.1953         calculate D2E/DX2 analytically  !
 ! A69   A(38,14,39)           107.079          calculate D2E/DX2 analytically  !
 ! A70   A(7,15,16)            118.1613         calculate D2E/DX2 analytically  !
 ! A71   A(7,15,17)            112.2283         calculate D2E/DX2 analytically  !
 ! A72   A(7,15,40)            107.3026         calculate D2E/DX2 analytically  !
 ! A73   A(16,15,17)           106.3562         calculate D2E/DX2 analytically  !
 ! A74   A(16,15,40)           105.1268         calculate D2E/DX2 analytically  !
 ! A75   A(17,15,40)           106.948          calculate D2E/DX2 analytically  !
 ! A76   A(15,16,41)           112.0892         calculate D2E/DX2 analytically  !
 ! A77   A(15,16,42)           111.7106         calculate D2E/DX2 analytically  !
 ! A78   A(15,16,43)           110.5042         calculate D2E/DX2 analytically  !
 ! A79   A(41,16,42)           109.3301         calculate D2E/DX2 analytically  !
 ! A80   A(41,16,43)           107.0393         calculate D2E/DX2 analytically  !
 ! A81   A(42,16,43)           105.8773         calculate D2E/DX2 analytically  !
 ! A82   A(15,17,44)           111.4023         calculate D2E/DX2 analytically  !
 ! A83   A(15,17,45)           110.2246         calculate D2E/DX2 analytically  !
 ! A84   A(15,17,46)           113.0597         calculate D2E/DX2 analytically  !
 ! A85   A(44,17,45)           107.7663         calculate D2E/DX2 analytically  !
 ! A86   A(44,17,46)           108.185          calculate D2E/DX2 analytically  !
 ! A87   A(45,17,46)           105.9237         calculate D2E/DX2 analytically  !
 ! A88   A(1,18,19)            113.8373         calculate D2E/DX2 analytically  !
 ! A89   A(1,18,20)            111.6688         calculate D2E/DX2 analytically  !
 ! A90   A(1,18,47)            109.7242         calculate D2E/DX2 analytically  !
 ! A91   A(19,18,20)           109.3305         calculate D2E/DX2 analytically  !
 ! A92   A(19,18,47)           105.3623         calculate D2E/DX2 analytically  !
 ! A93   A(20,18,47)           106.4786         calculate D2E/DX2 analytically  !
 ! A94   A(18,19,48)           112.6902         calculate D2E/DX2 analytically  !
 ! A95   A(18,19,49)           111.0905         calculate D2E/DX2 analytically  !
 ! A96   A(18,19,50)           110.5741         calculate D2E/DX2 analytically  !
 ! A97   A(48,19,49)           108.3468         calculate D2E/DX2 analytically  !
 ! A98   A(48,19,50)           106.4604         calculate D2E/DX2 analytically  !
 ! A99   A(49,19,50)           107.4317         calculate D2E/DX2 analytically  !
 ! A100  A(18,20,51)           112.3627         calculate D2E/DX2 analytically  !
 ! A101  A(18,20,52)           110.2945         calculate D2E/DX2 analytically  !
 ! A102  A(18,20,53)           111.1227         calculate D2E/DX2 analytically  !
 ! A103  A(51,20,52)           106.9618         calculate D2E/DX2 analytically  !
 ! A104  A(51,20,53)           108.3968         calculate D2E/DX2 analytically  !
 ! A105  A(52,20,53)           107.4928         calculate D2E/DX2 analytically  !
 ! D1    D(8,1,2,3)              6.5288         calculate D2E/DX2 analytically  !
 ! D2    D(8,1,2,21)          -115.5544         calculate D2E/DX2 analytically  !
 ! D3    D(8,1,2,22)           130.3676         calculate D2E/DX2 analytically  !
 ! D4    D(18,1,2,3)          -172.4484         calculate D2E/DX2 analytically  !
 ! D5    D(18,1,2,21)           65.4684         calculate D2E/DX2 analytically  !
 ! D6    D(18,1,2,22)          -48.6096         calculate D2E/DX2 analytically  !
 ! D7    D(2,1,8,7)             35.5067         calculate D2E/DX2 analytically  !
 ! D8    D(2,1,8,9)            -87.3469         calculate D2E/DX2 analytically  !
 ! D9    D(18,1,8,7)          -145.5636         calculate D2E/DX2 analytically  !
 ! D10   D(18,1,8,9)            91.5828         calculate D2E/DX2 analytically  !
 ! D11   D(2,1,18,19)          -60.7058         calculate D2E/DX2 analytically  !
 ! D12   D(2,1,18,20)           63.6932         calculate D2E/DX2 analytically  !
 ! D13   D(2,1,18,47)         -178.4865         calculate D2E/DX2 analytically  !
 ! D14   D(8,1,18,19)          120.2299         calculate D2E/DX2 analytically  !
 ! D15   D(8,1,18,20)         -115.3711         calculate D2E/DX2 analytically  !
 ! D16   D(8,1,18,47)            2.4492         calculate D2E/DX2 analytically  !
 ! D17   D(1,2,3,4)             43.0242         calculate D2E/DX2 analytically  !
 ! D18   D(1,2,3,23)           -87.3954         calculate D2E/DX2 analytically  !
 ! D19   D(1,2,3,24)           162.2751         calculate D2E/DX2 analytically  !
 ! D20   D(21,2,3,4)           166.9873         calculate D2E/DX2 analytically  !
 ! D21   D(21,2,3,23)           36.5676         calculate D2E/DX2 analytically  !
 ! D22   D(21,2,3,24)          -73.7618         calculate D2E/DX2 analytically  !
 ! D23   D(22,2,3,4)           -82.2565         calculate D2E/DX2 analytically  !
 ! D24   D(22,2,3,23)          147.3239         calculate D2E/DX2 analytically  !
 ! D25   D(22,2,3,24)           36.9944         calculate D2E/DX2 analytically  !
 ! D26   D(2,3,4,5)           -114.6653         calculate D2E/DX2 analytically  !
 ! D27   D(2,3,4,11)            26.7144         calculate D2E/DX2 analytically  !
 ! D28   D(23,3,4,5)            14.756          calculate D2E/DX2 analytically  !
 ! D29   D(23,3,4,11)          156.1357         calculate D2E/DX2 analytically  !
 ! D30   D(24,3,4,5)           125.8894         calculate D2E/DX2 analytically  !
 ! D31   D(24,3,4,11)          -92.7309         calculate D2E/DX2 analytically  !
 ! D32   D(3,4,5,6)             68.5652         calculate D2E/DX2 analytically  !
 ! D33   D(3,4,5,25)           -54.3947         calculate D2E/DX2 analytically  !
 ! D34   D(3,4,5,26)          -165.8822         calculate D2E/DX2 analytically  !
 ! D35   D(11,4,5,6)           -72.1277         calculate D2E/DX2 analytically  !
 ! D36   D(11,4,5,25)          164.9123         calculate D2E/DX2 analytically  !
 ! D37   D(11,4,5,26)           53.4248         calculate D2E/DX2 analytically  !
 ! D38   D(3,4,11,10)         -112.0917         calculate D2E/DX2 analytically  !
 ! D39   D(3,4,11,31)           17.7182         calculate D2E/DX2 analytically  !
 ! D40   D(3,4,11,32)          129.6408         calculate D2E/DX2 analytically  !
 ! D41   D(5,4,11,10)           27.6876         calculate D2E/DX2 analytically  !
 ! D42   D(5,4,11,31)          157.4975         calculate D2E/DX2 analytically  !
 ! D43   D(5,4,11,32)          -90.5799         calculate D2E/DX2 analytically  !
 ! D44   D(4,5,6,7)            -26.5093         calculate D2E/DX2 analytically  !
 ! D45   D(4,5,6,27)          -151.8424         calculate D2E/DX2 analytically  !
 ! D46   D(4,5,6,28)            99.2384         calculate D2E/DX2 analytically  !
 ! D47   D(25,5,6,7)            96.4516         calculate D2E/DX2 analytically  !
 ! D48   D(25,5,6,27)          -28.8815         calculate D2E/DX2 analytically  !
 ! D49   D(25,5,6,28)         -137.8007         calculate D2E/DX2 analytically  !
 ! D50   D(26,5,6,7)          -152.48           calculate D2E/DX2 analytically  !
 ! D51   D(26,5,6,27)           82.187          calculate D2E/DX2 analytically  !
 ! D52   D(26,5,6,28)          -26.7322         calculate D2E/DX2 analytically  !
 ! D53   D(5,6,7,8)             72.2746         calculate D2E/DX2 analytically  !
 ! D54   D(5,6,7,15)           -99.993          calculate D2E/DX2 analytically  !
 ! D55   D(27,6,7,8)          -165.2037         calculate D2E/DX2 analytically  !
 ! D56   D(27,6,7,15)           22.5286         calculate D2E/DX2 analytically  !
 ! D57   D(28,6,7,8)           -53.3487         calculate D2E/DX2 analytically  !
 ! D58   D(28,6,7,15)          134.3837         calculate D2E/DX2 analytically  !
 ! D59   D(6,7,8,1)           -107.7318         calculate D2E/DX2 analytically  !
 ! D60   D(6,7,8,9)             12.1292         calculate D2E/DX2 analytically  !
 ! D61   D(15,7,8,1)            63.5326         calculate D2E/DX2 analytically  !
 ! D62   D(15,7,8,9)          -176.6064         calculate D2E/DX2 analytically  !
 ! D63   D(6,7,15,16)           59.2943         calculate D2E/DX2 analytically  !
 ! D64   D(6,7,15,17)         -176.3841         calculate D2E/DX2 analytically  !
 ! D65   D(6,7,15,40)          -59.1815         calculate D2E/DX2 analytically  !
 ! D66   D(8,7,15,16)         -112.4944         calculate D2E/DX2 analytically  !
 ! D67   D(8,7,15,17)           11.8272         calculate D2E/DX2 analytically  !
 ! D68   D(8,7,15,40)          129.0298         calculate D2E/DX2 analytically  !
 ! D69   D(1,8,9,10)            66.4619         calculate D2E/DX2 analytically  !
 ! D70   D(1,8,9,12)          -141.5205         calculate D2E/DX2 analytically  !
 ! D71   D(7,8,9,10)           -53.6833         calculate D2E/DX2 analytically  !
 ! D72   D(7,8,9,12)            98.3344         calculate D2E/DX2 analytically  !
 ! D73   D(8,9,10,11)          -31.3803         calculate D2E/DX2 analytically  !
 ! D74   D(8,9,10,29)         -149.818          calculate D2E/DX2 analytically  !
 ! D75   D(8,9,10,30)           96.8018         calculate D2E/DX2 analytically  !
 ! D76   D(12,9,10,11)         173.1314         calculate D2E/DX2 analytically  !
 ! D77   D(12,9,10,29)          54.6937         calculate D2E/DX2 analytically  !
 ! D78   D(12,9,10,30)         -58.6865         calculate D2E/DX2 analytically  !
 ! D79   D(8,9,12,13)         -179.2941         calculate D2E/DX2 analytically  !
 ! D80   D(8,9,12,14)          -48.3166         calculate D2E/DX2 analytically  !
 ! D81   D(8,9,12,33)           64.5693         calculate D2E/DX2 analytically  !
 ! D82   D(10,9,12,13)         -23.6712         calculate D2E/DX2 analytically  !
 ! D83   D(10,9,12,14)         107.3063         calculate D2E/DX2 analytically  !
 ! D84   D(10,9,12,33)        -139.8078         calculate D2E/DX2 analytically  !
 ! D85   D(9,10,11,4)           70.9889         calculate D2E/DX2 analytically  !
 ! D86   D(9,10,11,31)         -60.3146         calculate D2E/DX2 analytically  !
 ! D87   D(9,10,11,32)        -170.8699         calculate D2E/DX2 analytically  !
 ! D88   D(29,10,11,4)        -169.0092         calculate D2E/DX2 analytically  !
 ! D89   D(29,10,11,31)         59.6874         calculate D2E/DX2 analytically  !
 ! D90   D(29,10,11,32)        -50.8679         calculate D2E/DX2 analytically  !
 ! D91   D(30,10,11,4)         -57.6144         calculate D2E/DX2 analytically  !
 ! D92   D(30,10,11,31)        171.0821         calculate D2E/DX2 analytically  !
 ! D93   D(30,10,11,32)         60.5268         calculate D2E/DX2 analytically  !
 ! D94   D(9,12,13,34)          70.3399         calculate D2E/DX2 analytically  !
 ! D95   D(9,12,13,35)         -52.1414         calculate D2E/DX2 analytically  !
 ! D96   D(9,12,13,36)        -169.5167         calculate D2E/DX2 analytically  !
 ! D97   D(14,12,13,34)        -61.48           calculate D2E/DX2 analytically  !
 ! D98   D(14,12,13,35)        176.0387         calculate D2E/DX2 analytically  !
 ! D99   D(14,12,13,36)         58.6634         calculate D2E/DX2 analytically  !
 ! D100  D(33,12,13,34)       -171.3568         calculate D2E/DX2 analytically  !
 ! D101  D(33,12,13,35)         66.1618         calculate D2E/DX2 analytically  !
 ! D102  D(33,12,13,36)        -51.2134         calculate D2E/DX2 analytically  !
 ! D103  D(9,12,14,37)         -70.8695         calculate D2E/DX2 analytically  !
 ! D104  D(9,12,14,38)         170.2436         calculate D2E/DX2 analytically  !
 ! D105  D(9,12,14,39)          51.9538         calculate D2E/DX2 analytically  !
 ! D106  D(13,12,14,37)         62.3465         calculate D2E/DX2 analytically  !
 ! D107  D(13,12,14,38)        -56.5405         calculate D2E/DX2 analytically  !
 ! D108  D(13,12,14,39)       -174.8302         calculate D2E/DX2 analytically  !
 ! D109  D(33,12,14,37)        173.0903         calculate D2E/DX2 analytically  !
 ! D110  D(33,12,14,38)         54.2034         calculate D2E/DX2 analytically  !
 ! D111  D(33,12,14,39)        -64.0863         calculate D2E/DX2 analytically  !
 ! D112  D(7,15,16,41)          59.7677         calculate D2E/DX2 analytically  !
 ! D113  D(7,15,16,42)         -63.3319         calculate D2E/DX2 analytically  !
 ! D114  D(7,15,16,43)         179.0688         calculate D2E/DX2 analytically  !
 ! D115  D(17,15,16,41)        -67.4111         calculate D2E/DX2 analytically  !
 ! D116  D(17,15,16,42)        169.4894         calculate D2E/DX2 analytically  !
 ! D117  D(17,15,16,43)         51.8901         calculate D2E/DX2 analytically  !
 ! D118  D(40,15,16,41)        179.3829         calculate D2E/DX2 analytically  !
 ! D119  D(40,15,16,42)         56.2833         calculate D2E/DX2 analytically  !
 ! D120  D(40,15,16,43)        -61.3159         calculate D2E/DX2 analytically  !
 ! D121  D(7,15,17,44)         -65.2494         calculate D2E/DX2 analytically  !
 ! D122  D(7,15,17,45)         175.1688         calculate D2E/DX2 analytically  !
 ! D123  D(7,15,17,46)          56.8346         calculate D2E/DX2 analytically  !
 ! D124  D(16,15,17,44)         65.3895         calculate D2E/DX2 analytically  !
 ! D125  D(16,15,17,45)        -54.1924         calculate D2E/DX2 analytically  !
 ! D126  D(16,15,17,46)       -172.5265         calculate D2E/DX2 analytically  !
 ! D127  D(40,15,17,44)        177.3364         calculate D2E/DX2 analytically  !
 ! D128  D(40,15,17,45)         57.7545         calculate D2E/DX2 analytically  !
 ! D129  D(40,15,17,46)        -60.5796         calculate D2E/DX2 analytically  !
 ! D130  D(1,18,19,48)          61.4942         calculate D2E/DX2 analytically  !
 ! D131  D(1,18,19,49)         -60.3036         calculate D2E/DX2 analytically  !
 ! D132  D(1,18,19,50)        -179.4942         calculate D2E/DX2 analytically  !
 ! D133  D(20,18,19,48)        -64.1524         calculate D2E/DX2 analytically  !
 ! D134  D(20,18,19,49)        174.0498         calculate D2E/DX2 analytically  !
 ! D135  D(20,18,19,50)         54.8592         calculate D2E/DX2 analytically  !
 ! D136  D(47,18,19,48)       -178.2391         calculate D2E/DX2 analytically  !
 ! D137  D(47,18,19,49)         59.9631         calculate D2E/DX2 analytically  !
 ! D138  D(47,18,19,50)        -59.2275         calculate D2E/DX2 analytically  !
 ! D139  D(1,18,20,51)         -68.3138         calculate D2E/DX2 analytically  !
 ! D140  D(1,18,20,52)         172.4456         calculate D2E/DX2 analytically  !
 ! D141  D(1,18,20,53)          53.3396         calculate D2E/DX2 analytically  !
 ! D142  D(19,18,20,51)         58.5725         calculate D2E/DX2 analytically  !
 ! D143  D(19,18,20,52)        -60.6681         calculate D2E/DX2 analytically  !
 ! D144  D(19,18,20,53)       -179.7742         calculate D2E/DX2 analytically  !
 ! D145  D(47,18,20,51)        171.9346         calculate D2E/DX2 analytically  !
 ! D146  D(47,18,20,52)         52.694          calculate D2E/DX2 analytically  !
 ! D147  D(47,18,20,53)        -66.4121         calculate D2E/DX2 analytically  !
 --------------------------------------------------------------------------------
 Trust Radius=3.00D-01 FncErr=1.00D-07 GrdErr=1.00D-06 EigMax=2.50D+02 EigMin=1.00D-04
 Number of steps in this run=    316 maximum allowed number of steps=    318.
 GradGradGradGradGradGradGradGradGradGradGradGradGradGradGradGradGradGrad

 Stoichiometry    C15H33N4P
 Framework group  C1[X(C15H33N4P)]
 Deg. of freedom   153
 Full point group                 C1      NOp   1
 Largest Abelian subgroup         C1      NOp   1
 Largest concise Abelian subgroup C1      NOp   1
                         Standard orientation:                         
 ---------------------------------------------------------------------
 Center     Atomic      Atomic             Coordinates (Angstroms)
 Number     Number       Type             X           Y           Z
 ---------------------------------------------------------------------
      1          7           0       -0.978098    1.126208    0.047869
      2          6           0       -1.661393    0.713739    1.276716
      3          6           0       -1.340789   -0.592416    2.040393
      4          7           0        0.031639   -1.026752    2.259909
      5          6           0        0.370759   -2.270827    1.574372
      6          6           0        0.469517   -2.333344    0.026148
      7          7           0       -0.308531   -1.381969   -0.772911
      8         15           0        0.133473    0.234483   -0.834797
      9          7           0        1.665959    0.522681   -0.190498
     10          6           0        2.071890    0.097466    1.156547
     11          6           0        1.039238    0.025913    2.293917
     12          6           0        2.886807    0.657552   -1.031085
     13          6           0        4.199943    0.901297   -0.278736
     14          6           0        3.033580   -0.458124   -2.070364
     15          6           0       -1.558534   -1.956931   -1.322561
     16          6           0       -2.601593   -2.512408   -0.331510
     17          6           0       -2.309289   -0.960774   -2.230522
     18          6           0       -1.328110    2.490631   -0.403967
     19          6           0       -2.824136    2.676421   -0.722836
     20          6           0       -0.889464    3.553701    0.611656
     21          1           0       -2.735675    0.645590    1.068041
     22          1           0       -1.557569    1.511615    2.016002
     23          1           0       -1.946091   -1.403804    1.616640
     24          1           0       -1.764130   -0.457638    3.046002
     25          1           0       -0.372270   -3.020810    1.880701
     26          1           0        1.314026   -2.654401    1.986632
     27          1           0        0.221197   -3.366506   -0.238906
     28          1           0        1.522132   -2.268175   -0.263927
     29          1           0        2.816146    0.823931    1.516445
     30          1           0        2.614131   -0.855125    1.103014
     31          1           0        0.607438    1.020392    2.457012
     32          1           0        1.617423   -0.150176    3.211250
     33          1           0        2.768710    1.554188   -1.656385
     34          1           0        4.532824    0.020722    0.278150
     35          1           0        4.110543    1.744246    0.412396
     36          1           0        4.992318    1.169389   -0.990051
     37          1           0        3.283042   -1.419633   -1.612833
     38          1           0        3.852337   -0.207079   -2.768339
     39          1           0        2.127804   -0.569068   -2.666161
     40          1           0       -1.275965   -2.812534   -1.950817
     41          1           0       -2.957007   -1.745698    0.365076
     42          1           0       -2.210307   -3.360231    0.233364
     43          1           0       -3.480150   -2.890018   -0.869670
     44          1           0       -2.667283   -0.095887   -1.664044
     45          1           0       -3.181515   -1.446511   -2.687121
     46          1           0       -1.700458   -0.596139   -3.060905
     47          1           0       -0.799860    2.718129   -1.341605
     48          1           0       -3.466095    2.507100    0.148458
     49          1           0       -3.143144    2.000921   -1.522092
     50          1           0       -3.021896    3.700781   -1.060067
     51          1           0       -1.464898    3.503841    1.541565
     52          1           0       -1.036391    4.557807    0.198254
     53          1           0        0.171196    3.450978    0.856295
 ---------------------------------------------------------------------
 Rotational constants (GHZ):           0.3705130           0.3038997           0.2594151
 Standard basis: 6-31G(d) (6D, 7F)
 There are   370 symmetry adapted cartesian basis functions of A   symmetry.
 There are   370 symmetry adapted basis functions of A   symmetry.
   370 basis functions,   716 primitive gaussians,   370 cartesian basis functions
    83 alpha electrons       83 beta electrons
       nuclear repulsion energy      2095.8702618716 Hartrees.
 NAtoms=   53 NActive=   53 NUniq=   53 SFac= 1.00D+00 NAtFMM=   60 NAOKFM=F Big=F
 Integral buffers will be    131072 words long.
 Raffenetti 2 integral format.
 Two-electron integral symmetry is turned on.
 One-electron integrals computed using PRISM.
 NBasis=   370 RedAO= T EigKep=  2.91D-03  NBF=   370
 NBsUse=   370 1.00D-06 EigRej= -1.00D+00 NBFU=   370
 ExpMin= 9.98D-02 ExpMax= 1.94D+04 ExpMxC= 2.91D+03 IAcc=3 IRadAn=         5 AccDes= 0.00D+00
 Harris functional with IExCor=  402 and IRadAn=       5 diagonalized for initial guess.
 HarFok:  IExCor=  402 AccDes= 0.00D+00 IRadAn=         5 IDoV= 1 UseB2=F ITyADJ=14
 ICtDFT=  3500011 ScaDFX=  1.000000  1.000000  1.000000  1.000000
 FoFCou: FMM=F IPFlag=           0 FMFlag=      100000 FMFlg1=           0
         NFxFlg=           0 DoJE=T BraDBF=F KetDBF=T FulRan=T
         wScrn=  0.000000 ICntrl=       500 IOpCl=  0 I1Cent=   200000004 NGrid=           0
         NMat0=    1 NMatS0=      1 NMatT0=    0 NMatD0=    1 NMtDS0=    0 NMtDT0=    0
 Petite list used in FoFCou.
 Gradient too large for Newton-Raphson -- use scaled steepest descent instead.
     Accept linear search using points  2 and  3.
 Gradient too large for Newton-Raphson -- use scaled steepest descent instead.
     Minimum is close to point  3 DX=  2.82D-02 DF= -5.28D-05 DXR=  3.88D-02 DFR=  1.51D-03 which will be used.
 Gradient too large for Newton-Raphson -- use scaled steepest descent instead.
 Gradient too large for Newton-Raphson -- use scaled steepest descent instead.
     Accept linear search using points  1 and  2.
 Gradient too large for Newton-Raphson -- use scaled steepest descent instead.
     Accept linear search using points  2 and  3.
 LinEq1:  Iter=  0 NonCon=     1 RMS=2.72D-05 Max=6.95D-04 NDo=     1
 AX will form     1 AO Fock derivatives at one time.
 LinEq1:  Iter=  1 NonCon=     1 RMS=2.30D-05 Max=1.56D-03 NDo=     1
 LinEq1:  Iter=  2 NonCon=     1 RMS=5.83D-06 Max=1.86D-04 NDo=     1
 LinEq1:  Iter=  3 NonCon=     1 RMS=4.09D-06 Max=2.44D-04 NDo=     1
 LinEq1:  Iter=  4 NonCon=     1 RMS=1.14D-06 Max=3.78D-05 NDo=     1
 LinEq1:  Iter=  5 NonCon=     1 RMS=5.48D-07 Max=2.01D-05 NDo=     1
 LinEq1:  Iter=  6 NonCon=     1 RMS=2.83D-07 Max=6.16D-06 NDo=     1
 LinEq1:  Iter=  7 NonCon=     1 RMS=1.74D-07 Max=5.28D-06 NDo=     1
 LinEq1:  Iter=  8 NonCon=     1 RMS=6.68D-08 Max=1.78D-06 NDo=     1
 LinEq1:  Iter=  9 NonCon=     1 RMS=3.62D-08 Max=1.16D-06 NDo=     1
 LinEq1:  Iter= 10 NonCon=     1 RMS=1.24D-08 Max=2.44D-07 NDo=     1
 LinEq1:  Iter= 11 NonCon=     0 RMS=6.93D-09 Max=1.65D-07 NDo=     1
 Linear equations converged to 2.183D-08 2.183D-07 after    11 iterations.
     Minimum is close to point  2 DX=  1.62D-04 DF= -2.27D-13 DXR=  1.62D-04 DFR=  1.65D-08 which will be used.
 LinEq1:  Iter=  0 NonCon=     1 RMS=2.36D-08 Max=1.30D-06 NDo=     1
 LinEq1:  Iter=  1 NonCon=     1 RMS=1.29D-08 Max=2.86D-07 NDo=     1
 LinEq1:  Iter=  2 NonCon=     1 RMS=4.25D-09 Max=9.14D-08 NDo=     1
 LinEq1:  Iter=  3 NonCon=     1 RMS=2.36D-09 Max=5.14D-08 NDo=     1
 LinEq1:  Iter=  4 NonCon=     1 RMS=1.48D-09 Max=7.69D-08 NDo=     1
 LinEq1:  Iter=  5 NonCon=     1 RMS=6.35D-10 Max=2.57D-08 NDo=     1
 LinEq1:  Iter=  6 NonCon=     1 RMS=2.89D-10 Max=8.89D-09 NDo=     1
 LinEq1:  Iter=  7 NonCon=     1 RMS=1.03D-10 Max=4.43D-09 NDo=     1
 LinEq1:  Iter=  8 NonCon=     1 RMS=5.37D-11 Max=1.79D-09 NDo=     1
 LinEq1:  Iter=  9 NonCon=     1 RMS=2.74D-11 Max=9.64D-10 NDo=     1
 LinEq1:  Iter= 10 NonCon=     1 RMS=1.70D-11 Max=3.71D-10 NDo=     1
 LinEq1:  Iter= 11 NonCon=     1 RMS=9.51D-12 Max=3.07D-10 NDo=     1
 LinEq1:  Iter= 12 NonCon=     0 RMS=4.27D-12 Max=9.08D-11 NDo=     1
 Linear equations converged to 2.394D-11 2.394D-10 after    12 iterations.
 SCF Done:  E(RB3LYP) =  -1151.73477504     a.u. after    8 cycles
            Convg  =    0.1218D-09                    41 Fock formations.
              S**2 =  0.0000                  -V/T =  2.0078
 DoSCS=F DFT=T ScalE2(SS,OS)=  1.000000  1.000000
 Range of M.O.s used for correlation:     1   370
 NBasis=   370 NAE=    83 NBE=    83 NFC=     0 NFV=     0
 NROrb=    370 NOA=    83 NOB=    83 NVA=   287 NVB=   287
 Symmetrizing basis deriv contribution to polar:
 IMax=3 JMax=2 DiffMx= 0.00D+00
 G2DrvN: will do    54 centers at a time, making    1 passes.
 Calling FoFCou, ICntrl=  3107 FMM=F I1Cent=   0 AccDes= 0.00D+00.
 End of G2Drv F.D. properties file   721 does not exist.
 End of G2Drv F.D. properties file   722 does not exist.
 End of G2Drv F.D. properties file   788 does not exist.
          IDoAtm=11111111111111111111111111111111111111111111111111
          IDoAtm=111
          Differentiating once with respect to electric field.
                with respect to dipole field.
          Differentiating once with respect to nuclear coordinates.
 CalDSu exits because no D1Ps are significant.
          There are   162 degrees of freedom in the 1st order CPHF.  IDoFFX=6 NUNeed=     3.
    159 vectors produced by pass  0 Test12= 2.38D-14 1.00D-09 XBig12= 1.48D+02 2.02D+00.
 AX will form   159 AO Fock derivatives at one time.
    159 vectors produced by pass  1 Test12= 2.38D-14 1.00D-09 XBig12= 1.10D+01 2.99D-01.
    159 vectors produced by pass  2 Test12= 2.38D-14 1.00D-09 XBig12= 1.09D-01 3.40D-02.
    159 vectors produced by pass  3 Test12= 2.38D-14 1.00D-09 XBig12= 2.65D-04 1.25D-03.
    159 vectors produced by pass  4 Test12= 2.38D-14 1.00D-09 XBig12= 2.70D-07 3.56D-05.
     69 vectors produced by pass  5 Test12= 2.38D-14 1.00D-09 XBig12= 1.70D-10 8.79D-07.
      3 vectors produced by pass  6 Test12= 2.38D-14 1.00D-09 XBig12= 1.01D-13 2.41D-08.
 InvSVY:  IOpt=1 It=  1 EMax= 7.11D-15
 Solved reduced A of dimension   867 with   162 vectors.
 Isotropic polarizability for W=    0.000000      202.01 Bohr**3.
 End of Minotr F.D. properties file   721 does not exist.
 End of Minotr F.D. properties file   722 does not exist.
 End of Minotr F.D. properties file   788 does not exist.

 **********************************************************************

            Population analysis using the SCF density.

 **********************************************************************

 Orbital symmetries:
       Occupied  (A) (A) (A) (A) (A) (A) (A) (A) (A) (A) (A) (A)
                 (A) (A) (A) (A) (A) (A) (A) (A) (A) (A) (A) (A)
                 (A) (A) (A) (A) (A) (A) (A) (A) (A) (A) (A) (A)
                 (A) (A) (A) (A) (A) (A) (A) (A) (A) (A) (A) (A)
                 (A) (A) (A) (A) (A) (A) (A) (A) (A) (A) (A) (A)
                 (A) (A) (A) (A) (A) (A) (A) (A) (A) (A) (A) (A)
                 (A) (A) (A) (A) (A) (A) (A) (A) (A) (A) (A)
       Virtual   (A) (A) (A) (A) (A) (A) (A) (A) (A) (A) (A) (A)
                 (A) (A) (A) (A) (A) (A) (A) (A) (A) (A) (A) (A)
                 (A) (A) (A) (A) (A) (A) (A) (A) (A) (A) (A) (A)
                 (A) (A) (A) (A) (A) (A) (A) (A) (A) (A) (A) (A)
                 (A) (A) (A) (A) (A) (A) (A) (A) (A) (A) (A) (A)
                 (A) (A) (A) (A) (A) (A) (A) (A) (A) (A) (A) (A)
                 (A) (A) (A) (A) (A) (A) (A) (A) (A) (A) (A) (A)
                 (A) (A) (A) (A) (A) (A) (A) (A) (A) (A) (A) (A)
                 (A) (A) (A) (A) (A) (A) (A) (A) (A) (A) (A) (A)
                 (A) (A) (A) (A) (A) (A) (A) (A) (A) (A) (A) (A)
                 (A) (A) (A) (A) (A) (A) (A) (A) (A) (A) (A) (A)
                 (A) (A) (A) (A) (A) (A) (A) (A) (A) (A) (A) (A)
                 (A) (A) (A) (A) (A) (A) (A) (A) (A) (A) (A) (A)
                 (A) (A) (A) (A) (A) (A) (A) (A) (A) (A) (A) (A)
                 (A) (A) (A) (A) (A) (A) (A) (A) (A) (A) (A) (A)
                 (A) (A) (A) (A) (A) (A) (A) (A) (A) (A) (A) (A)
                 (A) (A) (A) (A) (A) (A) (A) (A) (A) (A) (A) (A)
                 (A) (A) (A) (A) (A) (A) (A) (A) (A) (A) (A) (A)
                 (A) (A) (A) (A) (A) (A) (A) (A) (A) (A) (A) (A)
                 (A) (A) (A) (A) (A) (A) (A) (A) (A) (A) (A) (A)
                 (A) (A) (A) (A) (A) (A) (A) (A) (A) (A) (A) (A)
                 (A) (A) (A) (A) (A) (A) (A) (A) (A) (A) (A) (A)
                 (A) (A) (A) (A) (A) (A) (A) (A) (A) (A) (A) (A)
                 (A) (A) (A) (A) (A) (A) (A) (A) (A) (A) (A)
 The electronic state is 1-A.
 Alpha  occ. eigenvalues --  -77.09617 -14.31650 -14.31633 -14.31440 -14.30885
 Alpha  occ. eigenvalues --  -10.22067 -10.21360 -10.21077 -10.20329 -10.20217
 Alpha  occ. eigenvalues --  -10.20123 -10.20116 -10.19979 -10.19885 -10.17764
 Alpha  occ. eigenvalues --  -10.17298 -10.16667 -10.16414 -10.16389 -10.16305
 Alpha  occ. eigenvalues --   -6.55620  -4.71959  -4.71944  -4.71314  -0.93192
 Alpha  occ. eigenvalues --   -0.89873  -0.88943  -0.88630  -0.77326  -0.76784
 Alpha  occ. eigenvalues --   -0.76495  -0.72643  -0.72168  -0.70995  -0.68266
 Alpha  occ. eigenvalues --   -0.67746  -0.67468  -0.62150  -0.61906  -0.61388
 Alpha  occ. eigenvalues --   -0.57043  -0.56807  -0.55463  -0.51034  -0.48907
 Alpha  occ. eigenvalues --   -0.48385  -0.48094  -0.46614  -0.46268  -0.45552
 Alpha  occ. eigenvalues --   -0.44795  -0.44304  -0.43620  -0.42692  -0.42464
 Alpha  occ. eigenvalues --   -0.42160  -0.40388  -0.39888  -0.39390  -0.39007
 Alpha  occ. eigenvalues --   -0.38909  -0.38723  -0.38319  -0.37901  -0.37070
 Alpha  occ. eigenvalues --   -0.36502  -0.36217  -0.35783  -0.34956  -0.34441
 Alpha  occ. eigenvalues --   -0.34372  -0.33631  -0.33327  -0.33163  -0.32535
 Alpha  occ. eigenvalues --   -0.32258  -0.31391  -0.31174  -0.24072  -0.22664
 Alpha  occ. eigenvalues --   -0.20953  -0.19291  -0.14936
 Alpha virt. eigenvalues --    0.06778   0.07690   0.08583   0.08779   0.09423
 Alpha virt. eigenvalues --    0.10043   0.11085   0.11549   0.11825   0.12564
 Alpha virt. eigenvalues --    0.13470   0.13796   0.14427   0.14553   0.14856
 Alpha virt. eigenvalues --    0.15166   0.15357   0.15891   0.16523   0.16836
 Alpha virt. eigenvalues --    0.17093   0.17150   0.17740   0.18589   0.19042
 Alpha virt. eigenvalues --    0.19475   0.19977   0.20229   0.20542   0.20815
 Alpha virt. eigenvalues --    0.20957   0.21730   0.21764   0.22607   0.22820
 Alpha virt. eigenvalues --    0.23233   0.23436   0.24151   0.24268   0.24798
 Alpha virt. eigenvalues --    0.25764   0.26355   0.27163   0.27525   0.27982
 Alpha virt. eigenvalues --    0.28740   0.29073   0.29361   0.29717   0.30424
 Alpha virt. eigenvalues --    0.31803   0.32878   0.36120   0.36450   0.39830
 Alpha virt. eigenvalues --    0.44197   0.45423   0.47039   0.48673   0.51108
 Alpha virt. eigenvalues --    0.51364   0.51532   0.52500   0.52755   0.54082
 Alpha virt. eigenvalues --    0.54385   0.55584   0.55894   0.56628   0.57294
 Alpha virt. eigenvalues --    0.58612   0.59594   0.60336   0.61253   0.62279
 Alpha virt. eigenvalues --    0.62605   0.63359   0.65128   0.65462   0.66193
 Alpha virt. eigenvalues --    0.66526   0.67439   0.68493   0.69478   0.69956
 Alpha virt. eigenvalues --    0.70752   0.72495   0.72689   0.73646   0.74549
 Alpha virt. eigenvalues --    0.75881   0.76383   0.77150   0.78011   0.79148
 Alpha virt. eigenvalues --    0.79347   0.80914   0.81293   0.82874   0.84064
 Alpha virt. eigenvalues --    0.84860   0.85524   0.86179   0.86288   0.87195
 Alpha virt. eigenvalues --    0.87629   0.87935   0.88425   0.89044   0.89238
 Alpha virt. eigenvalues --    0.89683   0.90488   0.90734   0.90993   0.92091
 Alpha virt. eigenvalues --    0.92495   0.92626   0.92792   0.93462   0.93802
 Alpha virt. eigenvalues --    0.94240   0.94997   0.95735   0.95927   0.96501
 Alpha virt. eigenvalues --    0.97029   0.97449   0.98039   0.98688   0.98947
 Alpha virt. eigenvalues --    1.00167   1.01798   1.02053   1.02925   1.03604
 Alpha virt. eigenvalues --    1.03888   1.04772   1.05396   1.07411   1.07870
 Alpha virt. eigenvalues --    1.08790   1.09608   1.09943   1.11194   1.12333
 Alpha virt. eigenvalues --    1.13962   1.14860   1.16237   1.18392   1.19712
 Alpha virt. eigenvalues --    1.21301   1.24012   1.24696   1.27099   1.30801
 Alpha virt. eigenvalues --    1.31343   1.34612   1.35926   1.37609   1.38355
 Alpha virt. eigenvalues --    1.41662   1.43640   1.44273   1.45899   1.46845
 Alpha virt. eigenvalues --    1.48321   1.49286   1.53661   1.57700   1.59541
 Alpha virt. eigenvalues --    1.61655   1.62133   1.62661   1.64823   1.65863
 Alpha virt. eigenvalues --    1.66788   1.68772   1.71500   1.72546   1.73990
 Alpha virt. eigenvalues --    1.76368   1.77109   1.78151   1.78501   1.78776
 Alpha virt. eigenvalues --    1.79669   1.81373   1.83154   1.85312   1.86629
 Alpha virt. eigenvalues --    1.88080   1.88960   1.90229   1.90917   1.91546
 Alpha virt. eigenvalues --    1.93405   1.94469   1.94780   1.96790   1.98515
 Alpha virt. eigenvalues --    1.98690   2.00814   2.02612   2.03205   2.03592
 Alpha virt. eigenvalues --    2.03907   2.06033   2.07636   2.08936   2.09645
 Alpha virt. eigenvalues --    2.10571   2.12161   2.12668   2.12946   2.13724
 Alpha virt. eigenvalues --    2.15515   2.16116   2.17015   2.17876   2.19513
 Alpha virt. eigenvalues --    2.20739   2.24453   2.26032   2.26195   2.26923
 Alpha virt. eigenvalues --    2.27192   2.27884   2.28221   2.29085   2.29861
 Alpha virt. eigenvalues --    2.30387   2.31665   2.32658   2.32903   2.35788
 Alpha virt. eigenvalues --    2.37160   2.37825   2.40596   2.41559   2.44005
 Alpha virt. eigenvalues --    2.44157   2.47615   2.48579   2.50000   2.50296
 Alpha virt. eigenvalues --    2.51360   2.53205   2.54570   2.56228   2.57967
 Alpha virt. eigenvalues --    2.59885   2.62120   2.63056   2.65649   2.69553
 Alpha virt. eigenvalues --    2.72732   2.73543   2.75468   2.77317   2.78626
 Alpha virt. eigenvalues --    2.80216   2.82818   2.84227   2.85599   2.87692
 Alpha virt. eigenvalues --    2.90953   2.95878   3.65517   3.98400   4.04769
 Alpha virt. eigenvalues --    4.05362   4.18574   4.22810   4.23693   4.25991
 Alpha virt. eigenvalues --    4.28208   4.29656   4.29905   4.34866   4.38406
 Alpha virt. eigenvalues --    4.40319   4.51089   4.55047   4.57064   4.60211
 Alpha virt. eigenvalues --    4.60911   4.64334
          Condensed to atoms (all electrons):
 Mulliken charges:
               1
     1  N   -0.536578
     2  C   -0.129104
     3  C   -0.153827
     4  N   -0.380978
     5  C   -0.149839
     6  C   -0.161590
     7  N   -0.550108
     8  P    0.699993
     9  N   -0.542771
    10  C   -0.135488
    11  C   -0.157839
    12  C    0.076771
    13  C   -0.473003
    14  C   -0.453609
    15  C    0.075266
    16  C   -0.452884
    17  C   -0.483512
    18  C    0.053200
    19  C   -0.455245
    20  C   -0.447465
    21  H    0.130411
    22  H    0.132396
    23  H    0.139437
    24  H    0.131709
    25  H    0.138064
    26  H    0.133597
    27  H    0.135673
    28  H    0.146450
    29  H    0.138766
    30  H    0.128109
    31  H    0.157920
    32  H    0.133615
    33  H    0.137394
    34  H    0.149345
    35  H    0.159234
    36  H    0.148809
    37  H    0.134488
    38  H    0.129406
    39  H    0.183166
    40  H    0.132053
    41  H    0.160188
    42  H    0.141055
    43  H    0.141921
    44  H    0.172924
    45  H    0.132804
    46  H    0.170259
    47  H    0.152265
    48  H    0.141178
    49  H    0.155572
    50  H    0.140131
    51  H    0.140231
    52  H    0.136666
    53  H    0.153377
 Sum of Mulliken charges =   0.00000
 Mulliken charges with hydrogens summed into heavy atoms:
               1
     1  N   -0.536578
     2  C    0.133702
     3  C    0.117319
     4  N   -0.380978
     5  C    0.121822
     6  C    0.120533
     7  N   -0.550108
     8  P    0.699993
     9  N   -0.542771
    10  C    0.131387
    11  C    0.133697
    12  C    0.214166
    13  C   -0.015615
    14  C   -0.006549
    15  C    0.207318
    16  C   -0.009721
    17  C   -0.007525
    18  C    0.205464
    19  C   -0.018364
    20  C   -0.017191
 APT charges:
               1
     1  N   -0.911305
     2  C    0.244768
     3  C    0.362568
     4  N   -0.590223
     5  C    0.312520
     6  C    0.263247
     7  N   -0.897926
     8  P    1.270806
     9  N   -0.838127
    10  C    0.224608
    11  C    0.369717
    12  C    0.449104
    13  C    0.037839
    14  C   -0.001245
    15  C    0.489451
    16  C   -0.015572
    17  C    0.023301
    18  C    0.452972
    19  C    0.006897
    20  C    0.002744
    21  H   -0.070439
    22  H   -0.074662
    23  H   -0.003748
    24  H   -0.102720
    25  H   -0.053327
    26  H   -0.054315
    27  H   -0.054989
    28  H   -0.059273
    29  H   -0.053258
    30  H   -0.066669
    31  H   -0.018545
    32  H   -0.097211
    33  H   -0.086860
    34  H   -0.013605
    35  H   -0.012393
    36  H   -0.024020
    37  H   -0.020634
    38  H   -0.048881
    39  H    0.015655
    40  H   -0.111295
    41  H   -0.002761
    42  H   -0.019436
    43  H   -0.036342
    44  H    0.006852
    45  H   -0.040535
    46  H    0.004773
    47  H   -0.024166
    48  H   -0.013576
    49  H   -0.016887
    50  H   -0.037952
    51  H   -0.013186
    52  H   -0.038500
    53  H   -0.013239
 Sum of APT charges =   0.00000
 APT charges with hydrogens summed into heavy atoms:
               1
     1  N   -0.911305
     2  C    0.099666
     3  C    0.256101
     4  N   -0.590223
     5  C    0.204878
     6  C    0.148985
     7  N   -0.897926
     8  P    1.270806
     9  N   -0.838127
    10  C    0.104681
    11  C    0.253960
    12  C    0.362244
    13  C   -0.012180
    14  C   -0.055105
    15  C    0.378156
    16  C   -0.074112
    17  C   -0.005610
    18  C    0.428807
    19  C   -0.061518
    20  C   -0.062180
 Electronic spatial extent (au):  <R**2>=           5582.2723
 Charge=              0.0000 electrons
 Dipole moment (field-independent basis, Debye):
    X=              0.1291    Y=             -0.6086    Z=              0.7147  Tot=              0.9475
 Quadrupole moment (field-independent basis, Debye-Ang):
   XX=           -127.1759   YY=           -129.7061   ZZ=           -139.1884
   XY=              0.8862   XZ=              0.7450   YZ=              1.9939
 Traceless Quadrupole moment (field-independent basis, Debye-Ang):
   XX=              4.8476   YY=              2.3174   ZZ=             -7.1650
   XY=              0.8862   XZ=              0.7450   YZ=              1.9939
 Octapole moment (field-independent basis, Debye-Ang**2):
  XXX=             14.0504  YYY=             -7.4906  ZZZ=             -5.1820  XYY=             -3.8659
  XXY=              0.8622  XXZ=             -1.2461  XZZ=              0.2326  YZZ=              6.6341
  YYZ=             -3.5694  XYZ=             -3.9800
 Hexadecapole moment (field-independent basis, Debye-Ang**3):
 XXXX=          -3398.0529 YYYY=          -2485.4860 ZZZZ=          -1743.3170 XXXY=             34.9551
 XXXZ=            -13.8790 YYYX=             -4.7248 YYYZ=            -20.6532 ZZZX=              4.8148
 ZZZY=             28.9442 XXYY=           -982.2025 XXZZ=           -835.6559 YYZZ=           -711.9091
 XXYZ=             -3.5721 YYXZ=             14.2708 ZZXY=              9.2303
 N-N= 2.095870261872D+03 E-N=-6.881077622660D+03  KE= 1.142822451196D+03
  Exact polarizability: 218.584   2.714 203.372   1.904   1.098 184.078
 Approx polarizability: 295.633   1.827 290.310   1.180   2.166 270.857
 Calling FoFJK, ICntrl=    100127 FMM=F ISym2X=0 I1Cent= 0 IOpClX= 0 NMat=1 NMatS=1 NMatT=0.
 ***** Axes restored to original set *****
 -------------------------------------------------------------------
 Center     Atomic                   Forces (Hartrees/Bohr)
 Number     Number              X              Y              Z
 -------------------------------------------------------------------
      1        7          -0.002093589   -0.014091420   -0.025071984
      2        6          -0.007691206   -0.008502897   -0.002602158
      3        6          -0.000558352   -0.002246490   -0.010325314
      4        7          -0.005995091    0.024654613    0.007389526
      5        6           0.004319925   -0.007313613   -0.009803892
      6        6           0.008368597   -0.001543414    0.007623862
      7        7           0.035612138   -0.009327372   -0.044459977
      8       15          -0.045965584    0.052216154    0.064798906
      9        7           0.031466848   -0.036842096   -0.013819423
     10        6           0.002103415   -0.015905510   -0.000132579
     11        6           0.009695517   -0.006454292    0.001638025
     12        6          -0.016460773    0.028431049    0.014814433
     13        6           0.000307279   -0.002552468    0.001082439
     14        6           0.009931804    0.001052364    0.007300915
     15        6          -0.019884708    0.013029049    0.004671310
     16        6           0.002314192   -0.002725862   -0.001711408
     17        6          -0.000231840    0.006003621    0.003536189
     18        6          -0.006763127   -0.003461880    0.002514235
     19        6          -0.000058224    0.002444866   -0.003238713
     20        6          -0.001396814   -0.003125029    0.004896422
     21        1          -0.002746447   -0.001159409   -0.003212380
     22        1          -0.003203304   -0.002930575    0.001535724
     23        1           0.007872938   -0.009793704    0.009919430
     24        1          -0.009927389   -0.000782743   -0.000603170
     25        1          -0.003750740   -0.003287466   -0.000158003
     26        1          -0.000373704   -0.000920339    0.002079603
     27        1          -0.005401494    0.006102220   -0.001668851
     28        1          -0.002595316   -0.002030715    0.005298769
     29        1          -0.000527217    0.000693663   -0.007531580
     30        1           0.002220275   -0.001468323   -0.003995965
     31        1          -0.002003410    0.006772420   -0.005279974
     32        1           0.004479029   -0.001982688    0.006467838
     33        1          -0.006714864   -0.002559200   -0.004355218
     34        1           0.000953378   -0.001263757    0.001905923
     35        1           0.000909793   -0.000750643    0.001490250
     36        1          -0.000680255    0.003597226   -0.002987501
     37        1           0.002180479    0.000449797   -0.002742395
     38        1          -0.000093389   -0.001577071   -0.003828638
     39        1          -0.001551344    0.000033007   -0.002466730
     40        1           0.003041098    0.000142143    0.003460587
     41        1           0.000302049    0.007005763   -0.001497813
     42        1           0.002008859   -0.004756665   -0.001518686
     43        1           0.000653391    0.001866401    0.003636157
     44        1           0.001523712    0.000807789   -0.000111394
     45        1           0.002212666   -0.002200138   -0.001938953
     46        1           0.001690462   -0.003005663    0.002654653
     47        1           0.010014056   -0.000157682   -0.004364680
     48        1           0.000657338   -0.000213713   -0.000348498
     49        1          -0.000006601    0.000255162   -0.000750538
     50        1           0.001235826   -0.000354173    0.001756113
     51        1          -0.000374336   -0.000607154   -0.000021527
     52        1          -0.000864975    0.000448093    0.000011486
     53        1           0.001839028   -0.000111237    0.000065146
 -------------------------------------------------------------------
 Cartesian Forces:  Max     0.064798906 RMS     0.011435995
 FormGI is forming the generalized inverse of G from B-inverse, IUseBI=4.

 GradGradGradGradGradGradGradGradGradGradGradGradGradGradGradGradGradGrad
 Berny optimization.
 Internal  Forces:  Max     0.045493552 RMS     0.006513308
 Search for a local minimum.
 Step number   1 out of a maximum of  316
 All quantities printed in internal units (Hartrees-Bohrs-Radians)
 Mixed Optimization -- RFO/linear search
 Second derivative matrix not updated -- analytic derivatives used.
 ITU=  0
     Eigenvalues ---   -0.00593  -0.00402  -0.00077   0.00035   0.00145
     Eigenvalues ---    0.00272   0.00300   0.00327   0.00350   0.00400
     Eigenvalues ---    0.00476   0.00624   0.00739   0.00800   0.01059
     Eigenvalues ---    0.01174   0.01464   0.01543   0.01935   0.03247
     Eigenvalues ---    0.03358   0.03575   0.04050   0.04278   0.04334
     Eigenvalues ---    0.04449   0.04507   0.04561   0.04596   0.04624
     Eigenvalues ---    0.04628   0.04635   0.04691   0.04694   0.04732
     Eigenvalues ---    0.04753   0.04768   0.04885   0.04893   0.04963
     Eigenvalues ---    0.04993   0.05010   0.05046   0.05140   0.05172
     Eigenvalues ---    0.05278   0.05313   0.05442   0.05496   0.05520
     Eigenvalues ---    0.05735   0.07056   0.07632   0.08283   0.08935
     Eigenvalues ---    0.09143   0.09221   0.09656   0.09806   0.10041
     Eigenvalues ---    0.10186   0.11180   0.11822   0.11965   0.12183
     Eigenvalues ---    0.12238   0.12399   0.12433   0.12611   0.12705
     Eigenvalues ---    0.12785   0.12961   0.13203   0.13434   0.13632
     Eigenvalues ---    0.13876   0.13920   0.14029   0.14287   0.14616
     Eigenvalues ---    0.14744   0.14859   0.15103   0.15319   0.15385
     Eigenvalues ---    0.16968   0.17433   0.18262   0.18670   0.19225
     Eigenvalues ---    0.19585   0.19618   0.20287   0.20897   0.21393
     Eigenvalues ---    0.22182   0.23153   0.24717   0.25120   0.25897
     Eigenvalues ---    0.26071   0.26294   0.27087   0.27390   0.27476
     Eigenvalues ---    0.28073   0.28718   0.29469   0.29643   0.29824
     Eigenvalues ---    0.30541   0.30680   0.31059   0.31224   0.31582
     Eigenvalues ---    0.31778   0.32129   0.32186   0.32255   0.32497
     Eigenvalues ---    0.32715   0.32862   0.33069   0.33324   0.33413
     Eigenvalues ---    0.33432   0.33604   0.33672   0.33729   0.33810
     Eigenvalues ---    0.33870   0.33978   0.34017   0.34108   0.34199
     Eigenvalues ---    0.34241   0.34354   0.34452   0.34475   0.34611
     Eigenvalues ---    0.34819   0.34908   0.34948   0.35008   0.35016
     Eigenvalues ---    0.35178   0.35526   0.35670   0.37326   0.39548
     Eigenvalues ---    0.41578   0.57907   0.62509
 RFO step:  Lambda=-5.16595538D-02 EMin=-5.92879609D-03
 Linear search not attempted -- first point.
 Maximum step size (   0.300) exceeded in Quadratic search.
    -- Step size scaled by   0.779
 Iteration  1 RMS(Cart)=  0.17071094 RMS(Int)=  0.01032640
 Iteration  2 RMS(Cart)=  0.02637720 RMS(Int)=  0.00047844
 Iteration  3 RMS(Cart)=  0.00054586 RMS(Int)=  0.00041324
 Iteration  4 RMS(Cart)=  0.00000030 RMS(Int)=  0.00041324
 Variable       Old X    -DE/DX   Delta X   Delta X   Delta X     New X
                                 (Linear)    (Quad)   (Total)
    R1        2.76900   0.00603   0.00000  -0.00240  -0.00252   2.76649
    R2        3.16768   0.02816   0.00000   0.06517   0.06507   3.23275
    R3        2.79546  -0.00344   0.00000  -0.00277  -0.00277   2.79270
    R4        2.92269   0.00326   0.00000  -0.00403  -0.00408   2.91861
    R5        2.07205   0.00328   0.00000   0.00583   0.00583   2.07788
    R6        2.06485   0.00419   0.00000   0.01003   0.01003   2.07488
    R7        2.75174   0.00608   0.00000   0.00462   0.00451   2.75625
    R8        2.07380  -0.01272   0.00000  -0.01061  -0.01061   2.06319
    R9        2.07752   0.00331   0.00000   0.00738   0.00738   2.08490
   R10        2.75970   0.00307   0.00000  -0.01338  -0.01389   2.74581
   R11        2.75441   0.00437   0.00000   0.00355   0.00315   2.75756
   R12        2.93404   0.01228   0.00000   0.01240   0.01203   2.94607
   R13        2.07733  -0.00075   0.00000  -0.00130  -0.00130   2.07603
   R14        2.07598   0.00057   0.00000   0.00112   0.00112   2.07710
   R15        2.77022  -0.00056   0.00000  -0.00413  -0.00405   2.76617
   R16        2.06952   0.00200   0.00000   0.00473   0.00473   2.07426
   R17        2.06697   0.00296   0.00000   0.00291   0.00291   2.06988
   R18        3.16895   0.03281   0.00000   0.06389   0.06424   3.23319
   R19        2.79986   0.00586   0.00000  -0.00692  -0.00692   2.79294
   R20        3.18837   0.01812   0.00000   0.05213   0.05250   3.24088
   R21        2.77739   0.01226   0.00000   0.00221   0.00261   2.78001
   R22        2.81261   0.01091   0.00000  -0.00032  -0.00032   2.81229
   R23        2.90619  -0.00546   0.00000  -0.00405  -0.00367   2.90252
   R24        2.07973  -0.00582   0.00000  -0.00600  -0.00600   2.07373
   R25        2.07381   0.00226   0.00000   0.00739   0.00739   2.08120
   R26        2.07185  -0.00158   0.00000  -0.00301  -0.00301   2.06884
   R27        2.07595   0.00365   0.00000   0.00775   0.00775   2.08370
   R28        2.89675   0.00217   0.00000  -0.00014  -0.00014   2.89661
   R29        2.89466   0.00549   0.00000   0.01138   0.01138   2.90604
   R30        2.07776   0.00164   0.00000  -0.00051  -0.00051   2.07725
   R31        2.06694   0.00023   0.00000   0.00222   0.00222   2.06916
   R32        2.06683   0.00028   0.00000   0.00380   0.00380   2.07063
   R33        2.07500  -0.00181   0.00000  -0.00366  -0.00366   2.07134
   R34        2.06669   0.00322   0.00000   0.00529   0.00529   2.07198
   R35        2.08775  -0.00402   0.00000  -0.00948  -0.00948   2.07827
   R36        2.05947   0.00187   0.00000   0.00452   0.00452   2.06398
   R37        2.91454   0.00011   0.00000  -0.00731  -0.00731   2.90723
   R38        2.91554  -0.00273   0.00000  -0.00364  -0.00364   2.91190
   R39        2.07578   0.00212   0.00000   0.00200   0.00200   2.07778
   R40        2.06957  -0.00527   0.00000   0.00149   0.00149   2.07106
   R41        2.06231   0.00363   0.00000   0.00677   0.00677   2.06908
   R42        2.07360  -0.00077   0.00000  -0.00028  -0.00028   2.07332
   R43        2.06758  -0.00167   0.00000  -0.00047  -0.00047   2.06711
   R44        2.07457  -0.00096   0.00000  -0.00218  -0.00218   2.07240
   R45        2.06419   0.00122   0.00000   0.00153   0.00153   2.06572
   R46        2.91183   0.00079   0.00000   0.00003   0.00003   2.91186
   R47        2.89937   0.00483   0.00000   0.00951   0.00951   2.90888
   R48        2.07867  -0.00304   0.00000  -0.00528  -0.00528   2.07339
   R49        2.07003   0.00028   0.00000   0.00025   0.00025   2.07029
   R50        2.06739   0.00042   0.00000   0.00198   0.00198   2.06937
   R51        2.07194  -0.00010   0.00000   0.00008   0.00008   2.07202
   R52        2.06866   0.00047   0.00000   0.00167   0.00167   2.07033
   R53        2.07071   0.00072   0.00000   0.00105   0.00105   2.07176
   R54        2.06612   0.00144   0.00000   0.00248   0.00248   2.06860
    A1        2.21565   0.01484   0.00000   0.06641   0.06541   2.28106
    A2        1.98827   0.00491   0.00000   0.00454   0.00453   1.99280
    A3        2.07914  -0.01979   0.00000  -0.07166  -0.07159   2.00755
    A4        2.15935  -0.01050   0.00000  -0.02540  -0.02599   2.13336
    A5        1.89101   0.00391   0.00000   0.00972   0.01018   1.90119
    A6        1.89394   0.00244   0.00000   0.00484   0.00477   1.89871
    A7        1.81788   0.00261   0.00000   0.00118   0.00118   1.81906
    A8        1.83682   0.00438   0.00000   0.01745   0.01784   1.85467
    A9        1.84133  -0.00212   0.00000  -0.00628  -0.00639   1.83494
   A10        2.11965   0.00612   0.00000   0.00366   0.00285   2.12250
   A11        1.89590   0.00457   0.00000   0.02468   0.02520   1.92111
   A12        1.84242  -0.00863   0.00000  -0.03399  -0.03396   1.80847
   A13        1.93642  -0.01041   0.00000  -0.03526  -0.03524   1.90118
   A14        1.83548   0.00607   0.00000   0.03037   0.03105   1.86654
   A15        1.80436   0.00190   0.00000   0.01249   0.01285   1.81721
   A16        1.98471   0.01001   0.00000   0.01997   0.01959   2.00429
   A17        2.02599   0.00243   0.00000   0.02352   0.02317   2.04916
   A18        2.05518  -0.00909   0.00000  -0.01430  -0.01491   2.04028
   A19        2.11433   0.00264   0.00000  -0.01020  -0.01157   2.10277
   A20        1.86861  -0.00089   0.00000  -0.00024   0.00008   1.86869
   A21        1.89723  -0.00465   0.00000  -0.00706  -0.00676   1.89048
   A22        1.86857   0.00264   0.00000   0.02188   0.02235   1.89093
   A23        1.88129  -0.00104   0.00000  -0.00971  -0.00959   1.87170
   A24        1.81068   0.00136   0.00000   0.00908   0.00899   1.81966
   A25        2.07561   0.00284   0.00000   0.02315   0.02278   2.09839
   A26        1.83890   0.00805   0.00000   0.01748   0.01780   1.85670
   A27        1.89997  -0.00473   0.00000  -0.00990  -0.00963   1.89034
   A28        1.93905  -0.01034   0.00000  -0.04188  -0.04171   1.89734
   A29        1.90450   0.00155   0.00000  -0.00980  -0.00981   1.89469
   A30        1.78261   0.00272   0.00000   0.02182   0.02158   1.80419
   A31        2.10111  -0.00201   0.00000   0.03518   0.03512   2.13622
   A32        1.98029   0.01056   0.00000   0.02425   0.02432   2.00461
   A33        2.19290  -0.00778   0.00000  -0.05834  -0.05835   2.13455
   A34        1.89501   0.00132   0.00000  -0.01419  -0.01570   1.87931
   A35        1.88637  -0.00476   0.00000  -0.01292  -0.01601   1.87037
   A36        1.97139  -0.01323   0.00000  -0.07356  -0.07457   1.89682
   A37        2.15489   0.00909   0.00000   0.06207   0.06223   2.21711
   A38        2.14700  -0.04549   0.00000  -0.13104  -0.13127   2.01573
   A39        1.89367   0.03694   0.00000   0.06336   0.06409   1.95776
   A40        2.10114  -0.00630   0.00000  -0.02741  -0.02761   2.07353
   A41        1.87080   0.00402   0.00000   0.00784   0.00811   1.87891
   A42        1.92079   0.00586   0.00000   0.01880   0.01848   1.93927
   A43        1.81621  -0.00059   0.00000   0.00442   0.00417   1.82037
   A44        1.90442  -0.00263   0.00000  -0.00157  -0.00109   1.90333
   A45        1.82843   0.00025   0.00000   0.00059   0.00048   1.82890
   A46        2.07205   0.00580   0.00000   0.01233   0.01178   2.08384
   A47        1.96741  -0.00770   0.00000  -0.03513  -0.03512   1.93229
   A48        1.84165   0.00426   0.00000   0.02624   0.02681   1.86846
   A49        1.90951   0.00217   0.00000   0.00467   0.00479   1.91430
   A50        1.84587  -0.00797   0.00000  -0.02226  -0.02231   1.82357
   A51        1.80129   0.00318   0.00000   0.01741   0.01759   1.81889
   A52        2.02626   0.00892   0.00000  -0.03539  -0.03543   1.99083
   A53        1.97771  -0.00173   0.00000   0.02599   0.02583   2.00354
   A54        1.88282  -0.00521   0.00000  -0.02420  -0.02474   1.85808
   A55        1.94629  -0.00779   0.00000  -0.00393  -0.00377   1.94251
   A56        1.81467  -0.00064   0.00000   0.01145   0.01094   1.82561
   A57        1.79097   0.00637   0.00000   0.03226   0.03228   1.82325
   A58        1.96339   0.00397   0.00000   0.00671   0.00672   1.97011
   A59        1.94193   0.00317   0.00000  -0.00396  -0.00396   1.93797
   A60        1.91670  -0.00721   0.00000  -0.01067  -0.01067   1.90603
   A61        1.90036  -0.00212   0.00000  -0.00367  -0.00367   1.89670
   A62        1.88259   0.00038   0.00000  -0.00136  -0.00134   1.88125
   A63        1.85476   0.00161   0.00000   0.01344   0.01344   1.86820
   A64        1.95882   0.00070   0.00000   0.00078   0.00077   1.95959
   A65        1.91150   0.00090   0.00000   0.00253   0.00253   1.91403
   A66        1.94489  -0.00238   0.00000  -0.00313  -0.00313   1.94175
   A67        1.87029  -0.00027   0.00000   0.00044   0.00043   1.87073
   A68        1.90582  -0.00023   0.00000  -0.00551  -0.00552   1.90030
   A69        1.86888   0.00141   0.00000   0.00528   0.00528   1.87416
   A70        2.06230   0.00631   0.00000  -0.02141  -0.02129   2.04101
   A71        1.95875  -0.00240   0.00000  -0.00537  -0.00528   1.95347
   A72        1.87278  -0.00503   0.00000  -0.01599  -0.01595   1.85683
   A73        1.85627   0.00165   0.00000   0.02561   0.02549   1.88176
   A74        1.83481  -0.00103   0.00000   0.03208   0.03206   1.86686
   A75        1.86659   0.00007   0.00000  -0.01295  -0.01357   1.85302
   A76        1.95633   0.00260   0.00000  -0.02217  -0.02226   1.93407
   A77        1.94972   0.00297   0.00000   0.00891   0.00893   1.95865
   A78        1.92866  -0.00692   0.00000  -0.00958  -0.00967   1.91899
   A79        1.90817  -0.00158   0.00000   0.00396   0.00399   1.91216
   A80        1.86819   0.00033   0.00000   0.00840   0.00820   1.87639
   A81        1.84791   0.00246   0.00000   0.01248   0.01250   1.86040
   A82        1.94434   0.00025   0.00000   0.00254   0.00253   1.94686
   A83        1.92378  -0.00357   0.00000  -0.01188  -0.01190   1.91188
   A84        1.97326  -0.00282   0.00000  -0.01489  -0.01492   1.95834
   A85        1.88088   0.00145   0.00000   0.00357   0.00357   1.88445
   A86        1.88818   0.00075   0.00000   0.00024   0.00021   1.88839
   A87        1.84872   0.00438   0.00000   0.02224   0.02220   1.87092
   A88        1.98684  -0.00167   0.00000  -0.00944  -0.00966   1.97718
   A89        1.94899   0.00451   0.00000   0.01824   0.01831   1.96730
   A90        1.91505  -0.00613   0.00000  -0.03708  -0.03699   1.87806
   A91        1.90818   0.00027   0.00000   0.01020   0.01013   1.91830
   A92        1.83892   0.00335   0.00000   0.01766   0.01742   1.85633
   A93        1.85840  -0.00042   0.00000   0.00047   0.00043   1.85884
   A94        1.96681  -0.00038   0.00000  -0.00396  -0.00397   1.96285
   A95        1.93889   0.00108   0.00000   0.00270   0.00271   1.94160
   A96        1.92988  -0.00294   0.00000  -0.00652  -0.00653   1.92335
   A97        1.89101  -0.00026   0.00000  -0.00251  -0.00250   1.88850
   A98        1.85808   0.00173   0.00000   0.00663   0.00662   1.86470
   A99        1.87504   0.00089   0.00000   0.00422   0.00423   1.87927
   A100       1.96110   0.00098   0.00000   0.00182   0.00183   1.96293
   A101       1.92500  -0.00056   0.00000  -0.00290  -0.00291   1.92210
   A102       1.93946  -0.00128   0.00000  -0.00665  -0.00666   1.93280
   A103       1.86684  -0.00021   0.00000   0.00114   0.00114   1.86798
   A104       1.89188   0.00007   0.00000   0.00102   0.00102   1.89290
   A105       1.87610   0.00106   0.00000   0.00613   0.00613   1.88223
    D1        0.11395  -0.00117   0.00000  -0.07932  -0.08053   0.03342
    D2       -2.01680  -0.00036   0.00000  -0.07014  -0.07136  -2.08816
    D3        2.27534  -0.00114   0.00000  -0.07026  -0.07162   2.20373
    D4       -3.00979   0.00183   0.00000  -0.03101  -0.03012  -3.03991
    D5        1.14264   0.00264   0.00000  -0.02182  -0.02094   1.12170
    D6       -0.84840   0.00186   0.00000  -0.02194  -0.02121  -0.86960
    D7        0.61971  -0.00430   0.00000   0.01383   0.01392   0.63363
    D8       -1.52449   0.01390   0.00000   0.11980   0.12028  -1.40422
    D9       -2.54056  -0.00719   0.00000  -0.03595  -0.03612  -2.57669
   D10        1.59842   0.01101   0.00000   0.07002   0.07023   1.66865
   D11       -1.05952  -0.00128   0.00000  -0.02381  -0.02266  -1.08218
   D12        1.11166   0.00142   0.00000  -0.00275  -0.00173   1.10993
   D13       -3.11518  -0.00024   0.00000  -0.01462  -0.01384  -3.12902
   D14        2.09841   0.00110   0.00000   0.01893   0.01811   2.11652
   D15       -2.01361   0.00380   0.00000   0.03998   0.03905  -1.97456
   D16        0.04275   0.00214   0.00000   0.02812   0.02693   0.06968
   D17        0.75091  -0.00255   0.00000   0.04044   0.03964   0.79055
   D18       -1.52534   0.00237   0.00000   0.06350   0.06299  -1.46235
   D19        2.83224   0.00227   0.00000   0.05462   0.05412   2.88635
   D20        2.91448  -0.00236   0.00000   0.03624   0.03582   2.95030
   D21        0.63823   0.00256   0.00000   0.05930   0.05917   0.69740
   D22       -1.28739   0.00246   0.00000   0.05042   0.05030  -1.23709
   D23       -1.43565  -0.00205   0.00000   0.03629   0.03596  -1.39968
   D24        2.57129   0.00287   0.00000   0.05935   0.05932   2.63060
   D25        0.64567   0.00278   0.00000   0.05046   0.05044   0.69611
   D26       -2.00129   0.00043   0.00000  -0.02554  -0.02596  -2.02725
   D27        0.46625   0.00130   0.00000   0.00741   0.00724   0.47350
   D28        0.25754   0.00205   0.00000  -0.02289  -0.02327   0.23427
   D29        2.72508   0.00293   0.00000   0.01006   0.00993   2.73501
   D30        2.19719   0.00281   0.00000  -0.00826  -0.00873   2.18846
   D31       -1.61846   0.00369   0.00000   0.02469   0.02447  -1.59399
   D32        1.19669   0.00526   0.00000   0.05220   0.05184   1.24853
   D33       -0.94937   0.00040   0.00000   0.02967   0.02948  -0.91989
   D34       -2.89519   0.00142   0.00000   0.02258   0.02222  -2.87297
   D35       -1.25887  -0.00053   0.00000   0.00285   0.00326  -1.25560
   D36        2.87826  -0.00539   0.00000  -0.01968  -0.01910   2.85916
   D37        0.93244  -0.00437   0.00000  -0.02677  -0.02636   0.90608
   D38       -1.95637  -0.00615   0.00000  -0.00641  -0.00590  -1.96227
   D39        0.30924  -0.00522   0.00000  -0.02429  -0.02396   0.28528
   D40        2.26266  -0.00267   0.00000  -0.00539  -0.00531   2.25735
   D41        0.48324   0.00254   0.00000   0.04225   0.04203   0.52527
   D42        2.74885   0.00347   0.00000   0.02437   0.02398   2.77283
   D43       -1.58092   0.00602   0.00000   0.04327   0.04262  -1.53829
   D44       -0.46268  -0.00786   0.00000  -0.02887  -0.02847  -0.49114
   D45       -2.65015  -0.00294   0.00000  -0.00422  -0.00406  -2.65421
   D46        1.73204  -0.00775   0.00000  -0.03286  -0.03269   1.69934
   D47        1.68340  -0.00467   0.00000  -0.01681  -0.01667   1.66673
[...]
   166    C   11  dxz    Ryd( 3d)     0.00159
   167    C   11  dyz    Ryd( 3d)     0.00037
   168    C   11  dx2y2  Ryd( 3d)     0.00132
   169    C   11  dz2    Ryd( 3d)     0.00101
 
   170    C   12  S      Cor( 1S)     1.99924
   171    C   12  S      Val( 2S)     0.95991
   172    C   12  S      Ryd( 3S)     0.00187
   173    C   12  S      Ryd( 4S)     0.00004
   174    C   12  px     Val( 2p)     1.05872
   175    C   12  px     Ryd( 3p)     0.00473
   176    C   12  py     Val( 2p)     1.00876
   177    C   12  py     Ryd( 3p)     0.00267
   178    C   12  pz     Val( 2p)     1.01466
   179    C   12  pz     Ryd( 3p)     0.00367
   180    C   12  dxy    Ryd( 3d)     0.00075
   181    C   12  dxz    Ryd( 3d)     0.00155
   182    C   12  dyz    Ryd( 3d)     0.00089
   183    C   12  dx2y2  Ryd( 3d)     0.00106
   184    C   12  dz2    Ryd( 3d)     0.00080
 
   185    C   13  S      Cor( 1S)     1.99939
   186    C   13  S      Val( 2S)     1.10067
   187    C   13  S      Ryd( 3S)     0.00053
   188    C   13  S      Ryd( 4S)     0.00002
   189    C   13  px     Val( 2p)     1.23923
   190    C   13  px     Ryd( 3p)     0.00208
   191    C   13  py     Val( 2p)     1.09339
   192    C   13  py     Ryd( 3p)     0.00199
   193    C   13  pz     Val( 2p)     1.23915
   194    C   13  pz     Ryd( 3p)     0.00142
   195    C   13  dxy    Ryd( 3d)     0.00072
   196    C   13  dxz    Ryd( 3d)     0.00081
   197    C   13  dyz    Ryd( 3d)     0.00053
   198    C   13  dx2y2  Ryd( 3d)     0.00063
   199    C   13  dz2    Ryd( 3d)     0.00063
 
   200    C   14  S      Cor( 1S)     1.99939
   201    C   14  S      Val( 2S)     1.10497
   202    C   14  S      Ryd( 3S)     0.00052
   203    C   14  S      Ryd( 4S)     0.00002
   204    C   14  px     Val( 2p)     1.11112
   205    C   14  px     Ryd( 3p)     0.00155
   206    C   14  py     Val( 2p)     1.22747
   207    C   14  py     Ryd( 3p)     0.00217
   208    C   14  pz     Val( 2p)     1.23223
   209    C   14  pz     Ryd( 3p)     0.00120
   210    C   14  dxy    Ryd( 3d)     0.00040
   211    C   14  dxz    Ryd( 3d)     0.00101
   212    C   14  dyz    Ryd( 3d)     0.00037
   213    C   14  dx2y2  Ryd( 3d)     0.00091
   214    C   14  dz2    Ryd( 3d)     0.00057
 
   215    C   15  S      Cor( 1S)     1.99923
   216    C   15  S      Val( 2S)     0.94833
   217    C   15  S      Ryd( 3S)     0.00178
   218    C   15  S      Ryd( 4S)     0.00004
   219    C   15  px     Val( 2p)     1.02671
   220    C   15  px     Ryd( 3p)     0.00296
   221    C   15  py     Val( 2p)     0.92948
   222    C   15  py     Ryd( 3p)     0.00237
   223    C   15  pz     Val( 2p)     1.12386
   224    C   15  pz     Ryd( 3p)     0.00543
   225    C   15  dxy    Ryd( 3d)     0.00106
   226    C   15  dxz    Ryd( 3d)     0.00074
   227    C   15  dyz    Ryd( 3d)     0.00133
   228    C   15  dx2y2  Ryd( 3d)     0.00129
   229    C   15  dz2    Ryd( 3d)     0.00074
 
   230    C   16  S      Cor( 1S)     1.99941
   231    C   16  S      Val( 2S)     1.09898
   232    C   16  S      Ryd( 3S)     0.00043
   233    C   16  S      Ryd( 4S)     0.00002
   234    C   16  px     Val( 2p)     1.20425
   235    C   16  px     Ryd( 3p)     0.00236
   236    C   16  py     Val( 2p)     1.22128
   237    C   16  py     Ryd( 3p)     0.00247
   238    C   16  pz     Val( 2p)     1.14754
   239    C   16  pz     Ryd( 3p)     0.00122
   240    C   16  dxy    Ryd( 3d)     0.00031
   241    C   16  dxz    Ryd( 3d)     0.00041
   242    C   16  dyz    Ryd( 3d)     0.00073
   243    C   16  dx2y2  Ryd( 3d)     0.00108
   244    C   16  dz2    Ryd( 3d)     0.00082
 
   245    C   17  S      Cor( 1S)     1.99939
   246    C   17  S      Val( 2S)     1.10317
   247    C   17  S      Ryd( 3S)     0.00055
   248    C   17  S      Ryd( 4S)     0.00001
   249    C   17  px     Val( 2p)     1.09689
   250    C   17  px     Ryd( 3p)     0.00173
   251    C   17  py     Val( 2p)     1.23914
   252    C   17  py     Ryd( 3p)     0.00156
   253    C   17  pz     Val( 2p)     1.23889
   254    C   17  pz     Ryd( 3p)     0.00197
   255    C   17  dxy    Ryd( 3d)     0.00046
   256    C   17  dxz    Ryd( 3d)     0.00072
   257    C   17  dyz    Ryd( 3d)     0.00073
   258    C   17  dx2y2  Ryd( 3d)     0.00078
   259    C   17  dz2    Ryd( 3d)     0.00060
 
   260    C   18  S      Cor( 1S)     1.99922
   261    C   18  S      Val( 2S)     0.95126
   262    C   18  S      Ryd( 3S)     0.00195
   263    C   18  S      Ryd( 4S)     0.00003
   264    C   18  px     Val( 2p)     0.93996
   265    C   18  px     Ryd( 3p)     0.00352
   266    C   18  py     Val( 2p)     1.15831
   267    C   18  py     Ryd( 3p)     0.00473
   268    C   18  pz     Val( 2p)     0.99305
   269    C   18  pz     Ryd( 3p)     0.00290
   270    C   18  dxy    Ryd( 3d)     0.00095
   271    C   18  dxz    Ryd( 3d)     0.00138
   272    C   18  dyz    Ryd( 3d)     0.00090
   273    C   18  dx2y2  Ryd( 3d)     0.00099
   274    C   18  dz2    Ryd( 3d)     0.00088
 
   275    C   19  S      Cor( 1S)     1.99939
   276    C   19  S      Val( 2S)     1.10416
   277    C   19  S      Ryd( 3S)     0.00049
   278    C   19  S      Ryd( 4S)     0.00002
   279    C   19  px     Val( 2p)     1.13203
   280    C   19  px     Ryd( 3p)     0.00153
   281    C   19  py     Val( 2p)     1.23636
   282    C   19  py     Ryd( 3p)     0.00169
   283    C   19  pz     Val( 2p)     1.20032
   284    C   19  pz     Ryd( 3p)     0.00186
   285    C   19  dxy    Ryd( 3d)     0.00062
   286    C   19  dxz    Ryd( 3d)     0.00082
   287    C   19  dyz    Ryd( 3d)     0.00101
   288    C   19  dx2y2  Ryd( 3d)     0.00055
   289    C   19  dz2    Ryd( 3d)     0.00029
 
   290    C   20  S      Cor( 1S)     1.99940
   291    C   20  S      Val( 2S)     1.10630
   292    C   20  S      Ryd( 3S)     0.00048
   293    C   20  S      Ryd( 4S)     0.00002
   294    C   20  px     Val( 2p)     1.24409
   295    C   20  px     Ryd( 3p)     0.00198
   296    C   20  py     Val( 2p)     1.18790
   297    C   20  py     Ryd( 3p)     0.00101
   298    C   20  pz     Val( 2p)     1.13718
   299    C   20  pz     Ryd( 3p)     0.00172
   300    C   20  dxy    Ryd( 3d)     0.00052
   301    C   20  dxz    Ryd( 3d)     0.00106
   302    C   20  dyz    Ryd( 3d)     0.00058
   303    C   20  dx2y2  Ryd( 3d)     0.00075
   304    C   20  dz2    Ryd( 3d)     0.00038
 
   305    H   21  S      Val( 1S)     0.77457
   306    H   21  S      Ryd( 2S)     0.00706
 
   307    H   22  S      Val( 1S)     0.75746
   308    H   22  S      Ryd( 2S)     0.00845
 
   309    H   23  S      Val( 1S)     0.76268
   310    H   23  S      Ryd( 2S)     0.00260
 
   311    H   24  S      Val( 1S)     0.76115
   312    H   24  S      Ryd( 2S)     0.00319
 
   313    H   25  S      Val( 1S)     0.76433
   314    H   25  S      Ryd( 2S)     0.00470
 
   315    H   26  S      Val( 1S)     0.77221
   316    H   26  S      Ryd( 2S)     0.00625
 
   317    H   27  S      Val( 1S)     0.76970
   318    H   27  S      Ryd( 2S)     0.00358
 
   319    H   28  S      Val( 1S)     0.81722
   320    H   28  S      Ryd( 2S)     0.01976
 
   321    H   29  S      Val( 1S)     0.76315
   322    H   29  S      Ryd( 2S)     0.00139
 
   323    H   30  S      Val( 1S)     0.78113
   324    H   30  S      Ryd( 2S)     0.01249
 
   325    H   31  S      Val( 1S)     0.76533
   326    H   31  S      Ryd( 2S)     0.00362
 
   327    H   32  S      Val( 1S)     0.76815
   328    H   32  S      Ryd( 2S)     0.00626
 
   329    H   33  S      Val( 1S)     0.76185
   330    H   33  S      Ryd( 2S)     0.01341
 
   331    H   34  S      Val( 1S)     0.78086
   332    H   34  S      Ryd( 2S)     0.00123
 
   333    H   35  S      Val( 1S)     0.77884
   334    H   35  S      Ryd( 2S)     0.00614
 
   335    H   36  S      Val( 1S)     0.76837
   336    H   36  S      Ryd( 2S)     0.00411
 
   337    H   37  S      Val( 1S)     0.78001
   338    H   37  S      Ryd( 2S)     0.00135
 
   339    H   38  S      Val( 1S)     0.77132
   340    H   38  S      Ryd( 2S)     0.00363
 
   341    H   39  S      Val( 1S)     0.77140
   342    H   39  S      Ryd( 2S)     0.00742
 
   343    H   40  S      Val( 1S)     0.76751
   344    H   40  S      Ryd( 2S)     0.00311
 
   345    H   41  S      Val( 1S)     0.75909
   346    H   41  S      Ryd( 2S)     0.00113
 
   347    H   42  S      Val( 1S)     0.76507
   348    H   42  S      Ryd( 2S)     0.00111
 
   349    H   43  S      Val( 1S)     0.77367
   350    H   43  S      Ryd( 2S)     0.00154
 
   351    H   44  S      Val( 1S)     0.77585
   352    H   44  S      Ryd( 2S)     0.00675
 
   353    H   45  S      Val( 1S)     0.77305
   354    H   45  S      Ryd( 2S)     0.00165
 
   355    H   46  S      Val( 1S)     0.77743
   356    H   46  S      Ryd( 2S)     0.00609
 
   357    H   47  S      Val( 1S)     0.74268
   358    H   47  S      Ryd( 2S)     0.00553
 
   359    H   48  S      Val( 1S)     0.78316
   360    H   48  S      Ryd( 2S)     0.00403
 
   361    H   49  S      Val( 1S)     0.76247
   362    H   49  S      Ryd( 2S)     0.00201
 
   363    H   50  S      Val( 1S)     0.76084
   364    H   50  S      Ryd( 2S)     0.00131
 
   365    H   51  S      Val( 1S)     0.78239
   366    H   51  S      Ryd( 2S)     0.00365
 
   367    H   52  S      Val( 1S)     0.76423
   368    H   52  S      Ryd( 2S)     0.00114
 
   369    H   53  S      Val( 1S)     0.75780
   370    H   53  S      Ryd( 2S)     0.00355


 Summary of Natural Population Analysis:                  
                                                          
                                       Natural Population 
                Natural  -----------------------------------------------
    Atom  No    Charge         Core      Valence    Rydberg      Total
 -----------------------------------------------------------------------
      N    1   -0.68013      1.99945     5.65778    0.02291     7.68013
      C    2   -0.28609      1.99926     4.26818    0.01865     6.28609
      C    3   -0.25268      1.99930     4.23500    0.01838     6.25268
      N    4   -0.45580      1.99940     5.44352    0.01288     7.45580
      C    5   -0.25945      1.99931     4.24225    0.01789     6.25945
      C    6   -0.26647      1.99929     4.24964    0.01755     6.26647
      N    7   -0.81922      1.99942     5.79823    0.02157     7.81922
      P    8    1.16416      9.99839     3.74443    0.09302    13.83584
      N    9   -0.76131      1.99945     5.73840    0.02347     7.76131
      C   10   -0.28076      1.99930     4.26280    0.01866     6.28076
      C   11   -0.26586      1.99933     4.24807    0.01847     6.26586
      C   12   -0.05931      1.99924     4.04204    0.01802     6.05931
      C   13   -0.68119      1.99939     4.67244    0.00936     6.68119
      C   14   -0.68390      1.99939     4.67578    0.00872     6.68390
      C   15   -0.04535      1.99923     4.02839    0.01773     6.04535
      C   16   -0.68130      1.99941     4.67205    0.00985     6.68130
      C   17   -0.68660      1.99939     4.67809    0.00912     6.68660
      C   18   -0.06003      1.99922     4.04257    0.01824     6.06003
      C   19   -0.68116      1.99939     4.67287    0.00889     6.68116
      C   20   -0.68335      1.99940     4.67546    0.00849     6.68335
      H   21    0.21837      0.00000     0.77457    0.00706     0.78163
      H   22    0.23409      0.00000     0.75746    0.00845     0.76591
      H   23    0.23473      0.00000     0.76268    0.00260     0.76527
      H   24    0.23566      0.00000     0.76115    0.00319     0.76434
      H   25    0.23097      0.00000     0.76433    0.00470     0.76903
      H   26    0.22154      0.00000     0.77221    0.00625     0.77846
      H   27    0.22672      0.00000     0.76970    0.00358     0.77328
      H   28    0.16302      0.00000     0.81722    0.01976     0.83698
      H   29    0.23546      0.00000     0.76315    0.00139     0.76454
      H   30    0.20639      0.00000     0.78113    0.01249     0.79361
      H   31    0.23105      0.00000     0.76533    0.00362     0.76895
      H   32    0.22559      0.00000     0.76815    0.00626     0.77441
      H   33    0.22474      0.00000     0.76185    0.01341     0.77526
      H   34    0.21791      0.00000     0.78086    0.00123     0.78209
      H   35    0.21502      0.00000     0.77884    0.00614     0.78498
      H   36    0.22752      0.00000     0.76837    0.00411     0.77248
      H   37    0.21864      0.00000     0.78001    0.00135     0.78136
      H   38    0.22505      0.00000     0.77132    0.00363     0.77495
      H   39    0.22118      0.00000     0.77140    0.00742     0.77882
      H   40    0.22938      0.00000     0.76751    0.00311     0.77062
      H   41    0.23978      0.00000     0.75909    0.00113     0.76022
      H   42    0.23382      0.00000     0.76507    0.00111     0.76618
      H   43    0.22479      0.00000     0.77367    0.00154     0.77521
      H   44    0.21740      0.00000     0.77585    0.00675     0.78260
      H   45    0.22531      0.00000     0.77305    0.00165     0.77469
      H   46    0.21649      0.00000     0.77743    0.00609     0.78351
      H   47    0.25178      0.00000     0.74268    0.00553     0.74822
      H   48    0.21281      0.00000     0.78316    0.00403     0.78719
      H   49    0.23552      0.00000     0.76247    0.00201     0.76448
      H   50    0.23785      0.00000     0.76084    0.00131     0.76215
      H   51    0.21396      0.00000     0.78239    0.00365     0.78604
      H   52    0.23464      0.00000     0.76423    0.00114     0.76536
      H   53    0.23865      0.00000     0.75780    0.00355     0.76135
 =======================================================================
   * Total *   -0.00000     47.98594   117.46297    0.55109   166.00000

                                 Natural Population      
 --------------------------------------------------------
   Core                      47.98594 ( 99.9707% of  48)
   Valence                  117.46297 ( 99.5449% of 118)
   Natural Minimal Basis    165.44891 ( 99.6680% of 166)
   Natural Rydberg Basis      0.55109 (  0.3320% of 166)
 --------------------------------------------------------

    Atom  No          Natural Electron Configuration
 ----------------------------------------------------------------------------
      N    1      [core]2S( 1.34)2p( 4.32)3S( 0.01)3p( 0.01)
      C    2      [core]2S( 1.03)2p( 3.24)3p( 0.01)
      C    3      [core]2S( 1.01)2p( 3.22)3p( 0.01)3d( 0.01)
      N    4      [core]2S( 1.18)2p( 4.27)3p( 0.01)
      C    5      [core]2S( 1.01)2p( 3.24)3p( 0.01)3d( 0.01)
      C    6      [core]2S( 1.02)2p( 3.23)3p( 0.01)3d( 0.01)
      N    7      [core]2S( 1.33)2p( 4.47)3S( 0.01)3p( 0.01)
      P    8      [core]3S( 1.32)3p( 2.43)4S( 0.01)3d( 0.05)4p( 0.04)
      N    9      [core]2S( 1.35)2p( 4.39)3S( 0.01)3p( 0.01)
      C   10      [core]2S( 1.01)2p( 3.25)3p( 0.01)
      C   11      [core]2S( 1.01)2p( 3.24)3p( 0.01)3d( 0.01)
      C   12      [core]2S( 0.96)2p( 3.08)3p( 0.01)3d( 0.01)
      C   13      [core]2S( 1.10)2p( 3.57)3p( 0.01)
      C   14      [core]2S( 1.10)2p( 3.57)
      C   15      [core]2S( 0.95)2p( 3.08)3p( 0.01)3d( 0.01)
      C   16      [core]2S( 1.10)2p( 3.57)3p( 0.01)
      C   17      [core]2S( 1.10)2p( 3.57)3p( 0.01)
      C   18      [core]2S( 0.95)2p( 3.09)3p( 0.01)3d( 0.01)
      C   19      [core]2S( 1.10)2p( 3.57)3p( 0.01)
      C   20      [core]2S( 1.11)2p( 3.57)
      H   21            1S( 0.77)2S( 0.01)
      H   22            1S( 0.76)2S( 0.01)
      H   23            1S( 0.76)
      H   24            1S( 0.76)
      H   25            1S( 0.76)
      H   26            1S( 0.77)2S( 0.01)
      H   27            1S( 0.77)
      H   28            1S( 0.82)2S( 0.02)
      H   29            1S( 0.76)
      H   30            1S( 0.78)2S( 0.01)
      H   31            1S( 0.77)
      H   32            1S( 0.77)2S( 0.01)
      H   33            1S( 0.76)2S( 0.01)
      H   34            1S( 0.78)
      H   35            1S( 0.78)2S( 0.01)
      H   36            1S( 0.77)
      H   37            1S( 0.78)
      H   38            1S( 0.77)
      H   39            1S( 0.77)2S( 0.01)
      H   40            1S( 0.77)
      H   41            1S( 0.76)
      H   42            1S( 0.77)
      H   43            1S( 0.77)
      H   44            1S( 0.78)2S( 0.01)
      H   45            1S( 0.77)
      H   46            1S( 0.78)2S( 0.01)
      H   47            1S( 0.74)2S( 0.01)
      H   48            1S( 0.78)
      H   49            1S( 0.76)
      H   50            1S( 0.76)
      H   51            1S( 0.78)
      H   52            1S( 0.76)
      H   53            1S( 0.76)


 NBO analysis skipped by request.
 1\1\GINC-DELLA-R1C4N13\SP\RB3LYP TD-FC\6-31G(d)\C15H33N4P1\BJS4\24-Aug
 -2020\0\\# TD(NStates=10, Root=1) B3LYP/6-31G* scf=qc volume pop=NPA d
 ensity=current Geom=AllCheck Guess=Read\\Title Card Required\\0,1\N,0,
 -1.2900450578,-0.418396388,1.0695795387\C,0,-0.9671089909,-1.823160379
 5,1.273318068\C,0,0.0015179504,-2.3615660927,0.2077739352\N,0,1.160522
 0069,-1.5257084289,-0.0148428835\C,0,1.1804232038,-0.6057056285,-1.125
 2391907\C,0,1.3930812614,0.8842018976,-0.815987895\N,0,0.4764939181,1.
 5197021903,0.1419327279\P,0,-0.2574330051,0.8868684692,1.5861411445\N,
 0,0.9718291948,0.0381937207,2.4886916178\C,0,2.2740022961,-0.321035839
 5,1.9305761027\C,0,2.2304501037,-1.5241049495,0.9508174785\C,0,0.89731
 44629,0.2462486296,3.9536508956\C,0,1.1079306265,-1.0626234196,4.73154
 78306\C,0,1.8305459548,1.3561717952,4.4696600632\C,0,0.5407988758,3.00
 77061798,0.0578745453\C,0,-0.8168640222,3.6938657165,0.2662184269\C,0,
 1.6229498586,3.6279370009,0.9586006333\C,0,-2.6952524062,-0.0398542692
 ,0.8412066742\C,0,-3.2350409085,-0.6010019639,-0.4840046842\C,0,-3.619
 7445509,-0.3836984202,2.0234106616\H,0,-1.8887673774,-2.4167416087,1.2
 500242615\H,0,-0.5187671423,-1.9741185237,2.2642960992\H,0,-0.53051911
 28,-2.4618498879,-0.7454867711\H,0,0.3231415295,-3.3758270576,0.498812
 1581\H,0,0.2340881289,-0.7162926557,-1.661201857\H,0,1.9869134485,-0.8
 664080955,-1.8404037308\H,0,1.2750496859,1.3992935721,-1.7811431834\H,
 0,2.4455964472,1.0434248247,-0.5309108826\H,0,2.9449526193,-0.59873586
 39,2.7514577599\H,0,2.7475845598,0.5418612244,1.4442942586\H,0,2.13952
 88133,-2.4448606294,1.5400127267\H,0,3.2086028069,-1.5711809235,0.4380
 65899\H,0,-0.1313497626,0.5734923359,4.1488503728\H,0,2.1203797508,-1.
 4617873648,4.5948034406\H,0,0.3954479557,-1.8284341125,4.4089334996\H,
 0,0.9688795251,-0.8930982941,5.8060131524\H,0,2.8860389862,1.105179552
 1,4.3111098763\H,0,1.687002649,1.5120992906,5.5457121904\H,0,1.6258510
 422,2.3021934088,3.9583999754\H,0,0.8292114638,3.2153856633,-0.9811385
 377\H,0,-1.1638399594,3.6105552144,1.2993912438\H,0,-1.5755841186,3.25
 14676171,-0.3881644503\H,0,-0.7303838793,4.7594541399,0.0202778213\H,0
 ,1.3516760541,3.5277049259,2.0153324526\H,0,1.7456591064,4.6968280141,
 0.7427632816\H,0,2.5935742698,3.142068638,0.8076458304\H,0,-2.69286717
 8,1.0536523282,0.74572113\H,0,-3.2734493579,-1.6972688932,-0.473997099
 3\H,0,-2.5983695371,-0.2899161336,-1.3186715495\H,0,-4.2538093281,-0.2
 401446087,-0.6713295613\H,0,-3.6884951553,-1.4660472521,2.1849152001\H
 ,0,-4.6362362448,-0.0126961235,1.843234768\H,0,-3.2459214609,0.0744174
 583,2.9455045339\\Version=ES64L-G16RevA.03\State=1-A\HF=-1151.7985614\
 RMSD=6.099e-09\Dipole=0.0162472,-0.9762004,-0.574826\Quadrupole=1.2128
 519,-0.0989147,-1.1139372,-0.4103914,0.9520551,-0.5370588\PG=C01 [X(C1
 5H33N4P1)]\\@


 EVERY WORD THAT YOU WRITE IS A BLOW THAT SMITES THE DEVIL.
     -- ST. BERNARD OF CLAIRVAUX
 Job cpu time:       0 days  2 hours  6 minutes 36.5 seconds.
 Elapsed time:       0 days  0 hours 18 minutes  9.7 seconds.
 File lengths (MBytes):  RWF=   1125 Int=      0 D2E=      0 Chk=    268 Scr=      1
 Normal termination of Gaussian 16 at Mon Aug 24 20:54:15 2020.
