 Entering Gaussian System, Link 0=g16
 Input=base_5_conf1123.com
 Output=base_5_conf1123.log
 Initial command:
 /opt/export//g16/l1.exe "/scratch/bjs4/job.3059/Gau-3061.inp" -scrdir="/scratch/bjs4/job.3059/"
 Entering Link 1 = /opt/export//g16/l1.exe PID=      3062.
  
 Copyright (c) 1988,1990,1992,1993,1995,1998,2003,2009,2016,
            Gaussian, Inc.  All Rights Reserved.
  
 This is part of the Gaussian(R) 16 program.  It is based on
 the Gaussian(R) 09 system (copyright 2009, Gaussian, Inc.),
 the Gaussian(R) 03 system (copyright 2003, Gaussian, Inc.),
 the Gaussian(R) 98 system (copyright 1998, Gaussian, Inc.),
 the Gaussian(R) 94 system (copyright 1995, Gaussian, Inc.),
 the Gaussian 92(TM) system (copyright 1992, Gaussian, Inc.),
 the Gaussian 90(TM) system (copyright 1990, Gaussian, Inc.),
 the Gaussian 88(TM) system (copyright 1988, Gaussian, Inc.),
 the Gaussian 86(TM) system (copyright 1986, Carnegie Mellon
 University), and the Gaussian 82(TM) system (copyright 1983,
 Carnegie Mellon University). Gaussian is a federally registered
 trademark of Gaussian, Inc.
  
 This software contains proprietary and confidential information,
 including trade secrets, belonging to Gaussian, Inc.
  
 This software is provided under written license and may be
 used, copied, transmitted, or stored only in accord with that
 written license.
  
 The following legend is applicable only to US Government
 contracts under FAR:
  
                    RESTRICTED RIGHTS LEGEND
  
 Use, reproduction and disclosure by the US Government is
 subject to restrictions as set forth in subparagraphs (a)
 and (c) of the Commercial Computer Software - Restricted
 Rights clause in FAR 52.227-19.
  
 Gaussian, Inc.
 340 Quinnipiac St., Bldg. 40, Wallingford CT 06492
  
  
 ---------------------------------------------------------------
 Warning -- This program may not be used in any manner that
 competes with the business of Gaussian, Inc. or will provide
 assistance to any competitor of Gaussian, Inc.  The licensee
 of this program is prohibited from giving any competitor of
 Gaussian, Inc. access to this program.  By using this program,
 the user acknowledges that Gaussian, Inc. is engaged in the
 business of creating and licensing software in the field of
 computational chemistry and represents and warrants to the
 licensee that it is not a competitor of Gaussian, Inc. and that
 it will not use this program in any manner prohibited above.
 ---------------------------------------------------------------
  

 Cite this work as:
 Gaussian 16, Revision A.03,
 M. J. Frisch, G. W. Trucks, H. B. Schlegel, G. E. Scuseria, 
 M. A. Robb, J. R. Cheeseman, G. Scalmani, V. Barone, 
 G. A. Petersson, H. Nakatsuji, X. Li, M. Caricato, A. V. Marenich, 
 J. Bloino, B. G. Janesko, R. Gomperts, B. Mennucci, H. P. Hratchian, 
 J. V. Ortiz, A. F. Izmaylov, J. L. Sonnenberg, D. Williams-Young, 
 F. Ding, F. Lipparini, F. Egidi, J. Goings, B. Peng, A. Petrone, 
 T. Henderson, D. Ranasinghe, V. G. Zakrzewski, J. Gao, N. Rega, 
 G. Zheng, W. Liang, M. Hada, M. Ehara, K. Toyota, R. Fukuda, 
 J. Hasegawa, M. Ishida, T. Nakajima, Y. Honda, O. Kitao, H. Nakai, 
 T. Vreven, K. Throssell, J. A. Montgomery, Jr., J. E. Peralta, 
 F. Ogliaro, M. J. Bearpark, J. J. Heyd, E. N. Brothers, K. N. Kudin, 
 V. N. Staroverov, T. A. Keith, R. Kobayashi, J. Normand, 
 K. Raghavachari, A. P. Rendell, J. C. Burant, S. S. Iyengar, 
 J. Tomasi, M. Cossi, J. M. Millam, M. Klene, C. Adamo, R. Cammi, 
 J. W. Ochterski, R. L. Martin, K. Morokuma, O. Farkas, 
 J. B. Foresman, and D. J. Fox, Gaussian, Inc., Wallingford CT, 2016.
 
 ******************************************
 Gaussian 16:  ES64L-G16RevA.03 25-Dec-2016
                24-Aug-2020 
 ******************************************
 %nprocshared=2
 Will use up to    2 processors via shared memory.
 %Mem=4GB
 %Chk=base_5_conf11.chk
 ---------------------------------
 # opt=CalcAll B3LYP/6-31G* scf=qc
 ---------------------------------
 1/10=4,18=20,19=15,26=3,38=1/1,3;
 2/9=110,12=2,17=6,18=5,40=1/2;
 3/5=1,6=6,7=1,11=2,25=1,30=1,71=2,74=-5,140=1/1,2,3;
 4//1;
 5/5=2,8=3,38=5/8;
 8/6=4,10=90,11=11/1;
 11/6=1,8=1,9=11,15=111,16=1/1,2,10;
 10/6=1/2;
 6/7=2,8=2,9=2,10=2,18=1,28=1/1;
 7/10=1,25=1/1,2,3,16;
 1/10=4,18=20,19=15,26=3/3(3);
 2/9=110/2;
 7/8=1,9=1,25=1,44=-1/16;
 99//99;
 2/9=110/2;
 3/5=1,6=6,7=1,11=2,25=1,30=1,71=2,74=-5,140=1/1,2,3;
 4/5=5,16=3,69=1/1;
 5/5=2,8=3,38=5/8;
 8/6=4,10=90,11=11/1;
 11/6=1,8=1,9=11,15=111,16=1/1,2,10;
 10/6=1/2;
 7/10=1,25=1/1,2,3,16;
 1/10=4,18=20,19=15,26=3/3(-8);
 2/9=110/2;
 6/7=2,8=2,9=2,10=2,18=1,19=2,28=1/1;
 7/8=1,9=1,25=1,44=-1/16;
 99//99;
 -------------------
 Title Card Required
 -------------------
 Symbolic Z-matrix:
 Charge =  0 Multiplicity = 1
 C                    -0.7647   -0.953    -0.2027 
 N1                   -1.1359    0.393     0.2433 
 H                    -1.1742    0.3943    1.2636 
 C                    -0.0104    1.2325   -0.1773 
 C                     1.223     0.3854    0.0843 
 C                     0.7243   -1.0533    0.0784 
 H                    -0.9647   -1.0545   -1.2758 
 H                    -1.3371   -1.7249    0.3205 
 H                     0.0148    2.1793    0.3706 
 H                    -0.102     1.464    -1.2449 
 H                     1.659     0.6232    1.0615 
 H                     1.9923    0.5515   -0.6766 
 H                     0.9047   -1.512     1.0576 
 H                     1.2366   -1.6586   -0.6761 
 

 GradGradGradGradGradGradGradGradGradGradGradGradGradGradGradGradGradGrad
 Berny optimization.
 Initialization pass.
                           ----------------------------
                           !    Initial Parameters    !
                           ! (Angstroms and Degrees)  !
 --------------------------                            --------------------------
 ! Name  Definition              Value          Derivative Info.                !
 --------------------------------------------------------------------------------
 ! R1    R(1,2)                  1.4657         calculate D2E/DX2 analytically  !
 ! R2    R(1,6)                  1.5186         calculate D2E/DX2 analytically  !
 ! R3    R(1,7)                  1.0963         calculate D2E/DX2 analytically  !
 ! R4    R(1,8)                  1.0942         calculate D2E/DX2 analytically  !
 ! R5    R(2,3)                  1.021          calculate D2E/DX2 analytically  !
 ! R6    R(2,4)                  1.4657         calculate D2E/DX2 analytically  !
 ! R7    R(4,5)                  1.519          calculate D2E/DX2 analytically  !
 ! R8    R(4,9)                  1.0942         calculate D2E/DX2 analytically  !
 ! R9    R(4,10)                 1.0962         calculate D2E/DX2 analytically  !
 ! R10   R(5,6)                  1.5227         calculate D2E/DX2 analytically  !
 ! R11   R(5,11)                 1.0962         calculate D2E/DX2 analytically  !
 ! R12   R(5,12)                 1.0947         calculate D2E/DX2 analytically  !
 ! R13   R(6,13)                 1.0963         calculate D2E/DX2 analytically  !
 ! R14   R(6,14)                 1.0946         calculate D2E/DX2 analytically  !
 ! A1    A(2,1,6)              104.6337         calculate D2E/DX2 analytically  !
 ! A2    A(2,1,7)              109.6738         calculate D2E/DX2 analytically  !
 ! A3    A(2,1,8)              111.7063         calculate D2E/DX2 analytically  !
 ! A4    A(6,1,7)              110.729          calculate D2E/DX2 analytically  !
 ! A5    A(6,1,8)              112.1993         calculate D2E/DX2 analytically  !
 ! A6    A(7,1,8)              107.8968         calculate D2E/DX2 analytically  !
 ! A7    A(1,2,3)              108.3449         calculate D2E/DX2 analytically  !
 ! A8    A(1,2,4)              104.1332         calculate D2E/DX2 analytically  !
 ! A9    A(3,2,4)              108.3503         calculate D2E/DX2 analytically  !
 ! A10   A(2,4,5)              104.7545         calculate D2E/DX2 analytically  !
 ! A11   A(2,4,9)              111.6904         calculate D2E/DX2 analytically  !
 ! A12   A(2,4,10)             109.6481         calculate D2E/DX2 analytically  !
 ! A13   A(5,4,9)              112.1862         calculate D2E/DX2 analytically  !
 ! A14   A(5,4,10)             110.6916         calculate D2E/DX2 analytically  !
 ! A15   A(9,4,10)             107.8692         calculate D2E/DX2 analytically  !
 ! A16   A(4,5,6)              105.0885         calculate D2E/DX2 analytically  !
 ! A17   A(4,5,11)             110.8254         calculate D2E/DX2 analytically  !
 ! A18   A(4,5,12)             111.4878         calculate D2E/DX2 analytically  !
 ! A19   A(6,5,11)             109.7974         calculate D2E/DX2 analytically  !
 ! A20   A(6,5,12)             111.7665         calculate D2E/DX2 analytically  !
 ! A21   A(11,5,12)            107.8909         calculate D2E/DX2 analytically  !
 ! A22   A(1,6,5)              105.0367         calculate D2E/DX2 analytically  !
 ! A23   A(1,6,13)             110.752          calculate D2E/DX2 analytically  !
 ! A24   A(1,6,14)             111.5822         calculate D2E/DX2 analytically  !
 ! A25   A(5,6,13)             109.7542         calculate D2E/DX2 analytically  !
 ! A26   A(5,6,14)             111.8314         calculate D2E/DX2 analytically  !
 ! A27   A(13,6,14)            107.8963         calculate D2E/DX2 analytically  !
 ! D1    D(6,1,2,3)            -75.6497         calculate D2E/DX2 analytically  !
 ! D2    D(6,1,2,4)             39.5344         calculate D2E/DX2 analytically  !
 ! D3    D(7,1,2,3)            165.544          calculate D2E/DX2 analytically  !
 ! D4    D(7,1,2,4)            -79.2719         calculate D2E/DX2 analytically  !
 ! D5    D(8,1,2,3)             45.9673         calculate D2E/DX2 analytically  !
 ! D6    D(8,1,2,4)            161.1514         calculate D2E/DX2 analytically  !
 ! D7    D(2,1,6,5)            -24.3321         calculate D2E/DX2 analytically  !
 ! D8    D(2,1,6,13)            94.0948         calculate D2E/DX2 analytically  !
 ! D9    D(2,1,6,14)          -145.6884         calculate D2E/DX2 analytically  !
 ! D10   D(7,1,6,5)             93.7575         calculate D2E/DX2 analytically  !
 ! D11   D(7,1,6,13)          -147.8156         calculate D2E/DX2 analytically  !
 ! D12   D(7,1,6,14)           -27.5988         calculate D2E/DX2 analytically  !
 ! D13   D(8,1,6,5)           -145.6243         calculate D2E/DX2 analytically  !
 ! D14   D(8,1,6,13)           -27.1974         calculate D2E/DX2 analytically  !
 ! D15   D(8,1,6,14)            93.0194         calculate D2E/DX2 analytically  !
 ! D16   D(1,2,4,5)            -39.1199         calculate D2E/DX2 analytically  !
 ! D17   D(1,2,4,9)           -160.7883         calculate D2E/DX2 analytically  !
 ! D18   D(1,2,4,10)            79.6965         calculate D2E/DX2 analytically  !
 ! D19   D(3,2,4,5)             76.0604         calculate D2E/DX2 analytically  !
 ! D20   D(3,2,4,9)            -45.6081         calculate D2E/DX2 analytically  !
 ! D21   D(3,2,4,10)          -165.1232         calculate D2E/DX2 analytically  !
 ! D22   D(2,4,5,6)             23.2566         calculate D2E/DX2 analytically  !
 ! D23   D(2,4,5,11)           -95.2891         calculate D2E/DX2 analytically  !
 ! D24   D(2,4,5,12)           144.5143         calculate D2E/DX2 analytically  !
 ! D25   D(9,4,5,6)            144.5993         calculate D2E/DX2 analytically  !
 ! D26   D(9,4,5,11)            26.0536         calculate D2E/DX2 analytically  !
 ! D27   D(9,4,5,12)           -94.143          calculate D2E/DX2 analytically  !
 ! D28   D(10,4,5,6)           -94.8527         calculate D2E/DX2 analytically  !
 ! D29   D(10,4,5,11)          146.6016         calculate D2E/DX2 analytically  !
 ! D30   D(10,4,5,12)           26.405          calculate D2E/DX2 analytically  !
 ! D31   D(4,5,6,1)              0.6535         calculate D2E/DX2 analytically  !
 ! D32   D(4,5,6,13)          -118.4441         calculate D2E/DX2 analytically  !
 ! D33   D(4,5,6,14)           121.8465         calculate D2E/DX2 analytically  !
 ! D34   D(11,5,6,1)           119.8888         calculate D2E/DX2 analytically  !
 ! D35   D(11,5,6,13)            0.7911         calculate D2E/DX2 analytically  !
 ! D36   D(11,5,6,14)         -118.9183         calculate D2E/DX2 analytically  !
 ! D37   D(12,5,6,1)          -120.4215         calculate D2E/DX2 analytically  !
 ! D38   D(12,5,6,13)          120.4809         calculate D2E/DX2 analytically  !
 ! D39   D(12,5,6,14)            0.7715         calculate D2E/DX2 analytically  !
 --------------------------------------------------------------------------------
 Trust Radius=3.00D-01 FncErr=1.00D-07 GrdErr=1.00D-06 EigMax=2.50D+02 EigMin=1.00D-04
 Number of steps in this run=     90 maximum allowed number of steps=    100.
 GradGradGradGradGradGradGradGradGradGradGradGradGradGradGradGradGradGrad

                          Input orientation:                          
 ---------------------------------------------------------------------
 Center     Atomic      Atomic             Coordinates (Angstroms)
 Number     Number       Type             X           Y           Z
 ---------------------------------------------------------------------
      1          6           0       -0.764700   -0.953000   -0.202700
      2          7           0       -1.135900    0.393000    0.243300
      3          1           0       -1.174200    0.394300    1.263600
      4          6           0       -0.010400    1.232500   -0.177300
      5          6           0        1.223000    0.385400    0.084300
      6          6           0        0.724300   -1.053300    0.078400
      7          1           0       -0.964700   -1.054500   -1.275800
      8          1           0       -1.337100   -1.724900    0.320500
      9          1           0        0.014800    2.179300    0.370600
     10          1           0       -0.102000    1.464000   -1.244900
     11          1           0        1.659000    0.623200    1.061500
     12          1           0        1.992300    0.551500   -0.676600
     13          1           0        0.904700   -1.512000    1.057600
     14          1           0        1.236600   -1.658600   -0.676100
 ---------------------------------------------------------------------
                    Distance matrix (angstroms):
                    1          2          3          4          5
     1  C    0.000000
     2  N    1.465749   0.000000
     3  H    2.032964   1.021019   0.000000
     4  C    2.312147   1.465747   2.033028   0.000000
     5  C    2.413428   2.364265   2.671590   1.518976   0.000000
     6  C    1.518617   2.362058   2.665436   2.414549   1.522693
     7  H    1.096287   2.105286   2.931120   2.710675   2.951138
     8  H    1.094171   2.128836   2.325292   3.279352   3.326149
     9  H    3.278353   2.128658   2.323229   1.094194   2.181695
    10  H    2.714266   2.104930   2.930263   1.096245   2.164665
    11  H    3.155460   2.921286   2.849607   2.166280   1.096159
    12  H    3.176342   3.264502   3.716962   2.173446   1.094706
    13  H    2.165117   2.907947   2.828116   3.145579   2.156097
    14  H    2.174208   3.268504   3.713326   3.187831   2.180901
                    6          7          8          9         10
     6  C    0.000000
     7  H    2.164851   0.000000
     8  H    2.181520   1.770958   0.000000
     9  H    3.322420   3.758659   4.131939   0.000000
    10  H    2.961536   2.662339   3.760988   1.770632   0.000000
    11  H    2.156572   3.893771   3.878050   2.366893   3.021183
    12  H    2.180191   3.417912   4.154649   2.767104   2.354084
    13  H    1.096258   3.024685   2.369454   3.858703   3.895064
    14  H    1.094582   2.360148   2.760713   4.161472   3.444708
                   11         12         13         14
    11  H    0.000000
    12  H    1.771220   0.000000
    13  H    2.264523   2.906606   0.000000
    14  H    2.899015   2.335728   1.771261   0.000000
 Stoichiometry    C4H9N
 Framework group  C1[X(C4H9N)]
 Deg. of freedom    36
 Full point group                 C1      NOp   1
 Largest Abelian subgroup         C1      NOp   1
 Largest concise Abelian subgroup C1      NOp   1
                         Standard orientation:                         
 ---------------------------------------------------------------------
 Center     Atomic      Atomic             Coordinates (Angstroms)
 Number     Number       Type             X           Y           Z
 ---------------------------------------------------------------------
      1          6           0       -1.155691   -0.443454    0.210374
      2          7           0       -0.001234   -1.236850   -0.221102
      3          1           0       -0.003768   -1.279433   -1.241230
      4          6           0        1.156449   -0.445165    0.204833
      5          6           0        0.761408    0.995831   -0.068594
      6          6           0       -0.761267    0.994863   -0.075760
      7          1           0       -1.326207   -0.593013    1.282942
      8          1           0       -2.067787   -0.735131   -0.318980
      9          1           0        2.064127   -0.734048   -0.333616
     10          1           0        1.336107   -0.601166    1.274944
     11          1           0        1.137061    1.324427   -1.044542
     12          1           0        1.163348    1.673005    0.691840
     13          1           0       -1.127360    1.309570   -1.059995
     14          1           0       -1.172274    1.681284    0.671240
 ---------------------------------------------------------------------
 Rotational constants (GHZ):           6.9632479           6.8691543           4.0110778
 Standard basis: 6-31G(d) (6D, 7F)
 There are    93 symmetry adapted cartesian basis functions of A   symmetry.
 There are    93 symmetry adapted basis functions of A   symmetry.
    93 basis functions,   176 primitive gaussians,    93 cartesian basis functions
    20 alpha electrons       20 beta electrons
       nuclear repulsion energy       191.6279915915 Hartrees.
 NAtoms=   14 NActive=   14 NUniq=   14 SFac= 1.00D+00 NAtFMM=   60 NAOKFM=F Big=F
 Integral buffers will be    131072 words long.
 Raffenetti 2 integral format.
 Two-electron integral symmetry is turned on.
 One-electron integrals computed using PRISM.
 NBasis=    93 RedAO= T EigKep=  2.88D-03  NBF=    93
 NBsUse=    93 1.00D-06 EigRej= -1.00D+00 NBFU=    93
 ExpMin= 1.61D-01 ExpMax= 4.17D+03 ExpMxC= 6.27D+02 IAcc=3 IRadAn=         5 AccDes= 0.00D+00
 Harris functional with IExCor=  402 and IRadAn=       5 diagonalized for initial guess.
 HarFok:  IExCor=  402 AccDes= 0.00D+00 IRadAn=         5 IDoV= 1 UseB2=F ITyADJ=14
 ICtDFT=  3500011 ScaDFX=  1.000000  1.000000  1.000000  1.000000
 FoFCou: FMM=F IPFlag=           0 FMFlag=      100000 FMFlg1=           0
         NFxFlg=           0 DoJE=T BraDBF=F KetDBF=T FulRan=T
         wScrn=  0.000000 ICntrl=       500 IOpCl=  0 I1Cent=   200000004 NGrid=           0
         NMat0=    1 NMatS0=      1 NMatT0=    0 NMatD0=    1 NMtDS0=    0 NMtDT0=    0
 Petite list used in FoFCou.
 Keep R1 ints in memory in canonical form, NReq=11390859.
 Gradient too large for Newton-Raphson -- use scaled steepest descent instead.
     Accept linear search using points  2 and  3.
 Gradient too large for Newton-Raphson -- use scaled steepest descent instead.
     Minimum is close to point  3 DX=  7.51D-02 DF= -8.77D-05 DXR=  9.69D-02 DFR=  9.51D-03 which will be used.
 Gradient too large for Newton-Raphson -- use scaled steepest descent instead.
 Gradient too large for Newton-Raphson -- use scaled steepest descent instead.
     Accept linear search using points  1 and  2.
 LinEq1:  Iter=  0 NonCon=     1 RMS=5.81D-05 Max=9.00D-04 NDo=     1
 AX will form     1 AO Fock derivatives at one time.
 LinEq1:  Iter=  1 NonCon=     1 RMS=3.41D-05 Max=3.20D-04 NDo=     1
 LinEq1:  Iter=  2 NonCon=     1 RMS=7.25D-06 Max=8.12D-05 NDo=     1
 LinEq1:  Iter=  3 NonCon=     1 RMS=1.83D-06 Max=1.31D-05 NDo=     1
 LinEq1:  Iter=  4 NonCon=     1 RMS=7.64D-07 Max=7.44D-06 NDo=     1
 LinEq1:  Iter=  5 NonCon=     1 RMS=2.36D-07 Max=3.69D-06 NDo=     1
 LinEq1:  Iter=  6 NonCon=     1 RMS=4.41D-08 Max=4.01D-07 NDo=     1
 LinEq1:  Iter=  7 NonCon=     1 RMS=1.79D-08 Max=2.39D-07 NDo=     1
 LinEq1:  Iter=  8 NonCon=     1 RMS=8.43D-09 Max=9.02D-08 NDo=     1
 LinEq1:  Iter=  9 NonCon=     0 RMS=2.18D-09 Max=1.95D-08 NDo=     1
 Linear equations converged to 5.404D-09 5.404D-08 after     9 iterations.
     Accept linear search using points  1 and  2.
     Minimum is close to point  2 DX= -1.03D-04 DF= -8.53D-14 DXR=  1.03D-04 DFR=  9.55D-09 which will be used.
 LinEq1:  Iter=  0 NonCon=     1 RMS=3.26D-08 Max=4.41D-07 NDo=     1
 LinEq1:  Iter=  1 NonCon=     1 RMS=1.74D-08 Max=2.02D-07 NDo=     1
 LinEq1:  Iter=  2 NonCon=     1 RMS=2.63D-09 Max=1.95D-08 NDo=     1
 LinEq1:  Iter=  3 NonCon=     1 RMS=5.09D-10 Max=5.80D-09 NDo=     1
 LinEq1:  Iter=  4 NonCon=     1 RMS=1.29D-10 Max=1.03D-09 NDo=     1
 LinEq1:  Iter=  5 NonCon=     1 RMS=7.07D-11 Max=8.14D-10 NDo=     1
 LinEq1:  Iter=  6 NonCon=     1 RMS=3.16D-11 Max=2.63D-10 NDo=     1
 LinEq1:  Iter=  7 NonCon=     0 RMS=7.23D-12 Max=6.17D-11 NDo=     1
 Linear equations converged to 1.156D-11 1.156D-10 after     7 iterations.
 SCF Done:  E(RB3LYP) =  -212.578560583     a.u. after    7 cycles
            Convg  =    0.3277D-10                    30 Fock formations.
              S**2 =  0.0000                  -V/T =  2.0089
 DoSCS=F DFT=T ScalE2(SS,OS)=  1.000000  1.000000
 Range of M.O.s used for correlation:     1    93
 NBasis=    93 NAE=    20 NBE=    20 NFC=     0 NFV=     0
 NROrb=     93 NOA=    20 NOB=    20 NVA=    73 NVB=    73
 Symmetrizing basis deriv contribution to polar:
 IMax=3 JMax=2 DiffMx= 0.00D+00
 G2DrvN: will do    15 centers at a time, making    1 passes.
 Calling FoFCou, ICntrl=  3107 FMM=F I1Cent=   0 AccDes= 0.00D+00.
 End of G2Drv F.D. properties file   721 does not exist.
 End of G2Drv F.D. properties file   722 does not exist.
 End of G2Drv F.D. properties file   788 does not exist.
          IDoAtm=11111111111111
          Differentiating once with respect to electric field.
                with respect to dipole field.
          Differentiating once with respect to nuclear coordinates.
 Keep R1 ints in memory in canonical form, NReq=11397670.
          There are    45 degrees of freedom in the 1st order CPHF.  IDoFFX=6 NUNeed=     3.
     42 vectors produced by pass  0 Test12= 3.24D-15 2.22D-09 XBig12= 2.81D+01 1.63D+00.
 AX will form    42 AO Fock derivatives at one time.
     42 vectors produced by pass  1 Test12= 3.24D-15 2.22D-09 XBig12= 1.66D+00 3.23D-01.
     42 vectors produced by pass  2 Test12= 3.24D-15 2.22D-09 XBig12= 2.33D-02 2.81D-02.
     42 vectors produced by pass  3 Test12= 3.24D-15 2.22D-09 XBig12= 3.88D-05 9.38D-04.
     42 vectors produced by pass  4 Test12= 3.24D-15 2.22D-09 XBig12= 3.22D-08 3.30D-05.
     18 vectors produced by pass  5 Test12= 3.24D-15 2.22D-09 XBig12= 2.15D-11 7.01D-07.
      3 vectors produced by pass  6 Test12= 3.24D-15 2.22D-09 XBig12= 1.19D-14 1.70D-08.
 InvSVY:  IOpt=1 It=  1 EMax= 8.88D-16
 Solved reduced A of dimension   231 with    45 vectors.
 Isotropic polarizability for W=    0.000000       45.98 Bohr**3.
 End of Minotr F.D. properties file   721 does not exist.
 End of Minotr F.D. properties file   722 does not exist.
 End of Minotr F.D. properties file   788 does not exist.

 **********************************************************************

            Population analysis using the SCF density.

 **********************************************************************

 Orbital symmetries:
       Occupied  (A) (A) (A) (A) (A) (A) (A) (A) (A) (A) (A) (A)
                 (A) (A) (A) (A) (A) (A) (A) (A)
       Virtual   (A) (A) (A) (A) (A) (A) (A) (A) (A) (A) (A) (A)
                 (A) (A) (A) (A) (A) (A) (A) (A) (A) (A) (A) (A)
                 (A) (A) (A) (A) (A) (A) (A) (A) (A) (A) (A) (A)
                 (A) (A) (A) (A) (A) (A) (A) (A) (A) (A) (A) (A)
                 (A) (A) (A) (A) (A) (A) (A) (A) (A) (A) (A) (A)
                 (A) (A) (A) (A) (A) (A) (A) (A) (A) (A) (A) (A)
                 (A)
 The electronic state is 1-A.
 Alpha  occ. eigenvalues --  -14.30770 -10.19664 -10.19657 -10.17127 -10.17103
 Alpha  occ. eigenvalues --   -0.91407  -0.75230  -0.71779  -0.59789  -0.56500
 Alpha  occ. eigenvalues --   -0.50255  -0.46466  -0.42675  -0.42659  -0.36655
 Alpha  occ. eigenvalues --   -0.34846  -0.33670  -0.33658  -0.31511  -0.21787
 Alpha virt. eigenvalues --    0.07111   0.10209   0.13869   0.14446   0.15574
 Alpha virt. eigenvalues --    0.17175   0.18084   0.18734   0.20439   0.21732
 Alpha virt. eigenvalues --    0.24815   0.25612   0.31241   0.33492   0.52914
 Alpha virt. eigenvalues --    0.54820   0.55083   0.58493   0.58906   0.60909
 Alpha virt. eigenvalues --    0.65439   0.66975   0.69218   0.70828   0.78858
 Alpha virt. eigenvalues --    0.79506   0.82228   0.83828   0.85019   0.86050
 Alpha virt. eigenvalues --    0.87409   0.89643   0.93325   0.94322   0.95085
 Alpha virt. eigenvalues --    0.96990   0.97510   0.99936   1.25329   1.25895
 Alpha virt. eigenvalues --    1.34313   1.35600   1.43927   1.63808   1.74541
 Alpha virt. eigenvalues --    1.81255   1.82680   1.86113   1.90491   1.96588
 Alpha virt. eigenvalues --    1.99211   2.01379   2.03336   2.09915   2.10926
 Alpha virt. eigenvalues --    2.11227   2.20617   2.24002   2.27699   2.38868
 Alpha virt. eigenvalues --    2.41703   2.48291   2.55853   2.60927   2.64267
 Alpha virt. eigenvalues --    2.67443   2.69436   2.88694   3.93564   4.19575
 Alpha virt. eigenvalues --    4.25635   4.43819   4.62307
          Condensed to atoms (all electrons):
               1          2          3          4          5          6
     1  C    4.931483   0.354550  -0.046334  -0.085261  -0.071243   0.363704
     2  N    0.354550   6.824760   0.308788   0.355050  -0.098423  -0.098192
     3  H   -0.046334   0.308788   0.495273  -0.046135  -0.001029  -0.000961
     4  C   -0.085261   0.355050  -0.046135   4.931441   0.362493  -0.071363
     5  C   -0.071243  -0.098423  -0.001029   0.362493   5.127036   0.393572
     6  C    0.363704  -0.098192  -0.000961  -0.071363   0.393572   5.125168
     7  H    0.381898  -0.044278   0.007089  -0.000947  -0.003354  -0.055466
     8  H    0.374647  -0.027982  -0.006949   0.006905   0.005525  -0.035104
     9  H    0.006910  -0.028002  -0.007026   0.374659  -0.035043   0.005488
    10  H   -0.000939  -0.044431   0.007085   0.382113  -0.055581  -0.003156
    11  H    0.003165   0.003574   0.001738  -0.035024   0.371874  -0.037625
    12  H    0.004593   0.006245  -0.000009  -0.027997   0.355590  -0.035248
    13  H   -0.035275   0.003434   0.001855   0.003048  -0.037959   0.372164
    14  H   -0.027848   0.006354  -0.000007   0.004714  -0.035120   0.354865
               7          8          9         10         11         12
     1  C    0.381898   0.374647   0.006910  -0.000939   0.003165   0.004593
     2  N   -0.044278  -0.027982  -0.028002  -0.044431   0.003574   0.006245
     3  H    0.007089  -0.006949  -0.007026   0.007085   0.001738  -0.000009
     4  C   -0.000947   0.006905   0.374659   0.382113  -0.035024  -0.027997
     5  C   -0.003354   0.005525  -0.035043  -0.055581   0.371874   0.355590
     6  C   -0.055466  -0.035104   0.005488  -0.003156  -0.037625  -0.035248
     7  H    0.600347  -0.036114  -0.000124   0.005086  -0.000022   0.000645
     8  H   -0.036114   0.586518  -0.000268  -0.000125  -0.000193  -0.000158
     9  H   -0.000124  -0.000268   0.586767  -0.036198  -0.008688   0.003091
    10  H    0.005086  -0.000125  -0.036198   0.600472   0.005597  -0.004382
    11  H   -0.000022  -0.000193  -0.008688   0.005597   0.602454  -0.032837
    12  H    0.000645  -0.000158   0.003091  -0.004382  -0.032837   0.598691
    13  H    0.005610  -0.008607  -0.000189  -0.000025  -0.011679   0.004787
    14  H   -0.004188   0.003019  -0.000157   0.000592   0.004723  -0.006936
              13         14
     1  C   -0.035275  -0.027848
     2  N    0.003434   0.006354
     3  H    0.001855  -0.000007
     4  C    0.003048   0.004714
     5  C   -0.037959  -0.035120
     6  C    0.372164   0.354865
     7  H    0.005610  -0.004188
     8  H   -0.008607   0.003019
     9  H   -0.000189  -0.000157
    10  H   -0.000025   0.000592
    11  H   -0.011679   0.004723
    12  H    0.004787  -0.006936
    13  H    0.602895  -0.032802
    14  H   -0.032802   0.599015
 Mulliken charges:
               1
     1  C   -0.154052
     2  N   -0.521448
     3  H    0.286621
     4  C   -0.153698
     5  C   -0.278338
     6  C   -0.277845
     7  H    0.143817
     8  H    0.138887
     9  H    0.138780
    10  H    0.143891
    11  H    0.132942
    12  H    0.133924
    13  H    0.132743
    14  H    0.133775
 Sum of Mulliken charges =   0.00000
 Mulliken charges with hydrogens summed into heavy atoms:
               1
     1  C    0.128652
     2  N   -0.234827
     4  C    0.128973
     5  C   -0.011471
     6  C   -0.011327
 APT charges:
               1
     1  C    0.332031
     2  N   -0.485652
     3  H    0.098422
     4  C    0.332229
     5  C    0.057437
     6  C    0.058679
     7  H   -0.055679
     8  H   -0.039487
     9  H   -0.039617
    10  H   -0.055969
    11  H   -0.052090
    12  H   -0.048923
    13  H   -0.052493
    14  H   -0.048889
 Sum of APT charges =   0.00000
 APT charges with hydrogens summed into heavy atoms:
               1
     1  C    0.236865
     2  N   -0.387230
     4  C    0.236644
     5  C   -0.043576
     6  C   -0.042703
 Electronic spatial extent (au):  <R**2>=            383.1350
 Charge=              0.0000 electrons
 Dipole moment (field-independent basis, Debye):
    X=             -0.0019    Y=              1.1553    Z=             -0.6640  Tot=              1.3326
 Quadrupole moment (field-independent basis, Debye-Ang):
   XX=            -31.1238   YY=            -36.7234   ZZ=            -29.8597
   XY=              0.0009   XZ=             -0.0040   YZ=              1.3118
 Traceless Quadrupole moment (field-independent basis, Debye-Ang):
   XX=              1.4451   YY=             -4.1544   ZZ=              2.7093
   XY=              0.0009   XZ=             -0.0040   YZ=              1.3118
 Octapole moment (field-independent basis, Debye-Ang**2):
  XXX=             -0.0175  YYY=              5.9833  ZZZ=             -2.4435  XYY=             -0.0115
  XXY=             -2.4059  XXZ=             -0.9354  XZZ=              0.0090  YZZ=             -2.2702
  YYZ=             -1.5291  XYZ=             -0.0180
 Hexadecapole moment (field-independent basis, Debye-Ang**3):
 XXXX=           -225.0065 YYYY=           -235.3779 ZZZZ=            -66.7089 XXXY=              0.0243
 XXXZ=             -0.0327 YYYX=             -0.0256 YYYZ=              4.9540 ZZZX=              0.0159
 ZZZY=              3.0092 XXYY=            -73.7162 XXZZ=            -48.1940 YYZZ=            -43.6591
 XXYZ=              1.7313 YYXZ=             -0.0212 ZZXY=              0.0160
 N-N= 1.916279915915D+02 E-N=-8.758000423188D+02  KE= 2.106953393191D+02
  Exact polarizability:  49.353  -0.003  43.885  -0.003   1.103  44.696
 Approx polarizability:  63.233  -0.002  57.986  -0.009   2.508  64.986
 Calling FoFJK, ICntrl=    100127 FMM=F ISym2X=0 I1Cent= 0 IOpClX= 0 NMat=1 NMatS=1 NMatT=0.
 ***** Axes restored to original set *****
 -------------------------------------------------------------------
 Center     Atomic                   Forces (Hartrees/Bohr)
 Number     Number              X              Y              Z
 -------------------------------------------------------------------
      1        6          -0.005871362    0.000329542    0.004713668
      2        7          -0.019156211    0.006646926   -0.002851803
      3        1          -0.000401667    0.000107435   -0.000836076
      4        6          -0.004990467    0.003431211    0.004548549
      5        6           0.022114047    0.006219633   -0.001573909
      6        6           0.013309961   -0.018444826   -0.001623687
      7        1          -0.002018418    0.001898812   -0.000772300
      8        1          -0.003431938    0.001698524   -0.000806830
      9        1          -0.003765333    0.000777029   -0.000800856
     10        1          -0.002767273   -0.000185222   -0.000781721
     11        1           0.001728947    0.002189729   -0.001212900
     12        1           0.003323866    0.000998848    0.001626193
     13        1          -0.000102828   -0.002795485   -0.001211542
     14        1           0.002028676   -0.002872156    0.001583213
 -------------------------------------------------------------------
 Cartesian Forces:  Max     0.022114047 RMS     0.006324434
 FormGI is forming the generalized inverse of G from B-inverse, IUseBI=4.

 GradGradGradGradGradGradGradGradGradGradGradGradGradGradGradGradGradGrad
 Berny optimization.
 Internal  Forces:  Max     0.021447863 RMS     0.004856832
 Search for a local minimum.
 Step number   1 out of a maximum of   90
 All quantities printed in internal units (Hartrees-Bohrs-Radians)
 Mixed Optimization -- RFO/linear search
 Second derivative matrix not updated -- analytic derivatives used.
 ITU=  0
     Eigenvalues ---    0.00012   0.00477   0.01777   0.01918   0.03883
     Eigenvalues ---    0.04118   0.04508   0.04756   0.04862   0.05438
     Eigenvalues ---    0.05930   0.06410   0.06591   0.06606   0.07831
     Eigenvalues ---    0.07848   0.09443   0.09520   0.10023   0.10305
     Eigenvalues ---    0.23307   0.24591   0.27044   0.27146   0.31275
     Eigenvalues ---    0.32290   0.32899   0.32931   0.33463   0.33535
     Eigenvalues ---    0.33784   0.34024   0.34584   0.34619   0.35886
     Eigenvalues ---    0.42650
 RFO step:  Lambda=-6.40236722D-03 EMin= 1.24580695D-04
 Linear search not attempted -- first point.
 Iteration  1 RMS(Cart)=  0.02911167 RMS(Int)=  0.00040160
 Iteration  2 RMS(Cart)=  0.00038817 RMS(Int)=  0.00026384
 Iteration  3 RMS(Cart)=  0.00000009 RMS(Int)=  0.00026384
 Variable       Old X    -DE/DX   Delta X   Delta X   Delta X     New X
                                 (Linear)    (Quad)   (Total)
    R1        2.76987   0.00431   0.00000   0.01008   0.00994   2.77980
    R2        2.86977   0.02118   0.00000   0.05850   0.05854   2.92831
    R3        2.07168   0.00095   0.00000   0.00319   0.00319   2.07487
    R4        2.06768   0.00021   0.00000   0.00052   0.00052   2.06821
    R5        1.92945  -0.00082   0.00000   0.00013   0.00013   1.92958
    R6        2.76986   0.00436   0.00000   0.01041   0.01027   2.78013
    R7        2.87045   0.02145   0.00000   0.05930   0.05935   2.92980
    R8        2.06773   0.00018   0.00000   0.00045   0.00045   2.06817
    R9        2.07160   0.00095   0.00000   0.00315   0.00315   2.07475
   R10        2.87747   0.01869   0.00000   0.05683   0.05700   2.93448
   R11        2.07144   0.00008   0.00000  -0.00042  -0.00042   2.07102
   R12        2.06869   0.00136   0.00000   0.00100   0.00100   2.06970
   R13        2.07163   0.00007   0.00000  -0.00042  -0.00042   2.07121
   R14        2.06846   0.00145   0.00000   0.00124   0.00124   2.06970
    A1        1.82620   0.01036   0.00000   0.03957   0.03921   1.86541
    A2        1.91417  -0.00473   0.00000  -0.02955  -0.02953   1.88464
    A3        1.94964  -0.00512   0.00000  -0.01892  -0.01989   1.92975
    A4        1.93259  -0.00235   0.00000  -0.00964  -0.00919   1.92339
    A5        1.95825   0.00085   0.00000   0.02403   0.02417   1.98241
    A6        1.88315   0.00084   0.00000  -0.00627  -0.00672   1.87644
    A7        1.89097   0.00097   0.00000  -0.00508  -0.00512   1.88585
    A8        1.81747  -0.00613   0.00000  -0.01247  -0.01295   1.80452
    A9        1.89107   0.00104   0.00000  -0.00482  -0.00486   1.88621
   A10        1.82831   0.01028   0.00000   0.03909   0.03872   1.86703
   A11        1.94937  -0.00511   0.00000  -0.01908  -0.02004   1.92933
   A12        1.91372  -0.00471   0.00000  -0.02920  -0.02917   1.88455
   A13        1.95802   0.00089   0.00000   0.02396   0.02410   1.98212
   A14        1.93193  -0.00232   0.00000  -0.00940  -0.00896   1.92297
   A15        1.88267   0.00082   0.00000  -0.00619  -0.00664   1.87604
   A16        1.83414  -0.00606   0.00000  -0.01686  -0.01673   1.81741
   A17        1.93427   0.00076   0.00000  -0.00227  -0.00222   1.93205
   A18        1.94583   0.00292   0.00000   0.00852   0.00857   1.95440
   A19        1.91633   0.00316   0.00000   0.01439   0.01436   1.93069
   A20        1.95069   0.00206   0.00000   0.01224   0.01218   1.96287
   A21        1.88305  -0.00271   0.00000  -0.01527  -0.01532   1.86773
   A22        1.83324  -0.00597   0.00000  -0.01652  -0.01640   1.81684
   A23        1.93299   0.00058   0.00000  -0.00299  -0.00293   1.93006
   A24        1.94748   0.00301   0.00000   0.00881   0.00884   1.95632
   A25        1.91557   0.00321   0.00000   0.01440   0.01436   1.92993
   A26        1.95183   0.00199   0.00000   0.01218   0.01212   1.96395
   A27        1.88314  -0.00267   0.00000  -0.01513  -0.01518   1.86797
    D1       -1.32034  -0.00131   0.00000  -0.02342  -0.02343  -1.34377
    D2        0.69000  -0.00268   0.00000  -0.03717  -0.03725   0.65275
    D3        2.88929  -0.00194   0.00000  -0.01934  -0.01894   2.87035
    D4       -1.38356  -0.00330   0.00000  -0.03309  -0.03276  -1.41632
    D5        0.80228   0.00339   0.00000   0.02007   0.01964   0.82193
    D6        2.81262   0.00203   0.00000   0.00633   0.00582   2.81844
    D7       -0.42468   0.00042   0.00000   0.01878   0.01894  -0.40573
    D8        1.64226   0.00107   0.00000   0.02479   0.02506   1.66732
    D9       -2.54274   0.00009   0.00000   0.00950   0.00974  -2.53301
   D10        1.63638  -0.00044   0.00000   0.00161   0.00154   1.63792
   D11       -2.57987   0.00021   0.00000   0.00763   0.00765  -2.57222
   D12       -0.48169  -0.00077   0.00000  -0.00767  -0.00767  -0.48936
   D13       -2.54162  -0.00042   0.00000   0.00326   0.00291  -2.53872
   D14       -0.47468   0.00023   0.00000   0.00927   0.00902  -0.46567
   D15        1.62349  -0.00075   0.00000  -0.00602  -0.00630   1.61719
   D16       -0.68277   0.00273   0.00000   0.03702   0.03710  -0.64567
   D17       -2.80629  -0.00199   0.00000  -0.00602  -0.00552  -2.81180
   D18        1.39097   0.00334   0.00000   0.03308   0.03276   1.42373
   D19        1.32750   0.00131   0.00000   0.02309   0.02309   1.35059
   D20       -0.79601  -0.00340   0.00000  -0.01996  -0.01953  -0.81554
   D21       -2.88194   0.00193   0.00000   0.01915   0.01875  -2.86320
   D22        0.40590  -0.00045   0.00000  -0.01805  -0.01820   0.38770
   D23       -1.66311  -0.00108   0.00000  -0.02420  -0.02445  -1.68756
   D24        2.52225  -0.00012   0.00000  -0.00904  -0.00926   2.51299
   D25        2.52373   0.00040   0.00000  -0.00296  -0.00262   2.52112
   D26        0.45472  -0.00024   0.00000  -0.00911  -0.00886   0.44586
   D27       -1.64311   0.00073   0.00000   0.00605   0.00632  -1.63678
   D28       -1.65549   0.00043   0.00000  -0.00112  -0.00105  -1.65654
   D29        2.55868  -0.00020   0.00000  -0.00727  -0.00730   2.55139
   D30        0.46085   0.00076   0.00000   0.00788   0.00789   0.46874
   D31        0.01141  -0.00011   0.00000  -0.00085  -0.00084   0.01056
   D32       -2.06724   0.00094   0.00000   0.00462   0.00466  -2.06258
   D33        2.12662   0.00087   0.00000   0.00618   0.00616   2.13278
   D34        2.09245  -0.00101   0.00000  -0.00567  -0.00570   2.08675
   D35        0.01381   0.00003   0.00000  -0.00020  -0.00020   0.01361
   D36       -2.07552  -0.00003   0.00000   0.00136   0.00129  -2.07422
   D37       -2.10175  -0.00098   0.00000  -0.00738  -0.00735  -2.10910
   D38        2.10279   0.00006   0.00000  -0.00191  -0.00184   2.10095
   D39        0.01347   0.00000   0.00000  -0.00035  -0.00035   0.01312
         Item               Value     Threshold  Converged?
 Maximum Force            0.021448     0.000450     NO 
 RMS     Force            0.004857     0.000300     NO 
 Maximum Displacement     0.095920     0.001800     NO 
 RMS     Displacement     0.029022     0.001200     NO 
 Predicted change in Energy=-3.296501D-03
 GradGradGradGradGradGradGradGradGradGradGradGradGradGradGradGradGradGrad

                          Input orientation:                          
 ---------------------------------------------------------------------
 Center     Atomic      Atomic             Coordinates (Angstroms)
 Number     Number       Type             X           Y           Z
 ---------------------------------------------------------------------
      1          6           0       -0.769486   -0.949667   -0.191533
      2          7           0       -1.164751    0.403117    0.229899
      3          1           0       -1.224959    0.412049    1.249171
      4          6           0       -0.016355    1.232728   -0.166721
      5          6           0        1.259752    0.388669    0.083872
      6          6           0        0.751105   -1.078507    0.077640
      7          1           0       -0.973544   -1.043047   -1.266331
      8          1           0       -1.371035   -1.704316    0.324665
      9          1           0       -0.024893    2.184140    0.374130
     10          1           0       -0.115973    1.460241   -1.236171
     11          1           0        1.705270    0.638599    1.053475
     12          1           0        2.026491    0.569022   -0.677134
     13          1           0        0.931651   -1.552939    1.049039
     14          1           0        1.252427   -1.693187   -0.677600
 ---------------------------------------------------------------------
                    Distance matrix (angstroms):
                    1          2          3          4          5
     1  C    0.000000
     2  N    1.471008   0.000000
     3  H    2.034048   1.021088   0.000000
     4  C    2.308824   1.471182   2.034450   0.000000
     5  C    2.446385   2.428940   2.744496   1.550381   0.000000
     6  C    1.549597   2.426705   2.738443   2.447553   1.552857
     7  H    1.097976   2.089654   2.916893   2.702684   2.976654
     8  H    1.094448   2.119624   2.314098   3.271520   3.370402
     9  H    3.270343   2.119463   2.312177   1.094431   2.226720
    10  H    2.706659   2.089691   2.916416   1.097911   2.187098
    11  H    3.193282   2.995121   2.945482   2.192227   1.095938
    12  H    3.218650   3.321785   3.782488   2.207770   1.095237
    13  H    2.190165   2.981954   2.924414   3.183823   2.192953
    14  H    2.208442   3.325777   3.779141   3.229827   2.216759
                    6          7          8          9         10
     6  C    0.000000
     7  H    2.186762   0.000000
     8  H    2.226239   1.768204   0.000000
     9  H    3.366741   3.742431   4.115172   0.000000
    10  H    2.987166   2.646278   3.745105   1.767878   0.000000
    11  H    2.193430   3.922432   3.934980   2.417369   3.038832
    12  H    2.215996   3.456317   4.208901   2.814594   2.386828
    13  H    1.096038   3.041496   2.418677   3.916152   3.924150
    14  H    1.095236   2.392537   2.808418   4.215608   3.482618
                   11         12         13         14
    11  H    0.000000
    12  H    1.761541   0.000000
    13  H    2.324079   2.946364   0.000000
    14  H    2.939202   2.390975   1.761774   0.000000
 Stoichiometry    C4H9N
 Framework group  C1[X(C4H9N)]
 Deg. of freedom    36
 Full point group                 C1      NOp   1
 Largest Abelian subgroup         C1      NOp   1
 Largest concise Abelian subgroup C1      NOp   1
                         Standard orientation:                         
 ---------------------------------------------------------------------
 Center     Atomic      Atomic             Coordinates (Angstroms)
 Number     Number       Type             X           Y           Z
 ---------------------------------------------------------------------
      1          6           0       -1.154138   -0.451232    0.199840
      2          7           0       -0.001722   -1.269637   -0.207607
      3          1           0       -0.004455   -1.334882   -1.226605
      4          6           0        1.154679   -0.453836    0.194364
      5          6           0        0.776843    1.026859   -0.067293
      6          6           0       -0.775999    1.026349   -0.074054
      7          1           0       -1.318146   -0.607770    1.274153
      8          1           0       -2.059746   -0.775467   -0.322235
      9          1           0        2.055399   -0.776109   -0.337258
     10          1           0        1.328105   -0.616718    1.266186
     11          1           0        1.166915    1.360895   -1.035458
     12          1           0        1.191811    1.696414    0.693656
     13          1           0       -1.157075    1.347023   -1.050398
     14          1           0       -1.199068    1.705225    0.674065
 ---------------------------------------------------------------------
 Rotational constants (GHZ):           6.8391332           6.6676374           3.8835560
 Standard basis: 6-31G(d) (6D, 7F)
 There are    93 symmetry adapted cartesian basis functions of A   symmetry.
 There are    93 symmetry adapted basis functions of A   symmetry.
    93 basis functions,   176 primitive gaussians,    93 cartesian basis functions
    20 alpha electrons       20 beta electrons
       nuclear repulsion energy       189.5241288031 Hartrees.
 NAtoms=   14 NActive=   14 NUniq=   14 SFac= 1.00D+00 NAtFMM=   60 NAOKFM=F Big=F
 Integral buffers will be    131072 words long.
 Raffenetti 2 integral format.
 Two-electron integral symmetry is turned on.
 One-electron integrals computed using PRISM.
 NBasis=    93 RedAO= T EigKep=  3.25D-03  NBF=    93
 NBsUse=    93 1.00D-06 EigRej= -1.00D+00 NBFU=    93
 Initial guess from the checkpoint file:  "base_5_conf11.chk"
 B after Tr=     0.000000   -0.000000   -0.000000
         Rot=    1.000000    0.000298   -0.000085    0.000175 Ang=   0.04 deg.
 ExpMin= 1.61D-01 ExpMax= 4.17D+03 ExpMxC= 6.27D+02 IAcc=2 IRadAn=         4 AccDes= 0.00D+00
 Harris functional with IExCor=  402 and IRadAn=       4 diagonalized for initial guess.
 HarFok:  IExCor=  402 AccDes= 0.00D+00 IRadAn=         4 IDoV= 1 UseB2=F ITyADJ=14
 ICtDFT=  3500011 ScaDFX=  1.000000  1.000000  1.000000  1.000000
 FoFCou: FMM=F IPFlag=           0 FMFlag=      100000 FMFlg1=           0
         NFxFlg=           0 DoJE=T BraDBF=F KetDBF=T FulRan=T
         wScrn=  0.000000 ICntrl=       500 IOpCl=  0 I1Cent=   200000004 NGrid=           0
         NMat0=    1 NMatS0=      1 NMatT0=    0 NMatD0=    1 NMtDS0=    0 NMtDT0=    0
 Petite list used in FoFCou.
 Keep R1 ints in memory in canonical form, NReq=11390859.
 Gradient too large for Newton-Raphson -- use scaled steepest descent instead.
     Accept linear search using points  3 and  4.
 Gradient too large for Newton-Raphson -- use scaled steepest descent instead.
     Accept linear search using points  2 and  3.
 Gradient too large for Newton-Raphson -- use scaled steepest descent instead.
     Accept linear search using points  1 and  2.
 LinEq1:  Iter=  0 NonCon=     1 RMS=2.11D-04 Max=3.75D-03 NDo=     1
 AX will form     1 AO Fock derivatives at one time.
 LinEq1:  Iter=  1 NonCon=     1 RMS=3.59D-05 Max=3.88D-04 NDo=     1
 LinEq1:  Iter=  2 NonCon=     1 RMS=1.15D-05 Max=8.88D-05 NDo=     1
 LinEq1:  Iter=  3 NonCon=     1 RMS=3.81D-06 Max=3.90D-05 NDo=     1
 LinEq1:  Iter=  4 NonCon=     1 RMS=2.35D-06 Max=2.56D-05 NDo=     1
 LinEq1:  Iter=  5 NonCon=     1 RMS=6.63D-07 Max=6.12D-06 NDo=     1
 LinEq1:  Iter=  6 NonCon=     1 RMS=2.02D-07 Max=1.48D-06 NDo=     1
 LinEq1:  Iter=  7 NonCon=     1 RMS=5.21D-08 Max=4.92D-07 NDo=     1
 LinEq1:  Iter=  8 NonCon=     1 RMS=1.99D-08 Max=2.56D-07 NDo=     1
 LinEq1:  Iter=  9 NonCon=     1 RMS=7.42D-09 Max=6.13D-08 NDo=     1
 LinEq1:  Iter= 10 NonCon=     0 RMS=1.16D-09 Max=1.10D-08 NDo=     1
 Linear equations converged to 5.404D-09 5.404D-08 after    10 iterations.
     Minimum is close to point  2 DX=  1.03D-04 DF= -8.53D-13 DXR=  1.03D-04 DFR=  1.00D-08 which will be used.
 LinEq1:  Iter=  0 NonCon=     1 RMS=6.28D-07 Max=6.66D-06 NDo=     1
 LinEq1:  Iter=  1 NonCon=     1 RMS=2.29D-07 Max=2.66D-06 NDo=     1
 LinEq1:  Iter=  2 NonCon=     1 RMS=6.02D-08 Max=5.15D-07 NDo=     1
 LinEq1:  Iter=  3 NonCon=     1 RMS=2.75D-08 Max=2.70D-07 NDo=     1
 LinEq1:  Iter=  4 NonCon=     1 RMS=9.89D-09 Max=7.83D-08 NDo=     1
 LinEq1:  Iter=  5 NonCon=     1 RMS=3.25D-09 Max=2.77D-08 NDo=     1
 LinEq1:  Iter=  6 NonCon=     1 RMS=7.92D-10 Max=7.47D-09 NDo=     1
 LinEq1:  Iter=  7 NonCon=     0 RMS=2.20D-10 Max=1.51D-09 NDo=     1
 Linear equations converged to 2.609D-10 2.609D-09 after     7 iterations.
 SCF Done:  E(RB3LYP) =  -212.581976201     a.u. after    6 cycles
            Convg  =    0.8069D-09                    30 Fock formations.
              S**2 =  0.0000                  -V/T =  2.0098
 DoSCS=F DFT=T ScalE2(SS,OS)=  1.000000  1.000000
 Range of M.O.s used for correlation:     1    93
 NBasis=    93 NAE=    20 NBE=    20 NFC=     0 NFV=     0
 NROrb=     93 NOA=    20 NOB=    20 NVA=    73 NVB=    73
 Symmetrizing basis deriv contribution to polar:
 IMax=3 JMax=2 DiffMx= 0.00D+00
 G2DrvN: will do    15 centers at a time, making    1 passes.
 Calling FoFCou, ICntrl=  3107 FMM=F I1Cent=   0 AccDes= 0.00D+00.
 End of G2Drv F.D. properties file   721 does not exist.
 End of G2Drv F.D. properties file   722 does not exist.
 End of G2Drv F.D. properties file   788 does not exist.
          IDoAtm=11111111111111
          Differentiating once with respect to electric field.
                with respect to dipole field.
          Differentiating once with respect to nuclear coordinates.
 Keep R1 ints in memory in canonical form, NReq=11397670.
          There are    45 degrees of freedom in the 1st order CPHF.  IDoFFX=6 NUNeed=     3.
     42 vectors produced by pass  0 Test12= 3.24D-15 2.22D-09 XBig12= 2.81D+01 1.88D+00.
 AX will form    42 AO Fock derivatives at one time.
     42 vectors produced by pass  1 Test12= 3.24D-15 2.22D-09 XBig12= 1.77D+00 3.44D-01.
     42 vectors produced by pass  2 Test12= 3.24D-15 2.22D-09 XBig12= 2.52D-02 3.07D-02.
     42 vectors produced by pass  3 Test12= 3.24D-15 2.22D-09 XBig12= 4.15D-05 1.04D-03.
     42 vectors produced by pass  4 Test12= 3.24D-15 2.22D-09 XBig12= 3.04D-08 3.20D-05.
     19 vectors produced by pass  5 Test12= 3.24D-15 2.22D-09 XBig12= 1.96D-11 6.70D-07.
      3 vectors produced by pass  6 Test12= 3.24D-15 2.22D-09 XBig12= 1.06D-14 1.50D-08.
 InvSVY:  IOpt=1 It=  1 EMax= 1.78D-15
 Solved reduced A of dimension   232 with    45 vectors.
 Isotropic polarizability for W=    0.000000       46.65 Bohr**3.
 End of Minotr F.D. properties file   721 does not exist.
 End of Minotr F.D. properties file   722 does not exist.
 End of Minotr F.D. properties file   788 does not exist.
 Calling FoFJK, ICntrl=    100127 FMM=F ISym2X=0 I1Cent= 0 IOpClX= 0 NMat=1 NMatS=1 NMatT=0.
 ***** Axes restored to original set *****
 -------------------------------------------------------------------
 Center     Atomic                   Forces (Hartrees/Bohr)
 Number     Number              X              Y              Z
 -------------------------------------------------------------------
      1        6          -0.001095456   -0.000078015    0.000827974
      2        7          -0.001265496    0.000453249   -0.000753113
      3        1          -0.000160305    0.000054344   -0.000017614
      4        6          -0.000847903    0.000745600    0.000812495
      5        6           0.002084022    0.000379096   -0.000170434
      6        6           0.001370712   -0.001578520   -0.000179759
      7        1          -0.000108965   -0.000069346    0.000000063
      8        1          -0.000185334   -0.000055629   -0.000217906
      9        1          -0.000112391    0.000161892   -0.000212239
     10        1          -0.000048231    0.000119299    0.000002906
     11        1           0.000123976    0.000236710   -0.000102824
     12        1           0.000200605    0.000096018    0.000063016
     13        1          -0.000050423   -0.000268751   -0.000108707
     14        1           0.000095190   -0.000195947    0.000056143
 -------------------------------------------------------------------
 Cartesian Forces:  Max     0.002084022 RMS     0.000609902
 FormGI is forming the generalized inverse of G from B-inverse, IUseBI=4.

 GradGradGradGradGradGradGradGradGradGradGradGradGradGradGradGradGradGrad
 Berny optimization.
 Using GEDIIS/GDIIS optimizer.
 Internal  Forces:  Max     0.001979343 RMS     0.000418714
 Search for a local minimum.
 Step number   2 out of a maximum of   90
 All quantities printed in internal units (Hartrees-Bohrs-Radians)
 Mixed Optimization -- En-DIIS/RFO-DIIS
 Second derivative matrix not updated -- analytic derivatives used.
 DE= -3.42D-03 DEPred=-3.30D-03 R= 1.04D+00
 TightC=F SS=  1.41D+00  RLast= 1.73D-01 DXNew= 5.0454D-01 5.1771D-01
 Trust test= 1.04D+00 RLast= 1.73D-01 DXMaxT set to 5.05D-01
 ITU=  1  0
 Use linear search instead of GDIIS.
     Eigenvalues ---    0.00016   0.00462   0.01767   0.01830   0.03726
     Eigenvalues ---    0.04100   0.04469   0.04593   0.04661   0.05300
     Eigenvalues ---    0.05930   0.06042   0.06225   0.06317   0.07870
     Eigenvalues ---    0.07976   0.09210   0.09279   0.10034   0.10153
     Eigenvalues ---    0.21939   0.22134   0.24384   0.24781   0.29360
     Eigenvalues ---    0.30275   0.32001   0.32998   0.33248   0.33359
     Eigenvalues ---    0.33499   0.33991   0.34245   0.34438   0.35097
     Eigenvalues ---    0.42611
 RFO step:  Lambda=-3.46931170D-05 EMin= 1.55110408D-04
 Quintic linear search produced a step of  0.09940.
 Iteration  1 RMS(Cart)=  0.00935839 RMS(Int)=  0.00006379
 Iteration  2 RMS(Cart)=  0.00006040 RMS(Int)=  0.00003446
 Iteration  3 RMS(Cart)=  0.00000000 RMS(Int)=  0.00003446
 Variable       Old X    -DE/DX   Delta X   Delta X   Delta X     New X
                                 (Linear)    (Quad)   (Total)
    R1        2.77980   0.00062   0.00099  -0.00019   0.00077   2.78057
    R2        2.92831   0.00194   0.00582   0.00164   0.00746   2.93577
    R3        2.07487   0.00003   0.00032  -0.00005   0.00026   2.07514
    R4        2.06821   0.00004   0.00005   0.00000   0.00006   2.06826
    R5        1.92958  -0.00001   0.00001  -0.00030  -0.00029   1.92929
    R6        2.78013   0.00061   0.00102  -0.00039   0.00061   2.78074
    R7        2.92980   0.00198   0.00590   0.00075   0.00666   2.93646
    R8        2.06817   0.00004   0.00004   0.00003   0.00007   2.06825
    R9        2.07475   0.00003   0.00031   0.00002   0.00033   2.07508
   R10        2.93448   0.00172   0.00567  -0.00097   0.00473   2.93920
   R11        2.07102   0.00001  -0.00004   0.00001  -0.00003   2.07099
   R12        2.06970   0.00011   0.00010  -0.00006   0.00004   2.06974
   R13        2.07121   0.00001  -0.00004  -0.00011  -0.00015   2.07106
   R14        2.06970   0.00012   0.00012  -0.00007   0.00005   2.06975
    A1        1.86541   0.00062   0.00390   0.00152   0.00531   1.87072
    A2        1.88464  -0.00027  -0.00294   0.00260  -0.00031   1.88433
    A3        1.92975  -0.00017  -0.00198   0.00139  -0.00067   1.92907
    A4        1.92339  -0.00027  -0.00091  -0.00170  -0.00256   1.92083
    A5        1.98241   0.00010   0.00240  -0.00125   0.00118   1.98360
    A6        1.87644  -0.00004  -0.00067  -0.00232  -0.00304   1.87339
    A7        1.88585  -0.00001  -0.00051   0.00152   0.00101   1.88686
    A8        1.80452  -0.00019  -0.00129   0.00597   0.00456   1.80908
    A9        1.88621  -0.00001  -0.00048   0.00128   0.00079   1.88700
   A10        1.86703   0.00060   0.00385   0.00051   0.00428   1.87132
   A11        1.92933  -0.00017  -0.00199   0.00165  -0.00044   1.92889
   A12        1.88455  -0.00027  -0.00290   0.00265  -0.00023   1.88432
   A13        1.98212   0.00011   0.00240  -0.00109   0.00133   1.98345
   A14        1.92297  -0.00026  -0.00089  -0.00143  -0.00227   1.92070
   A15        1.87604  -0.00004  -0.00066  -0.00205  -0.00277   1.87327
   A16        1.81741  -0.00036  -0.00166   0.00167  -0.00001   1.81740
   A17        1.93205   0.00002  -0.00022  -0.00029  -0.00051   1.93154
   A18        1.95440   0.00015   0.00085  -0.00171  -0.00084   1.95355
   A19        1.93069   0.00021   0.00143   0.00043   0.00187   1.93256
   A20        1.96287   0.00018   0.00121  -0.00053   0.00067   1.96354
   A21        1.86773  -0.00018  -0.00152   0.00043  -0.00110   1.86663
   A22        1.81684  -0.00035  -0.00163   0.00197   0.00031   1.81714
   A23        1.93006   0.00000  -0.00029   0.00103   0.00076   1.93082
   A24        1.95632   0.00015   0.00088  -0.00294  -0.00205   1.95427
   A25        1.92993   0.00021   0.00143   0.00090   0.00233   1.93227
   A26        1.96395   0.00017   0.00120  -0.00118   0.00003   1.96398
   A27        1.86797  -0.00017  -0.00151   0.00028  -0.00124   1.86672
    D1       -1.34377  -0.00025  -0.00233  -0.02072  -0.02305  -1.36682
    D2        0.65275  -0.00035  -0.00370  -0.01588  -0.01961   0.63315
    D3        2.87035  -0.00012  -0.00188  -0.02089  -0.02272   2.84763
    D4       -1.41632  -0.00023  -0.00326  -0.01605  -0.01928  -1.43559
    D5        0.82193   0.00018   0.00195  -0.02040  -0.01850   0.80343
    D6        2.81844   0.00008   0.00058  -0.01556  -0.01505   2.80339
    D7       -0.40573   0.00019   0.00188   0.01425   0.01616  -0.38957
    D8        1.66732   0.00023   0.00249   0.01694   0.01946   1.68678
    D9       -2.53301   0.00012   0.00097   0.01605   0.01705  -2.51596
   D10        1.63792   0.00007   0.00015   0.01731   0.01744   1.65536
   D11       -2.57222   0.00012   0.00076   0.01999   0.02074  -2.55147
   D12       -0.48936   0.00000  -0.00076   0.01910   0.01833  -0.47102
   D13       -2.53872  -0.00010   0.00029   0.01222   0.01248  -2.52624
   D14       -0.46567  -0.00006   0.00090   0.01491   0.01578  -0.44989
   D15        1.61719  -0.00017  -0.00063   0.01402   0.01337   1.63056
   D16       -0.64567   0.00036   0.00369   0.01178   0.01549  -0.63018
   D17       -2.81180  -0.00007  -0.00055   0.01176   0.01128  -2.80052
   D18        1.42373   0.00023   0.00326   0.01176   0.01499   1.43872
   D19        1.35059   0.00025   0.00229   0.01679   0.01909   1.36968
   D20       -0.81554  -0.00018  -0.00194   0.01678   0.01488  -0.80066
   D21       -2.86320   0.00012   0.00186   0.01678   0.01859  -2.84460
   D22        0.38770  -0.00018  -0.00181  -0.00380  -0.00562   0.38208
   D23       -1.68756  -0.00023  -0.00243  -0.00511  -0.00757  -1.69512
   D24        2.51299  -0.00011  -0.00092  -0.00433  -0.00528   2.50771
   D25        2.52112   0.00010  -0.00026  -0.00205  -0.00228   2.51884
   D26        0.44586   0.00006  -0.00088  -0.00337  -0.00422   0.44164
   D27       -1.63678   0.00017   0.00063  -0.00258  -0.00193  -1.63871
   D28       -1.65654  -0.00007  -0.00010  -0.00649  -0.00658  -1.66312
   D29        2.55139  -0.00011  -0.00073  -0.00780  -0.00852   2.54287
   D30        0.46874  -0.00000   0.00078  -0.00702  -0.00623   0.46252
   D31        0.01056  -0.00001  -0.00008  -0.00611  -0.00619   0.00437
   D32       -2.06258   0.00008   0.00046  -0.00889  -0.00841  -2.07099
   D33        2.13278   0.00004   0.00061  -0.00907  -0.00847   2.12431
   D34        2.08675  -0.00009  -0.00057  -0.00530  -0.00586   2.08089
   D35        0.01361   0.00000  -0.00002  -0.00807  -0.00809   0.00552
   D36       -2.07422  -0.00004   0.00013  -0.00826  -0.00814  -2.08236
   D37       -2.10910  -0.00006  -0.00073  -0.00481  -0.00553  -2.11463
   D38        2.10095   0.00004  -0.00018  -0.00758  -0.00775   2.09319
   D39        0.01312  -0.00000  -0.00003  -0.00777  -0.00781   0.00531
         Item               Value     Threshold  Converged?
 Maximum Force            0.001979     0.000450     NO 
 RMS     Force            0.000419     0.000300     NO 
 Maximum Displacement     0.039042     0.001800     NO 
 RMS     Displacement     0.009355     0.001200     NO 
 Predicted change in Energy=-4.071048D-05
 GradGradGradGradGradGradGradGradGradGradGradGradGradGradGradGradGradGrad

                          Input orientation:                          
 ---------------------------------------------------------------------
 Center     Atomic      Atomic             Coordinates (Angstroms)
 Number     Number       Type             X           Y           Z
 ---------------------------------------------------------------------
      1          6           0       -0.770823   -0.951896   -0.186669
      2          7           0       -1.168249    0.405229    0.219940
      3          1           0       -1.245619    0.421672    1.237806
      4          6           0       -0.015300    1.234705   -0.164781
      5          6           0        1.263886    0.388676    0.085298
      6          6           0        0.755082   -1.081068    0.074921
      7          1           0       -0.979348   -1.058733   -1.259498
      8          1           0       -1.371318   -1.701210    0.338511
      9          1           0       -0.027041    2.184066    0.379681
     10          1           0       -0.108467    1.469341   -1.233453
     11          1           0        1.709186    0.638135    1.055101
     12          1           0        2.030759    0.572168   -0.674854
     13          1           0        0.941698   -1.562658    1.041551
     14          1           0        1.251253   -1.691526   -0.687152
 ---------------------------------------------------------------------
                    Distance matrix (angstroms):
                    1          2          3          4          5
     1  C    0.000000
     2  N    1.471417   0.000000
     3  H    2.035006   1.020935   0.000000
     4  C    2.313551   1.471506   2.035180   0.000000
     5  C    2.451763   2.435915   2.761698   1.553905   0.000000
     6  C    1.553544   2.435018   2.759227   2.452295   1.555358
     7  H    1.098116   2.089882   2.915309   2.718023   2.989242
     8  H    1.094477   2.119525   2.308931   3.272871   3.372839
     9  H    3.272342   2.119466   2.308104   1.094470   2.230825
    10  H    2.719717   2.089933   2.915106   1.098087   2.188674
    11  H    3.196973   3.005224   2.968351   2.194963   1.095920
    12  H    3.226447   3.325985   3.796784   2.210315   1.095260
    13  H    2.194147   2.999917   2.959803   3.193168   2.196800
    14  H    2.210504   3.327640   3.795449   3.231077   2.219027
                    6          7          8          9         10
     6  C    0.000000
     7  H    2.188474   0.000000
     8  H    2.230612   1.766367   0.000000
     9  H    3.371305   3.756267   4.111466   0.000000
    10  H    2.993684   2.673999   3.757427   1.766257   0.000000
    11  H    2.196982   3.932550   3.933896   2.420863   3.038461
    12  H    2.218717   3.473096   4.215363   2.818652   2.386052
    13  H    1.095960   3.039602   2.421467   3.926127   3.933384
    14  H    1.095262   2.388219   2.816018   4.218102   3.484016
                   11         12         13         14
    11  H    0.000000
    12  H    1.760826   0.000000
    13  H    2.330818   2.947810   0.000000
    14  H    2.944906   2.394178   1.760921   0.000000
 Stoichiometry    C4H9N
 Framework group  C1[X(C4H9N)]
 Deg. of freedom    36
 Full point group                 C1      NOp   1
 Largest Abelian subgroup         C1      NOp   1
 Largest concise Abelian subgroup C1      NOp   1
                         Standard orientation:                         
 ---------------------------------------------------------------------
 Center     Atomic      Atomic             Coordinates (Angstroms)
 Number     Number       Type             X           Y           Z
 ---------------------------------------------------------------------
      1          6           0       -1.156424   -0.453242    0.193754
      2          7           0       -0.000058   -1.273909   -0.199173
      3          1           0       -0.001141   -1.357224   -1.216701
      4          6           0        1.157126   -0.453161    0.191504
      5          6           0        0.777318    1.030952   -0.068836
      6          6           0       -0.778037    1.029958   -0.071657
      7          1           0       -1.334597   -0.610376    1.265865
      8          1           0       -2.056259   -0.778655   -0.337549
      9          1           0        2.055202   -0.776801   -0.343827
     10          1           0        1.339399   -0.612771    1.262530
     11          1           0        1.166730    1.365804   -1.036965
     12          1           0        1.194699    1.699478    0.691730
     13          1           0       -1.164070    1.359008   -1.043167
     14          1           0       -1.199464    1.701854    0.683694
 ---------------------------------------------------------------------
 Rotational constants (GHZ):           6.8273782           6.6384136           3.8619399
 Standard basis: 6-31G(d) (6D, 7F)
 There are    93 symmetry adapted cartesian basis functions of A   symmetry.
 There are    93 symmetry adapted basis functions of A   symmetry.
    93 basis functions,   176 primitive gaussians,    93 cartesian basis functions
    20 alpha electrons       20 beta electrons
       nuclear repulsion energy       189.2379700590 Hartrees.
 NAtoms=   14 NActive=   14 NUniq=   14 SFac= 1.00D+00 NAtFMM=   60 NAOKFM=F Big=F
 Integral buffers will be    131072 words long.
 Raffenetti 2 integral format.
 Two-electron integral symmetry is turned on.
 One-electron integrals computed using PRISM.
 NBasis=    93 RedAO= T EigKep=  3.31D-03  NBF=    93
 NBsUse=    93 1.00D-06 EigRej= -1.00D+00 NBFU=    93
 Initial guess from the checkpoint file:  "base_5_conf11.chk"
 B after Tr=     0.000000   -0.000000   -0.000000
         Rot=    1.000000    0.000282    0.000081   -0.000426 Ang=   0.06 deg.
 ExpMin= 1.61D-01 ExpMax= 4.17D+03 ExpMxC= 6.27D+02 IAcc=2 IRadAn=         4 AccDes= 0.00D+00
 Harris functional with IExCor=  402 and IRadAn=       4 diagonalized for initial guess.
 HarFok:  IExCor=  402 AccDes= 0.00D+00 IRadAn=         4 IDoV= 1 UseB2=F ITyADJ=14
 ICtDFT=  3500011 ScaDFX=  1.000000  1.000000  1.000000  1.000000
 FoFCou: FMM=F IPFlag=           0 FMFlag=      100000 FMFlg1=           0
         NFxFlg=           0 DoJE=T BraDBF=F KetDBF=T FulRan=T
         wScrn=  0.000000 ICntrl=       500 IOpCl=  0 I1Cent=   200000004 NGrid=           0
         NMat0=    1 NMatS0=      1 NMatT0=    0 NMatD0=    1 NMtDS0=    0 NMtDT0=    0
 Petite list used in FoFCou.
 Keep R1 ints in memory in canonical form, NReq=11390859.
 Gradient too large for Newton-Raphson -- use scaled steepest descent instead.
     Minimum is close to point  4 DX=  4.33D-02 DF= -1.26D-07 DXR=  3.48D-02 DFR=  1.21D-03 which will be used.
 LinEq1:  Iter=  0 NonCon=     1 RMS=1.38D-04 Max=1.47D-03 NDo=     1
 AX will form     1 AO Fock derivatives at one time.
 LinEq1:  Iter=  1 NonCon=     1 RMS=4.97D-05 Max=4.40D-04 NDo=     1
 LinEq1:  Iter=  2 NonCon=     1 RMS=1.64D-05 Max=1.47D-04 NDo=     1
 LinEq1:  Iter=  3 NonCon=     1 RMS=3.76D-06 Max=5.93D-05 NDo=     1
 LinEq1:  Iter=  4 NonCon=     1 RMS=2.07D-06 Max=1.87D-05 NDo=     1
 LinEq1:  Iter=  5 NonCon=     1 RMS=8.33D-07 Max=1.09D-05 NDo=     1
 LinEq1:  Iter=  6 NonCon=     1 RMS=1.89D-07 Max=1.93D-06 NDo=     1
 LinEq1:  Iter=  7 NonCon=     1 RMS=9.83D-08 Max=1.06D-06 NDo=     1
 LinEq1:  Iter=  8 NonCon=     1 RMS=3.22D-08 Max=2.48D-07 NDo=     1
 LinEq1:  Iter=  9 NonCon=     1 RMS=9.87D-09 Max=8.61D-08 NDo=     1
 LinEq1:  Iter= 10 NonCon=     0 RMS=1.92D-09 Max=1.28D-08 NDo=     1
 Linear equations converged to 5.404D-09 5.404D-08 after    10 iterations.
     Accept linear search using points  1 and  2.
     Minimum is close to point  2 DX= -2.79D-05 DF= -2.84D-14 DXR=  2.79D-05 DFR=  7.01D-10 which will be used.
 LinEq1:  Iter=  0 NonCon=     1 RMS=1.09D-07 Max=1.23D-06 NDo=     1
 LinEq1:  Iter=  1 NonCon=     1 RMS=7.73D-08 Max=8.92D-07 NDo=     1
 LinEq1:  Iter=  2 NonCon=     1 RMS=1.89D-08 Max=1.73D-07 NDo=     1
 LinEq1:  Iter=  3 NonCon=     1 RMS=9.09D-09 Max=7.81D-08 NDo=     1
 LinEq1:  Iter=  4 NonCon=     1 RMS=3.38D-09 Max=3.58D-08 NDo=     1
 LinEq1:  Iter=  5 NonCon=     1 RMS=1.10D-09 Max=1.10D-08 NDo=     1
 LinEq1:  Iter=  6 NonCon=     1 RMS=2.74D-10 Max=3.10D-09 NDo=     1
 LinEq1:  Iter=  7 NonCon=     1 RMS=1.07D-10 Max=1.03D-09 NDo=     1
 LinEq1:  Iter=  8 NonCon=     1 RMS=4.27D-11 Max=5.44D-10 NDo=     1
 LinEq1:  Iter=  9 NonCon=     0 RMS=8.57D-12 Max=1.00D-10 NDo=     1
 Linear equations converged to 5.040D-11 5.040D-10 after     9 iterations.
 SCF Done:  E(RB3LYP) =  -212.582017521     a.u. after    4 cycles
            Convg  =    0.1697D-10                    26 Fock formations.
              S**2 =  0.0000                  -V/T =  2.0099
 DoSCS=F DFT=T ScalE2(SS,OS)=  1.000000  1.000000
 Range of M.O.s used for correlation:     1    93
 NBasis=    93 NAE=    20 NBE=    20 NFC=     0 NFV=     0
 NROrb=     93 NOA=    20 NOB=    20 NVA=    73 NVB=    73
 Symmetrizing basis deriv contribution to polar:
 IMax=3 JMax=2 DiffMx= 0.00D+00
 G2DrvN: will do    15 centers at a time, making    1 passes.
 Calling FoFCou, ICntrl=  3107 FMM=F I1Cent=   0 AccDes= 0.00D+00.
 End of G2Drv F.D. properties file   721 does not exist.
 End of G2Drv F.D. properties file   722 does not exist.
 End of G2Drv F.D. properties file   788 does not exist.
          IDoAtm=11111111111111
          Differentiating once with respect to electric field.
                with respect to dipole field.
          Differentiating once with respect to nuclear coordinates.
 Keep R1 ints in memory in canonical form, NReq=11397670.
          There are    45 degrees of freedom in the 1st order CPHF.  IDoFFX=6 NUNeed=     3.
     42 vectors produced by pass  0 Test12= 3.24D-15 2.22D-09 XBig12= 2.82D+01 1.91D+00.
 AX will form    42 AO Fock derivatives at one time.
     42 vectors produced by pass  1 Test12= 3.24D-15 2.22D-09 XBig12= 1.77D+00 3.50D-01.
     42 vectors produced by pass  2 Test12= 3.24D-15 2.22D-09 XBig12= 2.50D-02 3.01D-02.
     42 vectors produced by pass  3 Test12= 3.24D-15 2.22D-09 XBig12= 4.02D-05 1.03D-03.
     42 vectors produced by pass  4 Test12= 3.24D-15 2.22D-09 XBig12= 2.91D-08 3.04D-05.
     19 vectors produced by pass  5 Test12= 3.24D-15 2.22D-09 XBig12= 1.86D-11 6.56D-07.
      3 vectors produced by pass  6 Test12= 3.24D-15 2.22D-09 XBig12= 9.99D-15 1.46D-08.
 InvSVY:  IOpt=1 It=  1 EMax= 1.07D-14
 Solved reduced A of dimension   232 with    45 vectors.
 Isotropic polarizability for W=    0.000000       46.71 Bohr**3.
 End of Minotr F.D. properties file   721 does not exist.
 End of Minotr F.D. properties file   722 does not exist.
 End of Minotr F.D. properties file   788 does not exist.
 Calling FoFJK, ICntrl=    100127 FMM=F ISym2X=0 I1Cent= 0 IOpClX= 0 NMat=1 NMatS=1 NMatT=0.
 ***** Axes restored to original set *****
 -------------------------------------------------------------------
 Center     Atomic                   Forces (Hartrees/Bohr)
 Number     Number              X              Y              Z
 -------------------------------------------------------------------
      1        6          -0.000174261    0.000019386   -0.000085829
      2        7          -0.000014101    0.000010783    0.000111458
      3        1           0.000012764   -0.000004506   -0.000003668
      4        6          -0.000152329    0.000086851   -0.000087298
      5        6           0.000137704    0.000062325    0.000041568
      6        6           0.000067471   -0.000131490    0.000029470
      7        1           0.000039876   -0.000012048   -0.000001585
      8        1           0.000030415   -0.000031582    0.000001158
      9        1           0.000043263    0.000006192   -0.000000542
     10        1           0.000036967   -0.000015893   -0.000001790
     11        1          -0.000018992   -0.000020758    0.000016789
     12        1          -0.000003883   -0.000002450   -0.000018491
     13        1          -0.000006056    0.000026897    0.000016959
     14        1           0.000001163    0.000006292   -0.000018197
 -------------------------------------------------------------------
 Cartesian Forces:  Max     0.000174261 RMS     0.000059110
 FormGI is forming the generalized inverse of G from B-inverse, IUseBI=4.

 GradGradGradGradGradGradGradGradGradGradGradGradGradGradGradGradGradGrad
 Berny optimization.
 Using GEDIIS/GDIIS optimizer.
 Internal  Forces:  Max     0.000095822 RMS     0.000023920
 Search for a local minimum.
 Step number   3 out of a maximum of   90
 All quantities printed in internal units (Hartrees-Bohrs-Radians)
 Mixed Optimization -- En-DIIS/RFO-DIIS
 Swapping is turned off.
 Second derivative matrix not updated -- analytic derivatives used.
 DE= -4.13D-05 DEPred=-4.07D-05 R= 1.01D+00
 TightC=F SS=  1.41D+00  RLast= 8.67D-02 DXNew= 8.4853D-01 2.6015D-01
 Trust test= 1.01D+00 RLast= 8.67D-02 DXMaxT set to 5.05D-01
 ITU=  1  1  0
     Eigenvalues ---    0.00008   0.00433   0.01756   0.01813   0.03689
     Eigenvalues ---    0.04096   0.04458   0.04582   0.04637   0.05268
     Eigenvalues ---    0.05951   0.06001   0.06135   0.06307   0.07880
     Eigenvalues ---    0.08002   0.09188   0.09296   0.10065   0.10149
     Eigenvalues ---    0.21704   0.21861   0.24255   0.24572   0.29054
     Eigenvalues ---    0.30250   0.31895   0.32999   0.33235   0.33337
     Eigenvalues ---    0.33486   0.33993   0.34235   0.34427   0.35046
     Eigenvalues ---    0.42652
 En-DIIS/RFO-DIIS/Sim-DIIS IScMMF=       -3 using points:     3    2
 RFO step:  Lambda=-6.95153399D-07.
 RFO step:  ModMin= 1 Lambda=-6.95153399D-07 EMin= 8.16838212D-05
 Using NR instead of RFO step for point 1.
 RFO step:  ModMin= 1 Lambda=-6.95153399D-07 EMin= 8.16838212D-05
 Using NR instead of RFO step for point 2.
 DidBck=F Rises=F RFO-DIIS coefs:    1.08680   -0.08680
 Iteration  1 RMS(Cart)=  0.00261537 RMS(Int)=  0.00000411
 Iteration  2 RMS(Cart)=  0.00000412 RMS(Int)=  0.00000212
 Iteration  3 RMS(Cart)=  0.00000000 RMS(Int)=  0.00000212
 Variable       Old X    -DE/DX   Delta X   Delta X   Delta X     New X
                                 (Linear)    (Quad)   (Total)
    R1        2.78057   0.00006   0.00007   0.00009   0.00015   2.78073
    R2        2.93577   0.00009   0.00065   0.00015   0.00080   2.93657
    R3        2.07514  -0.00001   0.00002  -0.00010  -0.00008   2.07506
    R4        2.06826   0.00001   0.00000  -0.00001  -0.00001   2.06825
    R5        1.92929  -0.00000  -0.00003   0.00005   0.00002   1.92931
    R6        2.78074   0.00005   0.00005  -0.00007  -0.00002   2.78073
    R7        2.93646   0.00010   0.00058  -0.00046   0.00012   2.93658
    R8        2.06825   0.00000   0.00001   0.00000   0.00001   2.06825
    R9        2.07508  -0.00000   0.00003  -0.00005  -0.00002   2.07506
   R10        2.93920   0.00007   0.00041  -0.00001   0.00040   2.93960
   R11        2.07099   0.00000  -0.00000   0.00003   0.00003   2.07101
   R12        2.06974   0.00001   0.00000   0.00001   0.00001   2.06976
   R13        2.07106   0.00000  -0.00001  -0.00004  -0.00005   2.07102
   R14        2.06975   0.00001   0.00000   0.00001   0.00001   2.06976
    A1        1.87072  -0.00002   0.00046  -0.00038   0.00007   1.87079
    A2        1.88433   0.00003  -0.00003   0.00014   0.00011   1.88444
    A3        1.92907   0.00003  -0.00006   0.00042   0.00036   1.92944
    A4        1.92083  -0.00001  -0.00022  -0.00013  -0.00035   1.92048
    A5        1.98360  -0.00003   0.00010  -0.00049  -0.00038   1.98321
    A6        1.87339   0.00001  -0.00026   0.00047   0.00020   1.87360
    A7        1.88686   0.00000   0.00009  -0.00009   0.00000   1.88687
    A8        1.80908   0.00001   0.00040  -0.00085  -0.00047   1.80861
    A9        1.88700   0.00000   0.00007  -0.00020  -0.00013   1.88687
   A10        1.87132  -0.00001   0.00037  -0.00088  -0.00052   1.87080
   A11        1.92889   0.00003  -0.00004   0.00058   0.00055   1.92944
   A12        1.88432   0.00003  -0.00002   0.00014   0.00012   1.88444
   A13        1.98345  -0.00003   0.00012  -0.00035  -0.00023   1.98321
   A14        1.92070  -0.00001  -0.00020  -0.00002  -0.00022   1.92048
   A15        1.87327   0.00001  -0.00024   0.00056   0.00032   1.87359
   A16        1.81740  -0.00000  -0.00000  -0.00035  -0.00036   1.81705
   A17        1.93154   0.00000  -0.00004  -0.00040  -0.00045   1.93110
   A18        1.95355  -0.00000  -0.00007   0.00050   0.00043   1.95399
   A19        1.93256  -0.00001   0.00016  -0.00051  -0.00035   1.93221
   A20        1.96354  -0.00000   0.00006   0.00020   0.00026   1.96381
   A21        1.86663   0.00001  -0.00010   0.00051   0.00041   1.86704
   A22        1.81714   0.00000   0.00003  -0.00012  -0.00010   1.81704
   A23        1.93082   0.00000   0.00007   0.00021   0.00028   1.93110
   A24        1.95427  -0.00000  -0.00018  -0.00010  -0.00028   1.95399
   A25        1.93227  -0.00001   0.00020  -0.00026  -0.00006   1.93221
   A26        1.96398  -0.00001   0.00000  -0.00017  -0.00017   1.96381
   A27        1.86672   0.00001  -0.00011   0.00043   0.00032   1.86704
    D1       -1.36682   0.00001  -0.00200   0.00266   0.00066  -1.36616
    D2        0.63315   0.00002  -0.00170   0.00199   0.00029   0.63343
    D3        2.84763   0.00002  -0.00197   0.00294   0.00097   2.84860
    D4       -1.43559   0.00003  -0.00167   0.00228   0.00060  -1.43499
    D5        0.80343  -0.00002  -0.00161   0.00207   0.00046   0.80389
    D6        2.80339  -0.00001  -0.00131   0.00140   0.00009   2.80349
    D7       -0.38957  -0.00001   0.00140   0.00124   0.00265  -0.38693
    D8        1.68678  -0.00002   0.00169   0.00097   0.00266   1.68944
    D9       -2.51596  -0.00000   0.00148   0.00158   0.00306  -2.51289
   D10        1.65536   0.00001   0.00151   0.00112   0.00264   1.65799
   D11       -2.55147  -0.00000   0.00180   0.00085   0.00265  -2.54883
   D12       -0.47102   0.00002   0.00159   0.00146   0.00305  -0.46797
   D13       -2.52624  -0.00001   0.00108   0.00130   0.00238  -2.52386
   D14       -0.44989  -0.00002   0.00137   0.00102   0.00239  -0.44749
   D15        1.63056  -0.00000   0.00116   0.00164   0.00280   1.63336
   D16       -0.63018  -0.00002   0.00134  -0.00457  -0.00323  -0.63341
   D17       -2.80052   0.00001   0.00098  -0.00392  -0.00294  -2.80346
   D18        1.43872  -0.00003   0.00130  -0.00500  -0.00370   1.43501
   D19        1.36968  -0.00001   0.00166  -0.00516  -0.00350   1.36618
   D20       -0.80066   0.00002   0.00129  -0.00450  -0.00321  -0.80387
   D21       -2.84460  -0.00002   0.00161  -0.00559  -0.00398  -2.84858
   D22        0.38208   0.00001  -0.00049   0.00528   0.00479   0.38687
   D23       -1.69512   0.00002  -0.00066   0.00628   0.00563  -1.68950
   D24        2.50771   0.00000  -0.00046   0.00558   0.00512   2.51283
   D25        2.51884   0.00001  -0.00020   0.00516   0.00496   2.52380
   D26        0.44164   0.00002  -0.00037   0.00616   0.00580   0.44743
   D27       -1.63871   0.00001  -0.00017   0.00546   0.00529  -1.63342
   D28       -1.66312  -0.00001  -0.00057   0.00563   0.00506  -1.65805
   D29        2.54287   0.00000  -0.00074   0.00664   0.00590   2.54876
   D30        0.46252  -0.00002  -0.00054   0.00593   0.00539   0.46791
   D31        0.00437  -0.00000  -0.00054  -0.00381  -0.00434   0.00003
   D32       -2.07099   0.00000  -0.00073  -0.00385  -0.00458  -2.07557
[...]
 
 Excited State   3:      Singlet-A      8.6103 eV  144.00 nm  f=0.0172  <S**2>=0.000
      20 -> 23         0.68213
      20 -> 25        -0.15031
 
 Excited State   4:      Singlet-A      8.9159 eV  139.06 nm  f=0.0090  <S**2>=0.000
      20 -> 24         0.70275
 
 Excited State   5:      Singlet-A      9.2531 eV  133.99 nm  f=0.0356  <S**2>=0.000
      20 -> 23         0.14298
      20 -> 25         0.68273
 
 Excited State   6:      Singlet-A      9.4877 eV  130.68 nm  f=0.0002  <S**2>=0.000
      19 -> 21         0.12328
      20 -> 26         0.66698
      20 -> 27        -0.14839
      20 -> 29        -0.10746
 
 Excited State   7:      Singlet-A      9.5727 eV  129.52 nm  f=0.0021  <S**2>=0.000
      19 -> 21         0.68519
      20 -> 26        -0.14080
 
 Excited State   8:      Singlet-A      9.7447 eV  127.23 nm  f=0.0185  <S**2>=0.000
      20 -> 28         0.69118
 
 Excited State   9:      Singlet-A      9.7694 eV  126.91 nm  f=0.0258  <S**2>=0.000
      20 -> 26         0.14753
      20 -> 27         0.67069
 
 Excited State  10:      Singlet-A     10.0093 eV  123.87 nm  f=0.0560  <S**2>=0.000
      18 -> 21         0.69643
 SavETr:  write IOETrn=   770 NScale= 10 NData=  16 NLR=1 NState=   10 LETran=     190.
          Differentiating once with respect to electric field.
                with respect to dipole field.
          Electric field/nuclear overlap derivatives assumed to be zero.
 Keep R1 ints in memory in canonical form, NReq=11392369.
          There are     1 degrees of freedom in the 1st order CPHF.  IDoFFX=0 NUNeed=     1.
 LinEq1:  Iter=  0 NonCon=     1 RMS=3.04D-02 Max=3.33D-01 NDo=     1
 AX will form     1 AO Fock derivatives at one time.
 LinEq1:  Iter=  1 NonCon=     1 RMS=8.04D-03 Max=7.13D-02 NDo=     1
 LinEq1:  Iter=  2 NonCon=     1 RMS=3.00D-03 Max=4.22D-02 NDo=     1
 LinEq1:  Iter=  3 NonCon=     1 RMS=1.63D-03 Max=3.11D-02 NDo=     1
 LinEq1:  Iter=  4 NonCon=     1 RMS=5.11D-04 Max=7.10D-03 NDo=     1
 LinEq1:  Iter=  5 NonCon=     1 RMS=1.36D-04 Max=1.26D-03 NDo=     1
 LinEq1:  Iter=  6 NonCon=     1 RMS=2.77D-05 Max=2.09D-04 NDo=     1
 LinEq1:  Iter=  7 NonCon=     1 RMS=8.28D-06 Max=8.59D-05 NDo=     1
 LinEq1:  Iter=  8 NonCon=     1 RMS=3.89D-06 Max=4.27D-05 NDo=     1
 LinEq1:  Iter=  9 NonCon=     1 RMS=8.88D-07 Max=9.10D-06 NDo=     1
 LinEq1:  Iter= 10 NonCon=     1 RMS=1.37D-07 Max=1.51D-06 NDo=     1
 LinEq1:  Iter= 11 NonCon=     1 RMS=2.14D-08 Max=2.97D-07 NDo=     1
 LinEq1:  Iter= 12 NonCon=     1 RMS=2.71D-09 Max=2.59D-08 NDo=     1
 LinEq1:  Iter= 13 NonCon=     1 RMS=5.75D-10 Max=7.59D-09 NDo=     1
 LinEq1:  Iter= 14 NonCon=     0 RMS=7.43D-11 Max=8.22D-10 NDo=     1
 Linear equations converged to 1.000D-10 1.000D-09 after    14 iterations.
 End of Minotr F.D. properties file   721 does not exist.
 End of Minotr F.D. properties file   722 does not exist.
 End of Minotr F.D. properties file   788 does not exist.

 **********************************************************************

            Population analysis using the CI density.

 **********************************************************************

 Orbital symmetries:
       Occupied  (A) (A) (A) (A) (A) (A) (A) (A) (A) (A) (A) (A)
                 (A) (A) (A) (A) (A) (A) (A) (A)
       Virtual   (A) (A) (A) (A) (A) (A) (A) (A) (A) (A) (A) (A)
                 (A) (A) (A) (A) (A) (A) (A) (A) (A) (A) (A) (A)
                 (A) (A) (A) (A) (A) (A) (A) (A) (A) (A) (A) (A)
                 (A) (A) (A) (A) (A) (A) (A) (A) (A) (A) (A) (A)
                 (A) (A) (A) (A) (A) (A) (A) (A) (A) (A) (A) (A)
                 (A) (A) (A) (A) (A) (A) (A) (A) (A) (A) (A) (A)
                 (A)
 The electronic state is 1-A.
 Alpha  occ. eigenvalues --  -14.31031 -10.19908 -10.19907 -10.17730 -10.17712
 Alpha  occ. eigenvalues --   -0.90709  -0.74766  -0.71139  -0.59481  -0.57031
 Alpha  occ. eigenvalues --   -0.49751  -0.45974  -0.42295  -0.42139  -0.36481
 Alpha  occ. eigenvalues --   -0.34683  -0.33599  -0.33531  -0.31712  -0.22167
 Alpha virt. eigenvalues --    0.07397   0.10406   0.13703   0.14468   0.15641
 Alpha virt. eigenvalues --    0.17072   0.18033   0.18109   0.19598   0.20921
 Alpha virt. eigenvalues --    0.24553   0.25232   0.30310   0.32511   0.52231
 Alpha virt. eigenvalues --    0.55348   0.55920   0.58977   0.59152   0.60875
 Alpha virt. eigenvalues --    0.64928   0.65047   0.69053   0.69349   0.78116
 Alpha virt. eigenvalues --    0.78701   0.81782   0.83927   0.85062   0.86510
 Alpha virt. eigenvalues --    0.87390   0.90095   0.93155   0.94278   0.95020
 Alpha virt. eigenvalues --    0.96589   0.97026   0.98851   1.24066   1.27448
 Alpha virt. eigenvalues --    1.33409   1.35157   1.44292   1.63253   1.70838
 Alpha virt. eigenvalues --    1.77649   1.81952   1.84172   1.87335   1.91994
 Alpha virt. eigenvalues --    1.97139   2.00888   2.02789   2.09360   2.10435
 Alpha virt. eigenvalues --    2.10438   2.19010   2.23649   2.25224   2.37871
 Alpha virt. eigenvalues --    2.40011   2.46907   2.54372   2.61048   2.62201
 Alpha virt. eigenvalues --    2.62820   2.66575   2.87700   3.91676   4.17298
 Alpha virt. eigenvalues --    4.24856   4.43363   4.60406
          Condensed to atoms (all electrons):
               1          2          3          4          5          6
     1  C    5.476644   0.283434  -0.050903  -0.099758  -0.068547   0.449569
     2  N    0.283434   7.949307  -0.695475   0.283436  -0.015600  -0.015587
     3  H   -0.050903  -0.695475   1.397966  -0.050904  -0.027198  -0.027208
     4  C   -0.099758   0.283436  -0.050904   5.476646   0.449573  -0.068546
     5  C   -0.068547  -0.015600  -0.027198   0.449573   5.323987   0.477375
     6  C    0.449569  -0.015587  -0.027208  -0.068546   0.477375   5.324025
     7  H    0.274827  -0.071965   0.023775   0.004958   0.003025  -0.031374
     8  H    0.006243  -0.185691   0.133089   0.018695   0.002090  -0.082914
     9  H    0.018695  -0.185697   0.133092   0.006235  -0.082912   0.002087
    10  H    0.004958  -0.071964   0.023775   0.274829  -0.031373   0.003025
    11  H    0.009579  -0.047428   0.047326  -0.100124   0.062879  -0.111245
    12  H    0.005281  -0.004096   0.003386  -0.062939   0.300179  -0.046604
    13  H   -0.100122  -0.047433   0.047332   0.009579  -0.111236   0.062858
    14  H   -0.062939  -0.004096   0.003386   0.005281  -0.046602   0.300177
               7          8          9         10         11         12
     1  C    0.274827   0.006243   0.018695   0.004958   0.009579   0.005281
     2  N   -0.071965  -0.185691  -0.185697  -0.071964  -0.047428  -0.004096
     3  H    0.023775   0.133089   0.133092   0.023775   0.047326   0.003386
     4  C    0.004958   0.018695   0.006235   0.274829  -0.100124  -0.062939
     5  C    0.003025   0.002090  -0.082912  -0.031373   0.062879   0.300179
     6  C   -0.031374  -0.082914   0.002087   0.003025  -0.111245  -0.046604
     7  H    0.583013   0.025843   0.002374   0.007831   0.001436   0.001390
     8  H    0.025843   0.925208   0.002696   0.002374   0.004027   0.000745
     9  H    0.002374   0.002696   0.925220   0.025844   0.061296   0.017499
    10  H    0.007831   0.002374   0.025844   0.583011   0.013123   0.001129
    11  H    0.001436   0.004027   0.061296   0.013123   0.885662   0.019574
    12  H    0.001390   0.000745   0.017499   0.001129   0.019574   0.609072
    13  H    0.013123   0.061295   0.004028   0.001436   0.061339   0.014065
    14  H    0.001129   0.017499   0.000745   0.001390   0.014065   0.000328
              13         14
     1  C   -0.100122  -0.062939
     2  N   -0.047433  -0.004096
     3  H    0.047332   0.003386
     4  C    0.009579   0.005281
     5  C   -0.111236  -0.046602
     6  C    0.062858   0.300177
     7  H    0.013123   0.001129
     8  H    0.061295   0.017499
     9  H    0.004028   0.000745
    10  H    0.001436   0.001390
    11  H    0.061339   0.014065
    12  H    0.014065   0.000328
    13  H    0.885672   0.019575
    14  H    0.019575   0.609070
 Mulliken charges:
               1
     1  C   -0.146961
     2  N   -0.171146
     3  H    0.038563
     4  C   -0.146962
     5  C   -0.235641
     6  C   -0.235638
     7  H    0.160613
     8  H    0.068799
     9  H    0.068796
    10  H    0.160614
    11  H    0.078492
    12  H    0.140991
    13  H    0.078489
    14  H    0.140991
 Sum of Mulliken charges =  -0.00000
 Mulliken charges with hydrogens summed into heavy atoms:
               1
     1  C    0.082451
     2  N   -0.132583
     4  C    0.082449
     5  C   -0.016158
     6  C   -0.016158
 Electronic spatial extent (au):  <R**2>=            398.3503
 Charge=             -0.0000 electrons
 Dipole moment (field-independent basis, Debye):
    X=             -0.0000    Y=             -0.1681    Z=              2.0628  Tot=              2.0697
 Quadrupole moment (field-independent basis, Debye-Ang):
   XX=            -35.3083   YY=            -34.1436   ZZ=            -36.0458
   XY=             -0.0001   XZ=              0.0000   YZ=             -0.5659
 Traceless Quadrupole moment (field-independent basis, Debye-Ang):
   XX=             -0.1424   YY=              1.0223   ZZ=             -0.8799
   XY=             -0.0001   XZ=              0.0000   YZ=             -0.5659
 Octapole moment (field-independent basis, Debye-Ang**2):
  XXX=             -0.0001  YYY=              0.1633  ZZZ=              9.7127  XYY=             -0.0000
  XXY=              0.7854  XXZ=              6.0462  XZZ=              0.0000  YZZ=              0.6335
  YYZ=              4.7347  XYZ=             -0.0000
 Hexadecapole moment (field-independent basis, Debye-Ang**3):
 XXXX=           -258.6181 YYYY=           -233.8966 ZZZZ=            -94.5279 XXXY=             -0.0002
 XXXZ=              0.0002 YYYX=             -0.0004 YYYZ=             -0.9968 ZZZX=              0.0000
 ZZZY=             -5.0717 XXYY=            -83.0633 XXZZ=            -57.6704 YYZZ=            -57.7118
 XXYZ=             -0.9035 YYXZ=              0.0000 ZZXY=              0.0000
 N-N= 1.892334058718D+02 E-N=-8.692552225233D+02  KE= 2.105747203845D+02
 Evaluate density.
 Using the total density.
 Monte-Carlo method of calculating molar volume:
 based on  0.001 e/bohr**3 density envelope.
 Number of points per bohr**3 =   20 CutOff= 1.00D-04
 Using the CI density.
 There are       313 points.  Will hold       313 in memory.
 LenV=   536831809 MDV=   536870912.
 Box volume = 3846.634 fraction occupied=0.169
 Integrated density= 6.0666886253493374D+01 error= 2.0666886253493374D+01
 Molar volume =  651.347 bohr**3/mol ( 58.126 cm**3/mol)
 Recommended a0 for SCRF calculation =  3.63 angstrom (  6.86 bohr)
 ******************************Gaussian NBO Version 3.1******************************
             N A T U R A L   A T O M I C   O R B I T A L   A N D
          N A T U R A L   B O N D   O R B I T A L   A N A L Y S I S
 ******************************Gaussian NBO Version 3.1******************************
       /RESON  / : Allow strongly delocalized NBO set

 Analyzing the CI density

 Job title: Title Card Required                                             

 Storage needed:     26642 in NPA ( 536869792 available)


 NATURAL POPULATIONS:  Natural atomic orbital occupancies 
                                                          
   NAO  Atom  No  lang   Type(AO)    Occupancy
 --------------------------------------------
     1    C    1  S      Cor( 1S)     1.99936
     2    C    1  S      Val( 2S)     1.06256
     3    C    1  S      Ryd( 3S)     0.00110
     4    C    1  S      Ryd( 4S)     0.00003
     5    C    1  px     Val( 2p)     1.05680
     6    C    1  px     Ryd( 3p)     0.00621
     7    C    1  py     Val( 2p)     0.97718
     8    C    1  py     Ryd( 3p)     0.00304
     9    C    1  pz     Val( 2p)     1.21893
    10    C    1  pz     Ryd( 3p)     0.00335
    11    C    1  dxy    Ryd( 3d)     0.00143
    12    C    1  dxz    Ryd( 3d)     0.00086
    13    C    1  dyz    Ryd( 3d)     0.00063
    14    C    1  dx2y2  Ryd( 3d)     0.00079
    15    C    1  dz2    Ryd( 3d)     0.00122
 
    16    N    2  S      Cor( 1S)     1.99927
    17    N    2  S      Val( 2S)     1.40104
    18    N    2  S      Ryd( 3S)     0.00831
    19    N    2  S      Ryd( 4S)     0.00004
    20    N    2  px     Val( 2p)     1.26013
    21    N    2  px     Ryd( 3p)     0.00092
    22    N    2  py     Val( 2p)     1.11281
    23    N    2  py     Ryd( 3p)     0.00107
    24    N    2  pz     Val( 2p)     1.40367
    25    N    2  pz     Ryd( 3p)     0.00483
    26    N    2  dxy    Ryd( 3d)     0.00101
    27    N    2  dxz    Ryd( 3d)     0.00034
    28    N    2  dyz    Ryd( 3d)     0.00000
    29    N    2  dx2y2  Ryd( 3d)     0.00031
    30    N    2  dz2    Ryd( 3d)     0.00138
 
    31    H    3  S      Val( 1S)     0.73297
    32    H    3  S      Ryd( 2S)     0.10814
 
    33    C    4  S      Cor( 1S)     1.99936
    34    C    4  S      Val( 2S)     1.06256
    35    C    4  S      Ryd( 3S)     0.00110
    36    C    4  S      Ryd( 4S)     0.00003
    37    C    4  px     Val( 2p)     1.05681
    38    C    4  px     Ryd( 3p)     0.00621
    39    C    4  py     Val( 2p)     0.97717
    40    C    4  py     Ryd( 3p)     0.00304
    41    C    4  pz     Val( 2p)     1.21894
    42    C    4  pz     Ryd( 3p)     0.00335
    43    C    4  dxy    Ryd( 3d)     0.00143
    44    C    4  dxz    Ryd( 3d)     0.00086
    45    C    4  dyz    Ryd( 3d)     0.00063
    46    C    4  dx2y2  Ryd( 3d)     0.00079
    47    C    4  dz2    Ryd( 3d)     0.00122
 
    48    C    5  S      Cor( 1S)     1.99932
    49    C    5  S      Val( 2S)     1.06288
    50    C    5  S      Ryd( 3S)     0.00054
    51    C    5  S      Ryd( 4S)     0.00004
    52    C    5  px     Val( 2p)     1.06287
    53    C    5  px     Ryd( 3p)     0.00147
    54    C    5  py     Val( 2p)     1.05806
    55    C    5  py     Ryd( 3p)     0.00258
    56    C    5  pz     Val( 2p)     1.26403
    57    C    5  pz     Ryd( 3p)     0.00419
    58    C    5  dxy    Ryd( 3d)     0.00057
    59    C    5  dxz    Ryd( 3d)     0.00072
    60    C    5  dyz    Ryd( 3d)     0.00068
    61    C    5  dx2y2  Ryd( 3d)     0.00064
    62    C    5  dz2    Ryd( 3d)     0.00079
 
    63    C    6  S      Cor( 1S)     1.99932
    64    C    6  S      Val( 2S)     1.06288
    65    C    6  S      Ryd( 3S)     0.00054
    66    C    6  S      Ryd( 4S)     0.00004
    67    C    6  px     Val( 2p)     1.06287
    68    C    6  px     Ryd( 3p)     0.00147
    69    C    6  py     Val( 2p)     1.05806
    70    C    6  py     Ryd( 3p)     0.00258
    71    C    6  pz     Val( 2p)     1.26403
    72    C    6  pz     Ryd( 3p)     0.00419
    73    C    6  dxy    Ryd( 3d)     0.00057
    74    C    6  dxz    Ryd( 3d)     0.00072
    75    C    6  dyz    Ryd( 3d)     0.00068
    76    C    6  dx2y2  Ryd( 3d)     0.00064
    77    C    6  dz2    Ryd( 3d)     0.00079
 
    78    H    7  S      Val( 1S)     0.74680
    79    H    7  S      Ryd( 2S)     0.00806
 
    80    H    8  S      Val( 1S)     0.79933
    81    H    8  S      Ryd( 2S)     0.03942
 
    82    H    9  S      Val( 1S)     0.79933
    83    H    9  S      Ryd( 2S)     0.03942
 
    84    H   10  S      Val( 1S)     0.74680
    85    H   10  S      Ryd( 2S)     0.00805
 
    86    H   11  S      Val( 1S)     0.79425
    87    H   11  S      Ryd( 2S)     0.03774
 
    88    H   12  S      Val( 1S)     0.75724
    89    H   12  S      Ryd( 2S)     0.00618
 
    90    H   13  S      Val( 1S)     0.79425
    91    H   13  S      Ryd( 2S)     0.03774
 
    92    H   14  S      Val( 1S)     0.75724
    93    H   14  S      Ryd( 2S)     0.00618


 Summary of Natural Population Analysis:                  
                                                          
                                       Natural Population 
                Natural  -----------------------------------------------
    Atom  No    Charge         Core      Valence    Rydberg      Total
 -----------------------------------------------------------------------
      C    1   -0.33348      1.99936     4.31547    0.01866     6.33348
      N    2   -0.19514      1.99927     5.17765    0.01822     7.19514
      H    3    0.15889      0.00000     0.73297    0.10814     0.84111
      C    4   -0.33348      1.99936     4.31547    0.01866     6.33348
      C    5   -0.45940      1.99932     4.44784    0.01224     6.45940
      C    6   -0.45940      1.99932     4.44784    0.01224     6.45940
      H    7    0.24514      0.00000     0.74680    0.00806     0.75486
      H    8    0.16125      0.00000     0.79933    0.03942     0.83875
      H    9    0.16124      0.00000     0.79933    0.03942     0.83876
      H   10    0.24515      0.00000     0.74680    0.00805     0.75485
      H   11    0.16800      0.00000     0.79425    0.03774     0.83200
      H   12    0.23657      0.00000     0.75724    0.00618     0.76343
      H   13    0.16800      0.00000     0.79425    0.03774     0.83200
      H   14    0.23657      0.00000     0.75724    0.00618     0.76343
 =======================================================================
   * Total *   -0.00008      9.99663    29.63249    0.37095    40.00008

                                 Natural Population      
 --------------------------------------------------------
   Core                       9.99663 ( 99.9663% of  10)
   Valence                   29.63249 ( 98.7750% of  30)
   Natural Minimal Basis     39.62912 ( 99.0728% of  40)
   Natural Rydberg Basis      0.37095 (  0.9274% of  40)
 --------------------------------------------------------

    Atom  No          Natural Electron Configuration
 ----------------------------------------------------------------------------
      C    1      [core]2S( 1.06)2p( 3.25)3p( 0.01)
      N    2      [core]2S( 1.40)2p( 3.78)3S( 0.01)3p( 0.01)
      H    3            1S( 0.73)2S( 0.11)
      C    4      [core]2S( 1.06)2p( 3.25)3p( 0.01)
      C    5      [core]2S( 1.06)2p( 3.38)3p( 0.01)
      C    6      [core]2S( 1.06)2p( 3.38)3p( 0.01)
      H    7            1S( 0.75)2S( 0.01)
      H    8            1S( 0.80)2S( 0.04)
      H    9            1S( 0.80)2S( 0.04)
      H   10            1S( 0.75)2S( 0.01)
      H   11            1S( 0.79)2S( 0.04)
      H   12            1S( 0.76)2S( 0.01)
      H   13            1S( 0.79)2S( 0.04)
      H   14            1S( 0.76)2S( 0.01)


 NBO analysis skipped by request.
 1\1\GINC-DELLA-R4C3N1\SP\RB3LYP TD-FC\6-31G(d)\C4H9N1\BJS4\24-Aug-2020
 \0\\# TD(NStates=10, Root=1) B3LYP/6-31G* scf=qc volume pop=NPA densit
 y=current Geom=AllCheck Guess=Read\\Title Card Required\\0,1\C,0,-0.77
 14188921,-0.9516177812,-0.1859029683\N,0,-1.1680632037,0.4057104757,0.
 2210824662\H,0,-1.243359036,0.4224948468,1.2391098437\C,0,-0.015385729
 2,1.2344366438,-0.1660280287\C,0,1.2636754867,0.38894279,0.086888449\C
 ,0,0.7552505997,-1.0811346778,0.0735557919\H,0,-0.9811436288,-1.058594
 5074,-1.2584433417\H,0,-1.3709484011,-1.7010431911,0.3402122905\H,0,-0
 .026816307,2.1854451967,0.3755651513\H,0,-0.1082084623,1.4655385317,-1
 .2354890455\H,0,1.7052307814,0.6374724491,1.0586562322\H,0,2.033010000
 7,0.57358824,-0.6705023044\H,0,0.9434582927,-1.5650311429,1.0386947979
 \H,0,1.250418499,-1.6893078732,-0.6909993342\\Version=ES64L-G16RevA.03
 \State=1-A\HF=-212.5820179\RMSD=2.365e-13\Dipole=-0.0639412,0.0294803,
 -0.8112284\Quadrupole=0.6689302,-0.0107668,-0.6581634,-0.2715644,0.392
 692,-0.1308036\PG=C01 [X(C4H9N1)]\\@


    THE DOUGHNUT CREED
 AS YOU RAMBLE ON THROUGH LIFE, BROTHER
 WHATEVER BE YOUR GOAL
 KEEP YOUR EYE UPON THE DOUGHNUT
 AND NOT UPON THE HOLE.
 Job cpu time:       0 days  0 hours  4 minutes 33.6 seconds.
 Elapsed time:       0 days  0 hours  2 minutes 17.0 seconds.
 File lengths (MBytes):  RWF=    132 Int=      0 D2E=      0 Chk=     12 Scr=      1
 Normal termination of Gaussian 16 at Mon Aug 24 16:45:38 2020.
