 Entering Gaussian System, Link 0=g16
 Input=base_8_conf1123.com
 Output=base_8_conf1123.log
 Initial command:
 /opt/export//g16/l1.exe "/scratch/bjs4/job.29227/Gau-29229.inp" -scrdir="/scratch/bjs4/job.29227/"
 Entering Link 1 = /opt/export//g16/l1.exe PID=     29230.
  
 Copyright (c) 1988,1990,1992,1993,1995,1998,2003,2009,2016,
            Gaussian, Inc.  All Rights Reserved.
  
 This is part of the Gaussian(R) 16 program.  It is based on
 the Gaussian(R) 09 system (copyright 2009, Gaussian, Inc.),
 the Gaussian(R) 03 system (copyright 2003, Gaussian, Inc.),
 the Gaussian(R) 98 system (copyright 1998, Gaussian, Inc.),
 the Gaussian(R) 94 system (copyright 1995, Gaussian, Inc.),
 the Gaussian 92(TM) system (copyright 1992, Gaussian, Inc.),
 the Gaussian 90(TM) system (copyright 1990, Gaussian, Inc.),
 the Gaussian 88(TM) system (copyright 1988, Gaussian, Inc.),
 the Gaussian 86(TM) system (copyright 1986, Carnegie Mellon
 University), and the Gaussian 82(TM) system (copyright 1983,
 Carnegie Mellon University). Gaussian is a federally registered
 trademark of Gaussian, Inc.
  
 This software contains proprietary and confidential information,
 including trade secrets, belonging to Gaussian, Inc.
  
 This software is provided under written license and may be
 used, copied, transmitted, or stored only in accord with that
 written license.
  
 The following legend is applicable only to US Government
 contracts under FAR:
  
                    RESTRICTED RIGHTS LEGEND
  
 Use, reproduction and disclosure by the US Government is
 subject to restrictions as set forth in subparagraphs (a)
 and (c) of the Commercial Computer Software - Restricted
 Rights clause in FAR 52.227-19.
  
 Gaussian, Inc.
 340 Quinnipiac St., Bldg. 40, Wallingford CT 06492
  
  
 ---------------------------------------------------------------
 Warning -- This program may not be used in any manner that
 competes with the business of Gaussian, Inc. or will provide
 assistance to any competitor of Gaussian, Inc.  The licensee
 of this program is prohibited from giving any competitor of
 Gaussian, Inc. access to this program.  By using this program,
 the user acknowledges that Gaussian, Inc. is engaged in the
 business of creating and licensing software in the field of
 computational chemistry and represents and warrants to the
 licensee that it is not a competitor of Gaussian, Inc. and that
 it will not use this program in any manner prohibited above.
 ---------------------------------------------------------------
  

 Cite this work as:
 Gaussian 16, Revision A.03,
 M. J. Frisch, G. W. Trucks, H. B. Schlegel, G. E. Scuseria, 
 M. A. Robb, J. R. Cheeseman, G. Scalmani, V. Barone, 
 G. A. Petersson, H. Nakatsuji, X. Li, M. Caricato, A. V. Marenich, 
 J. Bloino, B. G. Janesko, R. Gomperts, B. Mennucci, H. P. Hratchian, 
 J. V. Ortiz, A. F. Izmaylov, J. L. Sonnenberg, D. Williams-Young, 
 F. Ding, F. Lipparini, F. Egidi, J. Goings, B. Peng, A. Petrone, 
 T. Henderson, D. Ranasinghe, V. G. Zakrzewski, J. Gao, N. Rega, 
 G. Zheng, W. Liang, M. Hada, M. Ehara, K. Toyota, R. Fukuda, 
 J. Hasegawa, M. Ishida, T. Nakajima, Y. Honda, O. Kitao, H. Nakai, 
 T. Vreven, K. Throssell, J. A. Montgomery, Jr., J. E. Peralta, 
 F. Ogliaro, M. J. Bearpark, J. J. Heyd, E. N. Brothers, K. N. Kudin, 
 V. N. Staroverov, T. A. Keith, R. Kobayashi, J. Normand, 
 K. Raghavachari, A. P. Rendell, J. C. Burant, S. S. Iyengar, 
 J. Tomasi, M. Cossi, J. M. Millam, M. Klene, C. Adamo, R. Cammi, 
 J. W. Ochterski, R. L. Martin, K. Morokuma, O. Farkas, 
 J. B. Foresman, and D. J. Fox, Gaussian, Inc., Wallingford CT, 2016.
 
 ******************************************
 Gaussian 16:  ES64L-G16RevA.03 25-Dec-2016
                24-Aug-2020 
 ******************************************
 %nprocshared=4
 Will use up to    4 processors via shared memory.
 %Mem=8GB
 %Chk=base_8_conf11.chk
 ---------------------------------
 # opt=CalcAll B3LYP/6-31G* scf=qc
 ---------------------------------
 1/10=4,18=20,19=15,26=3,38=1/1,3;
 2/9=110,12=2,17=6,18=5,40=1/2;
 3/5=1,6=6,7=1,11=2,25=1,30=1,71=2,74=-5,140=1/1,2,3;
 4//1;
 5/5=2,8=3,38=5/8;
 8/6=4,10=90,11=11/1;
 11/6=1,8=1,9=11,15=111,16=1/1,2,10;
 10/6=1/2;
 6/7=2,8=2,9=2,10=2,18=1,28=1/1;
 7/10=1,25=1/1,2,3,16;
 1/10=4,18=20,19=15,26=3/3(3);
 2/9=110/2;
 7/8=1,9=1,25=1,44=-1/16;
 99//99;
 2/9=110/2;
 3/5=1,6=6,7=1,11=2,25=1,30=1,71=2,74=-5,140=1/1,2,3;
 4/5=5,16=3,69=1/1;
 5/5=2,8=3,38=5/8;
 8/6=4,10=90,11=11/1;
 11/6=1,8=1,9=11,15=111,16=1/1,2,10;
 10/6=1/2;
 7/10=1,25=1/1,2,3,16;
 1/10=4,18=20,19=15,26=3/3(-8);
 2/9=110/2;
 6/7=2,8=2,9=2,10=2,18=1,19=2,28=1/1;
 7/8=1,9=1,25=1,44=-1/16;
 99//99;
 -------------------
 Title Card Required
 -------------------
 Symbolic Z-matrix:
 Charge =  0 Multiplicity = 1
 N                    -0.0854   -0.6502   -0.1523 
 C                    -1.4343   -1.2047   -0.1536 
 C                    -2.4548   -0.1466   -0.5193 
 C                    -2.182     1.0901    0.3084 
 N1                   -0.8354    1.5946    0.0712 
 C                     0.102     0.7165   -0.0854 
 N                     1.4072    1.1066   -0.2627 
 C                     1.7535    2.4376   -0.7253 
 C                     2.4803    0.3144    0.2981 
 C                     2.3525   -1.0845   -0.2595 
 C                     0.9778   -1.6207    0.0913 
 H                    -1.6586   -1.6213    0.8349 
 H                    -1.4989   -2.0256   -0.8788 
 H                    -3.4684   -0.5185   -0.3355 
 H                    -2.3798    0.0972   -1.5862 
 H                    -2.3137    0.887     1.3785 
 H                    -2.9013    1.8716    0.0422 
 H                     0.8997    2.9639   -1.1643 
 H                     2.513     2.3627   -1.5128 
 H                     2.1584    3.0448    0.0899 
 H                     2.4034    0.3062    1.3951 
 H                     3.4651    0.7263    0.0496 
 H                     3.1321   -1.7395    0.1456 
 H                     2.4772   -1.0609   -1.3492 
 H                     0.9544   -1.9093    1.1488 
 H                     0.7998   -2.5314   -0.4936 
 

 GradGradGradGradGradGradGradGradGradGradGradGradGradGradGradGradGradGrad
 Berny optimization.
 Initialization pass.
                           ----------------------------
                           !    Initial Parameters    !
                           ! (Angstroms and Degrees)  !
 --------------------------                            --------------------------
 ! Name  Definition              Value          Derivative Info.                !
 --------------------------------------------------------------------------------
 ! R1    R(1,2)                  1.4584         calculate D2E/DX2 analytically  !
 ! R2    R(1,6)                  1.3811         calculate D2E/DX2 analytically  !
 ! R3    R(1,11)                 1.46           calculate D2E/DX2 analytically  !
 ! R4    R(2,3)                  1.5148         calculate D2E/DX2 analytically  !
 ! R5    R(2,12)                 1.0959         calculate D2E/DX2 analytically  !
 ! R6    R(2,13)                 1.0973         calculate D2E/DX2 analytically  !
 ! R7    R(3,4)                  1.5129         calculate D2E/DX2 analytically  !
 ! R8    R(3,14)                 1.0952         calculate D2E/DX2 analytically  !
 ! R9    R(3,15)                 1.097          calculate D2E/DX2 analytically  !
 ! R10   R(4,5)                  1.4574         calculate D2E/DX2 analytically  !
 ! R11   R(4,16)                 1.0971         calculate D2E/DX2 analytically  !
 ! R12   R(4,17)                 1.095          calculate D2E/DX2 analytically  !
 ! R13   R(5,6)                  1.2939         calculate D2E/DX2 analytically  !
 ! R14   R(6,7)                  1.3737         calculate D2E/DX2 analytically  !
 ! R15   R(7,8)                  1.451          calculate D2E/DX2 analytically  !
 ! R16   R(7,9)                  1.4469         calculate D2E/DX2 analytically  !
 ! R17   R(8,18)                 1.0948         calculate D2E/DX2 analytically  !
 ! R18   R(8,19)                 1.0966         calculate D2E/DX2 analytically  !
 ! R19   R(8,20)                 1.0942         calculate D2E/DX2 analytically  !
 ! R20   R(9,10)                 1.5113         calculate D2E/DX2 analytically  !
 ! R21   R(9,21)                 1.0997         calculate D2E/DX2 analytically  !
 ! R22   R(9,22)                 1.096          calculate D2E/DX2 analytically  !
 ! R23   R(10,11)                1.5167         calculate D2E/DX2 analytically  !
 ! R24   R(10,23)                1.0959         calculate D2E/DX2 analytically  !
 ! R25   R(10,24)                1.0971         calculate D2E/DX2 analytically  !
 ! R26   R(11,25)                1.0964         calculate D2E/DX2 analytically  !
 ! R27   R(11,26)                1.0969         calculate D2E/DX2 analytically  !
 ! A1    A(2,1,6)              120.1178         calculate D2E/DX2 analytically  !
 ! A2    A(2,1,11)             114.8944         calculate D2E/DX2 analytically  !
 ! A3    A(6,1,11)             123.4286         calculate D2E/DX2 analytically  !
 ! A4    A(1,2,3)              110.9605         calculate D2E/DX2 analytically  !
 ! A5    A(1,2,12)             109.4528         calculate D2E/DX2 analytically  !
 ! A6    A(1,2,13)             109.8457         calculate D2E/DX2 analytically  !
 ! A7    A(3,2,12)             110.2062         calculate D2E/DX2 analytically  !
 ! A8    A(3,2,13)             108.8658         calculate D2E/DX2 analytically  !
 ! A9    A(12,2,13)            107.4396         calculate D2E/DX2 analytically  !
 ! A10   A(2,3,4)              108.5069         calculate D2E/DX2 analytically  !
 ! A11   A(2,3,14)             110.2289         calculate D2E/DX2 analytically  !
 ! A12   A(2,3,15)             110.1192         calculate D2E/DX2 analytically  !
 ! A13   A(4,3,14)             110.6487         calculate D2E/DX2 analytically  !
 ! A14   A(4,3,15)             109.7606         calculate D2E/DX2 analytically  !
 ! A15   A(14,3,15)            107.5758         calculate D2E/DX2 analytically  !
 ! A16   A(3,4,5)              111.132          calculate D2E/DX2 analytically  !
 ! A17   A(3,4,16)             111.1395         calculate D2E/DX2 analytically  !
 ! A18   A(3,4,17)             109.3873         calculate D2E/DX2 analytically  !
 ! A19   A(5,4,16)             109.4954         calculate D2E/DX2 analytically  !
 ! A20   A(5,4,17)             108.6827         calculate D2E/DX2 analytically  !
 ! A21   A(16,4,17)            106.8809         calculate D2E/DX2 analytically  !
 ! A22   A(4,5,6)              117.0099         calculate D2E/DX2 analytically  !
 ! A23   A(1,6,5)              125.3875         calculate D2E/DX2 analytically  !
 ! A24   A(1,6,7)              113.808          calculate D2E/DX2 analytically  !
 ! A25   A(5,6,7)              120.7449         calculate D2E/DX2 analytically  !
 ! A26   A(6,7,8)              121.8959         calculate D2E/DX2 analytically  !
 ! A27   A(6,7,9)              119.943          calculate D2E/DX2 analytically  !
 ! A28   A(8,7,9)              116.6653         calculate D2E/DX2 analytically  !
 ! A29   A(7,8,18)             112.4986         calculate D2E/DX2 analytically  !
 ! A30   A(7,8,19)             109.3645         calculate D2E/DX2 analytically  !
 ! A31   A(7,8,20)             111.0898         calculate D2E/DX2 analytically  !
 ! A32   A(18,8,19)            106.5581         calculate D2E/DX2 analytically  !
 ! A33   A(18,8,20)            108.6966         calculate D2E/DX2 analytically  !
 ! A34   A(19,8,20)            108.4595         calculate D2E/DX2 analytically  !
 ! A35   A(7,9,10)             107.5213         calculate D2E/DX2 analytically  !
 ! A36   A(7,9,21)             109.8062         calculate D2E/DX2 analytically  !
 ! A37   A(7,9,22)             111.8851         calculate D2E/DX2 analytically  !
 ! A38   A(10,9,21)            110.8066         calculate D2E/DX2 analytically  !
 ! A39   A(10,9,22)            109.8881         calculate D2E/DX2 analytically  !
 ! A40   A(21,9,22)            106.9659         calculate D2E/DX2 analytically  !
 ! A41   A(9,10,11)            108.5745         calculate D2E/DX2 analytically  !
 ! A42   A(9,10,23)            110.8972         calculate D2E/DX2 analytically  !
 ! A43   A(9,10,24)            109.6907         calculate D2E/DX2 analytically  !
 ! A44   A(11,10,23)           110.3647         calculate D2E/DX2 analytically  !
 ! A45   A(11,10,24)           109.8994         calculate D2E/DX2 analytically  !
 ! A46   A(23,10,24)           107.4082         calculate D2E/DX2 analytically  !
 ! A47   A(1,11,10)            112.7337         calculate D2E/DX2 analytically  !
 ! A48   A(1,11,25)            108.6843         calculate D2E/DX2 analytically  !
 ! A49   A(1,11,26)            110.1665         calculate D2E/DX2 analytically  !
 ! A50   A(10,11,25)           109.6018         calculate D2E/DX2 analytically  !
 ! A51   A(10,11,26)           108.4981         calculate D2E/DX2 analytically  !
 ! A52   A(25,11,26)           106.9958         calculate D2E/DX2 analytically  !
 ! D1    D(6,1,2,3)             18.1425         calculate D2E/DX2 analytically  !
 ! D2    D(6,1,2,12)          -103.6986         calculate D2E/DX2 analytically  !
 ! D3    D(6,1,2,13)           138.5661         calculate D2E/DX2 analytically  !
 ! D4    D(11,1,2,3)          -175.6133         calculate D2E/DX2 analytically  !
 ! D5    D(11,1,2,12)           62.5457         calculate D2E/DX2 analytically  !
 ! D6    D(11,1,2,13)          -55.1896         calculate D2E/DX2 analytically  !
 ! D7    D(2,1,6,5)              5.0032         calculate D2E/DX2 analytically  !
 ! D8    D(2,1,6,7)           -172.1933         calculate D2E/DX2 analytically  !
 ! D9    D(11,1,6,5)          -160.0191         calculate D2E/DX2 analytically  !
 ! D10   D(11,1,6,7)            22.7845         calculate D2E/DX2 analytically  !
 ! D11   D(2,1,11,10)          165.4665         calculate D2E/DX2 analytically  !
 ! D12   D(2,1,11,25)          -72.8201         calculate D2E/DX2 analytically  !
 ! D13   D(2,1,11,26)           44.1109         calculate D2E/DX2 analytically  !
 ! D14   D(6,1,11,10)          -28.8012         calculate D2E/DX2 analytically  !
 ! D15   D(6,1,11,25)           92.9123         calculate D2E/DX2 analytically  !
 ! D16   D(6,1,11,26)         -150.1568         calculate D2E/DX2 analytically  !
 ! D17   D(1,2,3,4)            -48.0819         calculate D2E/DX2 analytically  !
 ! D18   D(1,2,3,14)          -169.3915         calculate D2E/DX2 analytically  !
 ! D19   D(1,2,3,15)            72.0716         calculate D2E/DX2 analytically  !
 ! D20   D(12,2,3,4)            73.3179         calculate D2E/DX2 analytically  !
 ! D21   D(12,2,3,14)          -47.9917         calculate D2E/DX2 analytically  !
 ! D22   D(12,2,3,15)         -166.5286         calculate D2E/DX2 analytically  !
 ! D23   D(13,2,3,4)          -169.085          calculate D2E/DX2 analytically  !
 ! D24   D(13,2,3,14)           69.6054         calculate D2E/DX2 analytically  !
 ! D25   D(13,2,3,15)          -48.9315         calculate D2E/DX2 analytically  !
 ! D26   D(2,3,4,5)             58.982          calculate D2E/DX2 analytically  !
 ! D27   D(2,3,4,16)           -63.2301         calculate D2E/DX2 analytically  !
 ! D28   D(2,3,4,17)           178.9873         calculate D2E/DX2 analytically  !
 ! D29   D(14,3,4,5)          -179.9669         calculate D2E/DX2 analytically  !
 ! D30   D(14,3,4,16)           57.8209         calculate D2E/DX2 analytically  !
 ! D31   D(14,3,4,17)          -59.9616         calculate D2E/DX2 analytically  !
 ! D32   D(15,3,4,5)           -61.3945         calculate D2E/DX2 analytically  !
 ! D33   D(15,3,4,16)          176.3934         calculate D2E/DX2 analytically  !
 ! D34   D(15,3,4,17)           58.6108         calculate D2E/DX2 analytically  !
 ! D35   D(3,4,5,6)            -38.0914         calculate D2E/DX2 analytically  !
 ! D36   D(16,4,5,6)            85.0695         calculate D2E/DX2 analytically  !
 ! D37   D(17,4,5,6)          -158.5141         calculate D2E/DX2 analytically  !
 ! D38   D(4,5,6,1)              5.4679         calculate D2E/DX2 analytically  !
 ! D39   D(4,5,6,7)           -177.5167         calculate D2E/DX2 analytically  !
 ! D40   D(1,6,7,8)            156.3197         calculate D2E/DX2 analytically  !
 ! D41   D(1,6,7,9)            -38.0996         calculate D2E/DX2 analytically  !
 ! D42   D(5,6,7,8)            -21.0211         calculate D2E/DX2 analytically  !
 ! D43   D(5,6,7,9)            144.5597         calculate D2E/DX2 analytically  !
 ! D44   D(6,7,8,18)           -15.7716         calculate D2E/DX2 analytically  !
 ! D45   D(6,7,8,19)          -133.9703         calculate D2E/DX2 analytically  !
 ! D46   D(6,7,8,20)           106.3428         calculate D2E/DX2 analytically  !
 ! D47   D(9,7,8,18)           178.201          calculate D2E/DX2 analytically  !
 ! D48   D(9,7,8,19)            60.0023         calculate D2E/DX2 analytically  !
 ! D49   D(9,7,8,20)           -59.6846         calculate D2E/DX2 analytically  !
 ! D50   D(6,7,9,10)            57.3474         calculate D2E/DX2 analytically  !
 ! D51   D(6,7,9,21)           -63.291          calculate D2E/DX2 analytically  !
 ! D52   D(6,7,9,22)           178.0951         calculate D2E/DX2 analytically  !
 ! D53   D(8,7,9,10)          -136.3372         calculate D2E/DX2 analytically  !
 ! D54   D(8,7,9,21)           103.0244         calculate D2E/DX2 analytically  !
 ! D55   D(8,7,9,22)           -15.5896         calculate D2E/DX2 analytically  !
 ! D56   D(7,9,10,11)          -57.5589         calculate D2E/DX2 analytically  !
 ! D57   D(7,9,10,23)         -178.9763         calculate D2E/DX2 analytically  !
 ! D58   D(7,9,10,24)           62.5492         calculate D2E/DX2 analytically  !
 ! D59   D(21,9,10,11)          62.4466         calculate D2E/DX2 analytically  !
 ! D60   D(21,9,10,23)         -58.9708         calculate D2E/DX2 analytically  !
 ! D61   D(21,9,10,24)        -177.4453         calculate D2E/DX2 analytically  !
 ! D62   D(22,9,10,11)        -179.5564         calculate D2E/DX2 analytically  !
 ! D63   D(22,9,10,23)          59.0262         calculate D2E/DX2 analytically  !
 ! D64   D(22,9,10,24)         -59.4483         calculate D2E/DX2 analytically  !
 ! D65   D(9,10,11,1)           45.2746         calculate D2E/DX2 analytically  !
 ! D66   D(9,10,11,25)         -75.9181         calculate D2E/DX2 analytically  !
 ! D67   D(9,10,11,26)         167.5733         calculate D2E/DX2 analytically  !
 ! D68   D(23,10,11,1)         167.0182         calculate D2E/DX2 analytically  !
 ! D69   D(23,10,11,25)         45.8254         calculate D2E/DX2 analytically  !
 ! D70   D(23,10,11,26)        -70.6831         calculate D2E/DX2 analytically  !
 ! D71   D(24,10,11,1)         -74.7036         calculate D2E/DX2 analytically  !
 ! D72   D(24,10,11,25)        164.1037         calculate D2E/DX2 analytically  !
 ! D73   D(24,10,11,26)         47.5951         calculate D2E/DX2 analytically  !
 --------------------------------------------------------------------------------
 Trust Radius=3.00D-01 FncErr=1.00D-07 GrdErr=1.00D-06 EigMax=2.50D+02 EigMin=1.00D-04
 Number of steps in this run=    156 maximum allowed number of steps=    156.
 GradGradGradGradGradGradGradGradGradGradGradGradGradGradGradGradGradGrad

                          Input orientation:                          
 ---------------------------------------------------------------------
 Center     Atomic      Atomic             Coordinates (Angstroms)
 Number     Number       Type             X           Y           Z
 ---------------------------------------------------------------------
      1          7           0       -0.085400   -0.650200   -0.152300
      2          6           0       -1.434300   -1.204700   -0.153600
      3          6           0       -2.454800   -0.146600   -0.519300
      4          6           0       -2.182000    1.090100    0.308400
      5          7           0       -0.835400    1.594600    0.071200
      6          6           0        0.102000    0.716500   -0.085400
      7          7           0        1.407200    1.106600   -0.262700
      8          6           0        1.753500    2.437600   -0.725300
      9          6           0        2.480300    0.314400    0.298100
     10          6           0        2.352500   -1.084500   -0.259500
     11          6           0        0.977800   -1.620700    0.091300
     12          1           0       -1.658600   -1.621300    0.834900
     13          1           0       -1.498900   -2.025600   -0.878800
     14          1           0       -3.468400   -0.518500   -0.335500
     15          1           0       -2.379800    0.097200   -1.586200
     16          1           0       -2.313700    0.887000    1.378500
     17          1           0       -2.901300    1.871600    0.042200
     18          1           0        0.899700    2.963900   -1.164300
     19          1           0        2.513000    2.362700   -1.512800
     20          1           0        2.158400    3.044800    0.089900
     21          1           0        2.403400    0.306200    1.395100
     22          1           0        3.465100    0.726300    0.049600
     23          1           0        3.132100   -1.739500    0.145600
     24          1           0        2.477200   -1.060900   -1.349200
     25          1           0        0.954400   -1.909300    1.148800
     26          1           0        0.799800   -2.531400   -0.493600
 ---------------------------------------------------------------------
                    Distance matrix (angstroms):
                    1          2          3          4          5
     1  N    0.000000
     2  C    1.458425   0.000000
     3  C    2.449971   1.514837   0.000000
     4  C    2.763444   2.457358   1.512922   0.000000
     5  N    2.377305   2.871462   2.450087   1.457435   0.000000
     6  C    1.381109   2.460869   2.733210   2.347618   1.293948
     7  N    2.307897   3.664442   4.068341   3.634389   2.319243
     8  C    3.639284   4.873937   4.942703   4.286310   2.836805
     9  C    2.777792   4.223244   5.023532   4.726400   3.561497
    10  C    2.478601   3.790187   4.904823   5.060937   4.177277
    11  C    1.460002   2.459931   3.785307   4.168921   3.691375
    12  H    2.095843   1.095901   2.154654   2.811199   3.406304
    13  H    2.101787   1.097253   2.138604   3.403477   3.801129
    14  H    3.390516   2.154419   1.095206   2.158014   3.400483
    15  H    2.806946   2.154358   1.096968   2.148135   2.715576
    16  H    3.109928   2.737861   2.165614   1.097137   2.096450
    17  H    3.785049   3.413803   2.141909   1.094987   2.084589
    18  H    3.880243   4.883267   4.619946   3.895747   2.532196
    19  H    4.204784   5.491352   5.653553   5.194161   3.782964
    20  H    4.329703   5.570012   5.642497   4.765256   3.326600
    21  H    3.082738   4.405591   5.241380   4.777165   3.728607
    22  H    3.813341   5.270121   6.010892   5.664721   4.387335
    23  H    3.409930   4.607336   5.847467   6.022690   5.182935
    24  H    2.858000   4.092673   5.084221   5.392827   4.476889
    25  H    2.087912   2.810444   4.184772   4.420371   4.079451
    26  H    2.106888   2.620484   4.034892   4.759159   4.474009
                    6          7          8          9         10
     6  C    0.000000
     7  N    1.373740   0.000000
     8  C    2.469638   1.451028   0.000000
     9  C    2.442349   1.446935   2.466488   0.000000
    10  C    2.887674   2.386320   3.602910   1.511348   0.000000
    11  C    2.502150   2.783499   4.211691   2.458635   1.516697
    12  H    3.067894   4.247975   5.527325   4.600607   4.192230
    13  H    3.272839   4.316906   5.524656   4.763898   4.012790
    14  H    3.786229   5.139818   6.013211   6.040050   5.848847
    15  H    2.965681   4.136654   4.827296   5.217119   5.054821
    16  H    2.829784   4.072697   4.834506   4.947481   5.323841
    17  H    3.220303   4.386498   4.751481   5.608206   6.035890
    18  H    2.617472   2.126030   1.094846   3.414200   4.395319
    19  H    3.249672   2.088859   1.096634   2.734220   3.671472
    20  H    3.111349   2.108376   1.094160   2.757182   4.148599
    21  H    2.767069   2.093169   3.075928   1.099723   2.162022
    22  H    3.365823   2.115919   2.541376   1.096013   2.147654
    23  H    3.907276   3.352950   4.484102   2.160233   1.095859
    24  H    3.224580   2.650177   3.626637   2.145940   1.097066
    25  H    3.024014   3.360508   4.800662   2.827880   2.149020
    26  H    3.347000   3.695578   5.064997   3.398448   2.135228
                   11         12         13         14         15
    11  C    0.000000
    12  H    2.739260   0.000000
    13  H    2.690554   1.767973   0.000000
    14  H    4.600619   2.421029   2.538790   0.000000
    15  H    4.127792   3.055339   2.404720   1.768725   0.000000
    16  H    4.333522   2.648816   3.773929   2.499312   3.068811
    17  H    5.219769   3.791178   4.243010   2.485324   2.464172
    18  H    4.754071   5.618341   5.543456   5.647505   4.376196
    19  H    4.560422   6.227857   5.979505   6.742736   5.392344
    20  H    4.812557   6.074290   6.326388   6.673751   5.665061
    21  H    2.728585   4.530886   5.082899   6.176823   5.640109
    22  H    3.420060   5.690362   5.751189   7.054874   6.102005
    23  H    2.158256   4.841478   4.751569   6.729703   6.062478
    24  H    2.153280   4.710540   4.118409   6.055737   4.998781
    25  H    1.096423   2.647498   3.184866   4.868124   4.756381
    26  H    1.096889   2.938865   2.385002   4.721683   4.267689
                   16         17         18         19         20
    16  H    0.000000
    17  H    1.760798   0.000000
    18  H    4.594049   4.134775   0.000000
    19  H    5.816729   5.654542   1.756596   0.000000
    20  H    5.129939   5.194154   1.778732   1.777540   0.000000
    21  H    4.752750   5.693914   3.984346   3.563297   3.043600
    22  H    5.931807   6.468602   3.614095   2.454668   2.661678
    23  H    6.170517   7.032258   5.368558   4.467843   4.882696
    24  H    5.846998   6.282023   4.326859   3.427694   4.362272
    25  H    4.307265   5.512367   5.394581   5.269092   5.207110
    26  H    4.988396   5.776818   5.536979   5.284509   5.768906
                   21         22         23         24         25
    21  H    0.000000
    22  H    1.764670   0.000000
    23  H    2.505423   2.490035   0.000000
    24  H    3.066854   2.475211   1.767433   0.000000
    25  H    2.658704   3.802400   2.403668   3.046097   0.000000
    26  H    3.767054   4.243996   2.544662   2.389161   1.763062
                   26
    26  H    0.000000
 Stoichiometry    C8H15N3
 Framework group  C1[X(C8H15N3)]
 Deg. of freedom    72
 Full point group                 C1      NOp   1
 Largest Abelian subgroup         C1      NOp   1
 Largest concise Abelian subgroup C1      NOp   1
                         Standard orientation:                         
 ---------------------------------------------------------------------
 Center     Atomic      Atomic             Coordinates (Angstroms)
 Number     Number       Type             X           Y           Z
 ---------------------------------------------------------------------
      1          7           0       -0.358049   -0.839273   -0.080809
      2          6           0       -1.744432   -1.288761   -0.134714
      3          6           0       -2.676191   -0.135752   -0.446370
      4          6           0       -2.326379    1.023154    0.461099
      5          7           0       -0.941782    1.437803    0.273819
      6          6           0       -0.070098    0.502526    0.074508
      7          7           0        1.263592    0.802758   -0.060746
      8          6           0        1.716734    2.129720   -0.433999
      9          6           0        2.264221   -0.101677    0.463046
     10          6           0        2.042026   -1.449700   -0.183201
     11          6           0        0.625015   -1.900790    0.115078
     12          1           0       -2.016863   -1.747476    0.822553
     13          1           0       -1.857365   -2.055985   -0.910973
     14          1           0       -3.717899   -0.440383   -0.299662
     15          1           0       -2.564156    0.167159   -1.494717
     16          1           0       -2.491957    0.764849    1.514461
     17          1           0       -2.980307    1.871901    0.235259
     18          1           0        0.912681    2.745373   -0.850121
     19          1           0        2.482407    2.046287   -1.214634
     20          1           0        2.151359    2.652904    0.423069
     21          1           0        2.167390   -0.171835    1.556248
     22          1           0        3.281361    0.248946    0.253914
     23          1           0        2.763069   -2.185713    0.190011
     24          1           0        2.187538   -1.368291   -1.267522
     25          1           0        0.561241   -2.251617    1.151899
     26          1           0        0.389797   -2.757460   -0.528314
 ---------------------------------------------------------------------
 Rotational constants (GHZ):           1.7858773           1.0408782           0.7057264
 Standard basis: 6-31G(d) (6D, 7F)
 There are   195 symmetry adapted cartesian basis functions of A   symmetry.
 There are   195 symmetry adapted basis functions of A   symmetry.
   195 basis functions,   368 primitive gaussians,   195 cartesian basis functions
    42 alpha electrons       42 beta electrons
       nuclear repulsion energy       674.2561023462 Hartrees.
 NAtoms=   26 NActive=   26 NUniq=   26 SFac= 1.00D+00 NAtFMM=   60 NAOKFM=F Big=F
 Integral buffers will be    131072 words long.
 Raffenetti 2 integral format.
 Two-electron integral symmetry is turned on.
 One-electron integrals computed using PRISM.
 NBasis=   195 RedAO= T EigKep=  1.89D-03  NBF=   195
 NBsUse=   195 1.00D-06 EigRej= -1.00D+00 NBFU=   195
 ExpMin= 1.61D-01 ExpMax= 4.17D+03 ExpMxC= 6.27D+02 IAcc=3 IRadAn=         5 AccDes= 0.00D+00
 Harris functional with IExCor=  402 and IRadAn=       5 diagonalized for initial guess.
 HarFok:  IExCor=  402 AccDes= 0.00D+00 IRadAn=         5 IDoV= 1 UseB2=F ITyADJ=14
 ICtDFT=  3500011 ScaDFX=  1.000000  1.000000  1.000000  1.000000
 FoFCou: FMM=F IPFlag=           0 FMFlag=      100000 FMFlg1=           0
         NFxFlg=           0 DoJE=T BraDBF=F KetDBF=T FulRan=T
         wScrn=  0.000000 ICntrl=       500 IOpCl=  0 I1Cent=   200000004 NGrid=           0
         NMat0=    1 NMatS0=      1 NMatT0=    0 NMatD0=    1 NMtDS0=    0 NMtDT0=    0
 Petite list used in FoFCou.
 Keep R1 ints in memory in canonical form, NReq=186693018.
 Gradient too large for Newton-Raphson -- use scaled steepest descent instead.
     Minimum is close to point  3 DX=  1.81D-02 DF= -5.00D-04 DXR=  4.32D-02 DFR=  1.88D-03 which will be used.
 Gradient too large for Newton-Raphson -- use scaled steepest descent instead.
 Gradient too large for Newton-Raphson -- use scaled steepest descent instead.
     Minimum is close to point  2 DX=  3.43D-02 DF= -2.51D-05 DXR=  7.90D-02 DFR=  6.27D-03 which will be used.
 Gradient too large for Newton-Raphson -- use scaled steepest descent instead.
 Gradient too large for Newton-Raphson -- use scaled steepest descent instead.
     Accept linear search using points  1 and  2.
 Gradient too large for Newton-Raphson -- use scaled steepest descent instead.
     Accept linear search using points  2 and  3.
 LinEq1:  Iter=  0 NonCon=     1 RMS=2.31D-05 Max=4.83D-04 NDo=     1
 AX will form     1 AO Fock derivatives at one time.
 LinEq1:  Iter=  1 NonCon=     1 RMS=2.90D-05 Max=1.57D-03 NDo=     1
 LinEq1:  Iter=  2 NonCon=     1 RMS=3.79D-06 Max=7.86D-05 NDo=     1
 LinEq1:  Iter=  3 NonCon=     1 RMS=1.70D-06 Max=3.18D-05 NDo=     1
 LinEq1:  Iter=  4 NonCon=     1 RMS=9.50D-07 Max=1.55D-05 NDo=     1
 LinEq1:  Iter=  5 NonCon=     1 RMS=3.99D-07 Max=9.29D-06 NDo=     1
 LinEq1:  Iter=  6 NonCon=     1 RMS=2.30D-07 Max=3.28D-06 NDo=     1
 LinEq1:  Iter=  7 NonCon=     1 RMS=8.10D-08 Max=1.02D-06 NDo=     1
 LinEq1:  Iter=  8 NonCon=     1 RMS=3.90D-08 Max=7.35D-07 NDo=     1
 LinEq1:  Iter=  9 NonCon=     1 RMS=1.16D-08 Max=1.79D-07 NDo=     1
 LinEq1:  Iter= 10 NonCon=     0 RMS=6.21D-09 Max=7.15D-08 NDo=     1
 Linear equations converged to 1.134D-08 1.134D-07 after    10 iterations.
     Minimum is close to point  2 DX=  1.69D-04 DF= -1.14D-13 DXR=  1.69D-04 DFR=  3.72D-08 which will be used.
 SCF Done:  E(RB3LYP) =  -478.119920032     a.u. after    8 cycles
            Convg  =    0.6546D-06                    29 Fock formations.
              S**2 =  0.0000                  -V/T =  2.0093
 DoSCS=F DFT=T ScalE2(SS,OS)=  1.000000  1.000000
 Range of M.O.s used for correlation:     1   195
 NBasis=   195 NAE=    42 NBE=    42 NFC=     0 NFV=     0
 NROrb=    195 NOA=    42 NOB=    42 NVA=   153 NVB=   153
 Symmetrizing basis deriv contribution to polar:
 IMax=3 JMax=2 DiffMx= 0.00D+00
 G2DrvN: will do    27 centers at a time, making    1 passes.
 Calling FoFCou, ICntrl=  3107 FMM=F I1Cent=   0 AccDes= 0.00D+00.
 End of G2Drv F.D. properties file   721 does not exist.
 End of G2Drv F.D. properties file   722 does not exist.
 End of G2Drv F.D. properties file   788 does not exist.
          IDoAtm=11111111111111111111111111
          Differentiating once with respect to electric field.
                with respect to dipole field.
          Differentiating once with respect to nuclear coordinates.
 Keep R1 ints in memory in canonical form, NReq=186710250.
          There are    81 degrees of freedom in the 1st order CPHF.  IDoFFX=6 NUNeed=     3.
     78 vectors produced by pass  0 Test12= 7.93D-15 1.23D-09 XBig12= 8.48D+01 4.55D+00.
 AX will form    78 AO Fock derivatives at one time.
     78 vectors produced by pass  1 Test12= 7.93D-15 1.23D-09 XBig12= 9.90D+00 5.73D-01.
     78 vectors produced by pass  2 Test12= 7.93D-15 1.23D-09 XBig12= 5.98D-02 2.69D-02.
     78 vectors produced by pass  3 Test12= 7.93D-15 1.23D-09 XBig12= 1.31D-04 1.26D-03.
     78 vectors produced by pass  4 Test12= 7.93D-15 1.23D-09 XBig12= 1.40D-07 4.08D-05.
     38 vectors produced by pass  5 Test12= 7.93D-15 1.23D-09 XBig12= 1.08D-10 1.07D-06.
      3 vectors produced by pass  6 Test12= 7.93D-15 1.23D-09 XBig12= 7.32D-14 3.58D-08.
 InvSVY:  IOpt=1 It=  1 EMax= 5.33D-15
 Solved reduced A of dimension   431 with    81 vectors.
 Isotropic polarizability for W=    0.000000      101.68 Bohr**3.
 End of Minotr F.D. properties file   721 does not exist.
 End of Minotr F.D. properties file   722 does not exist.
 End of Minotr F.D. properties file   788 does not exist.

 **********************************************************************

            Population analysis using the SCF density.

 **********************************************************************

 Orbital symmetries:
       Occupied  (A) (A) (A) (A) (A) (A) (A) (A) (A) (A) (A) (A)
                 (A) (A) (A) (A) (A) (A) (A) (A) (A) (A) (A) (A)
                 (A) (A) (A) (A) (A) (A) (A) (A) (A) (A) (A) (A)
                 (A) (A) (A) (A) (A) (A)
       Virtual   (A) (A) (A) (A) (A) (A) (A) (A) (A) (A) (A) (A)
                 (A) (A) (A) (A) (A) (A) (A) (A) (A) (A) (A) (A)
                 (A) (A) (A) (A) (A) (A) (A) (A) (A) (A) (A) (A)
                 (A) (A) (A) (A) (A) (A) (A) (A) (A) (A) (A) (A)
                 (A) (A) (A) (A) (A) (A) (A) (A) (A) (A) (A) (A)
                 (A) (A) (A) (A) (A) (A) (A) (A) (A) (A) (A) (A)
                 (A) (A) (A) (A) (A) (A) (A) (A) (A) (A) (A) (A)
                 (A) (A) (A) (A) (A) (A) (A) (A) (A) (A) (A) (A)
                 (A) (A) (A) (A) (A) (A) (A) (A) (A) (A) (A) (A)
                 (A) (A) (A) (A) (A) (A) (A) (A) (A) (A) (A) (A)
                 (A) (A) (A) (A) (A) (A) (A) (A) (A) (A) (A) (A)
                 (A) (A) (A) (A) (A) (A) (A) (A) (A) (A) (A) (A)
                 (A) (A) (A) (A) (A) (A) (A) (A) (A)
 The electronic state is 1-A.
 Alpha  occ. eigenvalues --  -14.33973 -14.32770 -14.26315 -10.25837 -10.21955
 Alpha  occ. eigenvalues --  -10.21607 -10.21231 -10.19656 -10.18831 -10.18539
 Alpha  occ. eigenvalues --  -10.17385  -0.98267  -0.90502  -0.86324  -0.77937
 Alpha  occ. eigenvalues --   -0.77136  -0.70417  -0.66600  -0.65179  -0.62597
 Alpha  occ. eigenvalues --   -0.57288  -0.52196  -0.49969  -0.49312  -0.47041
 Alpha  occ. eigenvalues --   -0.46044  -0.44527  -0.43580  -0.42180  -0.41001
 Alpha  occ. eigenvalues --   -0.40146  -0.39397  -0.38178  -0.36721  -0.35751
 Alpha  occ. eigenvalues --   -0.34546  -0.34041  -0.32316  -0.31125  -0.22133
 Alpha  occ. eigenvalues --   -0.20431  -0.18397
 Alpha virt. eigenvalues --    0.05264   0.08892   0.10602   0.12233   0.12869
 Alpha virt. eigenvalues --    0.13869   0.14361   0.15033   0.16309   0.16698
 Alpha virt. eigenvalues --    0.16799   0.17619   0.17879   0.19048   0.19387
 Alpha virt. eigenvalues --    0.19660   0.20295   0.20828   0.22065   0.24065
 Alpha virt. eigenvalues --    0.24611   0.26012   0.26967   0.28698   0.29433
 Alpha virt. eigenvalues --    0.35103   0.39276   0.45229   0.49920   0.51077
 Alpha virt. eigenvalues --    0.52192   0.53366   0.54285   0.55352   0.56237
 Alpha virt. eigenvalues --    0.57632   0.59376   0.59653   0.61880   0.62124
 Alpha virt. eigenvalues --    0.65108   0.65693   0.67411   0.69777   0.70556
 Alpha virt. eigenvalues --    0.72483   0.74326   0.75786   0.77242   0.78886
 Alpha virt. eigenvalues --    0.81066   0.82241   0.83128   0.84188   0.85692
 Alpha virt. eigenvalues --    0.86466   0.87587   0.87620   0.88630   0.89043
 Alpha virt. eigenvalues --    0.90594   0.91201   0.93301   0.93794   0.94759
 Alpha virt. eigenvalues --    0.95854   0.96220   0.97102   0.98569   1.01587
 Alpha virt. eigenvalues --    1.02529   1.05493   1.06517   1.11179   1.18338
 Alpha virt. eigenvalues --    1.20243   1.23125   1.29583   1.31777   1.34016
 Alpha virt. eigenvalues --    1.36800   1.41318   1.42059   1.44248   1.49928
 Alpha virt. eigenvalues --    1.51546   1.53204   1.56187   1.60355   1.64459
 Alpha virt. eigenvalues --    1.68647   1.75231   1.76852   1.78023   1.82667
 Alpha virt. eigenvalues --    1.84035   1.86591   1.90342   1.91536   1.92617
 Alpha virt. eigenvalues --    1.93001   1.93913   1.96876   1.97064   1.99717
 Alpha virt. eigenvalues --    2.01392   2.02012   2.03984   2.04966   2.07489
 Alpha virt. eigenvalues --    2.11028   2.12150   2.15559   2.19097   2.21960
 Alpha virt. eigenvalues --    2.25120   2.26024   2.29961   2.31451   2.32526
 Alpha virt. eigenvalues --    2.35165   2.37673   2.39601   2.40837   2.42451
 Alpha virt. eigenvalues --    2.45771   2.48273   2.50272   2.56095   2.57615
 Alpha virt. eigenvalues --    2.60456   2.64176   2.68869   2.70106   2.74855
 Alpha virt. eigenvalues --    2.76004   2.80187   2.85863   2.86871   2.88615
 Alpha virt. eigenvalues --    3.23521   3.26337   4.02740   4.10896   4.13191
 Alpha virt. eigenvalues --    4.21747   4.23167   4.29963   4.40514   4.44204
 Alpha virt. eigenvalues --    4.48534   4.51800   4.63886
          Condensed to atoms (all electrons):
               1          2          3          4          5          6
     1  N    7.037751   0.315600  -0.031247  -0.024012  -0.092910   0.308499
     2  C    0.315600   4.907074   0.371847  -0.043238  -0.020182  -0.038306
     3  C   -0.031247   0.371847   5.090731   0.340070  -0.045956  -0.011337
     4  C   -0.024012  -0.043238   0.340070   4.908568   0.321320  -0.056880
     5  N   -0.092910  -0.020182  -0.045956   0.321320   6.923268   0.598115
     6  C    0.308499  -0.038306  -0.011337  -0.056880   0.598115   4.278534
     7  N   -0.099139   0.004695  -0.001149   0.007091  -0.091181   0.301934
     8  C    0.005145  -0.000108   0.000038   0.000122  -0.006997  -0.028442
     9  C   -0.009271   0.000011   0.000058  -0.000267   0.000638  -0.031874
    10  C   -0.036535   0.004534  -0.000276   0.000003   0.000008  -0.012111
    11  C    0.302164  -0.057272   0.004372   0.000554   0.004257  -0.019433
    12  H   -0.056421   0.367669  -0.035804  -0.007304   0.001021  -0.001307
    13  H   -0.047905   0.374414  -0.029429   0.005759  -0.000072   0.001985
    14  H    0.003888  -0.034028   0.349416  -0.025369   0.004680   0.000761
    15  H   -0.001130  -0.039327   0.375874  -0.038685  -0.002341   0.002024
    16  H    0.004346  -0.008478  -0.042537   0.361072  -0.044107  -0.004788
    17  H   -0.000170   0.006162  -0.038519   0.382144  -0.045983   0.002200
    18  H    0.000331  -0.000010   0.000037  -0.000413   0.014462  -0.000687
    19  H    0.000126   0.000001   0.000003  -0.000009   0.000616   0.004114
    20  H   -0.000153   0.000009  -0.000003  -0.000001   0.001187  -0.000974
    21  H   -0.000544   0.000068  -0.000012   0.000014   0.001105   0.002353
    22  H    0.000012   0.000010  -0.000000   0.000005  -0.000112   0.002619
    23  H    0.003715  -0.000094   0.000002  -0.000000   0.000013   0.000451
    24  H    0.000188  -0.000017  -0.000005  -0.000001  -0.000040   0.001043
    25  H   -0.061198  -0.001553  -0.000077  -0.000106   0.000293   0.000924
    26  H   -0.042806  -0.001685   0.000224   0.000018  -0.000188   0.001084
               7          8          9         10         11         12
     1  N   -0.099139   0.005145  -0.009271  -0.036535   0.302164  -0.056421
     2  C    0.004695  -0.000108   0.000011   0.004534  -0.057272   0.367669
     3  C   -0.001149   0.000038   0.000058  -0.000276   0.004372  -0.035804
     4  C    0.007091   0.000122  -0.000267   0.000003   0.000554  -0.007304
     5  N   -0.091181  -0.006997   0.000638   0.000008   0.004257   0.001021
     6  C    0.301934  -0.028442  -0.031874  -0.012111  -0.019433  -0.001307
     7  N    6.991936   0.316203   0.311897  -0.054004  -0.019721  -0.000215
     8  C    0.316203   4.938053  -0.047759   0.003522   0.000310   0.000002
     9  C    0.311897  -0.047759   4.930054   0.362092  -0.035075  -0.000127
    10  C   -0.054004   0.003522   0.362092   5.050134   0.375336   0.000019
    11  C   -0.019721   0.000310  -0.035075   0.375336   4.906867  -0.000713
    12  H   -0.000215   0.000002  -0.000127   0.000019  -0.000713   0.646365
    13  H   -0.000042   0.000005   0.000070   0.000073  -0.005101  -0.053577
    14  H    0.000014  -0.000001   0.000000   0.000002  -0.000043  -0.004453
    15  H   -0.000328  -0.000008   0.000006   0.000006  -0.000096   0.005899
    16  H   -0.000066  -0.000022   0.000079  -0.000008   0.000001   0.002489
    17  H   -0.000084   0.000020  -0.000003   0.000000   0.000012  -0.000021
    18  H   -0.028430   0.373359   0.004474  -0.000221  -0.000013  -0.000000
    19  H   -0.054827   0.374034  -0.002277   0.000612   0.000048   0.000000
    20  H   -0.048592   0.375659  -0.002849  -0.000229  -0.000076  -0.000000
    21  H   -0.054947   0.001349   0.362901  -0.050810  -0.008967  -0.000024
    22  H   -0.035476  -0.003212   0.379736  -0.029142   0.005376  -0.000001
    23  H    0.005790  -0.000198  -0.033267   0.351901  -0.034067   0.000007
    24  H    0.000568   0.000170  -0.040145   0.373720  -0.038405   0.000014
    25  H   -0.000306  -0.000025  -0.009522  -0.038907   0.367956   0.008430
    26  H   -0.000049   0.000028   0.006741  -0.029898   0.370500  -0.002743
              13         14         15         16         17         18
     1  N   -0.047905   0.003888  -0.001130   0.004346  -0.000170   0.000331
     2  C    0.374414  -0.034028  -0.039327  -0.008478   0.006162  -0.000010
     3  C   -0.029429   0.349416   0.375874  -0.042537  -0.038519   0.000037
     4  C    0.005759  -0.025369  -0.038685   0.361072   0.382144  -0.000413
     5  N   -0.000072   0.004680  -0.002341  -0.044107  -0.045983   0.014462
     6  C    0.001985   0.000761   0.002024  -0.004788   0.002200  -0.000687
     7  N   -0.000042   0.000014  -0.000328  -0.000066  -0.000084  -0.028430
     8  C    0.000005  -0.000001  -0.000008  -0.000022   0.000020   0.373359
     9  C    0.000070   0.000000   0.000006   0.000079  -0.000003   0.004474
    10  C    0.000073   0.000002   0.000006  -0.000008   0.000000  -0.000221
    11  C   -0.005101  -0.000043  -0.000096   0.000001   0.000012  -0.000013
    12  H   -0.053577  -0.004453   0.005899   0.002489  -0.000021  -0.000000
    13  H    0.614310  -0.000668  -0.006069   0.000265  -0.000229   0.000001
    14  H   -0.000668   0.612478  -0.033714  -0.001535  -0.001757  -0.000000
    15  H   -0.006069  -0.033714   0.588587   0.006363  -0.006644   0.000029
    16  H    0.000265  -0.001535   0.006363   0.650136  -0.049508   0.000045
    17  H   -0.000229  -0.001757  -0.006644  -0.049508   0.621066  -0.000087
    18  H    0.000001  -0.000000   0.000029   0.000045  -0.000087   0.504459
    19  H   -0.000000   0.000000   0.000002   0.000001  -0.000002  -0.026739
    20  H    0.000000  -0.000000  -0.000001  -0.000008   0.000004  -0.028345
    21  H    0.000002  -0.000000  -0.000001  -0.000042   0.000002  -0.000299
    22  H    0.000000   0.000000  -0.000000   0.000000  -0.000000   0.000260
    23  H   -0.000014  -0.000000  -0.000000  -0.000000   0.000000   0.000003
    24  H   -0.000025  -0.000000  -0.000004  -0.000001   0.000000  -0.000055
    25  H   -0.001777   0.000001   0.000001  -0.000106   0.000001  -0.000002
    26  H    0.009288  -0.000017   0.000003   0.000013  -0.000001   0.000000
              19         20         21         22         23         24
     1  N    0.000126  -0.000153  -0.000544   0.000012   0.003715   0.000188
     2  C    0.000001   0.000009   0.000068   0.000010  -0.000094  -0.000017
     3  C    0.000003  -0.000003  -0.000012  -0.000000   0.000002  -0.000005
     4  C   -0.000009  -0.000001   0.000014   0.000005  -0.000000  -0.000001
     5  N    0.000616   0.001187   0.001105  -0.000112   0.000013  -0.000040
     6  C    0.004114  -0.000974   0.002353   0.002619   0.000451   0.001043
     7  N   -0.054827  -0.048592  -0.054947  -0.035476   0.005790   0.000568
     8  C    0.374034   0.375659   0.001349  -0.003212  -0.000198   0.000170
     9  C   -0.002277  -0.002849   0.362901   0.379736  -0.033267  -0.040145
    10  C    0.000612  -0.000229  -0.050810  -0.029142   0.351901   0.373720
    11  C    0.000048  -0.000076  -0.008967   0.005376  -0.034067  -0.038405
    12  H    0.000000  -0.000000  -0.000024  -0.000001   0.000007   0.000014
    13  H   -0.000000   0.000000   0.000002   0.000000  -0.000014  -0.000025
    14  H    0.000000  -0.000000  -0.000000   0.000000  -0.000000  -0.000000
    15  H    0.000002  -0.000001  -0.000001  -0.000000  -0.000000  -0.000004
    16  H    0.000001  -0.000008  -0.000042   0.000000  -0.000000  -0.000001
    17  H   -0.000002   0.000004   0.000002  -0.000000   0.000000   0.000000
    18  H   -0.026739  -0.028345  -0.000299   0.000260   0.000003  -0.000055
    19  H    0.616041  -0.051414  -0.000699   0.004394  -0.000077   0.000150
    20  H   -0.051414   0.613476   0.003735  -0.001271   0.000026   0.000042
    21  H   -0.000699   0.003735   0.636528  -0.042704   0.001866   0.006171
    22  H    0.004394  -0.001271  -0.042704   0.578246  -0.003380  -0.005321
    23  H   -0.000077   0.000026   0.001866  -0.003380   0.608083  -0.030994
    24  H    0.000150   0.000042   0.006171  -0.005321  -0.030994   0.582725
    25  H    0.000003  -0.000002   0.004611  -0.000177  -0.002968   0.006345
    26  H   -0.000000   0.000000  -0.000007  -0.000170  -0.001377  -0.007935
              25         26
     1  N   -0.061198  -0.042806
     2  C   -0.001553  -0.001685
     3  C   -0.000077   0.000224
     4  C   -0.000106   0.000018
     5  N    0.000293  -0.000188
     6  C    0.000924   0.001084
     7  N   -0.000306  -0.000049
     8  C   -0.000025   0.000028
     9  C   -0.009522   0.006741
    10  C   -0.038907  -0.029898
    11  C    0.367956   0.370500
    12  H    0.008430  -0.002743
    13  H   -0.001777   0.009288
    14  H    0.000001  -0.000017
    15  H    0.000001   0.000003
    16  H   -0.000106   0.000013
    17  H    0.000001  -0.000001
    18  H   -0.000002   0.000000
    19  H    0.000003  -0.000000
    20  H   -0.000002   0.000000
    21  H    0.004611  -0.000007
    22  H   -0.000177  -0.000170
    23  H   -0.002968  -0.001377
    24  H    0.006345  -0.007935
    25  H    0.646672  -0.052997
    26  H   -0.052997   0.610218
 Mulliken charges:
               1
     1  N   -0.478325
     2  C   -0.107798
     3  C   -0.296320
     4  C   -0.130454
     5  N   -0.520912
     6  C    0.699499
     7  N   -0.451570
     8  C   -0.301252
     9  C   -0.146321
    10  C   -0.269818
    11  C   -0.118770
    12  H    0.130795
    13  H    0.138737
    14  H    0.130344
    15  H    0.149555
    16  H    0.126395
    17  H    0.131396
    18  H    0.187841
    19  H    0.135899
    20  H    0.139781
    21  H    0.138353
    22  H    0.150309
    23  H    0.134580
    24  H    0.151813
    25  H    0.134485
    26  H    0.141758
 Sum of Mulliken charges =   0.00000
 Mulliken charges with hydrogens summed into heavy atoms:
               1
     1  N   -0.478325
     2  C    0.161734
     3  C   -0.016421
     4  C    0.127337
     5  N   -0.520912
     6  C    0.699499
     7  N   -0.451570
     8  C    0.162270
     9  C    0.142341
    10  C    0.016574
    11  C    0.157472
 APT charges:
               1
     1  N   -0.775088
     2  C    0.394816
     3  C    0.048662
     4  C    0.448072
     5  N   -0.845510
     6  C    1.170065
     7  N   -0.844890
     8  C    0.388867
     9  C    0.406555
    10  C    0.084318
    11  C    0.436833
    12  H   -0.095838
    13  H   -0.070376
    14  H   -0.050990
    15  H   -0.032898
    16  H   -0.094486
    17  H   -0.077720
    18  H    0.036652
    19  H   -0.071873
    20  H   -0.079604
    21  H   -0.093051
    22  H   -0.029676
    23  H   -0.051406
    24  H   -0.032223
    25  H   -0.108047
    26  H   -0.061164
 Sum of APT charges =   0.00000
 APT charges with hydrogens summed into heavy atoms:
               1
     1  N   -0.775088
     2  C    0.228602
     3  C   -0.035226
     4  C    0.275865
     5  N   -0.845510
     6  C    1.170065
     7  N   -0.844890
     8  C    0.274042
     9  C    0.283828
    10  C    0.000689
    11  C    0.267622
 Electronic spatial extent (au):  <R**2>=           1732.7480
 Charge=              0.0000 electrons
 Dipole moment (field-independent basis, Debye):
    X=              1.2239    Y=             -2.6511    Z=             -0.2537  Tot=              2.9310
 Quadrupole moment (field-independent basis, Debye-Ang):
   XX=            -61.0670   YY=            -68.6556   ZZ=            -67.6858
   XY=              2.1663   XZ=              0.4737   YZ=             -1.5139
 Traceless Quadrupole moment (field-independent basis, Debye-Ang):
   XX=              4.7358   YY=             -2.8528   ZZ=             -1.8830
   XY=              2.1663   XZ=              0.4737   YZ=             -1.5139
 Octapole moment (field-independent basis, Debye-Ang**2):
  XXX=              3.7904  YYY=             -8.5730  ZZZ=             -0.5871  XYY=              7.1176
  XXY=              0.4454  XXZ=              0.3298  XZZ=              0.5899  YZZ=             -0.6250
  YYZ=             -5.0984  XYZ=             -0.4101
 Hexadecapole moment (field-independent basis, Debye-Ang**3):
 XXXX=          -1335.0904 YYYY=           -808.8041 ZZZZ=           -159.2690 XXXY=             -0.8255
 XXXZ=             -1.2177 YYYX=             11.0792 YYYZ=             -5.8539 ZZZX=             -0.6771
 ZZZY=             -0.9091 XXYY=           -356.9495 XXZZ=           -256.1440 YYZZ=           -160.3166
 XXYZ=             -1.4624 YYXZ=              1.5577 ZZXY=              1.6405
 N-N= 6.742561023462D+02 E-N=-2.457638213004D+03  KE= 4.737265089035D+02
  Exact polarizability: 122.902  -3.381 105.491  -1.406  -0.157  76.644
 Approx polarizability: 157.100 -10.023 149.808  -4.011   0.793 116.506
 Calling FoFJK, ICntrl=    100127 FMM=F ISym2X=0 I1Cent= 0 IOpClX= 0 NMat=1 NMatS=1 NMatT=0.
 ***** Axes restored to original set *****
 -------------------------------------------------------------------
 Center     Atomic                   Forces (Hartrees/Bohr)
 Number     Number              X              Y              Z
 -------------------------------------------------------------------
      1        7          -0.001762406   -0.018555969   -0.005912178
      2        6           0.000396521   -0.000239445    0.000644935
      3        6          -0.007253257   -0.002978585    0.001332874
      4        6           0.006090740    0.010225439   -0.009483430
      5        7           0.004968638    0.002574865    0.001049915
      6        6          -0.013527963    0.006655002    0.004315481
      7        7           0.015952959    0.018355547   -0.013697707
      8        6          -0.003096142    0.003488465    0.000383424
      9        6          -0.000797467   -0.003083929   -0.000506477
     10        6           0.005306233   -0.005506993   -0.000522142
     11        6          -0.001565323   -0.001326541   -0.000825942
     12        1          -0.002792483   -0.003254800    0.003647660
     13        1           0.004683881   -0.002675803    0.000433926
     14        1          -0.000890159   -0.003090711   -0.000990579
     15        1           0.000377695    0.000862590    0.000429340
     16        1          -0.001971422   -0.002109683    0.002813532
     17        1          -0.000431006    0.002587337    0.001590403
     18        1          -0.001870075   -0.005516289    0.005922405
     19        1           0.003561432   -0.000981202    0.000683221
     20        1           0.000743221    0.005239501    0.001317152
     21        1           0.003131495   -0.001750934    0.003441100
     22        1          -0.004340548    0.005076736   -0.002190065
     23        1          -0.000942626   -0.002500254    0.000885624
     24        1           0.000192673    0.001910275    0.000601824
     25        1           0.001051417   -0.003592556    0.004765317
     26        1          -0.005216027    0.000187936   -0.000129611
 -------------------------------------------------------------------
 Cartesian Forces:  Max     0.018555969 RMS     0.005302612
 FormGI is forming the generalized inverse of G from B-inverse, IUseBI=4.

 GradGradGradGradGradGradGradGradGradGradGradGradGradGradGradGradGradGrad
 Berny optimization.
 Internal  Forces:  Max     0.017121824 RMS     0.003495482
 Search for a local minimum.
 Step number   1 out of a maximum of  156
 All quantities printed in internal units (Hartrees-Bohrs-Radians)
 Mixed Optimization -- RFO/linear search
 Second derivative matrix not updated -- analytic derivatives used.
 ITU=  0
     Eigenvalues ---   -0.00090   0.00129   0.00145   0.00261   0.00551
     Eigenvalues ---    0.00596   0.00647   0.01232   0.02225   0.03019
     Eigenvalues ---    0.03293   0.03767   0.04083   0.04216   0.04309
     Eigenvalues ---    0.04756   0.04881   0.04989   0.05046   0.06231
     Eigenvalues ---    0.06281   0.06320   0.06656   0.06888   0.06977
     Eigenvalues ---    0.07661   0.07995   0.08522   0.08805   0.09287
     Eigenvalues ---    0.09983   0.10209   0.10705   0.10965   0.11466
     Eigenvalues ---    0.12914   0.16380   0.17432   0.18365   0.19750
     Eigenvalues ---    0.20565   0.20841   0.21829   0.23010   0.23680
     Eigenvalues ---    0.27027   0.28289   0.28763   0.29107   0.29815
     Eigenvalues ---    0.29845   0.31839   0.32383   0.32494   0.32652
     Eigenvalues ---    0.32973   0.33013   0.33219   0.33324   0.33425
     Eigenvalues ---    0.33828   0.34001   0.34151   0.34246   0.34403
     Eigenvalues ---    0.34767   0.36659   0.37034   0.38129   0.38893
     Eigenvalues ---    0.43825   0.63432
 RFO step:  Lambda=-1.20120338D-02 EMin=-8.95254954D-04
 Linear search not attempted -- first point.
 Iteration  1 RMS(Cart)=  0.08818826 RMS(Int)=  0.04215697
 Iteration  2 RMS(Cart)=  0.06941451 RMS(Int)=  0.00495294
 Iteration  3 RMS(Cart)=  0.00517619 RMS(Int)=  0.00357679
 Iteration  4 RMS(Cart)=  0.00001693 RMS(Int)=  0.00357675
 Iteration  5 RMS(Cart)=  0.00000005 RMS(Int)=  0.00357675
 Variable       Old X    -DE/DX   Delta X   Delta X   Delta X     New X
                                 (Linear)    (Quad)   (Total)
    R1        2.75602   0.00110   0.00000   0.00286   0.00307   2.75909
    R2        2.60992   0.01712   0.00000   0.03253   0.03294   2.64286
    R3        2.75900   0.00067   0.00000  -0.00342  -0.00677   2.75223
    R4        2.86263   0.00730   0.00000   0.01952   0.01909   2.88172
    R5        2.07095   0.00510   0.00000   0.01508   0.01508   2.08604
    R6        2.07351   0.00144   0.00000   0.00400   0.00400   2.07751
    R7        2.85901   0.00943   0.00000   0.02794   0.02755   2.88656
    R8        2.06964   0.00171   0.00000   0.00275   0.00275   2.07239
    R9        2.07297  -0.00020   0.00000   0.00020   0.00020   2.07317
   R10        2.75415   0.00023   0.00000  -0.00731  -0.00752   2.74663
   R11        2.07329   0.00337   0.00000   0.01155   0.01155   2.08484
   R12        2.06923   0.00174   0.00000   0.00385   0.00385   2.07308
   R13        2.44521  -0.00256   0.00000  -0.00666  -0.00630   2.43891
   R14        2.59599   0.01289   0.00000   0.03563   0.03815   2.63414
   R15        2.74205  -0.00076   0.00000   0.00192   0.00192   2.74397
   R16        2.73431   0.00434   0.00000   0.01167   0.01546   2.74977
   R17        2.06896  -0.00357   0.00000  -0.01264  -0.01264   2.05631
   R18        2.07234   0.00204   0.00000  -0.00228  -0.00228   2.07006
   R19        2.06766   0.00416   0.00000   0.01616   0.01616   2.08383
   R20        2.85603   0.01019   0.00000   0.02151   0.02099   2.87703
   R21        2.07817   0.00323   0.00000   0.01371   0.01371   2.09188
   R22        2.07116  -0.00150   0.00000  -0.00254  -0.00254   2.06863
   R23        2.86614   0.00900   0.00000   0.01946   0.01737   2.88351
   R24        2.07087   0.00115   0.00000   0.00048   0.00048   2.07135
   R25        2.07315  -0.00054   0.00000  -0.00317  -0.00317   2.06998
   R26        2.07194   0.00552   0.00000   0.01646   0.01646   2.08840
   R27        2.07282   0.00076   0.00000   0.00220   0.00220   2.07503
    A1        2.09645  -0.00101   0.00000  -0.00992  -0.00989   2.08656
    A2        2.00529   0.00121   0.00000   0.00069  -0.00110   2.00419
    A3        2.15424  -0.00036   0.00000  -0.00482  -0.00492   2.14931
    A4        1.93663  -0.00223   0.00000  -0.00022  -0.00034   1.93628
    A5        1.91031   0.00205   0.00000   0.01880   0.01886   1.92917
    A6        1.91717  -0.00261   0.00000  -0.03300  -0.03292   1.88425
    A7        1.92346   0.00049   0.00000   0.00200   0.00186   1.92532
    A8        1.90007   0.00363   0.00000   0.02366   0.02370   1.92376
    A9        1.87517  -0.00131   0.00000  -0.01190  -0.01190   1.86327
   A10        1.89380   0.00163   0.00000   0.00340   0.00265   1.89645
   A11        1.92386  -0.00200   0.00000  -0.00456  -0.00433   1.91953
   A12        1.92194  -0.00010   0.00000  -0.01113  -0.01110   1.91084
   A13        1.93118   0.00278   0.00000   0.01906   0.01922   1.95040
   A14        1.91568  -0.00260   0.00000  -0.00865  -0.00841   1.90728
   A15        1.87755   0.00024   0.00000   0.00166   0.00153   1.87909
   A16        1.93962   0.00261   0.00000   0.01932   0.01863   1.95825
   A17        1.93975  -0.00422   0.00000  -0.03245  -0.03210   1.90765
   A18        1.90917   0.00325   0.00000   0.01949   0.01926   1.92843
   A19        1.91106   0.00054   0.00000   0.00201   0.00219   1.91325
   A20        1.89687  -0.00185   0.00000   0.00228   0.00209   1.89896
   A21        1.86542  -0.00040   0.00000  -0.01110  -0.01103   1.85439
   A22        2.04221  -0.00140   0.00000   0.00845   0.00891   2.05112
   A23        2.18843   0.00275   0.00000   0.01173   0.00975   2.19817
   A24        1.98632   0.00345   0.00000   0.01244   0.01751   2.00384
   A25        2.10740  -0.00619   0.00000  -0.02494  -0.02828   2.07911
   A26        2.12748  -0.00390   0.00000  -0.06227  -0.08425   2.04323
   A27        2.09340  -0.00612   0.00000  -0.02270  -0.03423   2.05917
   A28        2.03619   0.00990   0.00000   0.00571  -0.02378   2.01241
   A29        1.96347  -0.01051   0.00000  -0.06133  -0.06133   1.90214
   A30        1.90877   0.00025   0.00000  -0.01768  -0.01777   1.89100
   A31        1.93888   0.00603   0.00000   0.03637   0.03652   1.97541
   A32        1.85979   0.00596   0.00000   0.05836   0.05809   1.91787
   A33        1.89711   0.00005   0.00000  -0.01370  -0.01347   1.88364
   A34        1.89298  -0.00157   0.00000   0.00050   0.00057   1.89355
   A35        1.87660   0.00382   0.00000   0.01713   0.02329   1.89989
   A36        1.91648   0.00301   0.00000   0.03197   0.03237   1.94885
   A37        1.95276  -0.00742   0.00000  -0.05604  -0.06000   1.89276
   A38        1.93394  -0.00517   0.00000  -0.01934  -0.02257   1.91137
   A39        1.91791   0.00522   0.00000   0.02601   0.02569   1.94360
   A40        1.86691   0.00035   0.00000  -0.00045   0.00078   1.86769
   A41        1.89498   0.00150   0.00000   0.00496   0.00266   1.89764
   A42        1.93552   0.00171   0.00000   0.00150   0.00313   1.93865
   A43        1.91446  -0.00238   0.00000  -0.01068  -0.01093   1.90353
   A44        1.92623  -0.00249   0.00000  -0.00979  -0.01126   1.91497
   A45        1.91811   0.00090   0.00000   0.00073   0.00359   1.92169
   A46        1.87463   0.00071   0.00000   0.01314   0.01279   1.88742
   A47        1.96757  -0.00116   0.00000  -0.01172  -0.01197   1.95560
   A48        1.89690   0.00251   0.00000   0.02740   0.02676   1.92365
   A49        1.92277  -0.00390   0.00000  -0.03575  -0.03467   1.88809
   A50        1.91291  -0.00088   0.00000   0.00214   0.00171   1.91462
   A51        1.89365   0.00440   0.00000   0.02620   0.02644   1.92009
   A52        1.86743  -0.00099   0.00000  -0.00832  -0.00827   1.85916
    D1        0.31665   0.00150   0.00000   0.05533   0.05521   0.37186
    D2       -1.80988   0.00097   0.00000   0.04037   0.04022  -1.76967
    D3        2.41844   0.00289   0.00000   0.06310   0.06304   2.48148
    D4       -3.06503   0.00079   0.00000  -0.00610  -0.00611  -3.07114
    D5        1.09163   0.00026   0.00000  -0.02106  -0.02110   1.07053
    D6       -0.96324   0.00217   0.00000   0.00167   0.00172  -0.96152
    D7        0.08732  -0.00095   0.00000  -0.03725  -0.03778   0.04955
    D8       -3.00534  -0.00096   0.00000  -0.01838  -0.01670  -3.02204
    D9       -2.79286  -0.00038   0.00000   0.02895   0.02842  -2.76444
   D10        0.39766  -0.00039   0.00000   0.04782   0.04949   0.44716
   D11        2.88793   0.00103   0.00000   0.01242   0.01371   2.90165
   D12       -1.27095   0.00091   0.00000   0.02666   0.02674  -1.24421
   D13        0.76988  -0.00103   0.00000   0.01239   0.01221   0.78209
   D14       -0.50268   0.00020   0.00000  -0.05205  -0.05082  -0.55349
   D15        1.62163   0.00008   0.00000  -0.03781  -0.03779   1.58384
   D16       -2.62073  -0.00186   0.00000  -0.05208  -0.05232  -2.67305
   D17       -0.83919   0.00121   0.00000  -0.01080  -0.01088  -0.85007
   D18       -2.95644  -0.00201   0.00000  -0.03360  -0.03360  -2.99004
   D19        1.25789  -0.00102   0.00000  -0.02594  -0.02609   1.23180
   D20        1.27964   0.00264   0.00000   0.01410   0.01404   1.29368
   D21       -0.83761  -0.00058   0.00000  -0.00870  -0.00868  -0.84629
   D22       -2.90647   0.00041   0.00000  -0.00104  -0.00116  -2.90763
   D23       -2.95109   0.00349   0.00000   0.01489   0.01490  -2.93619
   D24        1.21484   0.00026   0.00000  -0.00792  -0.00782   1.20702
   D25       -0.85402   0.00126   0.00000  -0.00026  -0.00031  -0.85432
   D26        1.02943  -0.00118   0.00000  -0.04357  -0.04399   0.98544
   D27       -1.10357  -0.00074   0.00000  -0.03695  -0.03707  -1.14064
   D28        3.12392   0.00027   0.00000  -0.01591  -0.01599   3.10793
   D29       -3.14102  -0.00088   0.00000  -0.03525  -0.03554   3.10663
   D30        1.00917  -0.00044   0.00000  -0.02863  -0.02862   0.98055
   D31       -1.04653   0.00057   0.00000  -0.00759  -0.00754  -1.05407
   D32       -1.07154  -0.00050   0.00000  -0.02690  -0.02712  -1.09866
   D33        3.07865  -0.00006   0.00000  -0.02028  -0.02020   3.05844
   D34        1.02295   0.00095   0.00000   0.00075   0.00088   1.02383
   D35       -0.66482   0.00368   0.00000   0.06346   0.06321  -0.60161
   D36        1.48474   0.00047   0.00000   0.03678   0.03653   1.52127
   D37       -2.76659  -0.00076   0.00000   0.02589   0.02572  -2.74088
   D38        0.09543  -0.00175   0.00000  -0.02628  -0.02577   0.06967
   D39       -3.09825  -0.00147   0.00000  -0.04531  -0.04642   3.13851
   D40        2.72829   0.00343   0.00000   0.37743   0.37062   3.09891
   D41       -0.66496   0.00426   0.00000   0.00292   0.00427  -0.66069
   D42       -0.36689   0.00316   0.00000   0.39425   0.38908   0.02219
   D43        2.52304   0.00398   0.00000   0.01974   0.02273   2.54578
   D44       -0.27527   0.00051   0.00000  -0.33435  -0.32982  -0.60509
   D45       -2.33822  -0.00056   0.00000  -0.35745  -0.35327  -2.69149
   D46        1.85603  -0.00253   0.00000  -0.36939  -0.36513   1.49091
   D47        3.11019   0.00183   0.00000   0.03205   0.02793   3.13812
   D48        1.04724   0.00076   0.00000   0.00895   0.00448   1.05172
   D49       -1.04169  -0.00122   0.00000  -0.00299  -0.00738  -1.04907
   D50        1.00090  -0.00385   0.00000  -0.02921  -0.02829   0.97261
   D51       -1.10464  -0.00166   0.00000  -0.03472  -0.03506  -1.13969
   D52        3.10835   0.00061   0.00000  -0.01980  -0.01850   3.08984
   D53       -2.37953  -0.00487   0.00000  -0.39401  -0.39681  -2.77634
   D54        1.79812  -0.00268   0.00000  -0.39952  -0.40357   1.39454
   D55       -0.27209  -0.00041   0.00000  -0.38460  -0.38702  -0.65911
   D56       -1.00459  -0.00269   0.00000  -0.00168  -0.00592  -1.01051
   D57       -3.12373  -0.00166   0.00000   0.00630   0.00435  -3.11937
   D58        1.09169  -0.00210   0.00000  -0.00413  -0.00645   1.08524
   D59        1.08990   0.00034   0.00000   0.03664   0.03471   1.12460
   D60       -1.02924   0.00137   0.00000   0.04462   0.04498  -0.98426
   D61       -3.09701   0.00093   0.00000   0.03419   0.03417  -3.06283
   D62       -3.13385   0.00085   0.00000   0.04046   0.03747  -3.09638
   D63        1.03020   0.00189   0.00000   0.04843   0.04774   1.07794
   D64       -1.03757   0.00145   0.00000   0.03801   0.03694  -1.00063
   D65        0.79019   0.00032   0.00000   0.02235   0.02097   0.81117
   D66       -1.32502  -0.00148   0.00000  -0.00623  -0.00627  -1.33129
   D67        2.92471  -0.00229   0.00000  -0.01226  -0.01248   2.91222
   D68        2.91502   0.00185   0.00000   0.02128   0.01953   2.93455
   D69        0.79980   0.00005   0.00000  -0.00730  -0.00772   0.79209
   D70       -1.23365  -0.00076   0.00000  -0.01333  -0.01393  -1.24758
   D71       -1.30382   0.00177   0.00000   0.03190   0.03054  -1.27328
   D72        2.86415  -0.00003   0.00000   0.00332   0.00330   2.86745
   D73        0.83069  -0.00084   0.00000  -0.00271  -0.00291   0.82778
         Item               Value     Threshold  Converged?
 Maximum Force            0.017122     0.000450     NO 
 RMS     Force            0.003495     0.000300     NO 
 Maximum Displacement     0.654934     0.001800     NO 
 RMS     Displacement     0.151569     0.001200     NO 
 Predicted change in Energy=-1.077359D-02
 GradGradGradGradGradGradGradGradGradGradGradGradGradGradGradGradGradGrad

                          Input orientation:                          
 ---------------------------------------------------------------------
 Center     Atomic      Atomic             Coordinates (Angstroms)
 Number     Number       Type             X           Y           Z
 ---------------------------------------------------------------------
      1          7           0       -0.077236   -0.691049   -0.182485
      2          6           0       -1.436241   -1.213784   -0.074805
      3          6           0       -2.457714   -0.171631   -0.517471
      4          6           0       -2.140362    1.150322    0.178942
      5          7           0       -0.782152    1.596722   -0.082831
      6          6           0        0.130244    0.691864   -0.203052
      7          7           0        1.443764    1.082552   -0.458132
      8          6           0        1.704035    2.508450   -0.544793
      9          6           0        2.516905    0.288540    0.120899
     10          6           0        2.347668   -1.160167   -0.315546
     11          6           0        0.973400   -1.649341    0.132156
     12          1           0       -1.644874   -1.539900    0.958963
     13          1           0       -1.506584   -2.108511   -0.709729
     14          1           0       -3.471875   -0.519309   -0.286687
     15          1           0       -2.392305   -0.033557   -1.603854
     16          1           0       -2.289327    1.034778    1.265963
     17          1           0       -2.838202    1.932291   -0.145107
     18          1           0        0.842327    2.998976   -0.993036
     19          1           0        2.588006    2.659994   -1.173758
     20          1           0        1.888578    2.976459    0.436476
     21          1           0        2.515601    0.344208    1.226472
     22          1           0        3.473301    0.698297   -0.219257
     23          1           0        3.126693   -1.796584    0.119832
     24          1           0        2.430728   -1.217268   -1.406285
     25          1           0        0.987552   -1.857961    1.217328
     26          1           0        0.731868   -2.598091   -0.365100
 ---------------------------------------------------------------------
                    Distance matrix (angstroms):
                    1          2          3          4          5
     1  N    0.000000
     2  C    1.460049   0.000000
     3  C    2.459408   1.524941   0.000000
     4  C    2.788865   2.479753   1.527503   0.000000
     5  N    2.395983   2.885627   2.474570   1.453455   0.000000
     6  C    1.398541   2.470185   2.746272   2.347713   1.290615
     7  N    2.352676   3.703314   4.098540   3.640937   2.315151
     8  C    3.679807   4.892571   4.950125   4.140978   2.688082
     9  C    2.789480   4.233514   5.036478   4.736684   3.554802
    10  C    2.473446   3.791939   4.910161   5.072011   4.177363
    11  C    1.456420   2.457420   3.791858   4.187579   3.696635
    12  H    2.116824   1.103883   2.170882   2.844510   3.415848
    13  H    2.080919   1.099369   2.166360   3.436772   3.827081
    14  H    3.400578   2.161249   1.096660   2.185728   3.428375
    15  H    2.795019   2.155223   1.097074   2.154857   2.750257
    16  H    3.157504   2.753443   2.159726   1.103248   2.099190
    17  H    3.808706   3.445029   2.170234   1.097025   2.084185
    18  H    3.888299   4.876717   4.600999   3.699661   2.331035
    19  H    4.394954   5.692839   5.823067   5.144548   3.698464
    20  H    4.206917   5.373450   5.450756   4.430966   3.050599
    21  H    3.127254   4.442715   5.295404   4.839952   3.762744
    22  H    3.812866   5.270723   6.001887   5.645893   4.351398
    23  H    3.402758   4.604118   5.850832   6.035696   5.180219
    24  H    2.839802   4.089780   5.077422   5.386399   4.471316
    25  H    2.110672   2.821231   4.209881   4.462271   4.093544
    26  H    2.079617   2.588682   4.010531   4.753556   4.468600
                    6          7          8          9         10
     6  C    0.000000
     7  N    1.393929   0.000000
     8  C    2.427672   1.452045   0.000000
     9  C    2.442082   1.455116   2.455992   0.000000
    10  C    2.891304   2.422222   3.731697   1.522457   0.000000
    11  C    2.510880   2.834242   4.275431   2.477482   1.525890
    12  H    3.079301   4.292447   5.464944   4.622331   4.208202
    13  H    3.282991   4.353245   5.625976   4.756496   3.988734
    14  H    3.801210   5.172897   6.001999   6.056751   5.854794
    15  H    2.975187   4.156177   4.935930   5.213334   5.039477
    16  H    2.851301   4.112269   4.625742   4.996789   5.368489
    17  H    3.217715   4.376674   4.596045   5.608016   6.040330
    18  H    2.540454   2.078588   1.088154   3.375133   4.474764
    19  H    3.294906   2.075989   1.095430   2.702773   3.922743
    20  H    2.952983   2.141277   1.102714   2.778361   4.229418
    21  H    2.802558   2.128822   2.912038   1.106975   2.160825
    22  H    3.343103   2.079359   2.552044   1.094669   2.174904
    23  H    3.908367   3.384630   4.582466   2.172461   1.096112
    24  H    3.222543   2.676241   3.892457   2.146433   1.095387
    25  H    3.042050   3.414955   4.762769   2.854566   2.164841
    26  H    3.348435   3.750012   5.201361   3.428584   2.163537
                   11         12         13         14         15
    11  C    0.000000
    12  H    2.747899   0.000000
    13  H    2.658934   1.768326   0.000000
    14  H    4.605744   2.435403   2.562596   0.000000
    15  H    4.117336   3.065250   2.426807   1.770976   0.000000
    16  H    4.374403   2.671804   3.794248   2.494861   3.063951
    17  H    5.237678   3.833942   4.291862   2.536125   2.488237
    18  H    4.784359   5.531534   5.628861   5.611560   4.475734
    19  H    4.783590   6.332842   6.302351   6.900509   5.678353
    20  H    4.725271   5.758105   6.220758   6.440327   5.616858
    21  H    2.747754   4.575038   5.093396   6.235799   5.678116
    22  H    3.447376   5.709067   5.737420   7.051424   6.071083
    23  H    2.158356   4.851585   4.717280   6.733335   6.044725
    24  H    2.162705   4.723243   4.096576   6.048254   4.970096
    25  H    1.105134   2.664129   3.161810   4.892908   4.765601
    26  H    1.098056   2.919215   2.317138   4.690303   4.227505
                   16         17         18         19         20
    16  H    0.000000
    17  H    1.760089   0.000000
    18  H    4.332252   3.924678   0.000000
    19  H    5.690513   5.570584   1.787447   0.000000
    20  H    4.681138   4.875548   1.771625   1.783874   0.000000
    21  H    4.854460   5.750343   3.843678   3.336048   2.818865
    22  H    5.960451   6.431431   3.579649   2.354373   2.851553
    23  H    6.217998   7.039508   5.427173   4.671686   4.941168
    24  H    5.872950   6.266731   4.524434   3.887411   4.612704
    25  H    4.371298   5.555055   5.338225   5.356367   4.979277
    26  H    4.998572   5.772188   5.633264   5.634415   5.749444
                   21         22         23         24         25
    21  H    0.000000
    22  H    1.769944   0.000000
    23  H    2.486177   2.541565   0.000000
    24  H    3.062160   2.483019   1.774545   0.000000
    25  H    2.680404   3.844110   2.405034   3.062123   0.000000
    26  H    3.791033   4.289860   2.571528   2.424225   1.765573
                   26
    26  H    0.000000
 Stoichiometry    C8H15N3
 Framework group  C1[X(C8H15N3)]
 Deg. of freedom    72
 Full point group                 C1      NOp   1
 Largest Abelian subgroup         C1      NOp   1
 Largest concise Abelian subgroup C1      NOp   1
                         Standard orientation:                         
 ---------------------------------------------------------------------
 Center     Atomic      Atomic             Coordinates (Angstroms)
 Number     Number       Type             X           Y           Z
 ---------------------------------------------------------------------
      1          7           0       -0.356619   -0.874570   -0.076012
      2          6           0       -1.749931   -1.307191   -0.018881
      3          6           0       -2.689836   -0.170690   -0.406680
      4          6           0       -2.294224    1.079526    0.376720
      5          7           0       -0.904354    1.445899    0.160934
      6          6           0       -0.054351    0.489097   -0.005538
      7          7           0        1.287003    0.802694   -0.218764
      8          6           0        1.645994    2.209640   -0.210839
      9          6           0        2.293189   -0.098937    0.321618
     10          6           0        2.032243   -1.502013   -0.208628
     11          6           0        0.620289   -1.921554    0.189758
     12          1           0       -1.997834   -1.682394    0.989248
     13          1           0       -1.870851   -2.153125   -0.710536
     14          1           0       -3.729217   -0.460772   -0.211226
     15          1           0       -2.596824    0.030579   -1.481115
     16          1           0       -2.469044    0.906463    1.452194
     17          1           0       -2.931168    1.927003    0.094677
     18          1           0        0.827669    2.786179   -0.637484
     19          1           0        2.548744    2.338568   -0.817787
     20          1           0        1.845696    2.600999    0.800564
     21          1           0        2.277105   -0.112988    1.428387
     22          1           0        3.281055    0.263852    0.020275
     23          1           0        2.758290   -2.217236    0.194824
     24          1           0        2.129532   -1.496013   -1.299669
     25          1           0        0.601816   -2.198519    1.259464
     26          1           0        0.322582   -2.818021   -0.370104
 ---------------------------------------------------------------------
 Rotational constants (GHZ):           1.7425228           1.0609710           0.6970678
 Standard basis: 6-31G(d) (6D, 7F)
 There are   195 symmetry adapted cartesian basis functions of A   symmetry.
 There are   195 symmetry adapted basis functions of A   symmetry.
   195 basis functions,   368 primitive gaussians,   195 cartesian basis functions
    42 alpha electrons       42 beta electrons
       nuclear repulsion energy       672.4851422949 Hartrees.
 NAtoms=   26 NActive=   26 NUniq=   26 SFac= 1.00D+00 NAtFMM=   60 NAOKFM=F Big=F
 Integral buffers will be    131072 words long.
 Raffenetti 2 integral format.
 Two-electron integral symmetry is turned on.
 One-electron integrals computed using PRISM.
 NBasis=   195 RedAO= T EigKep=  1.92D-03  NBF=   195
 NBsUse=   195 1.00D-06 EigRej= -1.00D+00 NBFU=   195
 Initial guess from the checkpoint file:  "base_8_conf11.chk"
 B after Tr=    -0.000000    0.000000    0.000000
         Rot=    0.999989    0.004056   -0.002137   -0.001404 Ang=   0.55 deg.
 ExpMin= 1.61D-01 ExpMax= 4.17D+03 ExpMxC= 6.27D+02 IAcc=2 IRadAn=         4 AccDes= 0.00D+00
 Harris functional with IExCor=  402 and IRadAn=       4 diagonalized for initial guess.
 HarFok:  IExCor=  402 AccDes= 0.00D+00 IRadAn=         4 IDoV= 1 UseB2=F ITyADJ=14
 ICtDFT=  3500011 ScaDFX=  1.000000  1.000000  1.000000  1.000000
 FoFCou: FMM=F IPFlag=           0 FMFlag=      100000 FMFlg1=           0
         NFxFlg=           0 DoJE=T BraDBF=F KetDBF=T FulRan=T
         wScrn=  0.000000 ICntrl=       500 IOpCl=  0 I1Cent=   200000004 NGrid=           0
         NMat0=    1 NMatS0=      1 NMatT0=    0 NMatD0=    1 NMtDS0=    0 NMtDT0=    0
 Petite list used in FoFCou.
 Keep R1 ints in memory in canonical form, NReq=186693018.
 Gradient too large for Newton-Raphson -- use scaled steepest descent instead.
     Minimum is close to point  4 DX=  1.08D-01 DF= -2.81D-04 DXR=  8.26D-02 DFR=  6.88D-03 which will be used.
 Gradient too large for Newton-Raphson -- use scaled steepest descent instead.
     Accept linear search using points  2 and  3.
 Gradient too large for Newton-Raphson -- use scaled steepest descent instead.
     Accept linear search using points  1 and  2.
[...]
    26  H    0.000000   0.000004   0.001185   0.000006   0.003882   0.000944
              25         26
     1  N   -0.042225  -0.028180
     2  C   -0.030410  -0.016778
     3  C   -0.000161  -0.000141
     4  C   -0.000236   0.000063
     5  N   -0.001368  -0.000162
     6  C    0.030016   0.006323
     7  N   -0.005449  -0.000381
     8  C   -0.000061   0.000011
     9  C   -0.012070   0.006697
    10  C   -0.091801  -0.056179
    11  C    0.147032   0.303795
    12  H    0.032576   0.005285
    13  H    0.001697   0.010757
    14  H    0.000066   0.000049
    15  H    0.000147   0.000254
    16  H    0.000314   0.000030
    17  H   -0.000005  -0.000001
    18  H    0.000000   0.000000
    19  H    0.000012   0.000000
    20  H    0.000175   0.000004
    21  H    0.030735   0.001185
    22  H    0.001031   0.000006
    23  H    0.013006   0.003882
    24  H    0.011885   0.000944
    25  H    0.831014  -0.004036
    26  H   -0.004036   0.629837
 Mulliken charges:
               1
     1  N   -0.419051
     2  C   -0.112248
     3  C   -0.291936
     4  C   -0.120731
     5  N   -0.482910
     6  C    0.668123
     7  N   -0.448340
     8  C   -0.288439
     9  C   -0.104711
    10  C   -0.262583
    11  C   -0.106874
    12  H    0.107225
    13  H    0.150597
    14  H    0.148749
    15  H    0.153867
    16  H    0.110580
    17  H    0.154184
    18  H    0.168953
    19  H    0.142965
    20  H    0.129838
    21  H    0.079632
    22  H    0.129154
    23  H    0.129230
    24  H    0.139875
    25  H    0.088115
    26  H    0.136738
 Sum of Mulliken charges =  -0.00000
 Mulliken charges with hydrogens summed into heavy atoms:
               1
     1  N   -0.419051
     2  C    0.145574
     3  C    0.010680
     4  C    0.144033
     5  N   -0.482910
     6  C    0.668123
     7  N   -0.448340
     8  C    0.153317
     9  C    0.104075
    10  C    0.006521
    11  C    0.117978
 Electronic spatial extent (au):  <R**2>=           1749.6293
 Charge=             -0.0000 electrons
 Dipole moment (field-independent basis, Debye):
    X=             -0.6872    Y=             -1.2661    Z=             -0.5867  Tot=              1.5555
 Quadrupole moment (field-independent basis, Debye-Ang):
   XX=            -61.9226   YY=            -65.7371   ZZ=            -71.6184
   XY=              1.6381   XZ=              0.5437   YZ=             -0.3391
 Traceless Quadrupole moment (field-independent basis, Debye-Ang):
   XX=              4.5035   YY=              0.6889   ZZ=             -5.1924
   XY=              1.6381   XZ=              0.5437   YZ=             -0.3391
 Octapole moment (field-independent basis, Debye-Ang**2):
  XXX=             -8.1436  YYY=             -0.6401  ZZZ=             -5.0796  XYY=              1.6550
  XXY=              2.1014  XXZ=             -5.8552  XZZ=             -1.5290  YZZ=              1.1083
  YYZ=             -4.9918  XYZ=              0.9010
 Hexadecapole moment (field-independent basis, Debye-Ang**3):
 XXXX=          -1343.7875 YYYY=           -833.5435 ZZZZ=           -151.5493 XXXY=              6.1512
 XXXZ=             -0.5296 YYYX=              9.9291 YYYZ=             -1.8232 ZZZX=              0.6211
 ZZZY=              3.6892 XXYY=           -360.5964 XXZZ=           -266.9133 YYZZ=           -172.9298
 XXYZ=             -2.9710 YYXZ=              1.5942 ZZXY=              0.9692
 N-N= 6.714091456631D+02 E-N=-2.451112979263D+03  KE= 4.736251894856D+02
 Evaluate density.
 Using the total density.
 Monte-Carlo method of calculating molar volume:
 based on  0.001 e/bohr**3 density envelope.
 Number of points per bohr**3 =   20 CutOff= 1.00D-04
 Using the CI density.
 There are       376 points.  Will hold       376 in memory.
 LenV=  1073628780 MDV=  1073741824.
 Box volume = 6665.697 fraction occupied=0.199
 Integrated density= 6.1797055796510399D+01 error=-2.2202944203489601D+01
 Molar volume = 1329.594 bohr**3/mol (118.652 cm**3/mol)
 Recommended a0 for SCRF calculation =  4.47 angstrom (  8.45 bohr)
 ******************************Gaussian NBO Version 3.1******************************
             N A T U R A L   A T O M I C   O R B I T A L   A N D
          N A T U R A L   B O N D   O R B I T A L   A N A L Y S I S
 ******************************Gaussian NBO Version 3.1******************************
       /RESON  / : Allow strongly delocalized NBO set

 Analyzing the CI density

 Job title: Title Card Required                                             

 Storage needed:    116324 in NPA (1073738184 available)


 NATURAL POPULATIONS:  Natural atomic orbital occupancies 
                                                          
   NAO  Atom  No  lang   Type(AO)    Occupancy
 --------------------------------------------
     1    N    1  S      Cor( 1S)     1.99936
     2    N    1  S      Val( 2S)     1.22780
     3    N    1  S      Ryd( 3S)     0.00208
     4    N    1  S      Ryd( 4S)     0.00004
     5    N    1  px     Val( 2p)     1.27453
     6    N    1  px     Ryd( 3p)     0.00221
     7    N    1  py     Val( 2p)     1.26508
     8    N    1  py     Ryd( 3p)     0.00147
     9    N    1  pz     Val( 2p)     1.61445
    10    N    1  pz     Ryd( 3p)     0.00538
    11    N    1  dxy    Ryd( 3d)     0.00050
    12    N    1  dxz    Ryd( 3d)     0.00073
    13    N    1  dyz    Ryd( 3d)     0.00123
    14    N    1  dx2y2  Ryd( 3d)     0.00078
    15    N    1  dz2    Ryd( 3d)     0.00085
 
    16    C    2  S      Cor( 1S)     1.99933
    17    C    2  S      Val( 2S)     1.01625
    18    C    2  S      Ryd( 3S)     0.00158
    19    C    2  S      Ryd( 4S)     0.00004
    20    C    2  px     Val( 2p)     0.85574
    21    C    2  px     Ryd( 3p)     0.00230
    22    C    2  py     Val( 2p)     1.15791
    23    C    2  py     Ryd( 3p)     0.00360
    24    C    2  pz     Val( 2p)     1.20990
    25    C    2  pz     Ryd( 3p)     0.00298
    26    C    2  dxy    Ryd( 3d)     0.00076
    27    C    2  dxz    Ryd( 3d)     0.00111
    28    C    2  dyz    Ryd( 3d)     0.00062
    29    C    2  dx2y2  Ryd( 3d)     0.00129
    30    C    2  dz2    Ryd( 3d)     0.00142
 
    31    C    3  S      Cor( 1S)     1.99928
    32    C    3  S      Val( 2S)     1.04868
    33    C    3  S      Ryd( 3S)     0.00067
    34    C    3  S      Ryd( 4S)     0.00003
    35    C    3  px     Val( 2p)     1.17753
    36    C    3  px     Ryd( 3p)     0.00317
    37    C    3  py     Val( 2p)     1.03383
    38    C    3  py     Ryd( 3p)     0.00200
    39    C    3  pz     Val( 2p)     1.20823
    40    C    3  pz     Ryd( 3p)     0.00272
    41    C    3  dxy    Ryd( 3d)     0.00058
    42    C    3  dxz    Ryd( 3d)     0.00038
    43    C    3  dyz    Ryd( 3d)     0.00047
    44    C    3  dx2y2  Ryd( 3d)     0.00076
    45    C    3  dz2    Ryd( 3d)     0.00124
 
    46    C    4  S      Cor( 1S)     1.99930
    47    C    4  S      Val( 2S)     1.02607
    48    C    4  S      Ryd( 3S)     0.00122
    49    C    4  S      Ryd( 4S)     0.00003
    50    C    4  px     Val( 2p)     0.92804
    51    C    4  px     Ryd( 3p)     0.00310
    52    C    4  py     Val( 2p)     1.09074
    53    C    4  py     Ryd( 3p)     0.00475
    54    C    4  pz     Val( 2p)     1.22614
    55    C    4  pz     Ryd( 3p)     0.00250
    56    C    4  dxy    Ryd( 3d)     0.00116
    57    C    4  dxz    Ryd( 3d)     0.00189
    58    C    4  dyz    Ryd( 3d)     0.00067
    59    C    4  dx2y2  Ryd( 3d)     0.00102
    60    C    4  dz2    Ryd( 3d)     0.00115
 
    61    N    5  S      Cor( 1S)     1.99903
    62    N    5  S      Val( 2S)     1.29553
    63    N    5  S      Ryd( 3S)     0.00083
    64    N    5  S      Ryd( 4S)     0.00002
    65    N    5  px     Val( 2p)     1.18636
    66    N    5  px     Ryd( 3p)     0.00198
    67    N    5  py     Val( 2p)     1.21122
    68    N    5  py     Ryd( 3p)     0.00356
    69    N    5  pz     Val( 2p)     1.66199
    70    N    5  pz     Ryd( 3p)     0.00608
    71    N    5  dxy    Ryd( 3d)     0.00080
    72    N    5  dxz    Ryd( 3d)     0.00080
    73    N    5  dyz    Ryd( 3d)     0.00151
    74    N    5  dx2y2  Ryd( 3d)     0.00060
    75    N    5  dz2    Ryd( 3d)     0.00042
 
    76    C    6  S      Cor( 1S)     1.99923
    77    C    6  S      Val( 2S)     0.71443
    78    C    6  S      Ryd( 3S)     0.00546
    79    C    6  S      Ryd( 4S)     0.00028
    80    C    6  px     Val( 2p)     0.85234
    81    C    6  px     Ryd( 3p)     0.00450
    82    C    6  py     Val( 2p)     0.83078
    83    C    6  py     Ryd( 3p)     0.00806
    84    C    6  pz     Val( 2p)     1.16805
    85    C    6  pz     Ryd( 3p)     0.01020
    86    C    6  dxy    Ryd( 3d)     0.00138
    87    C    6  dxz    Ryd( 3d)     0.00237
    88    C    6  dyz    Ryd( 3d)     0.00210
    89    C    6  dx2y2  Ryd( 3d)     0.00189
    90    C    6  dz2    Ryd( 3d)     0.00059
 
    91    N    7  S      Cor( 1S)     1.99937
    92    N    7  S      Val( 2S)     1.20880
    93    N    7  S      Ryd( 3S)     0.00137
    94    N    7  S      Ryd( 4S)     0.00005
    95    N    7  px     Val( 2p)     1.26743
    96    N    7  px     Ryd( 3p)     0.00152
    97    N    7  py     Val( 2p)     1.26297
    98    N    7  py     Ryd( 3p)     0.00225
    99    N    7  pz     Val( 2p)     1.71589
   100    N    7  pz     Ryd( 3p)     0.00582
   101    N    7  dxy    Ryd( 3d)     0.00047
   102    N    7  dxz    Ryd( 3d)     0.00110
   103    N    7  dyz    Ryd( 3d)     0.00065
   104    N    7  dx2y2  Ryd( 3d)     0.00071
   105    N    7  dz2    Ryd( 3d)     0.00087
 
   106    C    8  S      Cor( 1S)     1.99948
   107    C    8  S      Val( 2S)     1.08173
   108    C    8  S      Ryd( 3S)     0.00106
   109    C    8  S      Ryd( 4S)     0.00003
   110    C    8  px     Val( 2p)     1.22536
   111    C    8  px     Ryd( 3p)     0.00318
   112    C    8  py     Val( 2p)     0.90401
   113    C    8  py     Ryd( 3p)     0.00207
   114    C    8  pz     Val( 2p)     1.23490
   115    C    8  pz     Ryd( 3p)     0.00138
   116    C    8  dxy    Ryd( 3d)     0.00082
   117    C    8  dxz    Ryd( 3d)     0.00065
   118    C    8  dyz    Ryd( 3d)     0.00134
   119    C    8  dx2y2  Ryd( 3d)     0.00115
   120    C    8  dz2    Ryd( 3d)     0.00101
 
   121    C    9  S      Cor( 1S)     1.99932
   122    C    9  S      Val( 2S)     1.01327
   123    C    9  S      Ryd( 3S)     0.00154
   124    C    9  S      Ryd( 4S)     0.00004
   125    C    9  px     Val( 2p)     1.04266
   126    C    9  px     Ryd( 3p)     0.00332
   127    C    9  py     Val( 2p)     0.97769
   128    C    9  py     Ryd( 3p)     0.00405
   129    C    9  pz     Val( 2p)     1.20280
   130    C    9  pz     Ryd( 3p)     0.00297
   131    C    9  dxy    Ryd( 3d)     0.00121
   132    C    9  dxz    Ryd( 3d)     0.00099
   133    C    9  dyz    Ryd( 3d)     0.00078
   134    C    9  dx2y2  Ryd( 3d)     0.00080
   135    C    9  dz2    Ryd( 3d)     0.00146
 
   136    C   10  S      Cor( 1S)     1.99931
   137    C   10  S      Val( 2S)     1.04530
   138    C   10  S      Ryd( 3S)     0.00074
   139    C   10  S      Ryd( 4S)     0.00003
   140    C   10  px     Val( 2p)     1.10422
   141    C   10  px     Ryd( 3p)     0.00286
   142    C   10  py     Val( 2p)     1.10511
   143    C   10  py     Ryd( 3p)     0.00271
   144    C   10  pz     Val( 2p)     1.21221
   145    C   10  pz     Ryd( 3p)     0.00282
   146    C   10  dxy    Ryd( 3d)     0.00080
   147    C   10  dxz    Ryd( 3d)     0.00044
   148    C   10  dyz    Ryd( 3d)     0.00045
   149    C   10  dx2y2  Ryd( 3d)     0.00050
   150    C   10  dz2    Ryd( 3d)     0.00121
 
   151    C   11  S      Cor( 1S)     1.99931
   152    C   11  S      Val( 2S)     1.01843
   153    C   11  S      Ryd( 3S)     0.00166
   154    C   11  S      Ryd( 4S)     0.00004
   155    C   11  px     Val( 2p)     0.96833
   156    C   11  px     Ryd( 3p)     0.00388
   157    C   11  py     Val( 2p)     1.04365
   158    C   11  py     Ryd( 3p)     0.00355
   159    C   11  pz     Val( 2p)     1.21067
   160    C   11  pz     Ryd( 3p)     0.00287
   161    C   11  dxy    Ryd( 3d)     0.00129
   162    C   11  dxz    Ryd( 3d)     0.00082
   163    C   11  dyz    Ryd( 3d)     0.00085
   164    C   11  dx2y2  Ryd( 3d)     0.00076
   165    C   11  dz2    Ryd( 3d)     0.00139
 
   166    H   12  S      Val( 1S)     0.79164
   167    H   12  S      Ryd( 2S)     0.01913
 
   168    H   13  S      Val( 1S)     0.75209
   169    H   13  S      Ryd( 2S)     0.00275
 
   170    H   14  S      Val( 1S)     0.74496
   171    H   14  S      Ryd( 2S)     0.00366
 
   172    H   15  S      Val( 1S)     0.75630
   173    H   15  S      Ryd( 2S)     0.00480
 
   174    H   16  S      Val( 1S)     0.79626
   175    H   16  S      Ryd( 2S)     0.01405
 
   176    H   17  S      Val( 1S)     0.74944
   177    H   17  S      Ryd( 2S)     0.00152
 
   178    H   18  S      Val( 1S)     0.75877
   179    H   18  S      Ryd( 2S)     0.00101
 
   180    H   19  S      Val( 1S)     0.77653
   181    H   19  S      Ryd( 2S)     0.00126
 
   182    H   20  S      Val( 1S)     0.79603
   183    H   20  S      Ryd( 2S)     0.00660
 
   184    H   21  S      Val( 1S)     0.80977
   185    H   21  S      Ryd( 2S)     0.01950
 
   186    H   22  S      Val( 1S)     0.76733
   187    H   22  S      Ryd( 2S)     0.00379
 
   188    H   23  S      Val( 1S)     0.75524
   189    H   23  S      Ryd( 2S)     0.00495
 
   190    H   24  S      Val( 1S)     0.76083
   191    H   24  S      Ryd( 2S)     0.00631
 
   192    H   25  S      Val( 1S)     0.79847
   193    H   25  S      Ryd( 2S)     0.02332
 
   194    H   26  S      Val( 1S)     0.76053
   195    H   26  S      Ryd( 2S)     0.00559


 Summary of Natural Population Analysis:                  
                                                          
                                       Natural Population 
                Natural  -----------------------------------------------
    Atom  No    Charge         Core      Valence    Rydberg      Total
 -----------------------------------------------------------------------
      N    1   -0.39647      1.99936     5.38185    0.01526     7.39647
      C    2   -0.25483      1.99933     4.23980    0.01570     6.25483
      C    3   -0.47956      1.99928     4.46826    0.01202     6.47956
      C    4   -0.28778      1.99930     4.27100    0.01749     6.28778
      N    5   -0.37071      1.99903     5.35510    0.01658     7.37071
      C    6    0.39835      1.99923     3.56561    0.03682     5.60165
      N    7   -0.46924      1.99937     5.45509    0.01479     7.46924
      C    8   -0.45817      1.99948     4.44600    0.01269     6.45817
      C    9   -0.25291      1.99932     4.23642    0.01716     6.25291
      C   10   -0.47873      1.99931     4.46684    0.01258     6.47873
      C   11   -0.25750      1.99931     4.24107    0.01712     6.25750
      H   12    0.18924      0.00000     0.79164    0.01913     0.81076
      H   13    0.24516      0.00000     0.75209    0.00275     0.75484
      H   14    0.25138      0.00000     0.74496    0.00366     0.74862
      H   15    0.23890      0.00000     0.75630    0.00480     0.76110
      H   16    0.18970      0.00000     0.79626    0.01405     0.81030
      H   17    0.24904      0.00000     0.74944    0.00152     0.75096
      H   18    0.24021      0.00000     0.75877    0.00101     0.75979
      H   19    0.22222      0.00000     0.77653    0.00126     0.77778
      H   20    0.19736      0.00000     0.79603    0.00660     0.80264
      H   21    0.17073      0.00000     0.80977    0.01950     0.82927
      H   22    0.22888      0.00000     0.76733    0.00379     0.77112
      H   23    0.23981      0.00000     0.75524    0.00495     0.76019
      H   24    0.23286      0.00000     0.76083    0.00631     0.76714
      H   25    0.17821      0.00000     0.79847    0.02332     0.82179
      H   26    0.23388      0.00000     0.76053    0.00559     0.76612
 =======================================================================
   * Total *    0.00000     21.99231    61.70122    0.30646    84.00000

                                 Natural Population      
 --------------------------------------------------------
   Core                      21.99231 ( 99.9651% of  22)
   Valence                   61.70122 ( 99.5181% of  62)
   Natural Minimal Basis     83.69354 ( 99.6352% of  84)
   Natural Rydberg Basis      0.30646 (  0.3648% of  84)
 --------------------------------------------------------

    Atom  No          Natural Electron Configuration
 ----------------------------------------------------------------------------
      N    1      [core]2S( 1.23)2p( 4.15)3p( 0.01)
      C    2      [core]2S( 1.02)2p( 3.22)3p( 0.01)3d( 0.01)
      C    3      [core]2S( 1.05)2p( 3.42)3p( 0.01)
      C    4      [core]2S( 1.03)2p( 3.24)3p( 0.01)3d( 0.01)
      N    5      [core]2S( 1.30)2p( 4.06)3p( 0.01)
      C    6      [core]2S( 0.71)2p( 2.85)3S( 0.01)3p( 0.02)3d( 0.01)
      N    7      [core]2S( 1.21)2p( 4.25)3p( 0.01)
      C    8      [core]2S( 1.08)2p( 3.36)3p( 0.01)
      C    9      [core]2S( 1.01)2p( 3.22)3p( 0.01)3d( 0.01)
      C   10      [core]2S( 1.05)2p( 3.42)3p( 0.01)
      C   11      [core]2S( 1.02)2p( 3.22)3p( 0.01)3d( 0.01)
      H   12            1S( 0.79)2S( 0.02)
      H   13            1S( 0.75)
      H   14            1S( 0.74)
      H   15            1S( 0.76)
      H   16            1S( 0.80)2S( 0.01)
      H   17            1S( 0.75)
      H   18            1S( 0.76)
      H   19            1S( 0.78)
      H   20            1S( 0.80)2S( 0.01)
      H   21            1S( 0.81)2S( 0.02)
      H   22            1S( 0.77)
      H   23            1S( 0.76)
      H   24            1S( 0.76)2S( 0.01)
      H   25            1S( 0.80)2S( 0.02)
      H   26            1S( 0.76)2S( 0.01)


 NBO analysis skipped by request.
 1\1\GINC-DELLA-R4C4N16\SP\RB3LYP TD-FC\6-31G(d)\C8H15N3\BJS4\24-Aug-20
 20\0\\# TD(NStates=10, Root=1) B3LYP/6-31G* scf=qc volume pop=NPA dens
 ity=current Geom=AllCheck Guess=Read\\Title Card Required\\0,1\N,0,-0.
 0780994197,-0.7140756327,-0.2516104672\C,0,-1.4208694382,-1.1826479999
 ,0.0811106827\C,0,-2.4629210635,-0.2425984649,-0.512989302\C,0,-2.1829
 729128,1.1761891207,-0.0094269303\N,0,-0.7883999165,1.5716088588,-0.10
 19535979\C,0,0.1310427711,0.675827292,-0.2109722\N,0,1.4501386747,1.10
 30128143,-0.4101517137\C,0,1.6959559913,2.5338783531,-0.3035549399\C,0
 ,2.5654147379,0.2536152002,-0.0120170452\C,0,2.3200527438,-1.181037548
 9,-0.4585545372\C,0,0.9847606386,-1.6477017808,0.1019536694\H,0,-1.555
 7138975,-1.2564965054,1.1757320613\H,0,-1.5278953896,-2.1971663515,-0.
 3231488183\H,0,-3.4723881638,-0.5716705346,-0.2381360708\H,0,-2.388593
 2713,-0.2735401228,-1.6070448495\H,0,-2.5132335983,1.2663842858,1.0385
 235647\H,0,-2.7860865633,1.9005389853,-0.5735783461\H,0,0.9158686974,3
 .0759979786,-0.8357049471\H,0,2.6719617696,2.7507967935,-0.7510407413\
 H,0,1.6987133625,2.887439381,0.7399134834\H,0,2.733093506,0.2846708429
 ,1.081656476\H,0,3.4729295863,0.6504121873,-0.4812324437\H,0,3.1258601
 467,-1.8343562155,-0.1052877398\H,0,2.2978363651,-1.2245506317,-1.5533
 489286\H,0,1.0613301876,-1.7668149855,1.1994021484\H,0,0.7160144557,-2
 .6314153189,-0.3034384673\\Version=ES64L-G16RevA.03\State=1-A\HF=-478.
 1320301\RMSD=2.569e-13\Dipole=-0.2412265,-0.5212539,-0.2112117\Quadrup
 ole=3.1931845,0.6554601,-3.8486446,1.3935108,0.2920631,-0.3895314\PG=C
 01 [X(C8H15N3)]\\@


 DEFINE YOUR TERMS, YOU WILL PERMIT ME AGAIN TO SAY, 
 OR WE SHALL NEVER UNDERSTAND ONE ANOTHER.

                                    -- VOLTAIRE
 Job cpu time:       0 days  0 hours 22 minutes 24.8 seconds.
 Elapsed time:       0 days  0 hours  6 minutes  5.1 seconds.
 File lengths (MBytes):  RWF=    361 Int=      0 D2E=      0 Chk=     24 Scr=      1
 Normal termination of Gaussian 16 at Mon Aug 24 16:39:24 2020.
