 Entering Gaussian System, Link 0=g16
 Input=base_9_conf6123.com
 Output=base_9_conf6123.log
 Initial command:
 /opt/export//g16/l1.exe "/scratch/bjs4/job.1031/Gau-1033.inp" -scrdir="/scratch/bjs4/job.1031/"
 Entering Link 1 = /opt/export//g16/l1.exe PID=      1034.
  
 Copyright (c) 1988,1990,1992,1993,1995,1998,2003,2009,2016,
            Gaussian, Inc.  All Rights Reserved.
  
 This is part of the Gaussian(R) 16 program.  It is based on
 the Gaussian(R) 09 system (copyright 2009, Gaussian, Inc.),
 the Gaussian(R) 03 system (copyright 2003, Gaussian, Inc.),
 the Gaussian(R) 98 system (copyright 1998, Gaussian, Inc.),
 the Gaussian(R) 94 system (copyright 1995, Gaussian, Inc.),
 the Gaussian 92(TM) system (copyright 1992, Gaussian, Inc.),
 the Gaussian 90(TM) system (copyright 1990, Gaussian, Inc.),
 the Gaussian 88(TM) system (copyright 1988, Gaussian, Inc.),
 the Gaussian 86(TM) system (copyright 1986, Carnegie Mellon
 University), and the Gaussian 82(TM) system (copyright 1983,
 Carnegie Mellon University). Gaussian is a federally registered
 trademark of Gaussian, Inc.
  
 This software contains proprietary and confidential information,
 including trade secrets, belonging to Gaussian, Inc.
  
 This software is provided under written license and may be
 used, copied, transmitted, or stored only in accord with that
 written license.
  
 The following legend is applicable only to US Government
 contracts under FAR:
  
                    RESTRICTED RIGHTS LEGEND
  
 Use, reproduction and disclosure by the US Government is
 subject to restrictions as set forth in subparagraphs (a)
 and (c) of the Commercial Computer Software - Restricted
 Rights clause in FAR 52.227-19.
  
 Gaussian, Inc.
 340 Quinnipiac St., Bldg. 40, Wallingford CT 06492
  
  
 ---------------------------------------------------------------
 Warning -- This program may not be used in any manner that
 competes with the business of Gaussian, Inc. or will provide
 assistance to any competitor of Gaussian, Inc.  The licensee
 of this program is prohibited from giving any competitor of
 Gaussian, Inc. access to this program.  By using this program,
 the user acknowledges that Gaussian, Inc. is engaged in the
 business of creating and licensing software in the field of
 computational chemistry and represents and warrants to the
 licensee that it is not a competitor of Gaussian, Inc. and that
 it will not use this program in any manner prohibited above.
 ---------------------------------------------------------------
  

 Cite this work as:
 Gaussian 16, Revision A.03,
 M. J. Frisch, G. W. Trucks, H. B. Schlegel, G. E. Scuseria, 
 M. A. Robb, J. R. Cheeseman, G. Scalmani, V. Barone, 
 G. A. Petersson, H. Nakatsuji, X. Li, M. Caricato, A. V. Marenich, 
 J. Bloino, B. G. Janesko, R. Gomperts, B. Mennucci, H. P. Hratchian, 
 J. V. Ortiz, A. F. Izmaylov, J. L. Sonnenberg, D. Williams-Young, 
 F. Ding, F. Lipparini, F. Egidi, J. Goings, B. Peng, A. Petrone, 
 T. Henderson, D. Ranasinghe, V. G. Zakrzewski, J. Gao, N. Rega, 
 G. Zheng, W. Liang, M. Hada, M. Ehara, K. Toyota, R. Fukuda, 
 J. Hasegawa, M. Ishida, T. Nakajima, Y. Honda, O. Kitao, H. Nakai, 
 T. Vreven, K. Throssell, J. A. Montgomery, Jr., J. E. Peralta, 
 F. Ogliaro, M. J. Bearpark, J. J. Heyd, E. N. Brothers, K. N. Kudin, 
 V. N. Staroverov, T. A. Keith, R. Kobayashi, J. Normand, 
 K. Raghavachari, A. P. Rendell, J. C. Burant, S. S. Iyengar, 
 J. Tomasi, M. Cossi, J. M. Millam, M. Klene, C. Adamo, R. Cammi, 
 J. W. Ochterski, R. L. Martin, K. Morokuma, O. Farkas, 
 J. B. Foresman, and D. J. Fox, Gaussian, Inc., Wallingford CT, 2016.
 
 ******************************************
 Gaussian 16:  ES64L-G16RevA.03 25-Dec-2016
                24-Aug-2020 
 ******************************************
 %nprocshared=7
 Will use up to    7 processors via shared memory.
 %Mem=14GB
 %Chk=base_9_conf61.chk
 ---------------------------------
 # opt=CalcAll B3LYP/6-31G* scf=qc
 ---------------------------------
 1/10=4,18=20,19=15,26=3,38=1/1,3;
 2/9=110,12=2,17=6,18=5,40=1/2;
 3/5=1,6=6,7=1,11=2,25=1,30=1,71=2,74=-5,140=1/1,2,3;
 4//1;
 5/5=2,8=3,38=5/8;
 8/6=4,10=90,11=11/1;
 11/6=1,8=1,9=11,15=111,16=1/1,2,10;
 10/6=1/2;
 6/7=2,8=2,9=2,10=2,18=1,28=1/1;
 7/10=1,25=1/1,2,3,16;
 1/10=4,18=20,19=15,26=3/3(3);
 2/9=110/2;
 7/8=1,9=1,25=1,44=-1/16;
 99//99;
 2/9=110/2;
 3/5=1,6=6,7=1,11=2,25=1,30=1,71=2,74=-5,140=1/1,2,3;
 4/5=5,16=3,69=1/1;
 5/5=2,8=3,38=5/8;
 8/6=4,10=90,11=11/1;
 11/6=1,8=1,9=11,15=111,16=1/1,2,10;
 10/6=1/2;
 7/10=1,25=1/1,2,3,16;
 1/10=4,18=20,19=15,26=3/3(-8);
 2/9=110/2;
 6/7=2,8=2,9=2,10=2,18=1,19=2,28=1/1;
 7/8=1,9=1,25=1,44=-1/16;
 99//99;
 -------------------
 Title Card Required
 -------------------
 Symbolic Z-matrix:
 Charge =  0 Multiplicity = 1
 P                     1.082    -0.0564    0.0094 
 N1                    1.0483    0.5576    1.4384 
 C                     1.0614   -0.1704    2.7563 
 C                     2.42563  -0.46155   3.39671 
 C                     0.26847   0.63454   3.8243 
 C                     0.22756  -1.47461   2.63046 
 N                     1.1236    1.2666   -1.0195 
 C                     0.54562   2.57955  -0.75435 
 C                     0.54828   3.27506  -2.10717 
 C                     1.7871    2.73194  -2.77949 
 C                     1.88529   1.30658  -2.26334 
 N                    -0.698    -0.0564    0.0094 
 C                    -1.3698   -1.3657   -0.14552 
 C                    -2.7694   -1.25378   0.43438 
 C                    -2.6177   -0.19133   1.48475 
 C                    -1.559     0.72145   0.89341 
 N                     2.862    -0.0564    0.0094 
 C                     3.6924   -0.7612    0.97797 
 C                     5.0651   -0.8789    0.32487 
 C                     4.7644   -0.8697   -1.15831 
 C                     3.5367    0.0115   -1.27775 
 H                     2.84044   0.42961   3.87233 
 H                     3.18982  -0.82348   2.7147 
 H                     2.32847  -1.20405   4.2004 
 H                     0.78261   1.55069   4.12236 
 H                     0.15026   0.04593   4.74523 
 H                    -0.73609   0.89923   3.47639 
 H                     0.71779  -2.25751   2.06198 
 H                    -0.74822  -1.28335   2.16528 
 H                     0.03443  -1.9236    3.61287 
 H                     1.15182   3.13752  -0.03536 
 H                    -0.48097   2.52669  -0.37348 
 H                     0.56721   4.36293  -2.02182 
 H                    -0.33844   2.99573  -2.6896 
 H                     2.66103   3.31209  -2.46113 
 H                     1.72501   2.77807  -3.87072 
 H                     2.94074   1.04865  -2.13683 
 H                     1.4556    0.60435  -2.98204 
 H                    -0.8173   -2.14065   0.39595 
 H                    -1.4533   -1.66057  -1.19482 
 H                    -3.1286   -2.19966   0.85184 
 H                    -3.4816   -0.92648  -0.3323 
 H                    -2.272    -0.6248    2.42888 
 H                    -3.5571    0.3398    1.6726 
 H                    -1.0583    1.22332   1.70979 
 H                    -2.0907    1.45271   0.27941 
 H                     3.3475   -1.75524   1.2371 
 H                     3.7732   -0.20815   1.92618 
 H                     5.5891   -1.79161   0.62818 
 H                     5.6907   -0.01945   0.5878 
 H                     4.5443   -1.88603  -1.50537 
 H                     5.6076   -0.49347  -1.74503 
 H                     2.9026   -0.29984  -2.11137 
 H                     3.8322    1.04818  -1.46962 
 

 GradGradGradGradGradGradGradGradGradGradGradGradGradGradGradGradGradGrad
 Berny optimization.
 Initialization pass.
                           ----------------------------
                           !    Initial Parameters    !
                           ! (Angstroms and Degrees)  !
 --------------------------                            --------------------------
 ! Name  Definition              Value          Derivative Info.                !
 --------------------------------------------------------------------------------
 ! R1    R(1,2)                  1.5557         calculate D2E/DX2 analytically  !
 ! R2    R(1,7)                  1.6765         calculate D2E/DX2 analytically  !
 ! R3    R(1,12)                 1.78           calculate D2E/DX2 analytically  !
 ! R4    R(1,17)                 1.78           calculate D2E/DX2 analytically  !
 ! R5    R(2,3)                  1.5057         calculate D2E/DX2 analytically  !
 ! R6    R(3,4)                  1.5349         calculate D2E/DX2 analytically  !
 ! R7    R(3,5)                  1.5548         calculate D2E/DX2 analytically  !
 ! R8    R(3,6)                  1.5531         calculate D2E/DX2 analytically  !
 ! R9    R(4,22)                 1.092          calculate D2E/DX2 analytically  !
 ! R10   R(4,23)                 1.0863         calculate D2E/DX2 analytically  !
 ! R11   R(4,24)                 1.0985         calculate D2E/DX2 analytically  !
 ! R12   R(5,25)                 1.092          calculate D2E/DX2 analytically  !
 ! R13   R(5,26)                 1.0993         calculate D2E/DX2 analytically  !
 ! R14   R(5,27)                 1.0956         calculate D2E/DX2 analytically  !
 ! R15   R(6,28)                 1.0846         calculate D2E/DX2 analytically  !
 ! R16   R(6,29)                 1.0978         calculate D2E/DX2 analytically  !
 ! R17   R(6,30)                 1.0973         calculate D2E/DX2 analytically  !
 ! R18   R(7,8)                  1.4588         calculate D2E/DX2 analytically  !
 ! R19   R(7,11)                 1.4591         calculate D2E/DX2 analytically  !
 ! R20   R(8,9)                  1.5211         calculate D2E/DX2 analytically  !
 ! R21   R(8,31)                 1.0935         calculate D2E/DX2 analytically  !
 ! R22   R(8,32)                 1.0962         calculate D2E/DX2 analytically  !
 ! R23   R(9,10)                 1.5105         calculate D2E/DX2 analytically  !
 ! R24   R(9,33)                 1.0914         calculate D2E/DX2 analytically  !
 ! R25   R(9,34)                 1.0971         calculate D2E/DX2 analytically  !
 ! R26   R(10,11)                1.5191         calculate D2E/DX2 analytically  !
 ! R27   R(10,35)                1.0962         calculate D2E/DX2 analytically  !
 ! R28   R(10,36)                1.094          calculate D2E/DX2 analytically  !
 ! R29   R(11,37)                1.0938         calculate D2E/DX2 analytically  !
 ! R30   R(11,38)                1.0928         calculate D2E/DX2 analytically  !
 ! R31   R(12,13)                1.4797         calculate D2E/DX2 analytically  !
 ! R32   R(12,16)                1.4587         calculate D2E/DX2 analytically  !
 ! R33   R(13,14)                1.5191         calculate D2E/DX2 analytically  !
 ! R34   R(13,39)                1.095          calculate D2E/DX2 analytically  !
 ! R35   R(13,40)                1.0931         calculate D2E/DX2 analytically  !
 ! R36   R(14,15)                1.5017         calculate D2E/DX2 analytically  !
 ! R37   R(14,41)                1.0945         calculate D2E/DX2 analytically  !
 ! R38   R(14,42)                1.0964         calculate D2E/DX2 analytically  !
 ! R39   R(15,16)                1.5178         calculate D2E/DX2 analytically  !
 ! R40   R(15,43)                1.0949         calculate D2E/DX2 analytically  !
 ! R41   R(15,44)                1.0954         calculate D2E/DX2 analytically  !
 ! R42   R(16,45)                1.0812         calculate D2E/DX2 analytically  !
 ! R43   R(16,46)                1.0929         calculate D2E/DX2 analytically  !
 ! R44   R(17,18)                1.4575         calculate D2E/DX2 analytically  !
 ! R45   R(17,21)                1.4548         calculate D2E/DX2 analytically  !
 ! R46   R(18,19)                1.5247         calculate D2E/DX2 analytically  !
 ! R47   R(18,47)                1.0836         calculate D2E/DX2 analytically  !
 ! R48   R(18,48)                1.1007         calculate D2E/DX2 analytically  !
 ! R49   R(19,20)                1.5134         calculate D2E/DX2 analytically  !
 ! R50   R(19,49)                1.0953         calculate D2E/DX2 analytically  !
 ! R51   R(19,50)                1.0951         calculate D2E/DX2 analytically  !
 ! R52   R(20,21)                1.5159         calculate D2E/DX2 analytically  !
 ! R53   R(20,51)                1.0963         calculate D2E/DX2 analytically  !
 ! R54   R(20,52)                1.094          calculate D2E/DX2 analytically  !
 ! R55   R(21,53)                1.0927         calculate D2E/DX2 analytically  !
 ! R56   R(21,54)                1.0949         calculate D2E/DX2 analytically  !
 ! A1    A(2,1,7)              104.6442         calculate D2E/DX2 analytically  !
 ! A2    A(2,1,12)              88.7587         calculate D2E/DX2 analytically  !
 ! A3    A(2,1,17)              91.2413         calculate D2E/DX2 analytically  !
 ! A4    A(7,1,12)              91.4218         calculate D2E/DX2 analytically  !
 ! A5    A(7,1,17)              88.5782         calculate D2E/DX2 analytically  !
 ! A6    A(1,2,3)              127.8064         calculate D2E/DX2 analytically  !
 ! A7    A(2,3,4)              117.687          calculate D2E/DX2 analytically  !
 ! A8    A(2,3,5)              110.2733         calculate D2E/DX2 analytically  !
 ! A9    A(2,3,6)              109.2951         calculate D2E/DX2 analytically  !
 ! A10   A(4,3,5)              105.3602         calculate D2E/DX2 analytically  !
 ! A11   A(4,3,6)              110.5914         calculate D2E/DX2 analytically  !
 ! A12   A(5,3,6)              102.5096         calculate D2E/DX2 analytically  !
 ! A13   A(3,4,22)             111.3796         calculate D2E/DX2 analytically  !
 ! A14   A(3,4,23)             115.2447         calculate D2E/DX2 analytically  !
 ! A15   A(3,4,24)             110.7846         calculate D2E/DX2 analytically  !
 ! A16   A(22,4,23)            106.1479         calculate D2E/DX2 analytically  !
 ! A17   A(22,4,24)            105.4592         calculate D2E/DX2 analytically  !
 ! A18   A(23,4,24)            107.2385         calculate D2E/DX2 analytically  !
 ! A19   A(3,5,25)             112.4402         calculate D2E/DX2 analytically  !
 ! A20   A(3,5,26)             110.6758         calculate D2E/DX2 analytically  !
 ! A21   A(3,5,27)             111.9985         calculate D2E/DX2 analytically  !
 ! A22   A(25,5,26)            105.7338         calculate D2E/DX2 analytically  !
 ! A23   A(25,5,27)            108.4027         calculate D2E/DX2 analytically  !
 ! A24   A(26,5,27)            107.2649         calculate D2E/DX2 analytically  !
 ! A25   A(3,6,28)             113.9505         calculate D2E/DX2 analytically  !
 ! A26   A(3,6,29)             111.4232         calculate D2E/DX2 analytically  !
 ! A27   A(3,6,30)             111.4425         calculate D2E/DX2 analytically  !
 ! A28   A(28,6,29)            107.7829         calculate D2E/DX2 analytically  !
 ! A29   A(28,6,30)            104.6819         calculate D2E/DX2 analytically  !
 ! A30   A(29,6,30)            107.1113         calculate D2E/DX2 analytically  !
 ! A31   A(1,7,8)              126.0752         calculate D2E/DX2 analytically  !
 ! A32   A(1,7,11)             123.9009         calculate D2E/DX2 analytically  !
 ! A33   A(8,7,11)             109.7008         calculate D2E/DX2 analytically  !
 ! A34   A(7,8,9)              104.4284         calculate D2E/DX2 analytically  !
 ! A35   A(7,8,31)             111.045          calculate D2E/DX2 analytically  !
 ! A36   A(7,8,32)             113.0024         calculate D2E/DX2 analytically  !
 ! A37   A(9,8,31)             110.5166         calculate D2E/DX2 analytically  !
 ! A38   A(9,8,32)             109.4311         calculate D2E/DX2 analytically  !
 ! A39   A(31,8,32)            108.3793         calculate D2E/DX2 analytically  !
 ! A40   A(8,9,10)             103.4664         calculate D2E/DX2 analytically  !
 ! A41   A(8,9,33)             112.7208         calculate D2E/DX2 analytically  !
 ! A42   A(8,9,34)             110.7521         calculate D2E/DX2 analytically  !
 ! A43   A(10,9,33)            112.2709         calculate D2E/DX2 analytically  !
 ! A44   A(10,9,34)            109.5748         calculate D2E/DX2 analytically  !
 ! A45   A(33,9,34)            108.0194         calculate D2E/DX2 analytically  !
 ! A46   A(9,10,11)            103.8363         calculate D2E/DX2 analytically  !
 ! A47   A(9,10,35)            109.5285         calculate D2E/DX2 analytically  !
 ! A48   A(9,10,36)            112.4743         calculate D2E/DX2 analytically  !
 ! A49   A(11,10,35)           110.2651         calculate D2E/DX2 analytically  !
 ! A50   A(11,10,36)           112.4672         calculate D2E/DX2 analytically  !
 ! A51   A(35,10,36)           108.2174         calculate D2E/DX2 analytically  !
 ! A52   A(7,11,10)            106.3567         calculate D2E/DX2 analytically  !
 ! A53   A(7,11,37)            113.494          calculate D2E/DX2 analytically  !
 ! A54   A(7,11,38)            109.7409         calculate D2E/DX2 analytically  !
 ! A55   A(10,11,37)           108.8391         calculate D2E/DX2 analytically  !
 ! A56   A(10,11,38)           110.7356         calculate D2E/DX2 analytically  !
 ! A57   A(37,11,38)           107.6936         calculate D2E/DX2 analytically  !
 ! A58   A(1,12,13)            117.0008         calculate D2E/DX2 analytically  !
 ! A59   A(1,12,16)            126.1745         calculate D2E/DX2 analytically  !
 ! A60   A(13,12,16)           105.5038         calculate D2E/DX2 analytically  !
 ! A61   A(12,13,14)           108.2481         calculate D2E/DX2 analytically  !
 ! A62   A(12,13,39)           110.2041         calculate D2E/DX2 analytically  !
 ! A63   A(12,13,40)           111.9536         calculate D2E/DX2 analytically  !
 ! A64   A(14,13,39)           109.1626         calculate D2E/DX2 analytically  !
 ! A65   A(14,13,40)           108.4167         calculate D2E/DX2 analytically  !
 ! A66   A(39,13,40)           108.8023         calculate D2E/DX2 analytically  !
 ! A67   A(13,14,15)           103.0653         calculate D2E/DX2 analytically  !
 ! A68   A(13,14,41)           112.5996         calculate D2E/DX2 analytically  !
 ! A69   A(13,14,42)           110.7031         calculate D2E/DX2 analytically  !
 ! A70   A(15,14,41)           112.1969         calculate D2E/DX2 analytically  !
 ! A71   A(15,14,42)           110.0912         calculate D2E/DX2 analytically  !
 ! A72   A(41,14,42)           108.1497         calculate D2E/DX2 analytically  !
 ! A73   A(14,15,16)           102.9107         calculate D2E/DX2 analytically  !
 ! A74   A(14,15,43)           110.7897         calculate D2E/DX2 analytically  !
 ! A75   A(14,15,44)           112.1091         calculate D2E/DX2 analytically  !
 ! A76   A(16,15,43)           110.7207         calculate D2E/DX2 analytically  !
 ! A77   A(16,15,44)           111.9262         calculate D2E/DX2 analytically  !
 ! A78   A(43,15,44)           108.3527         calculate D2E/DX2 analytically  !
 ! A79   A(12,16,15)           109.095          calculate D2E/DX2 analytically  !
 ! A80   A(12,16,45)           115.579          calculate D2E/DX2 analytically  !
 ! A81   A(12,16,46)           107.6669         calculate D2E/DX2 analytically  !
 ! A82   A(15,16,45)           107.9379         calculate D2E/DX2 analytically  !
 ! A83   A(15,16,46)           106.3749         calculate D2E/DX2 analytically  !
 ! A84   A(45,16,46)           109.8105         calculate D2E/DX2 analytically  !
 ! A85   A(1,17,18)            124.7311         calculate D2E/DX2 analytically  !
 ! A86   A(1,17,21)            117.63           calculate D2E/DX2 analytically  !
 ! A87   A(18,17,21)           110.2597         calculate D2E/DX2 analytically  !
 ! A88   A(17,18,19)           105.4033         calculate D2E/DX2 analytically  !
 ! A89   A(17,18,47)           114.9076         calculate D2E/DX2 analytically  !
 ! A90   A(17,18,48)           111.7974         calculate D2E/DX2 analytically  !
 ! A91   A(19,18,47)           108.5526         calculate D2E/DX2 analytically  !
 ! A92   A(19,18,48)           109.981          calculate D2E/DX2 analytically  !
 ! A93   A(47,18,48)           106.1578         calculate D2E/DX2 analytically  !
 ! A94   A(18,19,20)           103.9127         calculate D2E/DX2 analytically  !
 ! A95   A(18,19,49)           112.1131         calculate D2E/DX2 analytically  !
 ! A96   A(18,19,50)           110.5427         calculate D2E/DX2 analytically  !
 ! A97   A(20,19,49)           111.8098         calculate D2E/DX2 analytically  !
 ! A98   A(20,19,50)           110.1241         calculate D2E/DX2 analytically  !
 ! A99   A(49,19,50)           108.3134         calculate D2E/DX2 analytically  !
 ! A100  A(19,20,21)           103.985          calculate D2E/DX2 analytically  !
 ! A101  A(19,20,51)           110.1524         calculate D2E/DX2 analytically  !
 ! A102  A(19,20,52)           111.9972         calculate D2E/DX2 analytically  !
 ! A103  A(21,20,51)           110.5707         calculate D2E/DX2 analytically  !
 ! A104  A(21,20,52)           112.4608         calculate D2E/DX2 analytically  !
 ! A105  A(51,20,52)           107.6854         calculate D2E/DX2 analytically  !
 ! A106  A(17,21,20)           106.1854         calculate D2E/DX2 analytically  !
 ! A107  A(17,21,53)           113.1132         calculate D2E/DX2 analytically  !
 ! A108  A(17,21,54)           108.9285         calculate D2E/DX2 analytically  !
 ! A109  A(20,21,53)           111.3745         calculate D2E/DX2 analytically  !
 ! A110  A(20,21,54)           110.2193         calculate D2E/DX2 analytically  !
 ! A111  A(53,21,54)           107.0201         calculate D2E/DX2 analytically  !
 ! A112  L(12,1,17,2,-1)       180.0            calculate D2E/DX2 analytically  !
 ! A113  L(12,1,17,2,-2)       180.0            calculate D2E/DX2 analytically  !
 ! D1    D(7,1,2,3)           -177.26           calculate D2E/DX2 analytically  !
 ! D2    D(12,1,2,3)            91.5945         calculate D2E/DX2 analytically  !
 ! D3    D(17,1,2,3)           -88.4055         calculate D2E/DX2 analytically  !
 ! D4    D(2,1,7,8)            -29.6472         calculate D2E/DX2 analytically  !
 ! D5    D(2,1,7,11)           143.1434         calculate D2E/DX2 analytically  !
 ! D6    D(12,1,7,8)            59.4411         calculate D2E/DX2 analytically  !
 ! D7    D(12,1,7,11)         -127.7683         calculate D2E/DX2 analytically  !
 ! D8    D(17,1,7,8)          -120.5589         calculate D2E/DX2 analytically  !
 ! D9    D(17,1,7,11)           52.2317         calculate D2E/DX2 analytically  !
 ! D10   D(2,1,12,13)         -119.9998         calculate D2E/DX2 analytically  !
 ! D11   D(2,1,12,16)           18.0931         calculate D2E/DX2 analytically  !
 ! D12   D(7,1,12,13)          135.3797         calculate D2E/DX2 analytically  !
 ! D13   D(7,1,12,16)          -86.5274         calculate D2E/DX2 analytically  !
 ! D14   D(13,12,17,18)        -60.7057         calculate D2E/DX2 analytically  !
 ! D15   D(13,12,17,21)         86.2717         calculate D2E/DX2 analytically  !
 ! D16   D(16,12,17,18)         77.3872         calculate D2E/DX2 analytically  !
 ! D17   D(16,12,17,21)       -135.6354         calculate D2E/DX2 analytically  !
 ! D18   D(2,1,17,18)           59.2941         calculate D2E/DX2 analytically  !
 ! D19   D(2,1,17,21)         -153.7285         calculate D2E/DX2 analytically  !
 ! D20   D(7,1,17,18)          163.9146         calculate D2E/DX2 analytically  !
 ! D21   D(7,1,17,21)          -49.108          calculate D2E/DX2 analytically  !
 ! D22   D(1,2,3,4)             90.3527         calculate D2E/DX2 analytically  !
 ! D23   D(1,2,3,5)           -148.8025         calculate D2E/DX2 analytically  !
 ! D24   D(1,2,3,6)            -36.8418         calculate D2E/DX2 analytically  !
 ! D25   D(2,3,4,22)            77.4319         calculate D2E/DX2 analytically  !
 ! D26   D(2,3,4,23)           -43.5521         calculate D2E/DX2 analytically  !
 ! D27   D(2,3,4,24)          -165.5181         calculate D2E/DX2 analytically  !
 ! D28   D(5,3,4,22)           -45.9308         calculate D2E/DX2 analytically  !
 ! D29   D(5,3,4,23)          -166.9148         calculate D2E/DX2 analytically  !
 ! D30   D(5,3,4,24)            71.1191         calculate D2E/DX2 analytically  !
 ! D31   D(6,3,4,22)          -156.0005         calculate D2E/DX2 analytically  !
 ! D32   D(6,3,4,23)            83.0155         calculate D2E/DX2 analytically  !
 ! D33   D(6,3,4,24)           -38.9506         calculate D2E/DX2 analytically  !
 ! D34   D(2,3,5,25)           -70.1151         calculate D2E/DX2 analytically  !
 ! D35   D(2,3,5,26)           171.887          calculate D2E/DX2 analytically  !
 ! D36   D(2,3,5,27)            52.244          calculate D2E/DX2 analytically  !
 ! D37   D(4,3,5,25)            57.8472         calculate D2E/DX2 analytically  !
 ! D38   D(4,3,5,26)           -60.1507         calculate D2E/DX2 analytically  !
 ! D39   D(4,3,5,27)          -179.7937         calculate D2E/DX2 analytically  !
 ! D40   D(6,3,5,25)           173.6037         calculate D2E/DX2 analytically  !
 ! D41   D(6,3,5,26)            55.6058         calculate D2E/DX2 analytically  !
 ! D42   D(6,3,5,27)           -64.0372         calculate D2E/DX2 analytically  !
 ! D43   D(2,3,6,28)            73.8471         calculate D2E/DX2 analytically  !
 ! D44   D(2,3,6,29)           -48.3798         calculate D2E/DX2 analytically  !
 ! D45   D(2,3,6,30)          -167.962          calculate D2E/DX2 analytically  !
 ! D46   D(4,3,6,28)           -57.2568         calculate D2E/DX2 analytically  !
 ! D47   D(4,3,6,29)          -179.4837         calculate D2E/DX2 analytically  !
 ! D48   D(4,3,6,30)            60.9342         calculate D2E/DX2 analytically  !
 ! D49   D(5,3,6,28)          -169.1701         calculate D2E/DX2 analytically  !
 ! D50   D(5,3,6,29)            68.603          calculate D2E/DX2 analytically  !
 ! D51   D(5,3,6,30)           -50.9791         calculate D2E/DX2 analytically  !
 ! D52   D(1,7,8,9)           -166.1342         calculate D2E/DX2 analytically  !
 ! D53   D(1,7,8,31)            74.7385         calculate D2E/DX2 analytically  !
 ! D54   D(1,7,8,32)           -47.2916         calculate D2E/DX2 analytically  !
 ! D55   D(11,7,8,9)            20.218          calculate D2E/DX2 analytically  !
 ! D56   D(11,7,8,31)          -98.9093         calculate D2E/DX2 analytically  !
 ! D57   D(11,7,8,32)          139.0605         calculate D2E/DX2 analytically  !
 ! D58   D(1,7,11,10)         -172.8864         calculate D2E/DX2 analytically  !
 ! D59   D(1,7,11,37)          -53.2477         calculate D2E/DX2 analytically  !
 ! D60   D(1,7,11,38)           67.2886         calculate D2E/DX2 analytically  !
 ! D61   D(8,7,11,10)            0.9286         calculate D2E/DX2 analytically  !
 ! D62   D(8,7,11,37)          120.5674         calculate D2E/DX2 analytically  !
 ! D63   D(8,7,11,38)         -118.8964         calculate D2E/DX2 analytically  !
 ! D64   D(7,8,9,10)           -33.2709         calculate D2E/DX2 analytically  !
 ! D65   D(7,8,9,33)          -154.7882         calculate D2E/DX2 analytically  !
 ! D66   D(7,8,9,34)            84.061          calculate D2E/DX2 analytically  !
 ! D67   D(31,8,9,10)           86.2136         calculate D2E/DX2 analytically  !
 ! D68   D(31,8,9,33)          -35.3036         calculate D2E/DX2 analytically  !
 ! D69   D(31,8,9,34)         -156.4545         calculate D2E/DX2 analytically  !
 ! D70   D(32,8,9,10)         -154.5112         calculate D2E/DX2 analytically  !
 ! D71   D(32,8,9,33)           83.9715         calculate D2E/DX2 analytically  !
 ! D72   D(32,8,9,34)          -37.1793         calculate D2E/DX2 analytically  !
 ! D73   D(8,9,10,11)           33.5729         calculate D2E/DX2 analytically  !
 ! D74   D(8,9,10,35)          -84.192          calculate D2E/DX2 analytically  !
 ! D75   D(8,9,10,36)          155.4306         calculate D2E/DX2 analytically  !
 ! D76   D(33,9,10,11)         155.3921         calculate D2E/DX2 analytically  !
 ! D77   D(33,9,10,35)          37.6273         calculate D2E/DX2 analytically  !
 ! D78   D(33,9,10,36)         -82.7501         calculate D2E/DX2 analytically  !
 ! D79   D(34,9,10,11)         -84.581          calculate D2E/DX2 analytically  !
 ! D80   D(34,9,10,35)         157.6542         calculate D2E/DX2 analytically  !
 ! D81   D(34,9,10,36)          37.2768         calculate D2E/DX2 analytically  !
 ! D82   D(9,10,11,7)          -21.7983         calculate D2E/DX2 analytically  !
 ! D83   D(9,10,11,37)        -144.4223         calculate D2E/DX2 analytically  !
 ! D84   D(9,10,11,38)          97.3785         calculate D2E/DX2 analytically  !
 ! D85   D(35,10,11,7)          95.4546         calculate D2E/DX2 analytically  !
 ! D86   D(35,10,11,37)        -27.1694         calculate D2E/DX2 analytically  !
 ! D87   D(35,10,11,38)       -145.3686         calculate D2E/DX2 analytically  !
 ! D88   D(36,10,11,7)        -143.6608         calculate D2E/DX2 analytically  !
 ! D89   D(36,10,11,37)         93.7152         calculate D2E/DX2 analytically  !
 ! D90   D(36,10,11,38)        -24.484          calculate D2E/DX2 analytically  !
 ! D91   D(1,12,13,14)         157.0423         calculate D2E/DX2 analytically  !
 ! D92   D(1,12,13,39)          37.7259         calculate D2E/DX2 analytically  !
 ! D93   D(1,12,13,40)         -83.5142         calculate D2E/DX2 analytically  !
 ! D94   D(16,12,13,14)         11.0652         calculate D2E/DX2 analytically  !
 ! D95   D(16,12,13,39)       -108.2512         calculate D2E/DX2 analytically  !
 ! D96   D(16,12,13,40)        130.5086         calculate D2E/DX2 analytically  !
 ! D97   D(1,12,16,15)        -131.3982         calculate D2E/DX2 analytically  !
 ! D98   D(1,12,16,45)          -9.5924         calculate D2E/DX2 analytically  !
 ! D99   D(1,12,16,46)         113.5547         calculate D2E/DX2 analytically  !
 ! D100  D(13,12,16,15)         10.4612         calculate D2E/DX2 analytically  !
 ! D101  D(13,12,16,45)        132.267          calculate D2E/DX2 analytically  !
 ! D102  D(13,12,16,46)       -104.5859         calculate D2E/DX2 analytically  !
 ! D103  D(12,13,14,15)        -28.1239         calculate D2E/DX2 analytically  !
 ! D104  D(12,13,14,41)       -149.2342         calculate D2E/DX2 analytically  !
 ! D105  D(12,13,14,42)         89.5665         calculate D2E/DX2 analytically  !
 ! D106  D(39,13,14,15)         91.8472         calculate D2E/DX2 analytically  !
 ! D107  D(39,13,14,41)        -29.2631         calculate D2E/DX2 analytically  !
 ! D108  D(39,13,14,42)       -150.4624         calculate D2E/DX2 analytically  !
 ! D109  D(40,13,14,15)       -149.7712         calculate D2E/DX2 analytically  !
 ! D110  D(40,13,14,41)         89.1185         calculate D2E/DX2 analytically  !
 ! D111  D(40,13,14,42)        -32.0808         calculate D2E/DX2 analytically  !
 ! D112  D(13,14,15,16)         32.8586         calculate D2E/DX2 analytically  !
 ! D113  D(13,14,15,43)        -85.5202         calculate D2E/DX2 analytically  !
 ! D114  D(13,14,15,44)        153.2979         calculate D2E/DX2 analytically  !
 ! D115  D(41,14,15,16)        154.2424         calculate D2E/DX2 analytically  !
 ! D116  D(41,14,15,43)         35.8636         calculate D2E/DX2 analytically  !
 ! D117  D(41,14,15,44)        -85.3183         calculate D2E/DX2 analytically  !
 ! D118  D(42,14,15,16)        -85.2615         calculate D2E/DX2 analytically  !
 ! D119  D(42,14,15,43)        156.3598         calculate D2E/DX2 analytically  !
 ! D120  D(42,14,15,44)         35.1778         calculate D2E/DX2 analytically  !
 ! D121  D(14,15,16,12)        -27.8208         calculate D2E/DX2 analytically  !
 ! D122  D(14,15,16,45)       -154.1416         calculate D2E/DX2 analytically  !
 ! D123  D(14,15,16,46)         88.057          calculate D2E/DX2 analytically  !
 ! D124  D(43,15,16,12)         90.6064         calculate D2E/DX2 analytically  !
 ! D125  D(43,15,16,45)        -35.7145         calculate D2E/DX2 analytically  !
 ! D126  D(43,15,16,46)       -153.5159         calculate D2E/DX2 analytically  !
 ! D127  D(44,15,16,12)       -148.3856         calculate D2E/DX2 analytically  !
 ! D128  D(44,15,16,45)         85.2936         calculate D2E/DX2 analytically  !
 ! D129  D(44,15,16,46)        -32.5078         calculate D2E/DX2 analytically  !
 ! D130  D(1,17,18,19)         160.9637         calculate D2E/DX2 analytically  !
 ! D131  D(1,17,18,47)          41.5044         calculate D2E/DX2 analytically  !
 ! D132  D(1,17,18,48)         -79.5698         calculate D2E/DX2 analytically  !
 ! D133  D(21,17,18,19)         11.9386         calculate D2E/DX2 analytically  !
 ! D134  D(21,17,18,47)       -107.5207         calculate D2E/DX2 analytically  !
 ! D135  D(21,17,18,48)        131.4051         calculate D2E/DX2 analytically  !
 ! D136  D(1,17,21,20)        -143.1212         calculate D2E/DX2 analytically  !
 ! D137  D(1,17,21,53)         -20.6751         calculate D2E/DX2 analytically  !
 ! D138  D(1,17,21,54)          98.1941         calculate D2E/DX2 analytically  !
 ! D139  D(18,17,21,20)          8.3623         calculate D2E/DX2 analytically  !
 ! D140  D(18,17,21,53)        130.8084         calculate D2E/DX2 analytically  !
 ! D141  D(18,17,21,54)       -110.3223         calculate D2E/DX2 analytically  !
 ! D142  D(17,18,19,20)        -27.3401         calculate D2E/DX2 analytically  !
 ! D143  D(17,18,19,49)       -148.257          calculate D2E/DX2 analytically  !
 ! D144  D(17,18,19,50)         90.7818         calculate D2E/DX2 analytically  !
 ! D145  D(47,18,19,20)         96.2508         calculate D2E/DX2 analytically  !
 ! D146  D(47,18,19,49)        -24.6662         calculate D2E/DX2 analytically  !
 ! D147  D(47,18,19,50)       -145.6274         calculate D2E/DX2 analytically  !
 ! D148  D(48,18,19,20)       -148.0041         calculate D2E/DX2 analytically  !
 ! D149  D(48,18,19,49)         91.0789         calculate D2E/DX2 analytically  !
 ! D150  D(48,18,19,50)        -29.8823         calculate D2E/DX2 analytically  !
 ! D151  D(18,19,20,21)         32.0464         calculate D2E/DX2 analytically  !
 ! D152  D(18,19,20,51)        -86.4502         calculate D2E/DX2 analytically  !
 ! D153  D(18,19,20,52)        153.7309         calculate D2E/DX2 analytically  !
 ! D154  D(49,19,20,21)        153.1668         calculate D2E/DX2 analytically  !
 ! D155  D(49,19,20,51)         34.6702         calculate D2E/DX2 analytically  !
 ! D156  D(49,19,20,52)        -85.1487         calculate D2E/DX2 analytically  !
 ! D157  D(50,19,20,21)        -86.3639         calculate D2E/DX2 analytically  !
 ! D158  D(50,19,20,51)        155.1394         calculate D2E/DX2 analytically  !
 ! D159  D(50,19,20,52)         35.3206         calculate D2E/DX2 analytically  !
 ! D160  D(19,20,21,17)        -25.291          calculate D2E/DX2 analytically  !
 ! D161  D(19,20,21,53)       -148.8325         calculate D2E/DX2 analytically  !
 ! D162  D(19,20,21,54)         92.5397         calculate D2E/DX2 analytically  !
 ! D163  D(51,20,21,17)         92.9179         calculate D2E/DX2 analytically  !
 ! D164  D(51,20,21,53)        -30.6236         calculate D2E/DX2 analytically  !
 ! D165  D(51,20,21,54)       -149.2514         calculate D2E/DX2 analytically  !
 ! D166  D(52,20,21,17)       -146.6667         calculate D2E/DX2 analytically  !
 ! D167  D(52,20,21,53)         89.7918         calculate D2E/DX2 analytically  !
 ! D168  D(52,20,21,54)        -28.836          calculate D2E/DX2 analytically  !
 --------------------------------------------------------------------------------
 Trust Radius=3.00D-01 FncErr=1.00D-07 GrdErr=1.00D-06 EigMax=2.50D+02 EigMin=1.00D-04
 Number of steps in this run=    324 maximum allowed number of steps=    324.
 GradGradGradGradGradGradGradGradGradGradGradGradGradGradGradGradGradGrad

 Stoichiometry    C16H33N4P
 Framework group  C1[X(C16H33N4P)]
 Deg. of freedom   156
 Full point group                 C1      NOp   1
 Largest Abelian subgroup         C1      NOp   1
 Largest concise Abelian subgroup C1      NOp   1
                         Standard orientation:                         
 ---------------------------------------------------------------------
 Center     Atomic      Atomic             Coordinates (Angstroms)
 Number     Number       Type             X           Y           Z
 ---------------------------------------------------------------------
      1         15           0        0.113748    0.091309   -0.415364
      2          7           0       -0.538784   -0.589822    0.821744
      3          6           0       -1.319807   -1.876444    0.862035
      4          6           0       -0.542019   -3.175266    1.115263
      5          6           0       -2.398026   -1.817335    1.980624
      6          6           0       -2.178257   -1.996256   -0.426684
      7          7           0        0.893530    1.439462    0.205215
      8          6           0        0.490181    2.198409    1.383991
      9          6           0        1.296839    3.485341    1.300501
     10          6           0        2.594212    3.046580    0.663333
     11          6           0        2.176156    1.934509   -0.283361
     12          7           0       -1.389621    1.014634   -0.651484
     13          6           0       -2.097275    0.828621   -1.937644
     14          6           0       -3.555577    1.203729   -1.736796
     15          6           0       -3.783922    0.911622   -0.281591
     16          6           0       -2.436285    1.224517    0.342642
     17          7           0        1.617117   -0.832016   -0.179243
     18          6           0        1.707929   -2.286713   -0.185893
     19          6           0        3.179775   -2.599476   -0.431961
     20          6           0        3.681697   -1.400952   -1.207811
     21          6           0        2.852971   -0.247825   -0.677210
     22          1           0       -0.284482   -3.285715    2.170689
     23          1           0        0.389728   -3.272073    0.565179
     24          1           0       -1.157063   -4.051935    0.870652
     25          1           0       -1.962107   -1.842770    2.981543
     26          1           0       -3.064731   -2.689573    1.923581
     27          1           0       -3.025234   -0.922786    1.899177
     28          1           0       -1.606066   -2.237121   -1.316070
     29          1           0       -2.733800   -1.070618   -0.625902
     30          1           0       -2.916149   -2.804100   -0.343468
     31          1           0        0.729841    1.654747    2.302005
     32          1           0       -0.579422    2.438410    1.393630
     33          1           0        1.451424    3.949971    2.275860
     34          1           0        0.797418    4.215764    0.651977
     35          1           0        3.267466    2.655319    1.434905
     36          1           0        3.104493    3.865153    0.147273
     37          1           0        2.960082    1.171831   -0.300418
     38          1           0        2.061292    2.315571   -1.301147
     39          1           0       -2.035686   -0.217457   -2.255325
     40          1           0       -1.683453    1.461511   -2.727044
     41          1           0       -4.229525    0.633427   -2.383739
     42          1           0       -3.712398    2.270451   -1.935951
     43          1           0       -4.044657   -0.141313   -0.132828
     44          1           0       -4.584010    1.528244    0.142079
     45          1           0       -2.344648    0.639873    1.247542
     46          1           0       -2.450727    2.289114    0.589356
     47          1           0        1.118528   -2.777272   -0.951516
     48          1           0        1.386437   -2.720678    0.773176
     49          1           0        3.315374   -3.531735   -0.990635
     50          1           0        3.718213   -2.685983    0.517651
     51          1           0        3.502282   -1.542941   -2.279945
     52          1           0        4.755208   -1.242971   -1.068556
     53          1           0        2.689311    0.511639   -1.445564
     54          1           0        3.373575    0.242223    0.152045
 ---------------------------------------------------------------------
 Rotational constants (GHZ):           0.3581019           0.2753648           0.1954284
 Standard basis: 6-31G(d) (6D, 7F)
 There are   385 symmetry adapted cartesian basis functions of A   symmetry.
 There are   385 symmetry adapted basis functions of A   symmetry.
   385 basis functions,   744 primitive gaussians,   385 cartesian basis functions
    86 alpha electrons       86 beta electrons
       nuclear repulsion energy      2211.4093475883 Hartrees.
 NAtoms=   54 NActive=   54 NUniq=   54 SFac= 1.00D+00 NAtFMM=   60 NAOKFM=F Big=F
 Integral buffers will be    131072 words long.
 Raffenetti 2 integral format.
 Two-electron integral symmetry is turned on.
 One-electron integrals computed using PRISM.
 NBasis=   385 RedAO= T EigKep=  2.21D-03  NBF=   385
 NBsUse=   385 1.00D-06 EigRej= -1.00D+00 NBFU=   385
 ExpMin= 9.98D-02 ExpMax= 1.94D+04 ExpMxC= 2.91D+03 IAcc=3 IRadAn=         5 AccDes= 0.00D+00
 Harris functional with IExCor=  402 and IRadAn=       5 diagonalized for initial guess.
 HarFok:  IExCor=  402 AccDes= 0.00D+00 IRadAn=         5 IDoV= 1 UseB2=F ITyADJ=14
 ICtDFT=  3500011 ScaDFX=  1.000000  1.000000  1.000000  1.000000
 FoFCou: FMM=F IPFlag=           0 FMFlag=      100000 FMFlg1=           0
         NFxFlg=           0 DoJE=T BraDBF=F KetDBF=T FulRan=T
         wScrn=  0.000000 ICntrl=       500 IOpCl=  0 I1Cent=   200000004 NGrid=           0
         NMat0=    1 NMatS0=      1 NMatT0=    0 NMatD0=    1 NMtDS0=    0 NMtDT0=    0
 Petite list used in FoFCou.
 Gradient too large for Newton-Raphson -- use scaled steepest descent instead.
 Gradient too large for Newton-Raphson -- use scaled steepest descent instead.
     Minimum is close to point  3 DX=  2.57D-02 DF= -1.80D-04 DXR=  4.89D-02 DFR=  2.41D-03 which will be used.
 Gradient too large for Newton-Raphson -- use scaled steepest descent instead.
 Gradient too large for Newton-Raphson -- use scaled steepest descent instead.
     Minimum is close to point  2 DX=  4.51D-02 DF= -4.84D-05 DXR=  8.28D-02 DFR=  6.90D-03 which will be used.
 Gradient too large for Newton-Raphson -- use scaled steepest descent instead.
     Accept linear search using points  1 and  2.
     Minimum is close to point  2 DX= -4.07D-02 DF= -1.20D-06 DXR=  8.86D-02 DFR=  3.06D-04 which will be used.
 Gradient too large for Newton-Raphson -- use scaled steepest descent instead.
     Minimum is close to point  2 DX=  3.73D-02 DF= -1.41D-05 DXR=  6.95D-02 DFR=  4.85D-03 which will be used.
 Gradient too large for Newton-Raphson -- use scaled steepest descent instead.
     Accept linear search using points  1 and  2.
 Gradient too large for Newton-Raphson -- use scaled steepest descent instead.
 Restarting incremental Fock formation.
     Accept linear search using points  4 and  5.
     Minimum is close to point  5 DX= -1.03D-01 DF= -7.84D-06 DXR=  5.45D-02 DFR=  1.95D-03 which will be used.
 Gradient too large for Newton-Raphson -- use scaled steepest descent instead.
 Gradient too large for Newton-Raphson -- use scaled steepest descent instead.
     Accept linear search using points  1 and  2.
 Gradient too large for Newton-Raphson -- use scaled steepest descent instead.
 LinEq1:  Iter=  0 NonCon=     1 RMS=1.38D-04 Max=1.89D-02 NDo=     1
 AX will form     1 AO Fock derivatives at one time.
 LinEq1:  Iter=  1 NonCon=     1 RMS=5.60D-05 Max=3.19D-03 NDo=     1
 LinEq1:  Iter=  2 NonCon=     1 RMS=4.79D-05 Max=3.58D-03 NDo=     1
 LinEq1:  Iter=  3 NonCon=     1 RMS=6.84D-05 Max=3.71D-03 NDo=     1
 LinEq1:  Iter=  4 NonCon=     1 RMS=7.92D-05 Max=7.04D-03 NDo=     1
 LinEq1:  Iter=  5 NonCon=     1 RMS=8.81D-05 Max=6.51D-03 NDo=     1
 LinEq1:  Iter=  6 NonCon=     1 RMS=8.06D-05 Max=5.19D-03 NDo=     1
 LinEq1:  Iter=  7 NonCon=     1 RMS=4.00D-05 Max=2.82D-03 NDo=     1
 LinEq1:  Iter=  8 NonCon=     1 RMS=2.25D-05 Max=1.25D-03 NDo=     1
 LinEq1:  Iter=  9 NonCon=     1 RMS=1.37D-05 Max=3.99D-04 NDo=     1
 LinEq1:  Iter= 10 NonCon=     1 RMS=6.67D-06 Max=1.60D-04 NDo=     1
 LinEq1:  Iter= 11 NonCon=     1 RMS=3.69D-06 Max=7.82D-05 NDo=     1
 LinEq1:  Iter= 12 NonCon=     1 RMS=1.99D-06 Max=6.37D-05 NDo=     1
 LinEq1:  Iter= 13 NonCon=     1 RMS=9.13D-07 Max=2.17D-05 NDo=     1
 LinEq1:  Iter= 14 NonCon=     1 RMS=5.50D-07 Max=3.08D-05 NDo=     1
 LinEq1:  Iter= 15 NonCon=     1 RMS=2.47D-07 Max=7.31D-06 NDo=     1
 LinEq1:  Iter= 16 NonCon=     1 RMS=1.18D-07 Max=5.55D-06 NDo=     1
 LinEq1:  Iter= 17 NonCon=     1 RMS=5.86D-08 Max=1.65D-06 NDo=     1
 LinEq1:  Iter= 18 NonCon=     1 RMS=2.19D-08 Max=8.24D-07 NDo=     1
 LinEq1:  Iter= 19 NonCon=     1 RMS=8.19D-09 Max=2.46D-07 NDo=     1
 LinEq1:  Iter= 20 NonCon=     0 RMS=3.85D-09 Max=1.37D-07 NDo=     1
 Linear equations converged to 2.268D-08 2.268D-07 after    20 iterations.
     Accept linear search using points  1 and  2.
     Minimum is close to point  2 DX= -1.83D-02 DF= -4.25D-08 DXR=  1.86D-02 DFR=  3.52D-04 which will be used.
 LinEq1:  Iter=  0 NonCon=     1 RMS=1.62D-05 Max=2.31D-03 NDo=     1
 LinEq1:  Iter=  1 NonCon=     1 RMS=7.65D-06 Max=7.16D-04 NDo=     1
 LinEq1:  Iter=  2 NonCon=     1 RMS=1.32D-05 Max=1.13D-03 NDo=     1
 LinEq1:  Iter=  3 NonCon=     1 RMS=8.89D-06 Max=5.64D-04 NDo=     1
 LinEq1:  Iter=  4 NonCon=     1 RMS=6.52D-06 Max=2.79D-04 NDo=     1
 LinEq1:  Iter=  5 NonCon=     1 RMS=4.56D-06 Max=1.88D-04 NDo=     1
 LinEq1:  Iter=  6 NonCon=     1 RMS=2.24D-06 Max=8.32D-05 NDo=     1
 LinEq1:  Iter=  7 NonCon=     1 RMS=1.05D-06 Max=6.33D-05 NDo=     1
 LinEq1:  Iter=  8 NonCon=     1 RMS=5.40D-07 Max=3.08D-05 NDo=     1
 LinEq1:  Iter=  9 NonCon=     1 RMS=3.85D-07 Max=1.99D-05 NDo=     1
 LinEq1:  Iter= 10 NonCon=     1 RMS=1.80D-07 Max=5.40D-06 NDo=     1
 LinEq1:  Iter= 11 NonCon=     1 RMS=8.79D-08 Max=2.80D-06 NDo=     1
 LinEq1:  Iter= 12 NonCon=     1 RMS=5.34D-08 Max=1.63D-06 NDo=     1
 LinEq1:  Iter= 13 NonCon=     1 RMS=2.56D-08 Max=7.10D-07 NDo=     1
 LinEq1:  Iter= 14 NonCon=     1 RMS=1.76D-08 Max=1.19D-06 NDo=     1
 LinEq1:  Iter= 15 NonCon=     1 RMS=7.80D-09 Max=2.70D-07 NDo=     1
 LinEq1:  Iter= 16 NonCon=     1 RMS=3.97D-09 Max=1.47D-07 NDo=     1
 LinEq1:  Iter= 17 NonCon=     0 RMS=1.70D-09 Max=4.40D-08 NDo=     1
 Linear equations converged to 6.108D-09 6.108D-08 after    17 iterations.
     Minimum is close to point  2 DX=  1.82D-03 DF= -9.09D-13 DXR=  1.81D-03 DFR=  3.44D-06 which will be used.
 SCF Done:  E(RB3LYP) =  -1189.54221429     a.u. after   14 cycles
            Convg  =    0.4624D-06                    69 Fock formations.
              S**2 =  0.0000                  -V/T =  2.0063
 DoSCS=F DFT=T ScalE2(SS,OS)=  1.000000  1.000000
 Range of M.O.s used for correlation:     1   385
 NBasis=   385 NAE=    86 NBE=    86 NFC=     0 NFV=     0
 NROrb=    385 NOA=    86 NOB=    86 NVA=   299 NVB=   299

 **** Warning!!: The smallest alpha delta epsilon is  0.58541329D-01

 Symmetrizing basis deriv contribution to polar:
 IMax=3 JMax=2 DiffMx= 0.00D+00
 G2DrvN: will do    55 centers at a time, making    1 passes.
 Calling FoFCou, ICntrl=  3107 FMM=F I1Cent=   0 AccDes= 0.00D+00.
 End of G2Drv F.D. properties file   721 does not exist.
 End of G2Drv F.D. properties file   722 does not exist.
 End of G2Drv F.D. properties file   788 does not exist.
          IDoAtm=11111111111111111111111111111111111111111111111111
          IDoAtm=1111
          Differentiating once with respect to electric field.
                with respect to dipole field.
          Differentiating once with respect to nuclear coordinates.
 CalDSu exits because no D1Ps are significant.
          There are   165 degrees of freedom in the 1st order CPHF.  IDoFFX=6 NUNeed=     3.
    162 vectors produced by pass  0 Test12= 2.57D-14 1.00D-09 XBig12= 5.66D+02 1.49D+01.
 AX will form   162 AO Fock derivatives at one time.
    162 vectors produced by pass  1 Test12= 2.57D-14 1.00D-09 XBig12= 1.67D+02 2.40D+00.
    162 vectors produced by pass  2 Test12= 2.57D-14 1.00D-09 XBig12= 1.07D+00 1.11D-01.
    162 vectors produced by pass  3 Test12= 2.57D-14 1.00D-09 XBig12= 2.47D-03 4.37D-03.
    162 vectors produced by pass  4 Test12= 2.57D-14 1.00D-09 XBig12= 2.80D-06 1.30D-04.
     85 vectors produced by pass  5 Test12= 2.57D-14 1.00D-09 XBig12= 1.86D-09 2.59D-06.
      6 vectors produced by pass  6 Test12= 2.57D-14 1.00D-09 XBig12= 1.20D-12 7.05D-08.
      3 vectors produced by pass  7 Test12= 2.57D-14 1.00D-09 XBig12= 9.31D-16 1.93D-09.
      1 vectors produced by pass  8 Test12= 2.57D-14 1.00D-09 XBig12= 1.66D-16 1.06D-09.
 InvSVY:  IOpt=1 It=  1 EMax= 4.62D-15
 Solved reduced A of dimension   905 with   165 vectors.
 Isotropic polarizability for W=    0.000000      236.19 Bohr**3.
 End of Minotr F.D. properties file   721 does not exist.
 End of Minotr F.D. properties file   722 does not exist.
 End of Minotr F.D. properties file   788 does not exist.

 **********************************************************************

            Population analysis using the SCF density.

 **********************************************************************

 Orbital symmetries:
       Occupied  (A) (A) (A) (A) (A) (A) (A) (A) (A) (A) (A) (A)
                 (A) (A) (A) (A) (A) (A) (A) (A) (A) (A) (A) (A)
                 (A) (A) (A) (A) (A) (A) (A) (A) (A) (A) (A) (A)
                 (A) (A) (A) (A) (A) (A) (A) (A) (A) (A) (A) (A)
                 (A) (A) (A) (A) (A) (A) (A) (A) (A) (A) (A) (A)
                 (A) (A) (A) (A) (A) (A) (A) (A) (A) (A) (A) (A)
                 (A) (A) (A) (A) (A) (A) (A) (A) (A) (A) (A) (A)
                 (A) (A)
       Virtual   (A) (A) (A) (A) (A) (A) (A) (A) (A) (A) (A) (A)
                 (A) (A) (A) (A) (A) (A) (A) (A) (A) (A) (A) (A)
                 (A) (A) (A) (A) (A) (A) (A) (A) (A) (A) (A) (A)
                 (A) (A) (A) (A) (A) (A) (A) (A) (A) (A) (A) (A)
                 (A) (A) (A) (A) (A) (A) (A) (A) (A) (A) (A) (A)
                 (A) (A) (A) (A) (A) (A) (A) (A) (A) (A) (A) (A)
                 (A) (A) (A) (A) (A) (A) (A) (A) (A) (A) (A) (A)
                 (A) (A) (A) (A) (A) (A) (A) (A) (A) (A) (A) (A)
                 (A) (A) (A) (A) (A) (A) (A) (A) (A) (A) (A) (A)
                 (A) (A) (A) (A) (A) (A) (A) (A) (A) (A) (A) (A)
                 (A) (A) (A) (A) (A) (A) (A) (A) (A) (A) (A) (A)
                 (A) (A) (A) (A) (A) (A) (A) (A) (A) (A) (A) (A)
                 (A) (A) (A) (A) (A) (A) (A) (A) (A) (A) (A) (A)
                 (A) (A) (A) (A) (A) (A) (A) (A) (A) (A) (A) (A)
                 (A) (A) (A) (A) (A) (A) (A) (A) (A) (A) (A) (A)
                 (A) (A) (A) (A) (A) (A) (A) (A) (A) (A) (A) (A)
                 (A) (A) (A) (A) (A) (A) (A) (A) (A) (A) (A) (A)
                 (A) (A) (A) (A) (A) (A) (A) (A) (A) (A) (A) (A)
                 (A) (A) (A) (A) (A) (A) (A) (A) (A) (A) (A) (A)
                 (A) (A) (A) (A) (A) (A) (A) (A) (A) (A) (A) (A)
                 (A) (A) (A) (A) (A) (A) (A) (A) (A) (A) (A) (A)
                 (A) (A) (A) (A) (A) (A) (A) (A) (A) (A) (A) (A)
                 (A) (A) (A) (A) (A) (A) (A) (A) (A) (A) (A) (A)
                 (A) (A) (A) (A) (A) (A) (A) (A) (A) (A) (A) (A)
                 (A) (A) (A) (A) (A) (A) (A) (A) (A) (A) (A)
 The electronic state is 1-A.
 Alpha  occ. eigenvalues --  -77.13666 -14.32678 -14.31938 -14.28497 -14.25351
 Alpha  occ. eigenvalues --  -10.21542 -10.20469 -10.20022 -10.19552 -10.18599
 Alpha  occ. eigenvalues --  -10.18495 -10.18059 -10.17683 -10.17404 -10.16884
 Alpha  occ. eigenvalues --  -10.16161 -10.16136 -10.15907 -10.15717 -10.15438
 Alpha  occ. eigenvalues --  -10.15027  -6.58991  -4.75320  -4.75211  -4.75175
 Alpha  occ. eigenvalues --   -0.94491  -0.91420  -0.88945  -0.84485  -0.78935
 Alpha  occ. eigenvalues --   -0.77045  -0.76287  -0.74492  -0.73494  -0.71843
 Alpha  occ. eigenvalues --   -0.70678  -0.68122  -0.66689  -0.64061  -0.60826
 Alpha  occ. eigenvalues --   -0.59176  -0.57499  -0.56885  -0.56224  -0.54870
 Alpha  occ. eigenvalues --   -0.52222  -0.51259  -0.49852  -0.48791  -0.47527
 Alpha  occ. eigenvalues --   -0.47291  -0.45680  -0.44533  -0.43795  -0.43568
 Alpha  occ. eigenvalues --   -0.42371  -0.41558  -0.41357  -0.40651  -0.40197
 Alpha  occ. eigenvalues --   -0.39000  -0.38682  -0.38268  -0.37772  -0.37675
 Alpha  occ. eigenvalues --   -0.36833  -0.36043  -0.35356  -0.35199  -0.34520
 Alpha  occ. eigenvalues --   -0.34023  -0.33608  -0.33421  -0.33117  -0.32553
 Alpha  occ. eigenvalues --   -0.31924  -0.31522  -0.30851  -0.30237  -0.28876
 Alpha  occ. eigenvalues --   -0.25779  -0.25182  -0.22268  -0.20362  -0.15894
 Alpha  occ. eigenvalues --   -0.15613
 Alpha virt. eigenvalues --   -0.09759   0.06727   0.07932   0.09050   0.09400
 Alpha virt. eigenvalues --    0.10991   0.11485   0.11711   0.12337   0.12879
 Alpha virt. eigenvalues --    0.13010   0.13273   0.13618   0.14793   0.15144
 Alpha virt. eigenvalues --    0.15711   0.15841   0.16654   0.16906   0.17371
 Alpha virt. eigenvalues --    0.17865   0.17906   0.18315   0.18726   0.19228
 Alpha virt. eigenvalues --    0.19546   0.19779   0.20436   0.20727   0.21133
 Alpha virt. eigenvalues --    0.21476   0.21931   0.22107   0.22497   0.22973
 Alpha virt. eigenvalues --    0.23304   0.23956   0.24391   0.24590   0.24794
 Alpha virt. eigenvalues --    0.25928   0.26080   0.26592   0.27386   0.27783
 Alpha virt. eigenvalues --    0.29304   0.29529   0.30916   0.31303   0.31820
 Alpha virt. eigenvalues --    0.32418   0.33986   0.34659   0.35329   0.36232
 Alpha virt. eigenvalues --    0.38506   0.41677   0.42659   0.49215   0.50006
 Alpha virt. eigenvalues --    0.52015   0.52664   0.53387   0.53665   0.53939
 Alpha virt. eigenvalues --    0.54922   0.55762   0.56497   0.57140   0.57826
 Alpha virt. eigenvalues --    0.58248   0.59168   0.59637   0.60450   0.61423
 Alpha virt. eigenvalues --    0.61669   0.62581   0.63372   0.63895   0.64210
 Alpha virt. eigenvalues --    0.64612   0.65185   0.66158   0.66823   0.67788
 Alpha virt. eigenvalues --    0.68771   0.69680   0.69960   0.70991   0.71571
 Alpha virt. eigenvalues --    0.72287   0.73571   0.74171   0.74452   0.76449
 Alpha virt. eigenvalues --    0.77257   0.78067   0.79341   0.80218   0.80937
 Alpha virt. eigenvalues --    0.81892   0.83038   0.83446   0.84295   0.85251
 Alpha virt. eigenvalues --    0.85815   0.86061   0.86561   0.86794   0.86872
 Alpha virt. eigenvalues --    0.87032   0.87768   0.88306   0.88736   0.89166
 Alpha virt. eigenvalues --    0.89586   0.90633   0.90831   0.91307   0.92027
 Alpha virt. eigenvalues --    0.92208   0.92612   0.93345   0.93949   0.94593
 Alpha virt. eigenvalues --    0.94649   0.95084   0.95913   0.96244   0.96528
 Alpha virt. eigenvalues --    0.97233   0.98225   0.98776   0.99240   0.99860
 Alpha virt. eigenvalues --    1.00699   1.01404   1.01862   1.03311   1.03930
 Alpha virt. eigenvalues --    1.04538   1.05062   1.05721   1.07100   1.07694
 Alpha virt. eigenvalues --    1.08975   1.10453   1.11086   1.11935   1.13166
 Alpha virt. eigenvalues --    1.15631   1.17638   1.18578   1.20522   1.21950
 Alpha virt. eigenvalues --    1.23107   1.24453   1.28050   1.30750   1.32589
 Alpha virt. eigenvalues --    1.34539   1.37609   1.39679   1.42322   1.43027
 Alpha virt. eigenvalues --    1.45178   1.46321   1.47713   1.49919   1.50310
 Alpha virt. eigenvalues --    1.52200   1.52826   1.54975   1.56477   1.58690
 Alpha virt. eigenvalues --    1.60636   1.64390   1.65639   1.66908   1.69262
 Alpha virt. eigenvalues --    1.70851   1.73874   1.75025   1.75553   1.76486
 Alpha virt. eigenvalues --    1.76992   1.78925   1.79464   1.81155   1.82386
 Alpha virt. eigenvalues --    1.83249   1.83880   1.84871   1.85299   1.85694
 Alpha virt. eigenvalues --    1.87648   1.88578   1.89147   1.89821   1.91552
 Alpha virt. eigenvalues --    1.92311   1.93157   1.93556   1.94921   1.96846
 Alpha virt. eigenvalues --    1.97122   2.00125   2.01787   2.02928   2.04111
 Alpha virt. eigenvalues --    2.04791   2.05302   2.05746   2.06299   2.07069
 Alpha virt. eigenvalues --    2.07229   2.07937   2.09855   2.10245   2.10630
 Alpha virt. eigenvalues --    2.11462   2.12371   2.12605   2.13351   2.14506
 Alpha virt. eigenvalues --    2.16264   2.18195   2.18592   2.22121   2.23478
 Alpha virt. eigenvalues --    2.25590   2.25650   2.26661   2.27522   2.27656
 Alpha virt. eigenvalues --    2.28704   2.29399   2.30354   2.30936   2.32646
 Alpha virt. eigenvalues --    2.33098   2.34972   2.36249   2.38287   2.41191
 Alpha virt. eigenvalues --    2.42184   2.43098   2.43670   2.46233   2.46643
 Alpha virt. eigenvalues --    2.48141   2.49095   2.50164   2.51421   2.53445
 Alpha virt. eigenvalues --    2.55974   2.58108   2.58645   2.60002   2.61414
 Alpha virt. eigenvalues --    2.61971   2.64119   2.67543   2.69162   2.70175
 Alpha virt. eigenvalues --    2.71538   2.73031   2.74641   2.76080   2.76894
 Alpha virt. eigenvalues --    2.77528   2.78151   2.80003   2.86053   2.87893
 Alpha virt. eigenvalues --    2.91987   2.95297   3.01202   3.65861   4.04556
 Alpha virt. eigenvalues --    4.06930   4.16318   4.20136   4.23638   4.24929
 Alpha virt. eigenvalues --    4.25967   4.28509   4.28769   4.32187   4.33417
 Alpha virt. eigenvalues --    4.34969   4.42560   4.54217   4.56647   4.57822
 Alpha virt. eigenvalues --    4.58784   4.60631   4.64968   4.72997
          Condensed to atoms (all electrons):
 Mulliken charges:
               1
     1  P    0.972658
     2  N   -0.570504
     3  C    0.243144
     4  C   -0.454974
     5  C   -0.442834
     6  C   -0.470859
     7  N   -0.510974
     8  C   -0.087592
     9  C   -0.283498
    10  C   -0.296420
    11  C   -0.119255
    12  N   -0.503827
    13  C   -0.140816
    14  C   -0.285185
    15  C   -0.320397
    16  C   -0.117761
    17  N   -0.447902
    18  C   -0.138194
    19  C   -0.305325
    20  C   -0.296250
    21  C   -0.183367
    22  H    0.139041
    23  H    0.136573
    24  H    0.128208
    25  H    0.141642
    26  H    0.130216
    27  H    0.139510
    28  H    0.133853
    29  H    0.145267
    30  H    0.124316
    31  H    0.135158
    32  H    0.142311
    33  H    0.127800
    34  H    0.134279
    35  H    0.122368
    36  H    0.129566
    37  H    0.137029
    38  H    0.114902
    39  H    0.148052
    40  H    0.136720
    41  H    0.140644
    42  H    0.141302
    43  H    0.161029
    44  H    0.132912
    45  H    0.187340
    46  H    0.137805
    47  H    0.154878
    48  H    0.197705
    49  H    0.141286
    50  H    0.146469
    51  H    0.139058
    52  H    0.137448
    53  H    0.201135
    54  H    0.194310
 Sum of Mulliken charges =   0.00000
 Mulliken charges with hydrogens summed into heavy atoms:
               1
     1  P    0.972658
     2  N   -0.570504
     3  C    0.243144
     4  C   -0.051153
     5  C   -0.031465
     6  C   -0.067422
     7  N   -0.510974
     8  C    0.189877
     9  C   -0.021419
    10  C   -0.044486
    11  C    0.132676
    12  N   -0.503827
    13  C    0.143956
    14  C   -0.003239
    15  C   -0.026456
    16  C    0.207384
    17  N   -0.447902
    18  C    0.214389
    19  C   -0.017570
    20  C   -0.019744
    21  C    0.212079
 APT charges:
               1
     1  P    0.616908
     2  N   -0.469385
     3  C    0.462214
     4  C   -0.088362
     5  C    0.065397
     6  C   -0.054555
     7  N   -0.767174
     8  C    0.412766
     9  C    0.105998
    10  C    0.099917
    11  C    0.242751
    12  N   -0.406387
    13  C    0.395945
    14  C    0.091483
    15  C    0.069097
    16  C    0.226214
    17  N   -0.605002
    18  C    0.283541
    19  C    0.114526
    20  C    0.067326
    21  C    0.355569
    22  H   -0.029003
    23  H    0.102529
    24  H   -0.052869
    25  H   -0.028066
    26  H   -0.047832
    27  H   -0.011681
    28  H   -0.028475
    29  H    0.017135
    30  H   -0.048694
    31  H   -0.107220
    32  H   -0.022855
    33  H   -0.056650
    34  H   -0.045711
    35  H   -0.056904
    36  H   -0.050484
    37  H    0.133553
    38  H   -0.099626
    39  H   -0.048563
    40  H   -0.091596
    41  H   -0.041178
    42  H   -0.043172
    43  H   -0.028030
    44  H   -0.050853
    45  H    0.046902
    46  H   -0.077164
    47  H   -0.077083
    48  H   -0.018147
    49  H   -0.050013
    50  H   -0.044689
    51  H   -0.048236
    52  H   -0.056250
    53  H   -0.023633
    54  H   -0.134228
 Sum of APT charges =   0.00000
 APT charges with hydrogens summed into heavy atoms:
               1
     1  P    0.616908
     2  N   -0.469385
     3  C    0.462214
     4  C   -0.067706
     5  C   -0.022181
     6  C   -0.114590
     7  N   -0.767174
     8  C    0.282691
     9  C    0.003636
    10  C   -0.007471
    11  C    0.276678
    12  N   -0.406387
    13  C    0.255787
    14  C    0.007133
    15  C   -0.009786
    16  C    0.195952
    17  N   -0.605002
    18  C    0.188310
    19  C    0.019824
    20  C   -0.037159
    21  C    0.197707
 Electronic spatial extent (au):  <R**2>=           6418.9105
 Charge=              0.0000 electrons
 Dipole moment (field-independent basis, Debye):
    X=              0.8911    Y=             -0.8239    Z=             -1.5255  Tot=              1.9494
 Quadrupole moment (field-independent basis, Debye-Ang):
   XX=           -130.1835   YY=           -136.6197   ZZ=           -139.6763
   XY=             -3.3305   XZ=              0.1390   YZ=              1.0810
 Traceless Quadrupole moment (field-independent basis, Debye-Ang):
   XX=              5.3097   YY=             -1.1265   ZZ=             -4.1832
   XY=             -3.3305   XZ=              0.1390   YZ=              1.0810
 Octapole moment (field-independent basis, Debye-Ang**2):
  XXX=             12.3226  YYY=             -5.2442  ZZZ=             -3.5986  XYY=              2.2057
  XXY=              3.7695  XXZ=             -3.2284  XZZ=              2.2133  YZZ=              2.9421
  YYZ=              0.1227  XYZ=             -0.0856
 Hexadecapole moment (field-independent basis, Debye-Ang**3):
 XXXX=          -4374.5590 YYYY=          -3256.2541 ZZZZ=          -1133.5270 XXXY=            -31.6231
 XXXZ=             13.1252 YYYX=            -38.5527 YYYZ=              0.3839 ZZZX=             11.9683
 ZZZY=              1.3012 XXYY=          -1272.9359 XXZZ=           -927.3060 YYZZ=           -726.4770
 XXYZ=             -2.9463 YYXZ=             -3.4007 ZZXY=             -8.0730
 N-N= 2.211409347588D+03 E-N=-7.202162625922D+03  KE= 1.182100475129D+03
  Exact polarizability: 277.125 -13.669 246.321  -6.888  -9.853 185.110
 Approx polarizability: 428.729 -36.875 361.162 -39.844 -38.344 353.113
 Calling FoFJK, ICntrl=    100127 FMM=F ISym2X=0 I1Cent= 0 IOpClX= 0 NMat=1 NMatS=1 NMatT=0.
 ***** Axes restored to original set *****
 -------------------------------------------------------------------
 Center     Atomic                   Forces (Hartrees/Bohr)
 Number     Number              X              Y              Z
 -------------------------------------------------------------------
      1       15           0.009895967    0.032160203   -0.012285711
      2        7           0.030615595    0.014640529    0.114465076
      3        6          -0.041967385   -0.000093711   -0.012331478
      4        6           0.002080947   -0.005725701    0.020295612
      5        6           0.000612079    0.007739243    0.002496401
      6        6          -0.001267323   -0.007644512    0.008750496
      7        7           0.007181532    0.016538074   -0.032797327
      8        6          -0.012606802   -0.000435870    0.003195341
      9        6          -0.007239113    0.007881651   -0.003904879
     10        6          -0.003699412    0.004332394   -0.005712015
     11        6          -0.022756299    0.038186357   -0.036739610
     12        7          -0.033481355   -0.041308463   -0.005618481
     13        6           0.001770223   -0.011341582   -0.013037338
     14        6          -0.009550459   -0.007247269   -0.004844194
     15        6          -0.011236514    0.005191750    0.011114732
     16        6          -0.017428246    0.014221012    0.016207808
     17        7           0.001933541   -0.027566394   -0.019792533
     18        6           0.031063921    0.008132559   -0.020112882
     19        6           0.011386386   -0.004081977    0.001225740
     20        6           0.013034507   -0.010572798   -0.004940326
     21        6           0.068185813   -0.057194258    0.029622254
     22        1           0.000470584    0.006050577   -0.000458155
     23        1          -0.031706774   -0.010395114    0.043328583
     24        1          -0.006617516    0.000900076    0.000545904
     25        1           0.001370688    0.004365348   -0.003994042
     26        1           0.001101314   -0.000947418   -0.003107262
     27        1           0.002120219   -0.000127758    0.002706742
     28        1           0.006876235   -0.004439498   -0.008877911
     29        1           0.016934032   -0.003466097    0.009348216
     30        1           0.000727696    0.000858021    0.001937053
     31        1           0.001432076    0.001804900    0.005648644
     32        1           0.004854219   -0.001032752    0.002422434
     33        1          -0.002812999    0.003389586    0.001737607
     34        1          -0.001419526   -0.000306973    0.001697411
     35        1           0.003209470    0.000358819   -0.000183622
     36        1           0.002807868    0.000633224   -0.001125576
     37        1          -0.076957720    0.058761490   -0.046401095
     38        1          -0.004197148   -0.005044825   -0.009444393
     39        1          -0.001968420   -0.003110584   -0.005825357
     40        1           0.007987729   -0.001291066   -0.005668263
     41        1          -0.000697056   -0.001966415   -0.003026800
     42        1          -0.000199754   -0.000892154   -0.000692355
     43        1          -0.006926671    0.002941191    0.000259250
     44        1           0.000347327    0.000920995    0.002881089
     45        1           0.004154061    0.007196368   -0.009231058
     46        1          -0.000552415    0.006461898   -0.004149416
     47        1          -0.009367402   -0.009049055   -0.002028991
     48        1           0.014736345    0.009772815   -0.043042576
     49        1           0.002060656    0.001839467    0.002663266
     50        1           0.000695968    0.000443343    0.001573398
     51        1          -0.001119833   -0.000727758   -0.001257560
     52        1           0.000207854   -0.001089885   -0.003092828
     53        1           0.018027741   -0.028247742    0.015325822
     54        1           0.037893548   -0.010374259    0.024275155
 -------------------------------------------------------------------
 Cartesian Forces:  Max     0.114465076 RMS     0.019429638
 FormGI is forming the generalized inverse of G from B-inverse, IUseBI=4.

 GradGradGradGradGradGradGradGradGradGradGradGradGradGradGradGradGradGrad
 Berny optimization.
 Internal  Forces:  Max     0.330755665 RMS     0.045754187
 Search for a local minimum.
 Step number   1 out of a maximum of  324
 All quantities printed in internal units (Hartrees-Bohrs-Radians)
 Mixed Optimization -- RFO/linear search
 Second derivative matrix not updated -- analytic derivatives used.
 ITU=  0
     Eigenvalues ---   -0.32130  -0.22487  -0.13078  -0.11123  -0.06245
     Eigenvalues ---   -0.04672  -0.03253  -0.02210  -0.00965  -0.00073
     Eigenvalues ---    0.00114   0.00133   0.00143   0.00299   0.00529
     Eigenvalues ---    0.00784   0.01216   0.01490   0.01650   0.01949
     Eigenvalues ---    0.02120   0.02363   0.02698   0.02931   0.03042
     Eigenvalues ---    0.03595   0.03799   0.03965   0.04041   0.04174
     Eigenvalues ---    0.04216   0.04268   0.04281   0.04316   0.04423
     Eigenvalues ---    0.04546   0.04611   0.04647   0.04716   0.04737
     Eigenvalues ---    0.04825   0.04971   0.05011   0.05038   0.05104
     Eigenvalues ---    0.05271   0.05372   0.05464   0.05503   0.05805
     Eigenvalues ---    0.05869   0.06053   0.06092   0.06189   0.06276
     Eigenvalues ---    0.06374   0.06482   0.06546   0.06759   0.07001
     Eigenvalues ---    0.07133   0.07224   0.07476   0.07722   0.07868
     Eigenvalues ---    0.08137   0.08471   0.09214   0.09344   0.09401
     Eigenvalues ---    0.09431   0.09715   0.09738   0.09936   0.10055
     Eigenvalues ---    0.10174   0.10533   0.10826   0.11437   0.11958
     Eigenvalues ---    0.12532   0.12950   0.13714   0.14252   0.14906
     Eigenvalues ---    0.15491   0.15786   0.16324   0.17124   0.18368
     Eigenvalues ---    0.20118   0.20692   0.21189   0.21831   0.22160
     Eigenvalues ---    0.23021   0.23766   0.24433   0.24659   0.25356
     Eigenvalues ---    0.25793   0.26427   0.26733   0.27360   0.27911
     Eigenvalues ---    0.28732   0.29137   0.29521   0.29738   0.29979
     Eigenvalues ---    0.30993   0.31135   0.31528   0.32121   0.32187
     Eigenvalues ---    0.32356   0.32476   0.32869   0.32916   0.33066
     Eigenvalues ---    0.33075   0.33149   0.33160   0.33194   0.33288
     Eigenvalues ---    0.33456   0.33529   0.33631   0.33703   0.33778
     Eigenvalues ---    0.33891   0.34104   0.34124   0.34201   0.34224
     Eigenvalues ---    0.34314   0.34573   0.34608   0.34718   0.34830
     Eigenvalues ---    0.34994   0.35386   0.35503   0.35859   0.35958
     Eigenvalues ---    0.36122   0.36198   0.37056   0.39061   0.47395
     Eigenvalues ---    0.54507   0.58911   0.65001   0.96942   2.93275
     Eigenvalues ---    6.69796
 RFO step:  Lambda=-3.64268767D-01 EMin=-3.21301793D-01
 Linear search not attempted -- first point.
 Maximum step size (   0.300) exceeded in Quadratic search.
    -- Step size scaled by   0.448
 Iteration  1 RMS(Cart)=  0.22532354 RMS(Int)=  0.00762950
 Iteration  2 RMS(Cart)=  0.03456009 RMS(Int)=  0.00066769
 Iteration  3 RMS(Cart)=  0.00043732 RMS(Int)=  0.00065020
 Iteration  4 RMS(Cart)=  0.00000056 RMS(Int)=  0.00065020
 Variable       Old X    -DE/DX   Delta X   Delta X   Delta X     New X
                                 (Linear)    (Quad)   (Total)
    R1        2.93983   0.16193   0.00000   0.03992   0.03992   2.97974
    R2        3.16815   0.17054   0.00000   0.03702   0.03702   3.20517
    R3        3.36371   0.06778   0.00000   0.02698   0.02705   3.39076
    R4        3.36371   0.18874   0.00000  -0.03185  -0.03192   3.33179
    R5        2.84529   0.05890   0.00000  -0.03597  -0.03597   2.80932
    R6        2.90060  -0.00347   0.00000   0.00734   0.00734   2.90794
    R7        2.93808   0.00175   0.00000   0.00370   0.00370   2.94178
    R8        2.93491  -0.00106   0.00000   0.00724   0.00724   2.94215
    R9        2.06357   0.00492   0.00000   0.00048   0.00048   2.06405
   R10        2.05287  -0.04604   0.00000  -0.01012  -0.01012   2.04275
   R11        2.07583   0.00038   0.00000  -0.00122  -0.00122   2.07461
   R12        2.06362   0.00322   0.00000   0.00168   0.00168   2.06530
   R13        2.07745  -0.00221   0.00000  -0.00108  -0.00108   2.07637
   R14        2.07030  -0.00283   0.00000  -0.00285  -0.00285   2.06745
   R15        2.04966   0.01097   0.00000   0.00724   0.00724   2.05690
   R16        2.07450  -0.01962   0.00000   0.00142   0.00142   2.07593
   R17        2.07356   0.00126   0.00000   0.00152   0.00152   2.07508
   R18        2.75680   0.03182   0.00000   0.00799   0.00802   2.76482
   R19        2.75726   0.05616   0.00000   0.04731   0.04734   2.80459
   R20        2.87454  -0.00841   0.00000   0.00135   0.00137   2.87590
   R21        2.06643   0.00543   0.00000   0.00219   0.00219   2.06862
   R22        2.07159  -0.00365   0.00000  -0.00419  -0.00419   2.06740
   R23        2.85447  -0.01979   0.00000   0.00310   0.00303   2.85750
   R24        2.06240   0.00347   0.00000   0.00168   0.00168   2.06409
   R25        2.07313   0.00032   0.00000   0.00041   0.00041   2.07354
   R26        2.87071   0.00785   0.00000   0.00905   0.00904   2.87975
   R27        2.07154   0.00269   0.00000  -0.00121  -0.00121   2.07033
   R28        2.06730   0.00099   0.00000   0.00075   0.00075   2.06805
   R29        2.06708  -0.09348   0.00000   0.01705   0.01705   2.08413
   R30        2.06516   0.01110   0.00000   0.00017   0.00017   2.06533
   R31        2.79627   0.01212   0.00000   0.00466   0.00439   2.80066
   R32        2.75657   0.02884   0.00000   0.00566   0.00545   2.76202
   R33        2.87070   0.01583   0.00000   0.00523   0.00527   2.87597
   R34        2.06922  -0.00167   0.00000   0.00400   0.00400   2.07322
   R35        2.06573   0.00518   0.00000   0.00371   0.00371   2.06944
   R36        2.83779   0.02110   0.00000   0.01249   0.01278   2.85057
   R37        2.06835   0.00077   0.00000   0.00038   0.00038   2.06874
   R38        2.07195   0.00035   0.00000   0.00029   0.00029   2.07224
   R39        2.86821   0.01559   0.00000   0.00794   0.00807   2.87628
   R40        2.06904  -0.00313   0.00000   0.00098   0.00098   2.07002
   R41        2.06997   0.00064   0.00000   0.00030   0.00030   2.07027
   R42        2.04322  -0.00171   0.00000  -0.00271  -0.00271   2.04051
   R43        2.06529   0.00692   0.00000   0.00482   0.00482   2.07011
   R44        2.75436   0.01716   0.00000   0.00379   0.00410   2.75846
   R45        2.74927   0.03962   0.00000  -0.01975  -0.01954   2.72972
   R46        2.88126  -0.00402   0.00000   0.00943   0.00939   2.89065
   R47        2.04773   0.01080   0.00000   0.01046   0.01046   2.05820
   R48        2.07998  -0.03109   0.00000  -0.04333  -0.04333   2.03666
   R49        2.85988  -0.03927   0.00000   0.01706   0.01679   2.87667
   R50        2.06976   0.00019   0.00000  -0.00041  -0.00041   2.06935
   R51        2.06937   0.00112   0.00000   0.00089   0.00089   2.07025
   R52        2.86468   0.00677   0.00000   0.01129   0.01109   2.87577
   R53        2.07166   0.00130   0.00000   0.00096   0.00096   2.07262
   R54        2.06731   0.00144   0.00000   0.00049   0.00049   2.06780
   R55        2.06486  -0.01411   0.00000  -0.00543  -0.00543   2.05942
   R56        2.06909  -0.00385   0.00000  -0.01896  -0.01896   2.05013
    A1        1.82639  -0.03569   0.00000  -0.03306  -0.03618   1.79020
    A2        1.54913   0.00006   0.00000   0.00337   0.00437   1.55351
    A3        1.59246   0.03760   0.00000   0.11766   0.11929   1.71175
    A4        1.59561  -0.22610   0.00000   0.01983   0.02081   1.61642
    A5        1.54598   0.33076   0.00000   0.06166   0.06319   1.60917
    A6        2.23064   0.19215   0.00000   0.09371   0.09371   2.32436
    A7        2.05402   0.06731   0.00000  -0.01193  -0.01207   2.04196
    A8        1.92463  -0.03661   0.00000   0.01056   0.01027   1.93490
    A9        1.90756  -0.00340   0.00000  -0.00314  -0.00318   1.90438
   A10        1.83888  -0.03004   0.00000  -0.02906  -0.02916   1.80972
   A11        1.93018  -0.03876   0.00000   0.03025   0.03035   1.96053
   A12        1.78913   0.03649   0.00000   0.00496   0.00525   1.79438
   A13        1.94394  -0.00296   0.00000  -0.01766  -0.01757   1.92637
   A14        2.01140   0.02129   0.00000   0.03349   0.03348   2.04488
   A15        1.93356  -0.01588   0.00000   0.00117   0.00104   1.93459
   A16        1.85263   0.00049   0.00000  -0.01389  -0.01371   1.83892
   A17        1.84061   0.00549   0.00000   0.00466   0.00464   1.84525
   A18        1.87167  -0.00915   0.00000  -0.01027  -0.01046   1.86121
   A19        1.96245  -0.00368   0.00000  -0.00385  -0.00385   1.95860
   A20        1.93166  -0.00311   0.00000  -0.00357  -0.00357   1.92809
   A21        1.95474   0.00355   0.00000   0.00546   0.00547   1.96021
   A22        1.84540   0.00415   0.00000   0.00399   0.00398   1.84938
   A23        1.89198  -0.00076   0.00000  -0.00061  -0.00060   1.89138
   A24        1.87213   0.00005   0.00000  -0.00140  -0.00139   1.87073
   A25        1.98881  -0.00537   0.00000  -0.00619  -0.00619   1.98262
   A26        1.94470   0.00156   0.00000  -0.00285  -0.00286   1.94184
   A27        1.94504  -0.00149   0.00000   0.00492   0.00493   1.94997
   A28        1.88117   0.00149   0.00000   0.00116   0.00114   1.88231
   A29        1.82704   0.00393   0.00000   0.00325   0.00326   1.83030
   A30        1.86944   0.00035   0.00000   0.00031   0.00031   1.86975
   A31        2.20043  -0.22363   0.00000  -0.06968  -0.06964   2.13079
   A32        2.16248   0.29391   0.00000   0.08309   0.08302   2.24550
   A33        1.91464  -0.06673   0.00000  -0.01380  -0.01375   1.90089
   A34        1.82262   0.04584   0.00000   0.01120   0.01116   1.83378
   A35        1.93810  -0.01397   0.00000  -0.00212  -0.00218   1.93593
   A36        1.97226  -0.01435   0.00000  -0.00758  -0.00755   1.96472
   A37        1.92888  -0.00003   0.00000   0.00248   0.00256   1.93144
   A38        1.90993  -0.02186   0.00000  -0.00329  -0.00334   1.90659
   A39        1.89158   0.00487   0.00000  -0.00032  -0.00034   1.89124
   A40        1.80583  -0.00431   0.00000   0.00019   0.00020   1.80603
   A41        1.96735   0.00503   0.00000   0.00016   0.00018   1.96753
   A42        1.93299  -0.00497   0.00000  -0.00233  -0.00237   1.93062
   A43        1.95950   0.00323   0.00000   0.00026   0.00027   1.95977
   A44        1.91244   0.00197   0.00000   0.00240   0.00238   1.91482
   A45        1.88529  -0.00109   0.00000  -0.00060  -0.00060   1.88470
   A46        1.81229   0.00203   0.00000   0.00722   0.00718   1.81947
   A47        1.91163   0.00602   0.00000   0.00023   0.00024   1.91187
   A48        1.96305  -0.00536   0.00000  -0.00151  -0.00149   1.96156
   A49        1.92449  -0.00643   0.00000  -0.00315  -0.00318   1.92131
   A50        1.96292   0.00444   0.00000  -0.00270  -0.00267   1.96026
   A51        1.88875  -0.00065   0.00000   0.00002   0.00001   1.88876
   A52        1.85627   0.02827   0.00000  -0.00450  -0.00451   1.85177
   A53        1.98084   0.02142   0.00000   0.02565   0.02566   2.00651
   A54        1.91534  -0.00697   0.00000  -0.00295  -0.00300   1.91234
   A55        1.89960  -0.04365   0.00000  -0.01416  -0.01422   1.88538
   A56        1.93270  -0.00843   0.00000  -0.00292  -0.00287   1.92983
   A57        1.87961   0.00827   0.00000  -0.00151  -0.00163   1.87798
   A58        2.04205  -0.00577   0.00000  -0.01816  -0.01801   2.02404
   A59        2.20216   0.01808   0.00000   0.01076   0.01067   2.21283
   A60        1.84139   0.00201   0.00000   0.00900   0.00967   1.85106
   A61        1.88929  -0.00403   0.00000  -0.00421  -0.00461   1.88467
   A62        1.92342   0.00235   0.00000   0.00232   0.00230   1.92573
   A63        1.95396  -0.00182   0.00000  -0.00088  -0.00063   1.95333
   A64        1.90525   0.00612   0.00000  -0.00027  -0.00015   1.90510
   A65        1.89223   0.00161   0.00000   0.00582   0.00592   1.89815
   A66        1.89896  -0.00396   0.00000  -0.00268  -0.00274   1.89622
   A67        1.79883   0.00864   0.00000  -0.00025  -0.00008   1.79875
   A68        1.96523  -0.00335   0.00000  -0.00262  -0.00272   1.96252
   A69        1.93213  -0.00310   0.00000   0.00156   0.00157   1.93370
   A70        1.95821   0.00206   0.00000   0.00271   0.00279   1.96100
   A71        1.92145  -0.00501   0.00000  -0.00060  -0.00078   1.92067
   A72        1.88757   0.00072   0.00000  -0.00072  -0.00069   1.88688
[...]
   190    C   13  px     Ryd( 3p)     0.00396
   191    C   13  py     Val( 2p)     1.16346
   192    C   13  py     Ryd( 3p)     0.00283
   193    C   13  pz     Val( 2p)     1.12860
   194    C   13  pz     Ryd( 3p)     0.00287
   195    C   13  dxy    Ryd( 3d)     0.00125
   196    C   13  dxz    Ryd( 3d)     0.00096
   197    C   13  dyz    Ryd( 3d)     0.00110
   198    C   13  dx2y2  Ryd( 3d)     0.00091
   199    C   13  dz2    Ryd( 3d)     0.00078
 
   200    C   14  S      Cor( 1S)     1.99934
   201    C   14  S      Val( 2S)     1.04514
   202    C   14  S      Ryd( 3S)     0.00061
   203    C   14  S      Ryd( 4S)     0.00002
   204    C   14  px     Val( 2p)     1.21495
   205    C   14  px     Ryd( 3p)     0.00437
   206    C   14  py     Val( 2p)     1.17680
   207    C   14  py     Ryd( 3p)     0.00177
   208    C   14  pz     Val( 2p)     1.02010
   209    C   14  pz     Ryd( 3p)     0.00189
   210    C   14  dxy    Ryd( 3d)     0.00057
   211    C   14  dxz    Ryd( 3d)     0.00053
   212    C   14  dyz    Ryd( 3d)     0.00056
   213    C   14  dx2y2  Ryd( 3d)     0.00105
   214    C   14  dz2    Ryd( 3d)     0.00077
 
   215    C   15  S      Cor( 1S)     1.99933
   216    C   15  S      Val( 2S)     1.04588
   217    C   15  S      Ryd( 3S)     0.00054
   218    C   15  S      Ryd( 4S)     0.00002
   219    C   15  px     Val( 2p)     1.06917
   220    C   15  px     Ryd( 3p)     0.00172
   221    C   15  py     Val( 2p)     1.19713
   222    C   15  py     Ryd( 3p)     0.00283
   223    C   15  pz     Val( 2p)     1.14896
   224    C   15  pz     Ryd( 3p)     0.00291
   225    C   15  dxy    Ryd( 3d)     0.00081
   226    C   15  dxz    Ryd( 3d)     0.00034
   227    C   15  dyz    Ryd( 3d)     0.00078
   228    C   15  dx2y2  Ryd( 3d)     0.00065
   229    C   15  dz2    Ryd( 3d)     0.00091
 
   230    C   16  S      Cor( 1S)     1.99935
   231    C   16  S      Val( 2S)     1.02689
   232    C   16  S      Ryd( 3S)     0.00181
   233    C   16  S      Ryd( 4S)     0.00003
   234    C   16  px     Val( 2p)     1.10221
   235    C   16  px     Ryd( 3p)     0.00232
   236    C   16  py     Val( 2p)     1.24618
   237    C   16  py     Ryd( 3p)     0.00381
   238    C   16  pz     Val( 2p)     0.85935
   239    C   16  pz     Ryd( 3p)     0.00330
   240    C   16  dxy    Ryd( 3d)     0.00098
   241    C   16  dxz    Ryd( 3d)     0.00072
   242    C   16  dyz    Ryd( 3d)     0.00129
   243    C   16  dx2y2  Ryd( 3d)     0.00063
   244    C   16  dz2    Ryd( 3d)     0.00141
 
   245    N   17  S      Cor( 1S)     1.99943
   246    N   17  S      Val( 2S)     1.32968
   247    N   17  S      Ryd( 3S)     0.00198
   248    N   17  S      Ryd( 4S)     0.00007
   249    N   17  px     Val( 2p)     1.70717
   250    N   17  px     Ryd( 3p)     0.00351
   251    N   17  py     Val( 2p)     1.40286
   252    N   17  py     Ryd( 3p)     0.00263
   253    N   17  pz     Val( 2p)     1.40868
   254    N   17  pz     Ryd( 3p)     0.00197
   255    N   17  dxy    Ryd( 3d)     0.00059
   256    N   17  dxz    Ryd( 3d)     0.00076
   257    N   17  dyz    Ryd( 3d)     0.00058
   258    N   17  dx2y2  Ryd( 3d)     0.00045
   259    N   17  dz2    Ryd( 3d)     0.00038
 
   260    C   18  S      Cor( 1S)     1.99936
   261    C   18  S      Val( 2S)     1.02608
   262    C   18  S      Ryd( 3S)     0.00166
   263    C   18  S      Ryd( 4S)     0.00004
   264    C   18  px     Val( 2p)     1.18059
   265    C   18  px     Ryd( 3p)     0.00312
   266    C   18  py     Val( 2p)     0.90933
   267    C   18  py     Ryd( 3p)     0.00280
   268    C   18  pz     Val( 2p)     1.12690
   269    C   18  pz     Ryd( 3p)     0.00231
   270    C   18  dxy    Ryd( 3d)     0.00120
   271    C   18  dxz    Ryd( 3d)     0.00127
   272    C   18  dyz    Ryd( 3d)     0.00092
   273    C   18  dx2y2  Ryd( 3d)     0.00103
   274    C   18  dz2    Ryd( 3d)     0.00072
 
   275    C   19  S      Cor( 1S)     1.99933
   276    C   19  S      Val( 2S)     1.04548
   277    C   19  S      Ryd( 3S)     0.00061
   278    C   19  S      Ryd( 4S)     0.00002
   279    C   19  px     Val( 2p)     1.16368
   280    C   19  px     Ryd( 3p)     0.00317
   281    C   19  py     Val( 2p)     1.14506
   282    C   19  py     Ryd( 3p)     0.00226
   283    C   19  pz     Val( 2p)     1.10155
   284    C   19  pz     Ryd( 3p)     0.00237
   285    C   19  dxy    Ryd( 3d)     0.00102
   286    C   19  dxz    Ryd( 3d)     0.00097
   287    C   19  dyz    Ryd( 3d)     0.00081
   288    C   19  dx2y2  Ryd( 3d)     0.00034
   289    C   19  dz2    Ryd( 3d)     0.00036
 
   290    C   20  S      Cor( 1S)     1.99933
   291    C   20  S      Val( 2S)     1.04881
   292    C   20  S      Ryd( 3S)     0.00053
   293    C   20  S      Ryd( 4S)     0.00002
   294    C   20  px     Val( 2p)     1.14471
   295    C   20  px     Ryd( 3p)     0.00148
   296    C   20  py     Val( 2p)     1.04797
   297    C   20  py     Ryd( 3p)     0.00182
   298    C   20  pz     Val( 2p)     1.21411
   299    C   20  pz     Ryd( 3p)     0.00401
   300    C   20  dxy    Ryd( 3d)     0.00081
   301    C   20  dxz    Ryd( 3d)     0.00087
   302    C   20  dyz    Ryd( 3d)     0.00053
   303    C   20  dx2y2  Ryd( 3d)     0.00050
   304    C   20  dz2    Ryd( 3d)     0.00080
 
   305    C   21  S      Cor( 1S)     1.99934
   306    C   21  S      Val( 2S)     1.02255
   307    C   21  S      Ryd( 3S)     0.00159
   308    C   21  S      Ryd( 4S)     0.00003
   309    C   21  px     Val( 2p)     1.05816
   310    C   21  px     Ryd( 3p)     0.00361
   311    C   21  py     Val( 2p)     1.18574
   312    C   21  py     Ryd( 3p)     0.00417
   313    C   21  pz     Val( 2p)     0.97030
   314    C   21  pz     Ryd( 3p)     0.00240
   315    C   21  dxy    Ryd( 3d)     0.00076
   316    C   21  dxz    Ryd( 3d)     0.00164
   317    C   21  dyz    Ryd( 3d)     0.00048
   318    C   21  dx2y2  Ryd( 3d)     0.00089
   319    C   21  dz2    Ryd( 3d)     0.00140
 
   320    H   22  S      Val( 1S)     0.79045
   321    H   22  S      Ryd( 2S)     0.01910
 
   322    H   23  S      Val( 1S)     0.77979
   323    H   23  S      Ryd( 2S)     0.01061
 
   324    H   24  S      Val( 1S)     0.77434
   325    H   24  S      Ryd( 2S)     0.00565
 
   326    H   25  S      Val( 1S)     0.78427
   327    H   25  S      Ryd( 2S)     0.02465
 
   328    H   26  S      Val( 1S)     0.76454
   329    H   26  S      Ryd( 2S)     0.00478
 
   330    H   27  S      Val( 1S)     0.77193
   331    H   27  S      Ryd( 2S)     0.00655
 
   332    H   28  S      Val( 1S)     0.77532
   333    H   28  S      Ryd( 2S)     0.00764
 
   334    H   29  S      Val( 1S)     0.77027
   335    H   29  S      Ryd( 2S)     0.00641
 
   336    H   30  S      Val( 1S)     0.76450
   337    H   30  S      Ryd( 2S)     0.00480
 
   338    H   31  S      Val( 1S)     0.78886
   339    H   31  S      Ryd( 2S)     0.02264
 
   340    H   32  S      Val( 1S)     0.78011
   341    H   32  S      Ryd( 2S)     0.01268
 
   342    H   33  S      Val( 1S)     0.76539
   343    H   33  S      Ryd( 2S)     0.00804
 
   344    H   34  S      Val( 1S)     0.76999
   345    H   34  S      Ryd( 2S)     0.00675
 
   346    H   35  S      Val( 1S)     0.78572
   347    H   35  S      Ryd( 2S)     0.03074
 
   348    H   36  S      Val( 1S)     0.76510
   349    H   36  S      Ryd( 2S)     0.00565
 
   350    H   37  S      Val( 1S)     0.77217
   351    H   37  S      Ryd( 2S)     0.01363
 
   352    H   38  S      Val( 1S)     0.77785
   353    H   38  S      Ryd( 2S)     0.01043
 
   354    H   39  S      Val( 1S)     0.78227
   355    H   39  S      Ryd( 2S)     0.01837
 
   356    H   40  S      Val( 1S)     0.76356
   357    H   40  S      Ryd( 2S)     0.01301
 
   358    H   41  S      Val( 1S)     0.75428
   359    H   41  S      Ryd( 2S)     0.00287
 
   360    H   42  S      Val( 1S)     0.76446
   361    H   42  S      Ryd( 2S)     0.00489
 
   362    H   43  S      Val( 1S)     0.76494
   363    H   43  S      Ryd( 2S)     0.00466
 
   364    H   44  S      Val( 1S)     0.75341
   365    H   44  S      Ryd( 2S)     0.00202
 
   366    H   45  S      Val( 1S)     0.75239
   367    H   45  S      Ryd( 2S)     0.00907
 
   368    H   46  S      Val( 1S)     0.76884
   369    H   46  S      Ryd( 2S)     0.00716
 
   370    H   47  S      Val( 1S)     0.79302
   371    H   47  S      Ryd( 2S)     0.01457
 
   372    H   48  S      Val( 1S)     0.78287
   373    H   48  S      Ryd( 2S)     0.01503
 
   374    H   49  S      Val( 1S)     0.75922
   375    H   49  S      Ryd( 2S)     0.00366
 
   376    H   50  S      Val( 1S)     0.76554
   377    H   50  S      Ryd( 2S)     0.00583
 
   378    H   51  S      Val( 1S)     0.77607
   379    H   51  S      Ryd( 2S)     0.01028
 
   380    H   52  S      Val( 1S)     0.76201
   381    H   52  S      Ryd( 2S)     0.00527
 
   382    H   53  S      Val( 1S)     0.77236
   383    H   53  S      Ryd( 2S)     0.00936
 
   384    H   54  S      Val( 1S)     0.78055
   385    H   54  S      Ryd( 2S)     0.00837

 WARNING:  1 low occupancy (<1.9990e) core orbital  found on  P    1


 Summary of Natural Population Analysis:                  
                                                          
                                       Natural Population 
                Natural  -----------------------------------------------
    Atom  No    Charge         Core      Valence    Rydberg      Total
 -----------------------------------------------------------------------
      P    1    2.32360      9.99765     2.53640    0.14236    12.67640
      N    2   -0.81108      1.99938     5.79817    0.01353     7.81108
      C    3    0.11539      1.99912     3.86696    0.01853     5.88461
      C    4   -0.69291      1.99935     4.68279    0.01077     6.69291
      C    5   -0.66744      1.99931     4.65695    0.01119     6.66744
      C    6   -0.66231      1.99932     4.65221    0.01077     6.66231
      N    7   -0.78524      1.99946     5.77278    0.01300     7.78524
      C    8   -0.26422      1.99935     4.24894    0.01593     6.26422
      C    9   -0.46918      1.99934     4.45743    0.01242     6.46918
      C   10   -0.47081      1.99933     4.45969    0.01179     6.47081
      C   11   -0.26488      1.99933     4.24683    0.01872     6.26488
      N   12   -0.78254      1.99942     5.76780    0.01532     7.78254
      C   13   -0.26163      1.99933     4.24583    0.01647     6.26163
      C   14   -0.46848      1.99934     4.45699    0.01215     6.46848
      C   15   -0.47199      1.99933     4.46114    0.01152     6.47199
      C   16   -0.25029      1.99935     4.23464    0.01631     6.25029
      N   17   -0.86072      1.99943     5.84839    0.01291     7.86072
      C   18   -0.25732      1.99936     4.24289    0.01507     6.25732
      C   19   -0.46702      1.99933     4.45576    0.01193     6.46702
      C   20   -0.46628      1.99933     4.45560    0.01136     6.46628
      C   21   -0.25308      1.99934     4.23676    0.01698     6.25308
      H   22    0.19045      0.00000     0.79045    0.01910     0.80955
      H   23    0.20961      0.00000     0.77979    0.01061     0.79039
      H   24    0.22001      0.00000     0.77434    0.00565     0.77999
      H   25    0.19108      0.00000     0.78427    0.02465     0.80892
      H   26    0.23068      0.00000     0.76454    0.00478     0.76932
      H   27    0.22152      0.00000     0.77193    0.00655     0.77848
      H   28    0.21704      0.00000     0.77532    0.00764     0.78296
      H   29    0.22332      0.00000     0.77027    0.00641     0.77668
      H   30    0.23071      0.00000     0.76450    0.00480     0.76929
      H   31    0.18849      0.00000     0.78886    0.02264     0.81151
      H   32    0.20721      0.00000     0.78011    0.01268     0.79279
      H   33    0.22658      0.00000     0.76539    0.00804     0.77342
      H   34    0.22325      0.00000     0.76999    0.00675     0.77675
      H   35    0.18354      0.00000     0.78572    0.03074     0.81646
      H   36    0.22925      0.00000     0.76510    0.00565     0.77075
      H   37    0.21420      0.00000     0.77217    0.01363     0.78580
      H   38    0.21172      0.00000     0.77785    0.01043     0.78828
      H   39    0.19936      0.00000     0.78227    0.01837     0.80064
      H   40    0.22343      0.00000     0.76356    0.01301     0.77657
      H   41    0.24285      0.00000     0.75428    0.00287     0.75715
      H   42    0.23065      0.00000     0.76446    0.00489     0.76935
      H   43    0.23040      0.00000     0.76494    0.00466     0.76960
      H   44    0.24457      0.00000     0.75341    0.00202     0.75543
      H   45    0.23854      0.00000     0.75239    0.00907     0.76146
      H   46    0.22400      0.00000     0.76884    0.00716     0.77600
      H   47    0.19241      0.00000     0.79302    0.01457     0.80759
      H   48    0.20210      0.00000     0.78287    0.01503     0.79790
      H   49    0.23712      0.00000     0.75922    0.00366     0.76288
      H   50    0.22863      0.00000     0.76554    0.00583     0.77137
      H   51    0.21365      0.00000     0.77607    0.01028     0.78635
      H   52    0.23272      0.00000     0.76201    0.00527     0.76728
      H   53    0.21828      0.00000     0.77236    0.00936     0.78172
      H   54    0.21108      0.00000     0.78055    0.00837     0.78892
 =======================================================================
   * Total *   -0.00000     49.98449   121.26132    0.75419   172.00000

                                 Natural Population      
 --------------------------------------------------------
   Core                      49.98449 ( 99.9690% of  50)
   Valence                  121.26132 ( 99.3945% of 122)
   Natural Minimal Basis    171.24581 ( 99.5615% of 172)
   Natural Rydberg Basis      0.75419 (  0.4385% of 172)
 --------------------------------------------------------

    Atom  No          Natural Electron Configuration
 ----------------------------------------------------------------------------
      P    1      [core]3S( 0.80)3p( 1.74)4S( 0.03)3d( 0.09)4p( 0.02)
      N    2      [core]2S( 1.42)2p( 4.37)3p( 0.01)
      C    3      [core]2S( 0.90)2p( 2.97)3p( 0.01)3d( 0.01)
      C    4      [core]2S( 1.11)2p( 3.58)3p( 0.01)
      C    5      [core]2S( 1.11)2p( 3.55)3p( 0.01)
      C    6      [core]2S( 1.11)2p( 3.55)3p( 0.01)
      N    7      [core]2S( 1.36)2p( 4.42)3p( 0.01)
      C    8      [core]2S( 1.03)2p( 3.22)3p( 0.01)3d( 0.01)
      C    9      [core]2S( 1.05)2p( 3.41)3p( 0.01)
      C   10      [core]2S( 1.05)2p( 3.41)3p( 0.01)
      C   11      [core]2S( 1.03)2p( 3.22)3p( 0.01)3d( 0.01)
      N   12      [core]2S( 1.32)2p( 4.45)3p( 0.01)
      C   13      [core]2S( 1.03)2p( 3.21)3p( 0.01)3d( 0.01)
      C   14      [core]2S( 1.05)2p( 3.41)3p( 0.01)
      C   15      [core]2S( 1.05)2p( 3.42)3p( 0.01)
      C   16      [core]2S( 1.03)2p( 3.21)3p( 0.01)3d( 0.01)
      N   17      [core]2S( 1.33)2p( 4.52)3p( 0.01)
      C   18      [core]2S( 1.03)2p( 3.22)3p( 0.01)3d( 0.01)
      C   19      [core]2S( 1.05)2p( 3.41)3p( 0.01)
      C   20      [core]2S( 1.05)2p( 3.41)3p( 0.01)
      C   21      [core]2S( 1.02)2p( 3.21)3p( 0.01)3d( 0.01)
      H   22            1S( 0.79)2S( 0.02)
      H   23            1S( 0.78)2S( 0.01)
      H   24            1S( 0.77)2S( 0.01)
      H   25            1S( 0.78)2S( 0.02)
      H   26            1S( 0.76)
      H   27            1S( 0.77)2S( 0.01)
      H   28            1S( 0.78)2S( 0.01)
      H   29            1S( 0.77)2S( 0.01)
      H   30            1S( 0.76)
      H   31            1S( 0.79)2S( 0.02)
      H   32            1S( 0.78)2S( 0.01)
      H   33            1S( 0.77)2S( 0.01)
      H   34            1S( 0.77)2S( 0.01)
      H   35            1S( 0.79)2S( 0.03)
      H   36            1S( 0.77)2S( 0.01)
      H   37            1S( 0.77)2S( 0.01)
      H   38            1S( 0.78)2S( 0.01)
      H   39            1S( 0.78)2S( 0.02)
      H   40            1S( 0.76)2S( 0.01)
      H   41            1S( 0.75)
      H   42            1S( 0.76)
      H   43            1S( 0.76)
      H   44            1S( 0.75)
      H   45            1S( 0.75)2S( 0.01)
      H   46            1S( 0.77)2S( 0.01)
      H   47            1S( 0.79)2S( 0.01)
      H   48            1S( 0.78)2S( 0.02)
      H   49            1S( 0.76)
      H   50            1S( 0.77)2S( 0.01)
      H   51            1S( 0.78)2S( 0.01)
      H   52            1S( 0.76)2S( 0.01)
      H   53            1S( 0.77)2S( 0.01)
      H   54            1S( 0.78)2S( 0.01)


 NBO analysis skipped by request.
 1\1\GINC-DELLA-R1C4N14\SP\RB3LYP TD-FC\6-31G(d)\C16H33N4P1\BJS4\24-Aug
 -2020\0\\# TD(NStates=10, Root=1) B3LYP/6-31G* scf=qc volume pop=NPA d
 ensity=current Geom=AllCheck Guess=Read\\Title Card Required\\0,1\P,0,
 0.9819448693,0.1617928508,0.4764982931\N,0,0.7760510211,0.388021967,1.
 9941095017\C,0,1.4357121451,1.0670402348,3.0945920033\C,0,2.8884797504
 ,1.5041449639,2.8044031888\C,0,0.6089495401,2.3166784274,3.4730153562\
 C,0,1.4428722833,0.1003837751,4.3002243075\N,0,1.1018293972,1.41136525
 58,-0.6833384892\C,0,-0.0799476867,2.2957878334,-0.8343541856\C,0,0.48
 44484729,3.5949176917,-1.4311715071\C,0,1.9033879317,3.6561629225,-0.8
 491578748\C,0,2.3434693179,2.1872934204,-0.9028286746\N,0,-0.420887959
 9,-0.6200996328,-0.0337905884\C,0,-0.5943299335,-1.1867025637,-1.37648
 92976\C,0,-2.0712540846,-1.6096386837,-1.4053503048\C,0,-2.3393452134,
 -2.0043015579,0.0548179213\C,0,-1.5505507241,-0.9553415949,0.854130628
 1\N,0,2.3559989702,-0.7433619114,0.0490123429\C,0,2.7050453835,-1.9050
 105032,0.8995411442\C,0,3.7557034392,-2.6695799934,0.0809667022\C,0,3.
 3294621223,-2.398135375,-1.3683603869\C,0,2.8954885276,-0.9266761966,-
 1.3179091424\H,0,2.9179424354,2.2603432515,2.0112260293\H,0,3.50135440
 02,0.6535161579,2.4869534248\H,0,3.3530882417,1.9434678376,3.696327955
 8\H,0,0.5955741241,3.0330744457,2.6427124425\H,0,1.0205673062,2.823267
 9284,4.3559920391\H,0,-0.4262934785,2.0304423423,3.6864641236\H,0,2.04
 12984093,-0.7900237575,4.0758860246\H,0,0.4222887604,-0.2293647971,4.5
 212956873\H,0,1.857742393,0.5781063456,5.1970801178\H,0,-0.5534336755,
 2.4916858496,0.1381895711\H,0,-0.8340358365,1.833945114,-1.4815892987\
 H,0,-0.129335753,4.4660849683,-1.1810066294\H,0,0.5308662262,3.5213731
 487,-2.5249690986\H,0,1.8694736156,4.0020373504,0.191646714\H,0,2.5750
 305854,4.3193269311,-1.4044190907\H,0,3.1072367803,1.9415175101,-0.159
 9371792\H,0,2.7635210324,1.953924252,-1.8924847557\H,0,0.0575536608,-2
 .0616704117,-1.5363867656\H,0,-0.3519475048,-0.452097903,-2.1544430393
 \H,0,-2.2631471972,-2.4156264381,-2.1211632749\H,0,-2.6987992656,-0.75
 42120378,-1.6850557509\H,0,-1.9382073113,-3.0070214201,0.249924818\H,0
 ,-3.4032603572,-2.0139333194,0.3129551442\H,0,-1.1949572971,-1.3226325
 495,1.8187897104\H,0,-2.1669114562,-0.0663992306,1.0530799316\H,0,1.82
 42367116,-2.5371274948,1.0872912109\H,0,3.0860442555,-1.5811721235,1.8
 725783729\H,0,3.7877525332,-3.7334745694,0.3364831154\H,0,4.7535316411
 ,-2.2510258416,0.2623685444\H,0,2.4766310479,-3.0352591615,-1.63557346
 38\H,0,4.1252332257,-2.5770456248,-2.0990874848\H,0,2.15569885,-0.6715
 796761,-2.0812071682\H,0,3.7648953276,-0.2711784066,-1.4743829158\\Ver
 sion=ES64L-G16RevA.03\State=1-A\HF=-1189.9307418\RMSD=6.614e-10\Dipole
 =-0.5873678,-0.8403249,-0.5872512\Quadrupole=2.5830319,-1.8026053,-0.7
 804266,0.8013563,0.133839,-0.1600189\PG=C01 [X(C16H33N4P1)]\\@


 THERE IS NO CURE FOR BIRTH AND DEATH SAVE TO ENJOY THE INTERVAL.

                               -- GEORGE SANTAYANA
 Job cpu time:       0 days  2 hours  9 minutes  7.8 seconds.
 Elapsed time:       0 days  0 hours 18 minutes 27.5 seconds.
 File lengths (MBytes):  RWF=   1207 Int=      0 D2E=      0 Chk=    268 Scr=      1
 Normal termination of Gaussian 16 at Mon Aug 24 17:10:35 2020.
