 Entering Gaussian System, Link 0=g16
 Input=base_4_conf9123.com
 Output=base_4_conf9123.log
 Initial command:
 /opt/export//g16/l1.exe "/scratch/bjs4/job.25814/Gau-25816.inp" -scrdir="/scratch/bjs4/job.25814/"
 Entering Link 1 = /opt/export//g16/l1.exe PID=     25817.
  
 Copyright (c) 1988,1990,1992,1993,1995,1998,2003,2009,2016,
            Gaussian, Inc.  All Rights Reserved.
  
 This is part of the Gaussian(R) 16 program.  It is based on
 the Gaussian(R) 09 system (copyright 2009, Gaussian, Inc.),
 the Gaussian(R) 03 system (copyright 2003, Gaussian, Inc.),
 the Gaussian(R) 98 system (copyright 1998, Gaussian, Inc.),
 the Gaussian(R) 94 system (copyright 1995, Gaussian, Inc.),
 the Gaussian 92(TM) system (copyright 1992, Gaussian, Inc.),
 the Gaussian 90(TM) system (copyright 1990, Gaussian, Inc.),
 the Gaussian 88(TM) system (copyright 1988, Gaussian, Inc.),
 the Gaussian 86(TM) system (copyright 1986, Carnegie Mellon
 University), and the Gaussian 82(TM) system (copyright 1983,
 Carnegie Mellon University). Gaussian is a federally registered
 trademark of Gaussian, Inc.
  
 This software contains proprietary and confidential information,
 including trade secrets, belonging to Gaussian, Inc.
  
 This software is provided under written license and may be
 used, copied, transmitted, or stored only in accord with that
 written license.
  
 The following legend is applicable only to US Government
 contracts under FAR:
  
                    RESTRICTED RIGHTS LEGEND
  
 Use, reproduction and disclosure by the US Government is
 subject to restrictions as set forth in subparagraphs (a)
 and (c) of the Commercial Computer Software - Restricted
 Rights clause in FAR 52.227-19.
  
 Gaussian, Inc.
 340 Quinnipiac St., Bldg. 40, Wallingford CT 06492
  
  
 ---------------------------------------------------------------
 Warning -- This program may not be used in any manner that
 competes with the business of Gaussian, Inc. or will provide
 assistance to any competitor of Gaussian, Inc.  The licensee
 of this program is prohibited from giving any competitor of
 Gaussian, Inc. access to this program.  By using this program,
 the user acknowledges that Gaussian, Inc. is engaged in the
 business of creating and licensing software in the field of
 computational chemistry and represents and warrants to the
 licensee that it is not a competitor of Gaussian, Inc. and that
 it will not use this program in any manner prohibited above.
 ---------------------------------------------------------------
  

 Cite this work as:
 Gaussian 16, Revision A.03,
 M. J. Frisch, G. W. Trucks, H. B. Schlegel, G. E. Scuseria, 
 M. A. Robb, J. R. Cheeseman, G. Scalmani, V. Barone, 
 G. A. Petersson, H. Nakatsuji, X. Li, M. Caricato, A. V. Marenich, 
 J. Bloino, B. G. Janesko, R. Gomperts, B. Mennucci, H. P. Hratchian, 
 J. V. Ortiz, A. F. Izmaylov, J. L. Sonnenberg, D. Williams-Young, 
 F. Ding, F. Lipparini, F. Egidi, J. Goings, B. Peng, A. Petrone, 
 T. Henderson, D. Ranasinghe, V. G. Zakrzewski, J. Gao, N. Rega, 
 G. Zheng, W. Liang, M. Hada, M. Ehara, K. Toyota, R. Fukuda, 
 J. Hasegawa, M. Ishida, T. Nakajima, Y. Honda, O. Kitao, H. Nakai, 
 T. Vreven, K. Throssell, J. A. Montgomery, Jr., J. E. Peralta, 
 F. Ogliaro, M. J. Bearpark, J. J. Heyd, E. N. Brothers, K. N. Kudin, 
 V. N. Staroverov, T. A. Keith, R. Kobayashi, J. Normand, 
 K. Raghavachari, A. P. Rendell, J. C. Burant, S. S. Iyengar, 
 J. Tomasi, M. Cossi, J. M. Millam, M. Klene, C. Adamo, R. Cammi, 
 J. W. Ochterski, R. L. Martin, K. Morokuma, O. Farkas, 
 J. B. Foresman, and D. J. Fox, Gaussian, Inc., Wallingford CT, 2016.
 
 ******************************************
 Gaussian 16:  ES64L-G16RevA.03 25-Dec-2016
                24-Aug-2020 
 ******************************************
 %nprocshared=3
 Will use up to    3 processors via shared memory.
 %Mem=6GB
 %Chk=base_4_conf91.chk
 ---------------------------------
 # opt=CalcAll B3LYP/6-31G* scf=qc
 ---------------------------------
 1/10=4,18=20,19=15,26=3,38=1/1,3;
 2/9=110,12=2,17=6,18=5,40=1/2;
 3/5=1,6=6,7=1,11=2,25=1,30=1,71=2,74=-5,140=1/1,2,3;
 4//1;
 5/5=2,8=3,38=5/8;
 8/6=4,10=90,11=11/1;
 11/6=1,8=1,9=11,15=111,16=1/1,2,10;
 10/6=1/2;
 6/7=2,8=2,9=2,10=2,18=1,28=1/1;
 7/10=1,25=1/1,2,3,16;
 1/10=4,18=20,19=15,26=3/3(3);
 2/9=110/2;
 7/8=1,9=1,25=1,44=-1/16;
 99//99;
 2/9=110/2;
 3/5=1,6=6,7=1,11=2,25=1,30=1,71=2,74=-5,140=1/1,2,3;
 4/5=5,16=3,69=1/1;
 5/5=2,8=3,38=5/8;
 8/6=4,10=90,11=11/1;
 11/6=1,8=1,9=11,15=111,16=1/1,2,10;
 10/6=1/2;
 7/10=1,25=1/1,2,3,16;
 1/10=4,18=20,19=15,26=3/3(-8);
 2/9=110/2;
 6/7=2,8=2,9=2,10=2,18=1,19=2,28=1/1;
 7/8=1,9=1,25=1,44=-1/16;
 99//99;
 -------------------
 Title Card Required
 -------------------
 Symbolic Z-matrix:
 Charge =  0 Multiplicity = 1
 C                     1.01311  -0.14375  -0.12894 
 C                     2.5217    0.0373    0.0088 
 N1                    2.953     1.4118    0.3252 
 C                     2.4005    1.9412    1.5807 
 C                     0.8812    2.0409    1.6614 
 C                     4.4213    1.4981    0.2306 
 C                     4.99746   2.87277   0.55323 
 H                     0.79424  -1.12847  -0.55545 
 H                     0.57987   0.61199  -0.79166 
 H                     0.50917  -0.09149   0.84143 
 H                     2.96225  -0.24828  -0.95518 
 H                     2.9011   -0.67676   0.74982 
 H                     2.83094   2.92865   1.78679 
 H                     2.75736   1.33004   2.41856 
 H                     0.4612    2.60064   0.82127 
 H                     0.59428   2.56306   2.58019 
 H                     0.41614   1.05073   1.68719 
 H                     4.71863   1.26584  -0.80068 
 H                     4.90215   0.74655   0.86972 
 H                     4.51659   3.65247  -0.04502 
 H                     6.06844   2.88768   0.32593 
 H                     4.88646   3.12439   1.61218 
 

 GradGradGradGradGradGradGradGradGradGradGradGradGradGradGradGradGradGrad
 Berny optimization.
 Initialization pass.
                           ----------------------------
                           !    Initial Parameters    !
                           ! (Angstroms and Degrees)  !
 --------------------------                            --------------------------
 ! Name  Definition              Value          Derivative Info.                !
 --------------------------------------------------------------------------------
 ! R1    R(1,2)                  1.5256         calculate D2E/DX2 analytically  !
 ! R2    R(1,8)                  1.0952         calculate D2E/DX2 analytically  !
 ! R3    R(1,9)                  1.0945         calculate D2E/DX2 analytically  !
 ! R4    R(1,10)                 1.0947         calculate D2E/DX2 analytically  !
 ! R5    R(2,3)                  1.4749         calculate D2E/DX2 analytically  !
 ! R6    R(2,11)                 1.0977         calculate D2E/DX2 analytically  !
 ! R7    R(2,12)                 1.0968         calculate D2E/DX2 analytically  !
 ! R8    R(3,4)                  1.4703         calculate D2E/DX2 analytically  !
 ! R9    R(3,6)                  1.4739         calculate D2E/DX2 analytically  !
 ! R10   R(4,5)                  1.5247         calculate D2E/DX2 analytically  !
 ! R11   R(4,13)                 1.0967         calculate D2E/DX2 analytically  !
 ! R12   R(4,14)                 1.0968         calculate D2E/DX2 analytically  !
 ! R13   R(5,15)                 1.0934         calculate D2E/DX2 analytically  !
 ! R14   R(5,16)                 1.0951         calculate D2E/DX2 analytically  !
 ! R15   R(5,17)                 1.0942         calculate D2E/DX2 analytically  !
 ! R16   R(6,7)                  1.525          calculate D2E/DX2 analytically  !
 ! R17   R(6,18)                 1.0981         calculate D2E/DX2 analytically  !
 ! R18   R(6,19)                 1.0975         calculate D2E/DX2 analytically  !
 ! R19   R(7,20)                 1.0941         calculate D2E/DX2 analytically  !
 ! R20   R(7,21)                 1.0949         calculate D2E/DX2 analytically  !
 ! R21   R(7,22)                 1.0941         calculate D2E/DX2 analytically  !
 ! A1    A(2,1,8)              109.8444         calculate D2E/DX2 analytically  !
 ! A2    A(2,1,9)              111.3533         calculate D2E/DX2 analytically  !
 ! A3    A(2,1,10)             111.6857         calculate D2E/DX2 analytically  !
 ! A4    A(8,1,9)              107.8129         calculate D2E/DX2 analytically  !
 ! A5    A(8,1,10)             107.2257         calculate D2E/DX2 analytically  !
 ! A6    A(9,1,10)             108.7562         calculate D2E/DX2 analytically  !
 ! A7    A(1,2,3)              114.7786         calculate D2E/DX2 analytically  !
 ! A8    A(1,2,11)             106.6605         calculate D2E/DX2 analytically  !
 ! A9    A(1,2,12)             109.0135         calculate D2E/DX2 analytically  !
 ! A10   A(3,2,11)             108.2693         calculate D2E/DX2 analytically  !
 ! A11   A(3,2,12)             111.139          calculate D2E/DX2 analytically  !
 ! A12   A(11,2,12)            106.5661         calculate D2E/DX2 analytically  !
 ! A13   A(2,3,4)              114.1321         calculate D2E/DX2 analytically  !
 ! A14   A(2,3,6)              109.3972         calculate D2E/DX2 analytically  !
 ! A15   A(4,3,6)              114.084          calculate D2E/DX2 analytically  !
 ! A16   A(3,4,5)              116.3069         calculate D2E/DX2 analytically  !
 ! A17   A(3,4,13)             109.7041         calculate D2E/DX2 analytically  !
 ! A18   A(3,4,14)             109.2339         calculate D2E/DX2 analytically  !
 ! A19   A(5,4,13)             108.8            calculate D2E/DX2 analytically  !
 ! A20   A(5,4,14)             108.6767         calculate D2E/DX2 analytically  !
 ! A21   A(13,4,14)            103.3242         calculate D2E/DX2 analytically  !
 ! A22   A(4,5,15)             112.0594         calculate D2E/DX2 analytically  !
 ! A23   A(4,5,16)             109.6743         calculate D2E/DX2 analytically  !
 ! A24   A(4,5,17)             111.4429         calculate D2E/DX2 analytically  !
 ! A25   A(15,5,16)            107.4537         calculate D2E/DX2 analytically  !
 ! A26   A(15,5,17)            108.5474         calculate D2E/DX2 analytically  !
 ! A27   A(16,5,17)            107.4785         calculate D2E/DX2 analytically  !
 ! A28   A(3,6,7)              114.5553         calculate D2E/DX2 analytically  !
 ! A29   A(3,6,18)             108.5196         calculate D2E/DX2 analytically  !
 ! A30   A(3,6,19)             111.0388         calculate D2E/DX2 analytically  !
 ! A31   A(7,6,18)             106.6804         calculate D2E/DX2 analytically  !
 ! A32   A(7,6,19)             109.18           calculate D2E/DX2 analytically  !
 ! A33   A(18,6,19)            106.4648         calculate D2E/DX2 analytically  !
 ! A34   A(6,7,20)             111.1398         calculate D2E/DX2 analytically  !
 ! A35   A(6,7,21)             109.7484         calculate D2E/DX2 analytically  !
 ! A36   A(6,7,22)             111.9463         calculate D2E/DX2 analytically  !
 ! A37   A(20,7,21)            107.8592         calculate D2E/DX2 analytically  !
 ! A38   A(20,7,22)            108.7084         calculate D2E/DX2 analytically  !
 ! A39   A(21,7,22)            107.2793         calculate D2E/DX2 analytically  !
 ! D1    D(8,1,2,3)            168.7483         calculate D2E/DX2 analytically  !
 ! D2    D(8,1,2,11)            48.8447         calculate D2E/DX2 analytically  !
 ! D3    D(8,1,2,12)           -65.8582         calculate D2E/DX2 analytically  !
 ! D4    D(9,1,2,3)             49.3889         calculate D2E/DX2 analytically  !
 ! D5    D(9,1,2,11)           -70.5148         calculate D2E/DX2 analytically  !
 ! D6    D(9,1,2,12)           174.7824         calculate D2E/DX2 analytically  !
 ! D7    D(10,1,2,3)           -72.4143         calculate D2E/DX2 analytically  !
 ! D8    D(10,1,2,11)          167.682          calculate D2E/DX2 analytically  !
 ! D9    D(10,1,2,12)           52.9791         calculate D2E/DX2 analytically  !
 ! D10   D(1,2,3,4)             59.2942         calculate D2E/DX2 analytically  !
 ! D11   D(1,2,3,6)           -171.5226         calculate D2E/DX2 analytically  !
 ! D12   D(11,2,3,4)           178.3015         calculate D2E/DX2 analytically  !
 ! D13   D(11,2,3,6)           -52.5152         calculate D2E/DX2 analytically  !
 ! D14   D(12,2,3,4)           -64.983          calculate D2E/DX2 analytically  !
 ! D15   D(12,2,3,6)            64.2003         calculate D2E/DX2 analytically  !
 ! D16   D(2,3,4,5)            -60.7059         calculate D2E/DX2 analytically  !
 ! D17   D(2,3,4,13)           175.3136         calculate D2E/DX2 analytically  !
 ! D18   D(2,3,4,14)            62.7183         calculate D2E/DX2 analytically  !
 ! D19   D(6,3,4,5)            172.5052         calculate D2E/DX2 analytically  !
 ! D20   D(6,3,4,13)            48.5247         calculate D2E/DX2 analytically  !
 ! D21   D(6,3,4,14)           -64.0706         calculate D2E/DX2 analytically  !
 ! D22   D(2,3,6,7)           -179.294          calculate D2E/DX2 analytically  !
 ! D23   D(2,3,6,18)            61.6375         calculate D2E/DX2 analytically  !
 ! D24   D(2,3,6,19)           -55.0484         calculate D2E/DX2 analytically  !
 ! D25   D(4,3,6,7)            -50.0843         calculate D2E/DX2 analytically  !
 ! D26   D(4,3,6,18)          -169.1528         calculate D2E/DX2 analytically  !
 ! D27   D(4,3,6,19)            74.1613         calculate D2E/DX2 analytically  !
 ! D28   D(3,4,5,15)           -53.5256         calculate D2E/DX2 analytically  !
 ! D29   D(3,4,5,16)          -172.7729         calculate D2E/DX2 analytically  !
 ! D30   D(3,4,5,17)            68.3378         calculate D2E/DX2 analytically  !
 ! D31   D(13,4,5,15)           70.9193         calculate D2E/DX2 analytically  !
 ! D32   D(13,4,5,16)          -48.3279         calculate D2E/DX2 analytically  !
 ! D33   D(13,4,5,17)         -167.2172         calculate D2E/DX2 analytically  !
 ! D34   D(14,4,5,15)         -177.2382         calculate D2E/DX2 analytically  !
 ! D35   D(14,4,5,16)           63.5146         calculate D2E/DX2 analytically  !
 ! D36   D(14,4,5,17)          -55.3747         calculate D2E/DX2 analytically  !
 ! D37   D(3,6,7,20)           -52.9706         calculate D2E/DX2 analytically  !
 ! D38   D(3,6,7,21)          -172.1909         calculate D2E/DX2 analytically  !
 ! D39   D(3,6,7,22)            68.803          calculate D2E/DX2 analytically  !
 ! D40   D(18,6,7,20)           67.1257         calculate D2E/DX2 analytically  !
 ! D41   D(18,6,7,21)          -52.0945         calculate D2E/DX2 analytically  !
 ! D42   D(18,6,7,22)         -171.1007         calculate D2E/DX2 analytically  !
 ! D43   D(19,6,7,20)         -178.1978         calculate D2E/DX2 analytically  !
 ! D44   D(19,6,7,21)           62.5819         calculate D2E/DX2 analytically  !
 ! D45   D(19,6,7,22)          -56.4242         calculate D2E/DX2 analytically  !
 --------------------------------------------------------------------------------
 Trust Radius=3.00D-01 FncErr=1.00D-07 GrdErr=1.00D-06 EigMax=2.50D+02 EigMin=1.00D-04
 Number of steps in this run=    115 maximum allowed number of steps=    132.
 GradGradGradGradGradGradGradGradGradGradGradGradGradGradGradGradGradGrad

                          Input orientation:                          
 ---------------------------------------------------------------------
 Center     Atomic      Atomic             Coordinates (Angstroms)
 Number     Number       Type             X           Y           Z
 ---------------------------------------------------------------------
      1          6           0        1.013110   -0.143750   -0.128940
      2          6           0        2.521700    0.037300    0.008800
      3          7           0        2.953000    1.411800    0.325200
      4          6           0        2.400500    1.941200    1.580700
      5          6           0        0.881200    2.040900    1.661400
      6          6           0        4.421300    1.498100    0.230600
      7          6           0        4.997460    2.872770    0.553230
      8          1           0        0.794240   -1.128470   -0.555450
      9          1           0        0.579870    0.611990   -0.791660
     10          1           0        0.509170   -0.091490    0.841430
     11          1           0        2.962250   -0.248280   -0.955180
     12          1           0        2.901100   -0.676760    0.749820
     13          1           0        2.830940    2.928650    1.786790
     14          1           0        2.757360    1.330040    2.418560
     15          1           0        0.461200    2.600640    0.821270
     16          1           0        0.594280    2.563060    2.580190
     17          1           0        0.416140    1.050730    1.687190
     18          1           0        4.718630    1.265840   -0.800680
     19          1           0        4.902150    0.746550    0.869720
     20          1           0        4.516590    3.652470   -0.045020
     21          1           0        6.068440    2.887680    0.325930
     22          1           0        4.886460    3.124390    1.612180
 ---------------------------------------------------------------------
                    Distance matrix (angstroms):
                    1          2          3          4          5
     1  C    0.000000
     2  C    1.525646   0.000000
     3  N    2.527677   1.474917   0.000000
     4  C    3.032282   2.471921   1.470306   0.000000
     5  C    2.827616   3.071928   2.544318   1.524705   0.000000
     6  C    3.800092   2.406577   1.473873   2.470372   3.856699
     7  C    5.043788   3.803378   2.523142   2.944099   4.343230
     8  H    1.095212   2.159054   3.448008   4.070145   3.868707
     9  H    1.094549   2.177546   2.742046   3.272550   2.854836
    10  H    1.094671   2.181774   2.915249   2.873235   2.314702
    11  H    2.119610   1.097678   2.096503   3.397068   4.051864
    12  H    2.149610   1.096785   2.131919   2.791895   3.506658
    13  H    4.051440   3.408340   2.109971   1.096727   2.145998
    14  H    3.421143   2.744751   2.104071   1.096757   2.144432
    15  H    2.956210   3.387695   2.805083   2.184601   1.093402
    16  H    3.852483   4.087353   3.460338   2.155950   1.095057
    17  H    2.254215   2.877050   2.901904   2.177605   1.094250
    18  H    4.021077   2.644063   2.099133   3.391284   4.624762
    19  H    4.112735   2.628833   2.130316   2.861981   4.297690
    20  H    5.166498   4.129399   2.757259   3.170055   4.327249
    21  H    5.912092   4.561206   3.447345   3.990496   5.422912
    22  H    5.358645   4.206310   2.885749   2.753348   4.149516
                    6          7          8          9         10
     6  C    0.000000
     7  C    1.525047   0.000000
     8  H    4.546681   5.908143   0.000000
     9  H    4.072688   5.141494   1.769449   0.000000
    10  H    4.266693   5.386524   1.762914   1.779569   0.000000
    11  H    2.566076   4.019743   2.373770   2.538215   3.044666
    12  H    2.703815   4.127049   2.519252   3.070040   2.464196
    13  H    2.645269   2.493712   5.108273   4.133114   3.924993
    14  H    2.753926   3.298109   4.329301   3.944942   3.092320
    15  H    4.152936   4.552313   3.989052   2.563270   2.692633
    16  H    4.615278   4.857209   4.847640   3.895671   3.174455
    17  H    4.285219   5.059070   3.149811   2.522696   1.424300
    18  H    1.098129   2.119680   4.603661   4.190100   4.717883
    19  H    1.097506   2.151758   4.735159   4.632536   4.472291
    20  H    2.174019   1.094107   6.080610   5.029886   5.555398
    21  H    2.157102   1.094936   6.687561   6.045839   6.328244
    22  H    2.184023   1.094079   6.287424   5.535099   5.486038
                   11         12         13         14         15
    11  H    0.000000
    12  H    1.759079   0.000000
    13  H    4.198634   3.752227   0.000000
    14  H    3.730308   2.613924   1.720494   0.000000
    15  H    4.186570   4.086510   2.579823   3.072151   0.000000
    16  H    5.099976   4.378140   2.401205   2.495071   1.764348
    17  H    3.892586   3.168266   3.060680   2.468649   1.775970
    18  H    2.324070   3.079149   3.608783   3.770173   4.747433
    19  H    2.843090   2.458534   3.145233   2.709149   4.812695
    20  H    4.296535   4.688690   2.592462   3.815468   4.278200
    21  H    4.596075   4.787166   3.552069   4.215281   5.636390
    22  H    4.654978   4.374250   2.072189   2.898794   4.525790
                   16         17         18         19         20
    16  H    0.000000
    17  H    1.765312   0.000000
    18  H    5.488472   4.974655   0.000000
    19  H    4.978269   4.570018   1.758857   0.000000
    20  H    4.843868   5.155899   2.511542   3.070794   0.000000
    21  H    5.929038   6.097205   2.391987   2.498075   1.769391
    22  H    4.435645   4.928433   3.050290   2.491107   1.778197
                   21         22
    21  H    0.000000
    22  H    1.762824   0.000000
 Stoichiometry    C6H15N
 Framework group  C1[X(C6H15N)]
 Deg. of freedom    60
 Full point group                 C1      NOp   1
 Largest Abelian subgroup         C1      NOp   1
 Largest concise Abelian subgroup C1      NOp   1
                         Standard orientation:                         
 ---------------------------------------------------------------------
 Center     Atomic      Atomic             Coordinates (Angstroms)
 Number     Number       Type             X           Y           Z
 ---------------------------------------------------------------------
      1          6           0       -2.206182   -0.946929   -0.223145
      2          6           0       -0.777633   -1.252620    0.216623
      3          7           0        0.221811   -0.245104   -0.185127
      4          6           0       -0.043997    1.105067    0.332736
      5          6           0       -1.357863    1.747539   -0.098208
      6          6           0        1.573595   -0.749424    0.115946
      7          6           0        2.702546    0.212349   -0.239342
      8          1           0       -2.840163   -1.825770   -0.064416
      9          1           0       -2.249622   -0.690343   -1.286308
     10          1           0       -2.640403   -0.125235    0.355279
     11          1           0       -0.504733   -2.210804   -0.244146
     12          1           0       -0.764210   -1.412313    1.301637
     13          1           0        0.781954    1.774042    0.062390
     14          1           0       -0.005304    1.085793    1.428641
     15          1           0       -1.476031    1.751313   -1.185199
     16          1           0       -1.387031    2.788987    0.238962
     17          1           0       -2.217704    1.234845    0.343608
     18          1           0        1.742891   -1.663743   -0.468219
     19          1           0        1.661644   -1.034347    1.172158
     20          1           0        2.626796    0.542643   -1.279650
     21          1           0        3.668178   -0.288777   -0.115600
     22          1           0        2.708268    1.093546    0.409093
 ---------------------------------------------------------------------
 Rotational constants (GHZ):           3.6980609           1.7732636           1.2876262
 Standard basis: 6-31G(d) (6D, 7F)
 There are   135 symmetry adapted cartesian basis functions of A   symmetry.
 There are   135 symmetry adapted basis functions of A   symmetry.
   135 basis functions,   256 primitive gaussians,   135 cartesian basis functions
    29 alpha electrons       29 beta electrons
       nuclear repulsion energy       338.7289486034 Hartrees.
 NAtoms=   22 NActive=   22 NUniq=   22 SFac= 1.00D+00 NAtFMM=   60 NAOKFM=F Big=F
 Integral buffers will be    131072 words long.
 Raffenetti 2 integral format.
 Two-electron integral symmetry is turned on.
 One-electron integrals computed using PRISM.
 NBasis=   135 RedAO= T EigKep=  4.07D-03  NBF=   135
 NBsUse=   135 1.00D-06 EigRej= -1.00D+00 NBFU=   135
 ExpMin= 1.61D-01 ExpMax= 4.17D+03 ExpMxC= 6.27D+02 IAcc=3 IRadAn=         5 AccDes= 0.00D+00
 Harris functional with IExCor=  402 and IRadAn=       5 diagonalized for initial guess.
 HarFok:  IExCor=  402 AccDes= 0.00D+00 IRadAn=         5 IDoV= 1 UseB2=F ITyADJ=14
 ICtDFT=  3500011 ScaDFX=  1.000000  1.000000  1.000000  1.000000
 FoFCou: FMM=F IPFlag=           0 FMFlag=      100000 FMFlg1=           0
         NFxFlg=           0 DoJE=T BraDBF=F KetDBF=T FulRan=T
         wScrn=  0.000000 ICntrl=       500 IOpCl=  0 I1Cent=   200000004 NGrid=           0
         NMat0=    1 NMatS0=      1 NMatT0=    0 NMatD0=    1 NMtDS0=    0 NMtDT0=    0
 Petite list used in FoFCou.
 Keep R1 ints in memory in canonical form, NReq=45019892.
 Gradient too large for Newton-Raphson -- use scaled steepest descent instead.
     Accept linear search using points  2 and  3.
 Gradient too large for Newton-Raphson -- use scaled steepest descent instead.
     Minimum is close to point  3 DX=  6.73D-02 DF= -1.04D-04 DXR=  8.77D-02 DFR=  7.79D-03 which will be used.
 Gradient too large for Newton-Raphson -- use scaled steepest descent instead.
 Gradient too large for Newton-Raphson -- use scaled steepest descent instead.
     Accept linear search using points  1 and  2.
 LinEq1:  Iter=  0 NonCon=     1 RMS=6.00D-05 Max=7.33D-04 NDo=     1
 AX will form     1 AO Fock derivatives at one time.
 LinEq1:  Iter=  1 NonCon=     1 RMS=2.97D-05 Max=2.81D-04 NDo=     1
 LinEq1:  Iter=  2 NonCon=     1 RMS=9.40D-06 Max=1.16D-04 NDo=     1
 LinEq1:  Iter=  3 NonCon=     1 RMS=6.14D-06 Max=5.07D-05 NDo=     1
 LinEq1:  Iter=  4 NonCon=     1 RMS=1.01D-06 Max=1.45D-05 NDo=     1
 LinEq1:  Iter=  5 NonCon=     1 RMS=5.52D-07 Max=7.98D-06 NDo=     1
 LinEq1:  Iter=  6 NonCon=     1 RMS=1.83D-07 Max=2.38D-06 NDo=     1
 LinEq1:  Iter=  7 NonCon=     1 RMS=5.24D-08 Max=4.52D-07 NDo=     1
 LinEq1:  Iter=  8 NonCon=     1 RMS=2.12D-08 Max=1.57D-07 NDo=     1
 LinEq1:  Iter=  9 NonCon=     1 RMS=7.53D-09 Max=9.68D-08 NDo=     1
 LinEq1:  Iter= 10 NonCon=     0 RMS=1.86D-09 Max=1.80D-08 NDo=     1
 Linear equations converged to 7.841D-09 7.841D-08 after    10 iterations.
     Accept linear search using points  1 and  2.
     Minimum is close to point  2 DX= -3.79D-05 DF= -5.68D-14 DXR=  3.79D-05 DFR=  2.24D-09 which will be used.
 LinEq1:  Iter=  0 NonCon=     1 RMS=5.39D-08 Max=1.23D-06 NDo=     1
 LinEq1:  Iter=  1 NonCon=     1 RMS=2.83D-08 Max=5.86D-07 NDo=     1
 LinEq1:  Iter=  2 NonCon=     1 RMS=1.22D-08 Max=1.39D-07 NDo=     1
 LinEq1:  Iter=  3 NonCon=     1 RMS=3.62D-09 Max=3.61D-08 NDo=     1
 LinEq1:  Iter=  4 NonCon=     1 RMS=1.37D-09 Max=1.78D-08 NDo=     1
 LinEq1:  Iter=  5 NonCon=     1 RMS=5.70D-10 Max=6.15D-09 NDo=     1
 LinEq1:  Iter=  6 NonCon=     1 RMS=2.19D-10 Max=2.52D-09 NDo=     1
 LinEq1:  Iter=  7 NonCon=     1 RMS=5.99D-11 Max=5.28D-10 NDo=     1
 LinEq1:  Iter=  8 NonCon=     1 RMS=2.48D-11 Max=2.44D-10 NDo=     1
 LinEq1:  Iter=  9 NonCon=     0 RMS=9.06D-12 Max=8.25D-11 NDo=     1
 Linear equations converged to 2.482D-11 2.482D-10 after     9 iterations.
 SCF Done:  E(RB3LYP) =  -292.394620915     a.u. after    7 cycles
            Convg  =    0.1890D-10                    33 Fock formations.
              S**2 =  0.0000                  -V/T =  2.0097
 DoSCS=F DFT=T ScalE2(SS,OS)=  1.000000  1.000000
 Range of M.O.s used for correlation:     1   135
 NBasis=   135 NAE=    29 NBE=    29 NFC=     0 NFV=     0
 NROrb=    135 NOA=    29 NOB=    29 NVA=   106 NVB=   106
 Symmetrizing basis deriv contribution to polar:
 IMax=3 JMax=2 DiffMx= 0.00D+00
 G2DrvN: will do    23 centers at a time, making    1 passes.
 Calling FoFCou, ICntrl=  3107 FMM=F I1Cent=   0 AccDes= 0.00D+00.
 End of G2Drv F.D. properties file   721 does not exist.
 End of G2Drv F.D. properties file   722 does not exist.
 End of G2Drv F.D. properties file   788 does not exist.
          IDoAtm=1111111111111111111111
          Differentiating once with respect to electric field.
                with respect to dipole field.
          Differentiating once with respect to nuclear coordinates.
 Keep R1 ints in memory in canonical form, NReq=45034167.
          There are    69 degrees of freedom in the 1st order CPHF.  IDoFFX=6 NUNeed=     3.
     66 vectors produced by pass  0 Test12= 4.46D-15 1.45D-09 XBig12= 4.48D+01 1.65D+00.
 AX will form    66 AO Fock derivatives at one time.
     66 vectors produced by pass  1 Test12= 4.46D-15 1.45D-09 XBig12= 2.33D+00 2.73D-01.
     66 vectors produced by pass  2 Test12= 4.46D-15 1.45D-09 XBig12= 1.25D-02 2.06D-02.
     66 vectors produced by pass  3 Test12= 4.46D-15 1.45D-09 XBig12= 1.07D-05 4.05D-04.
     66 vectors produced by pass  4 Test12= 4.46D-15 1.45D-09 XBig12= 6.39D-09 1.23D-05.
     22 vectors produced by pass  5 Test12= 4.46D-15 1.45D-09 XBig12= 3.72D-12 3.78D-07.
      3 vectors produced by pass  6 Test12= 4.46D-15 1.45D-09 XBig12= 2.24D-15 1.27D-08.
 InvSVY:  IOpt=1 It=  1 EMax= 4.44D-15
 Solved reduced A of dimension   355 with    69 vectors.
 Isotropic polarizability for W=    0.000000       72.72 Bohr**3.
 End of Minotr F.D. properties file   721 does not exist.
 End of Minotr F.D. properties file   722 does not exist.
 End of Minotr F.D. properties file   788 does not exist.

 **********************************************************************

            Population analysis using the SCF density.

 **********************************************************************

 Orbital symmetries:
       Occupied  (A) (A) (A) (A) (A) (A) (A) (A) (A) (A) (A) (A)
                 (A) (A) (A) (A) (A) (A) (A) (A) (A) (A) (A) (A)
                 (A) (A) (A) (A) (A)
       Virtual   (A) (A) (A) (A) (A) (A) (A) (A) (A) (A) (A) (A)
                 (A) (A) (A) (A) (A) (A) (A) (A) (A) (A) (A) (A)
                 (A) (A) (A) (A) (A) (A) (A) (A) (A) (A) (A) (A)
                 (A) (A) (A) (A) (A) (A) (A) (A) (A) (A) (A) (A)
                 (A) (A) (A) (A) (A) (A) (A) (A) (A) (A) (A) (A)
                 (A) (A) (A) (A) (A) (A) (A) (A) (A) (A) (A) (A)
                 (A) (A) (A) (A) (A) (A) (A) (A) (A) (A) (A) (A)
                 (A) (A) (A) (A) (A) (A) (A) (A) (A) (A) (A) (A)
                 (A) (A) (A) (A) (A) (A) (A) (A) (A) (A)
 The electronic state is 1-A.
 Alpha  occ. eigenvalues --  -14.31374 -10.20092 -10.20022 -10.19939 -10.17187
 Alpha  occ. eigenvalues --  -10.16661 -10.16612  -0.90623  -0.76082  -0.74728
 Alpha  occ. eigenvalues --   -0.71016  -0.62486  -0.60287  -0.56023  -0.48645
 Alpha  occ. eigenvalues --   -0.46482  -0.44621  -0.43902  -0.40739  -0.40001
 Alpha  occ. eigenvalues --   -0.38898  -0.37688  -0.37024  -0.34645  -0.34465
 Alpha  occ. eigenvalues --   -0.33423  -0.33128  -0.30289  -0.20029
 Alpha virt. eigenvalues --    0.09035   0.10628   0.12143   0.12465   0.13487
 Alpha virt. eigenvalues --    0.15690   0.16460   0.16808   0.18000   0.18217
 Alpha virt. eigenvalues --    0.18723   0.19169   0.19822   0.21213   0.22426
 Alpha virt. eigenvalues --    0.23237   0.24745   0.27012   0.28246   0.29465
 Alpha virt. eigenvalues --    0.33238   0.49190   0.50297   0.52309   0.54364
 Alpha virt. eigenvalues --    0.55427   0.56650   0.57796   0.58335   0.61878
 Alpha virt. eigenvalues --    0.64365   0.65580   0.67575   0.69787   0.73109
 Alpha virt. eigenvalues --    0.79459   0.81277   0.82929   0.83183   0.85754
 Alpha virt. eigenvalues --    0.87182   0.88536   0.89535   0.90268   0.90537
 Alpha virt. eigenvalues --    0.91446   0.92053   0.93512   0.95864   0.96889
 Alpha virt. eigenvalues --    0.97864   0.98923   1.01913   1.02770   1.07003
 Alpha virt. eigenvalues --    1.09648   1.10247   1.13207   1.27499   1.33165
 Alpha virt. eigenvalues --    1.37528   1.41178   1.45535   1.47913   1.58056
 Alpha virt. eigenvalues --    1.58561   1.69322   1.71830   1.79314   1.83561
 Alpha virt. eigenvalues --    1.85128   1.88056   1.92107   1.95026   1.96952
 Alpha virt. eigenvalues --    1.98323   2.01298   2.04460   2.05649   2.06469
 Alpha virt. eigenvalues --    2.12134   2.14030   2.22385   2.25772   2.26866
 Alpha virt. eigenvalues --    2.31272   2.32174   2.33525   2.34987   2.35767
 Alpha virt. eigenvalues --    2.37272   2.47007   2.49100   2.56951   2.59670
 Alpha virt. eigenvalues --    2.73573   2.77316   2.86595   2.88644   4.02333
 Alpha virt. eigenvalues --    4.20172   4.20629   4.25072   4.39143   4.50494
 Alpha virt. eigenvalues --    4.52316
          Condensed to atoms (all electrons):
               1          2          3          4          5          6
     1  C    5.147134   0.374960  -0.054005  -0.001089  -0.022522   0.005036
     2  C    0.374960   4.872831   0.332930  -0.048648  -0.002209  -0.047028
     3  N   -0.054005   0.332930   6.828158   0.326187  -0.051136   0.330892
     4  C   -0.001089  -0.048648   0.326187   4.883152   0.381762  -0.046163
     5  C   -0.022522  -0.002209  -0.051136   0.381762   5.131880   0.005004
     6  C    0.005036  -0.047028   0.330892  -0.046163   0.005004   4.861481
     7  C   -0.000187   0.004931  -0.047894  -0.005501   0.000253   0.374266
     8  H    0.354173  -0.025561   0.003543  -0.000021   0.001163  -0.000141
     9  H    0.369674  -0.031204   0.004336  -0.001302  -0.000488   0.000056
    10  H    0.385349  -0.036012  -0.001738   0.002121  -0.024366  -0.000064
    11  H   -0.034524   0.382517  -0.042755   0.006093  -0.000164  -0.002526
    12  H   -0.052320   0.344623  -0.053327  -0.009880  -0.000786  -0.008962
    13  H   -0.000106   0.005680  -0.037626   0.383814  -0.030645  -0.008930
    14  H   -0.001145  -0.010114  -0.060090   0.342793  -0.054648  -0.004239
    15  H   -0.000739  -0.000556   0.003871  -0.031189   0.368394   0.000093
    16  H    0.000964  -0.000008   0.003352  -0.026910   0.356485  -0.000134
    17  H   -0.019239   0.001102  -0.001968  -0.036957   0.385150  -0.000191
    18  H    0.000199  -0.003272  -0.044312   0.005579  -0.000130   0.382768
    19  H   -0.000268  -0.009963  -0.054178  -0.008717  -0.000324   0.346267
    20  H   -0.000006  -0.000000   0.003678  -0.001661  -0.000193  -0.031592
    21  H    0.000002  -0.000121   0.003345   0.000367  -0.000006  -0.026601
    22  H    0.000001  -0.000029  -0.003508   0.000406  -0.000042  -0.032940
               7          8          9         10         11         12
     1  C   -0.000187   0.354173   0.369674   0.385349  -0.034524  -0.052320
     2  C    0.004931  -0.025561  -0.031204  -0.036012   0.382517   0.344623
     3  N   -0.047894   0.003543   0.004336  -0.001738  -0.042755  -0.053327
     4  C   -0.005501  -0.000021  -0.001302   0.002121   0.006093  -0.009880
     5  C    0.000253   0.001163  -0.000488  -0.024366  -0.000164  -0.000786
     6  C    0.374266  -0.000141   0.000056  -0.000064  -0.002526  -0.008962
     7  C    5.106775   0.000002  -0.000009   0.000006   0.000233  -0.000203
     8  H    0.000002   0.591145  -0.027904  -0.027504  -0.006123   0.001302
     9  H   -0.000009  -0.027904   0.564441  -0.036204  -0.004839   0.006733
    10  H    0.000006  -0.027504  -0.036204   0.581603   0.005418  -0.006715
    11  H    0.000233  -0.006123  -0.004839   0.005418   0.606792  -0.051002
    12  H   -0.000203   0.001302   0.006733  -0.006715  -0.051002   0.692045
    13  H    0.005902   0.000006  -0.000096  -0.000131  -0.000215  -0.000424
    14  H   -0.001381   0.000037   0.000390   0.000192  -0.000440   0.014579
    15  H   -0.000058   0.000053   0.002120  -0.000383  -0.000066   0.000254
    16  H    0.000003  -0.000033   0.000128   0.000949   0.000006   0.000044
    17  H    0.000003   0.000931  -0.001235   0.006847  -0.000099  -0.000145
    18  H   -0.034512  -0.000018  -0.000045  -0.000003   0.007428  -0.002023
    19  H   -0.048495   0.000020   0.000056  -0.000000  -0.002673   0.017363
    20  H    0.367593   0.000000   0.000004   0.000000  -0.000036   0.000045
    21  H    0.365430  -0.000000   0.000000  -0.000000  -0.000019   0.000014
    22  H    0.377607   0.000000   0.000000  -0.000001   0.000003  -0.000003
              13         14         15         16         17         18
     1  C   -0.000106  -0.001145  -0.000739   0.000964  -0.019239   0.000199
     2  C    0.005680  -0.010114  -0.000556  -0.000008   0.001102  -0.003272
     3  N   -0.037626  -0.060090   0.003871   0.003352  -0.001968  -0.044312
     4  C    0.383814   0.342793  -0.031189  -0.026910  -0.036957   0.005579
     5  C   -0.030645  -0.054648   0.368394   0.356485   0.385150  -0.000130
     6  C   -0.008930  -0.004239   0.000093  -0.000134  -0.000191   0.382768
     7  C    0.005902  -0.001381  -0.000058   0.000003   0.000003  -0.034512
     8  H    0.000006   0.000037   0.000053  -0.000033   0.000931  -0.000018
     9  H   -0.000096   0.000390   0.002120   0.000128  -0.001235  -0.000045
    10  H   -0.000131   0.000192  -0.000383   0.000949   0.006847  -0.000003
    11  H   -0.000215  -0.000440  -0.000066   0.000006  -0.000099   0.007428
    12  H   -0.000424   0.014579   0.000254   0.000044  -0.000145  -0.002023
    13  H    0.598064  -0.056513  -0.004893  -0.004995   0.005300   0.000237
    14  H   -0.056513   0.714354   0.006929   0.001258  -0.007788  -0.000564
    15  H   -0.004893   0.006929   0.567029  -0.028126  -0.035499  -0.000013
    16  H   -0.004995   0.001258  -0.028126   0.589743  -0.028090   0.000002
    17  H    0.005300  -0.007788  -0.035499  -0.028090   0.587641   0.000002
    18  H    0.000237  -0.000564  -0.000013   0.000002   0.000002   0.611333
    19  H   -0.001284   0.012331   0.000035   0.000012  -0.000009  -0.054831
    20  H   -0.000238   0.000554   0.000063   0.000006  -0.000001  -0.005964
    21  H    0.000011  -0.000007  -0.000000  -0.000000   0.000000  -0.004189
    22  H    0.002123   0.000421   0.000009   0.000009  -0.000002   0.005255
              19         20         21         22
     1  C   -0.000268  -0.000006   0.000002   0.000001
     2  C   -0.009963  -0.000000  -0.000121  -0.000029
     3  N   -0.054178   0.003678   0.003345  -0.003508
     4  C   -0.008717  -0.001661   0.000367   0.000406
     5  C   -0.000324  -0.000193  -0.000006  -0.000042
     6  C    0.346267  -0.031592  -0.026601  -0.032940
     7  C   -0.048495   0.367593   0.365430   0.377607
     8  H    0.000020   0.000000  -0.000000   0.000000
     9  H    0.000056   0.000004   0.000000   0.000000
    10  H   -0.000000   0.000000  -0.000000  -0.000001
    11  H   -0.002673  -0.000036  -0.000019   0.000003
    12  H    0.017363   0.000045   0.000014  -0.000003
    13  H   -0.001284  -0.000238   0.000011   0.002123
    14  H    0.012331   0.000554  -0.000007   0.000421
    15  H    0.000035   0.000063  -0.000000   0.000009
    16  H    0.000012   0.000006  -0.000000   0.000009
    17  H   -0.000009  -0.000001   0.000000  -0.000002
    18  H   -0.054831  -0.005964  -0.004189   0.005255
    19  H    0.694944   0.006779   0.000231  -0.006039
    20  H    0.006779   0.565935  -0.027972  -0.033164
    21  H    0.000231  -0.027972   0.576154  -0.029998
    22  H   -0.006039  -0.033164  -0.029998   0.570533
 Mulliken charges:
               1
     1  C   -0.451342
     2  C   -0.104850
     3  N   -0.387756
     4  C   -0.114235
     5  C   -0.442432
     6  C   -0.096354
     7  C   -0.464764
     8  H    0.134931
     9  H    0.155387
    10  H    0.150634
    11  H    0.136989
    12  H    0.108789
    13  H    0.144957
    14  H    0.103090
    15  H    0.152670
    16  H    0.135334
    17  H    0.144247
    18  H    0.137071
    19  H    0.108742
    20  H    0.156171
    21  H    0.143360
    22  H    0.149360
 Sum of Mulliken charges =   0.00000
 Mulliken charges with hydrogens summed into heavy atoms:
               1
     1  C   -0.010389
     2  C    0.140928
     3  N   -0.387756
     4  C    0.133811
     5  C   -0.010180
     6  C    0.149459
     7  C   -0.015873
 APT charges:
               1
     1  C    0.037385
     2  C    0.399561
     3  N   -0.654177
     4  C    0.378274
     5  C    0.042476
     6  C    0.418464
     7  C    0.049840
     8  H   -0.042260
     9  H   -0.008852
    10  H   -0.001566
    11  H   -0.052707
    12  H   -0.116747
    13  H   -0.037352
    14  H   -0.121688
    15  H   -0.013235
    16  H   -0.039274
    17  H    0.006904
    18  H   -0.063966
    19  H   -0.121490
    20  H   -0.011684
    21  H   -0.027471
    22  H   -0.020437
 Sum of APT charges =   0.00000
 APT charges with hydrogens summed into heavy atoms:
               1
     1  C   -0.015294
     2  C    0.230108
     3  N   -0.654177
     4  C    0.219234
     5  C   -0.003129
     6  C    0.233009
     7  C   -0.009751
 Electronic spatial extent (au):  <R**2>=           1021.6643
 Charge=              0.0000 electrons
 Dipole moment (field-independent basis, Debye):
    X=              0.1016    Y=             -0.0396    Z=              0.4861  Tot=              0.4982
 Quadrupole moment (field-independent basis, Debye-Ang):
   XX=            -45.9775   YY=            -46.0166   ZZ=            -48.4626
   XY=             -0.0438   XZ=             -0.1604   YZ=              0.2530
 Traceless Quadrupole moment (field-independent basis, Debye-Ang):
   XX=              0.8414   YY=              0.8023   ZZ=             -1.6437
   XY=             -0.0438   XZ=             -0.1604   YZ=              0.2530
 Octapole moment (field-independent basis, Debye-Ang**2):
  XXX=              3.5856  YYY=             -1.3114  ZZZ=             -1.9736  XYY=              0.8855
  XXY=             -1.9627  XXZ=             -0.2286  XZZ=             -0.3386  YZZ=              0.4725
  YYZ=             -1.0094  XYZ=              0.3530
 Hexadecapole moment (field-independent basis, Debye-Ang**3):
 XXXX=           -873.4294 YYYY=           -420.0266 ZZZZ=           -107.7696 XXXY=             -5.7750
 XXXZ=             -3.0082 YYYX=              3.3660 YYYZ=              4.5257 ZZZX=              0.6152
 ZZZY=             -1.3078 XXYY=           -215.9455 XXZZ=           -163.4848 YYZZ=            -90.5274
 XXYZ=              1.3949 YYXZ=             -0.9296 ZZXY=             -0.1119
 N-N= 3.387289486034D+02 E-N=-1.353645136048D+03  KE= 2.895937112249D+02
  Exact polarizability:  81.020   0.216  75.236   0.484  -0.074  61.907
 Approx polarizability:  96.364   0.155  99.244  -0.366   0.456  92.636
 Calling FoFJK, ICntrl=    100127 FMM=F ISym2X=0 I1Cent= 0 IOpClX= 0 NMat=1 NMatS=1 NMatT=0.
 ***** Axes restored to original set *****
 -------------------------------------------------------------------
 Center     Atomic                   Forces (Hartrees/Bohr)
 Number     Number              X              Y              Z
 -------------------------------------------------------------------
      1        6          -0.004162554   -0.011843809   -0.003232594
      2        6          -0.001811395    0.009047798   -0.003193303
      3        7          -0.004921996    0.002591702   -0.010067652
      4        6           0.010412614   -0.003622696    0.002723586
      5        6          -0.004629695    0.005260055    0.007872190
      6        6          -0.005690320    0.005494513   -0.001830980
      7        6           0.001186869    0.001186615    0.002226247
      8        1           0.001647918   -0.001297958   -0.001808714
      9        1          -0.000018653    0.000637518    0.001091152
     10        1           0.001259944   -0.012529390   -0.014973129
     11        1           0.004202494    0.002946033    0.001146986
     12        1           0.003144298   -0.005184026    0.005267493
     13        1          -0.002300082   -0.000129979   -0.006940326
     14        1           0.000051876   -0.006277162    0.008976725
     15        1           0.000322923   -0.000502110   -0.002066879
     16        1           0.001915304    0.001864300    0.001265542
     17        1          -0.000651020    0.018735922    0.009495020
     18        1          -0.004117954   -0.003645850   -0.000213838
     19        1           0.003642396   -0.004439365    0.004776155
     20        1          -0.001244358    0.000570432   -0.000112676
     21        1           0.000596278   -0.000537874   -0.000211580
     22        1           0.001165110    0.001675332   -0.000189423
 -------------------------------------------------------------------
 Cartesian Forces:  Max     0.018735922 RMS     0.005386480
 FormGI is forming the generalized inverse of G from B-inverse, IUseBI=4.

 GradGradGradGradGradGradGradGradGradGradGradGradGradGradGradGradGradGrad
 Berny optimization.
 Internal  Forces:  Max     0.069216757 RMS     0.015920585
 Search for a local minimum.
 Step number   1 out of a maximum of  115
 All quantities printed in internal units (Hartrees-Bohrs-Radians)
 Mixed Optimization -- RFO/linear search
 Second derivative matrix not updated -- analytic derivatives used.
 ITU=  0
     Eigenvalues ---   -0.07451  -0.01014  -0.00077   0.00287   0.00323
     Eigenvalues ---    0.00330   0.02477   0.03883   0.04283   0.04485
     Eigenvalues ---    0.04708   0.04718   0.04764   0.04820   0.04868
     Eigenvalues ---    0.05033   0.05056   0.05377   0.05667   0.07956
     Eigenvalues ---    0.08480   0.08985   0.10112   0.10749   0.11595
     Eigenvalues ---    0.11911   0.12693   0.12752   0.12796   0.13908
     Eigenvalues ---    0.14876   0.15839   0.16532   0.16714   0.16819
     Eigenvalues ---    0.21404   0.22333   0.26346   0.28005   0.28706
     Eigenvalues ---    0.29855   0.30187   0.30628   0.32112   0.32413
     Eigenvalues ---    0.32701   0.33185   0.33637   0.33715   0.34044
     Eigenvalues ---    0.34092   0.34161   0.34181   0.34595   0.34635
     Eigenvalues ---    0.34868   0.35025   0.35159   0.41230   1.81176
 RFO step:  Lambda=-7.45369481D-02 EMin=-7.45115842D-02
 I=     1 Eig=   -7.45D-02 Dot1= -7.24D-04
 I=     1 Stepn= -6.00D-01 RXN=   6.00D-01 EDone=F
 I=     2 Eig=   -1.01D-02 Dot1=  1.24D-03
 I=     2 Stepn=  3.00D-01 RXN=   6.71D-01 EDone=F
 I=     3 Eig=   -7.71D-04 Dot1= -9.79D-05
 I=     3 Stepn= -1.50D-01 RXN=   6.87D-01 EDone=F
 Mixed    3 eigenvectors in step.  Raw Step.Grad=  2.06D-03.
 RFO eigenvector is Hessian eigenvector with negative curvature.
 Taking step of  6.00D-01 in eigenvector direction(s).  Step.Grad=  3.70D-04.
 Linear search not attempted -- first point.
 Iteration  1 RMS(Cart)=  0.17201600 RMS(Int)=  0.01888863
 Iteration  2 RMS(Cart)=  0.04818836 RMS(Int)=  0.00111477
 Iteration  3 RMS(Cart)=  0.00151092 RMS(Int)=  0.00080023
 Iteration  4 RMS(Cart)=  0.00000298 RMS(Int)=  0.00080023
 Iteration  5 RMS(Cart)=  0.00000001 RMS(Int)=  0.00080023
 Variable       Old X    -DE/DX   Delta X   Delta X   Delta X     New X
                                 (Linear)    (Quad)   (Total)
    R1        2.88305   0.00594   0.00000  -0.01451  -0.01451   2.86854
    R2        2.06965   0.00154   0.00000  -0.00030  -0.00030   2.06935
    R3        2.06840  -0.00021   0.00000  -0.00097  -0.00097   2.06743
    R4        2.06863  -0.01445   0.00000   0.01390   0.01390   2.08253
    R5        2.78719   0.01910   0.00000   0.01739   0.01739   2.80458
    R6        2.07431  -0.00009   0.00000  -0.00034  -0.00034   2.07397
    R7        2.07262   0.00802   0.00000   0.00037   0.00037   2.07299
    R8        2.77848   0.02180   0.00000  -0.00983  -0.00983   2.76864
    R9        2.78522  -0.00471   0.00000   0.00277   0.00277   2.78799
   R10        2.88127   0.00557   0.00000   0.01776   0.01776   2.89904
   R11        2.07251  -0.00232   0.00000   0.00139   0.00139   2.07390
   R12        2.07257   0.01037   0.00000  -0.00421  -0.00421   2.06835
   R13        2.06623   0.00121   0.00000   0.00163   0.00163   2.06786
   R14        2.06936   0.00145   0.00000   0.00096   0.00096   2.07031
   R15        2.06783  -0.01645   0.00000  -0.01352  -0.01352   2.05431
   R16        2.88192   0.00361   0.00000  -0.00075  -0.00075   2.88117
   R17        2.07516  -0.00014   0.00000  -0.00069  -0.00069   2.07447
   R18        2.07398   0.00742   0.00000  -0.00111  -0.00111   2.07288
   R19        2.06756   0.00101   0.00000  -0.00028  -0.00028   2.06729
   R20        2.06913   0.00062   0.00000   0.00008   0.00008   2.06921
   R21        2.06751   0.00008   0.00000   0.00069   0.00069   2.06820
    A1        1.91715  -0.00617   0.00000  -0.00204  -0.00234   1.91481
    A2        1.94348  -0.00040   0.00000   0.02685   0.02696   1.97044
    A3        1.94928   0.01179   0.00000  -0.04491  -0.04496   1.90433
    A4        1.88169   0.00135   0.00000   0.00030   0.00017   1.88186
    A5        1.87144  -0.00542   0.00000   0.00337   0.00289   1.87433
    A6        1.89815  -0.00164   0.00000   0.01713   0.01746   1.91562
    A7        2.00326   0.06922   0.00000   0.04590   0.04534   2.04860
    A8        1.86158  -0.02135   0.00000   0.03706   0.03650   1.89807
    A9        1.90264  -0.01514   0.00000  -0.05874  -0.05806   1.84458
   A10        1.88965  -0.02660   0.00000  -0.01142  -0.01319   1.87647
   A11        1.93974  -0.01846   0.00000  -0.01727  -0.01680   1.92294
   A12        1.85993   0.00826   0.00000   0.00511   0.00563   1.86556
   A13        1.99198   0.06913   0.00000  -0.04434  -0.04354   1.94844
   A14        1.90934  -0.03675   0.00000  -0.05113  -0.05048   1.85887
   A15        1.99114  -0.03174   0.00000   0.05361   0.05174   2.04288
   A16        2.02994   0.05948   0.00000  -0.08229  -0.08304   1.94690
   A17        1.91470  -0.02491   0.00000   0.03007   0.02570   1.94040
   A18        1.90649  -0.01248   0.00000   0.01723   0.01879   1.92528
   A19        1.89892  -0.02528   0.00000  -0.04549  -0.04660   1.85232
   A20        1.89677  -0.01233   0.00000   0.09368   0.09513   1.99190
   A21        1.80335   0.00999   0.00000  -0.00361  -0.00282   1.80052
   A22        1.95580  -0.00230   0.00000  -0.04616  -0.04579   1.91001
   A23        1.91418  -0.00664   0.00000   0.01315   0.01241   1.92659
   A24        1.94505   0.01438   0.00000   0.05335   0.05304   1.99808
   A25        1.87542   0.00221   0.00000   0.00116   0.00112   1.87654
   A26        1.89451  -0.00251   0.00000  -0.02335  -0.02267   1.87184
   A27        1.87585  -0.00570   0.00000   0.00166   0.00042   1.87628
   A28        1.99937   0.00382   0.00000  -0.00995  -0.00995   1.98942
   A29        1.89402  -0.00534   0.00000  -0.00047  -0.00048   1.89355
   A30        1.93799   0.00002   0.00000   0.00436   0.00436   1.94235
   A31        1.86192   0.00264   0.00000   0.00362   0.00360   1.86553
   A32        1.90555  -0.00156   0.00000   0.00306   0.00307   1.90862
   A33        1.85816   0.00025   0.00000  -0.00005  -0.00006   1.85810
   A34        1.93976  -0.00095   0.00000  -0.00105  -0.00106   1.93870
   A35        1.91547  -0.00117   0.00000   0.00357   0.00357   1.91904
   A36        1.95383   0.00317   0.00000  -0.00192  -0.00193   1.95191
   A37        1.88250   0.00081   0.00000   0.00032   0.00032   1.88282
   A38        1.89732  -0.00106   0.00000  -0.00076  -0.00076   1.89656
   A39        1.87238  -0.00087   0.00000  -0.00007  -0.00007   1.87231
    D1        2.94521  -0.00972   0.00000   0.05132   0.05182   2.99703
    D2        0.85250  -0.00344   0.00000   0.01156   0.01080   0.86330
    D3       -1.14944   0.00536   0.00000   0.01511   0.01509  -1.13435
    D4        0.86200  -0.00713   0.00000   0.03525   0.03573   0.89773
    D5       -1.23072  -0.00085   0.00000  -0.00450  -0.00529  -1.23601
    D6        3.05053   0.00794   0.00000  -0.00095  -0.00100   3.04953
    D7       -1.26387  -0.01306   0.00000   0.02586   0.02667  -1.23720
    D8        2.92660  -0.00679   0.00000  -0.01390  -0.01435   2.91225
    D9        0.92466   0.00201   0.00000  -0.01035  -0.01006   0.91460
   D10        1.03488   0.02303   0.00000  -0.09539  -0.09631   0.93857
   D11       -2.99363   0.00446   0.00000  -0.10259  -0.10148  -3.09511
   D12        3.11195   0.02084   0.00000  -0.02736  -0.02856   3.08339
   D13       -0.91656   0.00227   0.00000  -0.03456  -0.03374  -0.95030
   D14       -1.13417   0.00450   0.00000  -0.03775  -0.03867  -1.17284
   D15        1.12051  -0.01407   0.00000  -0.04495  -0.04385   1.07666
   D16       -1.05952  -0.02577   0.00000  -0.29721  -0.29795  -1.35747
   D17        3.05980  -0.01622   0.00000  -0.19791  -0.19792   2.86187
   D18        1.09464  -0.00829   0.00000  -0.21865  -0.21921   0.87543
   D19        3.01078  -0.00720   0.00000  -0.23324  -0.23311   2.77768
   D20        0.84692   0.00235   0.00000  -0.13394  -0.13308   0.71384
   D21       -1.11824   0.01028   0.00000  -0.15468  -0.15436  -1.27260
   D22       -3.12927  -0.01935   0.00000   0.03050   0.03095  -3.09832
   D23        1.07578  -0.02135   0.00000   0.03258   0.03302   1.10880
   D24       -0.96078  -0.01847   0.00000   0.03045   0.03089  -0.92989
   D25       -0.87414   0.01745   0.00000  -0.03041  -0.03085  -0.90498
   D26       -2.95227   0.01544   0.00000  -0.02833  -0.02878  -2.98105
   D27        1.29436   0.01833   0.00000  -0.03046  -0.03091   1.26345
   D28       -0.93420   0.00866   0.00000   0.04029   0.03880  -0.89540
   D29       -3.01546   0.01177   0.00000   0.05949   0.05811  -2.95735
   D30        1.19272   0.01414   0.00000   0.01559   0.01342   1.20614
   D31        1.23778  -0.00118   0.00000  -0.01901  -0.01726   1.22051
   D32       -0.84348   0.00192   0.00000   0.00018   0.00204  -0.84144
   D33       -2.91849   0.00430   0.00000  -0.04372  -0.04265  -2.96114
   D34       -3.09339  -0.00835   0.00000   0.00104   0.00135  -3.09204
   D35        1.10854  -0.00525   0.00000   0.02024   0.02066   1.12919
   D36       -0.96647  -0.00287   0.00000  -0.02366  -0.02403  -0.99050
   D37       -0.92451   0.00144   0.00000   0.00411   0.00411  -0.92040
   D38       -3.00530   0.00178   0.00000   0.00207   0.00207  -3.00322
   D39        1.20084   0.00162   0.00000   0.00103   0.00103   1.20187
   D40        1.17157  -0.00109   0.00000  -0.00003  -0.00004   1.17153
   D41       -0.90922  -0.00075   0.00000  -0.00206  -0.00207  -0.91129
   D42       -2.98627  -0.00091   0.00000  -0.00311  -0.00312  -2.98939
   D43       -3.11014  -0.00019   0.00000   0.00330   0.00330  -3.10684
   D44        1.09226   0.00015   0.00000   0.00126   0.00126   1.09353
   D45       -0.98479  -0.00001   0.00000   0.00021   0.00022  -0.98457
         Item               Value     Threshold  Converged?
 Maximum Force            0.069217     0.000450     NO 
 RMS     Force            0.015921     0.000300     NO 
 Maximum Displacement     0.677774     0.001800     NO 
 RMS     Displacement     0.198569     0.001200     NO 
 Predicted change in Energy=-1.238308D-02
 GradGradGradGradGradGradGradGradGradGradGradGradGradGradGradGradGradGrad

                          Input orientation:                          
 ---------------------------------------------------------------------
 Center     Atomic      Atomic             Coordinates (Angstroms)
 Number     Number       Type             X           Y           Z
 ---------------------------------------------------------------------
      1          6           0        1.056209   -0.277528    0.000705
      2          6           0        2.535870    0.060782   -0.018500
      3          7           0        2.923759    1.446892    0.343233
      4          6           0        2.372285    1.840644    1.642217
      5          6           0        0.886118    2.206040    1.536046
      6          6           0        4.388250    1.527445    0.183853
      7          6           0        4.980666    2.877435    0.572605
      8          1           0        0.899821   -1.274758   -0.423818
      9          1           0        0.450372    0.429645   -0.573562
     10          1           0        0.706057   -0.305574    1.045249
     11          1           0        2.931029   -0.141487   -1.022211
     12          1           0        3.012720   -0.655367    0.662024
     13          1           0        2.878250    2.732273    2.033901
     14          1           0        2.592758    1.077833    2.395542
     15          1           0        0.746620    2.933299    0.730414
     16          1           0        0.540555    2.672703    2.465061
     17          1           0        0.229167    1.365132    1.328528
     18          1           0        4.632869    1.364541   -0.873837
     19          1           0        4.894321    0.732930    0.745877
     20          1           0        4.471459    3.694735    0.053490
     21          1           0        6.040151    2.913461    0.298426
     22          1           0        4.917783    3.054284    1.650836
 ---------------------------------------------------------------------
                    Distance matrix (angstroms):
                    1          2          3          4          5
     1  C    0.000000
     2  C    1.517966   0.000000
     3  N    2.564897   1.484119   0.000000
     4  C    2.985511   2.439806   1.465103   0.000000
     5  C    2.924776   3.120966   2.480139   1.534105   0.000000
     6  C    3.793938   2.371362   1.475338   2.507795   3.814950
     7  C    5.067763   3.776237   2.515935   3.003774   4.259614
     8  H    1.095055   2.150490   3.477366   4.017759   3.994648
     9  H    1.094036   2.189397   2.827181   3.254896   2.792114
    10  H    1.102028   2.148022   2.912417   2.781895   2.565445
    11  H    2.140049   1.097496   2.094621   3.367524   4.029543
    12  H    2.099533   1.096981   2.128153   2.756993   3.670695
    13  H    4.063573   3.386213   2.124297   1.097460   2.119757
    14  H    3.151703   2.620158   2.111336   1.094526   2.219054
    15  H    3.307224   3.466070   2.664441   2.160571   1.094262
    16  H    3.878507   4.119647   3.418250   2.173621   1.095563
    17  H    2.268358   2.972658   2.870247   2.217537   1.087095
    18  H    4.031589   2.613196   2.099785   3.415764   4.533630
    19  H    4.038244   2.568725   2.134240   2.896743   4.342823
    20  H    5.238854   4.117924   2.744471   3.219975   4.155581
    21  H    5.925431   4.529703   3.444522   4.050920   5.347542
    22  H    5.360565   4.173876   2.875702   2.820027   4.121530
                    6          7          8          9         10
     6  C    0.000000
     7  C    1.524650   0.000000
     8  H    4.515612   5.906511   0.000000
     9  H    4.157611   5.275314   1.769016   0.000000
    10  H    4.202441   5.350441   1.770600   1.796238   0.000000
    11  H    2.522582   3.982254   2.401704   2.584789   3.041680
    12  H    2.624005   4.044935   2.455004   3.044594   2.364300
    13  H    2.674769   2.564491   5.100085   4.242117   3.863207
    14  H    2.884009   3.501967   4.043453   3.718272   2.701249
    15  H    3.941652   4.237354   4.366173   2.838380   3.254391
    16  H    4.617389   4.830930   4.904809   3.777920   3.303542
    17  H    4.316781   5.043334   3.238752   2.131200   1.760378
    18  H    1.097763   2.121793   4.593917   4.296217   4.678892
    19  H    1.096920   2.153225   4.621151   4.645599   4.325468
    20  H    2.172801   1.093961   6.138427   5.217581   5.582500
    21  H    2.159386   1.094980   6.669769   6.178620   6.274751
    22  H    2.182585   1.094446   6.260097   5.638656   5.421625
                   11         12         13         14         15
    11  H    0.000000
    12  H    1.762779   0.000000
    13  H    4.195367   3.657354   0.000000
    14  H    3.644476   2.487054   1.717400   0.000000
    15  H    4.159043   4.244810   2.506658   3.102198   0.000000
    16  H    5.078887   4.520907   2.377869   2.599996   1.766175
    17  H    3.885348   3.503543   3.063375   2.609142   1.756316
    18  H    2.277367   3.010611   3.661191   3.864336   4.487488
    19  H    2.783031   2.339834   3.117840   2.852638   4.695240
    20  H    4.271611   4.628350   2.717844   3.982826   3.861662
    21  H    4.554497   4.694047   3.611416   4.433052   5.311165
    22  H    4.615769   4.285852   2.100030   3.141128   4.273220
                   16         17         18         19         20
    16  H    0.000000
    17  H    1.760231   0.000000
    18  H    5.441191   4.923718   0.000000
    19  H    5.066911   4.743714   1.758056   0.000000
    20  H    4.723582   5.004978   2.513124   3.070912   0.000000
    21  H    5.915896   6.101309   2.398707   2.503568   1.769514
    22  H    4.468633   4.994020   3.051291   2.491623   1.777891
                   21         22
    21  H    0.000000
    22  H    1.763109   0.000000
 Stoichiometry    C6H15N
 Framework group  C1[X(C6H15N)]
 Deg. of freedom    60
 Full point group                 C1      NOp   1
 Largest Abelian subgroup         C1      NOp   1
 Largest concise Abelian subgroup C1      NOp   1
                         Standard orientation:                         
 ---------------------------------------------------------------------
 Center     Atomic      Atomic             Coordinates (Angstroms)
 Number     Number       Type             X           Y           Z
 ---------------------------------------------------------------------
      1          6           0       -2.241724   -0.934083   -0.120229
      2          6           0       -0.776369   -1.257588    0.108455
      3          7           0        0.213658   -0.197567   -0.205893
      4          6           0       -0.100120    1.056382    0.483804
      5          6           0       -1.239648    1.812148   -0.211730
      6          6           0        1.545861   -0.782495    0.038479
      7          6           0        2.699248    0.190968   -0.177447
      8          1           0       -2.844197   -1.839478    0.007958
      9          1           0       -2.439315   -0.539335   -1.121252
     10          1           0       -2.573513   -0.207422    0.638946
     11          1           0       -0.513364   -2.141905   -0.485944
     12          1           0       -0.697835   -1.547819    1.163427
     13          1           0        0.761689    1.735868    0.482674
     14          1           0       -0.270501    0.871702    1.549098
     15          1           0       -1.013997    1.910218   -1.277973
     16          1           0       -1.334040    2.823119    0.199714
     17          1           0       -2.212612    1.334063   -0.130797
     18          1           0        1.694936   -1.614046   -0.662508
     19          1           0        1.614471   -1.209600    1.046500
     20          1           0        2.638178    0.660843   -1.163469
     21          1           0        3.654026   -0.341751   -0.117506
     22          1           0        2.716981    0.976519    0.584397
 ---------------------------------------------------------------------
 Rotational constants (GHZ):           3.6142045           1.7932485           1.2939931
 Standard basis: 6-31G(d) (6D, 7F)
 There are   135 symmetry adapted cartesian basis functions of A   symmetry.
 There are   135 symmetry adapted basis functions of A   symmetry.
   135 basis functions,   256 primitive gaussians,   135 cartesian basis functions
    29 alpha electrons       29 beta electrons
       nuclear repulsion energy       338.5613158680 Hartrees.
 NAtoms=   22 NActive=   22 NUniq=   22 SFac= 1.00D+00 NAtFMM=   60 NAOKFM=F Big=F
 Integral buffers will be    131072 words long.
 Raffenetti 2 integral format.
 Two-electron integral symmetry is turned on.
 One-electron integrals computed using PRISM.
 NBasis=   135 RedAO= T EigKep=  4.30D-03  NBF=   135
 NBsUse=   135 1.00D-06 EigRej= -1.00D+00 NBFU=   135
 Initial guess from the checkpoint file:  "base_4_conf91.chk"
 B after Tr=     0.000000   -0.000000    0.000000
         Rot=    0.999795   -0.017624    0.004797    0.008689 Ang=  -2.32 deg.
 ExpMin= 1.61D-01 ExpMax= 4.17D+03 ExpMxC= 6.27D+02 IAcc=2 IRadAn=         4 AccDes= 0.00D+00
 Harris functional with IExCor=  402 and IRadAn=       4 diagonalized for initial guess.
 HarFok:  IExCor=  402 AccDes= 0.00D+00 IRadAn=         4 IDoV= 1 UseB2=F ITyADJ=14
 ICtDFT=  3500011 ScaDFX=  1.000000  1.000000  1.000000  1.000000
 FoFCou: FMM=F IPFlag=           0 FMFlag=      100000 FMFlg1=           0
         NFxFlg=           0 DoJE=T BraDBF=F KetDBF=T FulRan=T
         wScrn=  0.000000 ICntrl=       500 IOpCl=  0 I1Cent=   200000004 NGrid=           0
         NMat0=    1 NMatS0=      1 NMatT0=    0 NMatD0=    1 NMtDS0=    0 NMtDT0=    0
 Petite list used in FoFCou.
 Keep R1 ints in memory in canonical form, NReq=45019892.
 Gradient too large for Newton-Raphson -- use scaled steepest descent instead.
 Gradient too large for Newton-Raphson -- use scaled steepest descent instead.
 Gradient too large for Newton-Raphson -- use scaled steepest descent instead.
     Accept linear search using points  1 and  2.
 Gradient too large for Newton-Raphson -- use scaled steepest descent instead.
     Accept linear search using points  1 and  2.
 Gradient too large for Newton-Raphson -- use scaled steepest descent instead.
 Gradient too large for Newton-Raphson -- use scaled steepest descent instead.
     Accept linear search using points  1 and  2.
 Gradient too large for Newton-Raphson -- use scaled steepest descent instead.
     Accept linear search using points  2 and  3.
 Gradient too large for Newton-Raphson -- use scaled steepest descent instead.
     Accept linear search using points  1 and  2.
 Gradient too large for Newton-Raphson -- use scaled steepest descent instead.
     Accept linear search using points  2 and  3.
 Gradient too large for Newton-Raphson -- use scaled steepest descent instead.
     Accept linear search using points  1 and  2.
 LinEq1:  Iter=  0 NonCon=     1 RMS=1.56D-04 Max=2.66D-03 NDo=     1
 AX will form     1 AO Fock derivatives at one time.
 LinEq1:  Iter=  1 NonCon=     1 RMS=6.76D-06 Max=5.09D-05 NDo=     1
 LinEq1:  Iter=  2 NonCon=     1 RMS=4.58D-06 Max=4.36D-05 NDo=     1
 LinEq1:  Iter=  3 NonCon=     1 RMS=1.99D-06 Max=3.03D-05 NDo=     1
 LinEq1:  Iter=  4 NonCon=     1 RMS=9.29D-07 Max=8.20D-06 NDo=     1
 LinEq1:  Iter=  5 NonCon=     1 RMS=3.07D-07 Max=3.27D-06 NDo=     1
 LinEq1:  Iter=  6 NonCon=     1 RMS=1.00D-07 Max=9.98D-07 NDo=     1
 LinEq1:  Iter=  7 NonCon=     1 RMS=4.24D-08 Max=3.79D-07 NDo=     1
 LinEq1:  Iter=  8 NonCon=     1 RMS=1.67D-08 Max=1.38D-07 NDo=     1
 LinEq1:  Iter=  9 NonCon=     0 RMS=4.19D-09 Max=3.14D-08 NDo=     1
 Linear equations converged to 7.841D-09 7.841D-08 after     9 iterations.
     Accept linear search using points  1 and  2.
     Minimum is close to point  2 DX= -1.51D-05 DF=  0.00D+00 DXR=  1.51D-05 DFR=  0.00D+00 which will be used.
 LinEq1:  Iter=  0 NonCon=     1 RMS=3.10D-07 Max=3.42D-06 NDo=     1
 LinEq1:  Iter=  1 NonCon=     1 RMS=9.40D-08 Max=7.97D-07 NDo=     1
 LinEq1:  Iter=  2 NonCon=     1 RMS=5.58D-08 Max=4.80D-07 NDo=     1
 LinEq1:  Iter=  3 NonCon=     1 RMS=1.77D-08 Max=1.44D-07 NDo=     1
 LinEq1:  Iter=  4 NonCon=     1 RMS=7.13D-09 Max=6.82D-08 NDo=     1
 LinEq1:  Iter=  5 NonCon=     1 RMS=3.01D-09 Max=3.30D-08 NDo=     1
 LinEq1:  Iter=  6 NonCon=     1 RMS=8.86D-10 Max=9.38D-09 NDo=     1
 LinEq1:  Iter=  7 NonCon=     1 RMS=2.79D-10 Max=2.77D-09 NDo=     1
 LinEq1:  Iter=  8 NonCon=     0 RMS=1.33D-10 Max=1.10D-09 NDo=     1
 Linear equations converged to 1.737D-10 1.737D-09 after     8 iterations.
 SCF Done:  E(RB3LYP) =  -292.401566245     a.u. after   13 cycles
            Convg  =    0.2419D-09                    47 Fock formations.
              S**2 =  0.0000                  -V/T =  2.0098
 DoSCS=F DFT=T ScalE2(SS,OS)=  1.000000  1.000000
 Range of M.O.s used for correlation:     1   135
 NBasis=   135 NAE=    29 NBE=    29 NFC=     0 NFV=     0
 NROrb=    135 NOA=    29 NOB=    29 NVA=   106 NVB=   106
 Symmetrizing basis deriv contribution to polar:
 IMax=3 JMax=2 DiffMx= 0.00D+00
 G2DrvN: will do    23 centers at a time, making    1 passes.
 Calling FoFCou, ICntrl=  3107 FMM=F I1Cent=   0 AccDes= 0.00D+00.
 End of G2Drv F.D. properties file   721 does not exist.
 End of G2Drv F.D. properties file   722 does not exist.
 End of G2Drv F.D. properties file   788 does not exist.
          IDoAtm=1111111111111111111111
          Differentiating once with respect to electric field.
                with respect to dipole field.
          Differentiating once with respect to nuclear coordinates.
 Keep R1 ints in memory in canonical form, NReq=45034167.
          There are    69 degrees of freedom in the 1st order CPHF.  IDoFFX=6 NUNeed=     3.
     66 vectors produced by pass  0 Test12= 4.46D-15 1.45D-09 XBig12= 4.44D+01 1.48D+00.
 AX will form    66 AO Fock derivatives at one time.
     66 vectors produced by pass  1 Test12= 4.46D-15 1.45D-09 XBig12= 2.26D+00 2.17D-01.
     66 vectors produced by pass  2 Test12= 4.46D-15 1.45D-09 XBig12= 1.14D-02 1.74D-02.
     66 vectors produced by pass  3 Test12= 4.46D-15 1.45D-09 XBig12= 1.09D-05 4.27D-04.
     66 vectors produced by pass  4 Test12= 4.46D-15 1.45D-09 XBig12= 6.85D-09 9.82D-06.
     22 vectors produced by pass  5 Test12= 4.46D-15 1.45D-09 XBig12= 4.49D-12 3.52D-07.
      3 vectors produced by pass  6 Test12= 4.46D-15 1.45D-09 XBig12= 2.49D-15 1.20D-08.
 InvSVY:  IOpt=1 It=  1 EMax= 3.55D-15
 Solved reduced A of dimension   355 with    69 vectors.
 Isotropic polarizability for W=    0.000000       72.69 Bohr**3.
 End of Minotr F.D. properties file   721 does not exist.
 End of Minotr F.D. properties file   722 does not exist.
 End of Minotr F.D. properties file   788 does not exist.
 Calling FoFJK, ICntrl=    100127 FMM=F ISym2X=0 I1Cent= 0 IOpClX= 0 NMat=1 NMatS=1 NMatT=0.
 ***** Axes restored to original set *****
 -------------------------------------------------------------------
 Center     Atomic                   Forces (Hartrees/Bohr)
 Number     Number              X              Y              Z
 -------------------------------------------------------------------
      1        6          -0.005311031   -0.004939685    0.004405177
      2        6           0.002495491    0.007183942   -0.003946365
      3        7          -0.001370662   -0.010832302   -0.012382906
      4        6           0.003995019    0.007135843   -0.002621143
      5        6          -0.002941467    0.006455118    0.006966654
      6        6          -0.004898755    0.010925768    0.002731951
      7        6           0.001533639    0.000992174    0.002294488
      8        1           0.001602064   -0.001243612   -0.000671788
      9        1           0.000146051   -0.000072268    0.000431932
     10        1          -0.002201803   -0.004862691   -0.009519413
     11        1           0.001501352    0.001778579    0.000416389
     12        1           0.007294009   -0.004420396    0.003359016
     13        1           0.002001221   -0.000215804   -0.007291633
     14        1          -0.006101815   -0.008398052    0.007294412
     15        1           0.001597289    0.000750767   -0.000565575
     16        1           0.000745697    0.000462286    0.001822111
     17        1           0.000205738    0.005509776    0.003711287
     18        1          -0.004410349   -0.003330232   -0.000301467
     19        1           0.003899890   -0.004706149    0.004145240
     20        1          -0.001246868    0.000588986   -0.000016993
     21        1           0.000636666   -0.000464977   -0.000130056
     22        1           0.000828625    0.001702930   -0.000131320
 -------------------------------------------------------------------
 Cartesian Forces:  Max     0.012382906 RMS     0.004480136
 FormGI is forming the generalized inverse of G from B-inverse, IUseBI=4.

 GradGradGradGradGradGradGradGradGradGradGradGradGradGradGradGradGradGrad
 Berny optimization.
 Using GEDIIS/GDIIS optimizer.
 Internal  Forces:  Max     0.032416138 RMS     0.008064358
 Search for a local minimum.
 Step number   2 out of a maximum of  115
 All quantities printed in internal units (Hartrees-Bohrs-Radians)
 Mixed Optimization -- RFO/linear search
 Second derivative matrix not updated -- analytic derivatives used.
 ITU=  0  0
 Use linear search instead of GDIIS.
     Eigenvalues ---   -0.00587  -0.00089   0.00238   0.00321   0.00334
     Eigenvalues ---    0.01489   0.02439   0.04229   0.04504   0.04522
     Eigenvalues ---    0.04665   0.04755   0.04795   0.04852   0.04939
     Eigenvalues ---    0.05003   0.05058   0.05196   0.05815   0.08299
     Eigenvalues ---    0.08630   0.09185   0.10992   0.11781   0.12283
     Eigenvalues ---    0.12349   0.12679   0.12789   0.13393   0.14037
     Eigenvalues ---    0.14898   0.16032   0.16585   0.16688   0.17656
     Eigenvalues ---    0.21835   0.23273   0.26581   0.28203   0.28600
     Eigenvalues ---    0.29983   0.30760   0.31025   0.32178   0.32474
     Eigenvalues ---    0.32675   0.32901   0.33597   0.33894   0.33995
     Eigenvalues ---    0.34117   0.34161   0.34307   0.34495   0.34824
     Eigenvalues ---    0.34962   0.35067   0.35789   0.38881   1.01589
 RFO step:  Lambda=-1.41344340D-02 EMin=-5.86600615D-03
 Skip linear search -- no minimum in search direction.
 Iteration  1 RMS(Cart)=  0.21457615 RMS(Int)=  0.03049455
 Iteration  2 RMS(Cart)=  0.07862100 RMS(Int)=  0.00239703
 Iteration  3 RMS(Cart)=  0.00401520 RMS(Int)=  0.00089710
 Iteration  4 RMS(Cart)=  0.00001379 RMS(Int)=  0.00089707
 Iteration  5 RMS(Cart)=  0.00000001 RMS(Int)=  0.00089707
 Variable       Old X    -DE/DX   Delta X   Delta X   Delta X     New X
                                 (Linear)    (Quad)   (Total)
    R1        2.86854   0.00803   0.00000   0.02700   0.02700   2.89554
    R2        2.06935   0.00116   0.00000   0.00254   0.00254   2.07190
    R3        2.06743  -0.00035   0.00000   0.00321   0.00321   2.07064
    R4        2.08253  -0.00820   0.00000  -0.02679  -0.02679   2.05574
    R5        2.80458   0.00604   0.00000  -0.03861  -0.03861   2.76596
    R6        2.07397  -0.00017   0.00000  -0.00043  -0.00043   2.07354
    R7        2.07299   0.00814   0.00000   0.02186   0.02186   2.09485
    R8        2.76864   0.01160   0.00000   0.00656   0.00656   2.77521
    R9        2.78799  -0.00425   0.00000  -0.00310  -0.00310   2.78488
   R10        2.89904   0.00269   0.00000  -0.00864  -0.00864   2.89040
   R11        2.07390  -0.00186   0.00000  -0.01044  -0.01044   2.06346
   R12        2.06835   0.00964   0.00000   0.02942   0.02942   2.09778
   R13        2.06786   0.00071   0.00000   0.00259   0.00259   2.07045
   R14        2.07031   0.00151   0.00000   0.00114   0.00114   2.07145
   R15        2.05431  -0.00509   0.00000   0.00606   0.00606   2.06037
   R16        2.88117   0.00369   0.00000   0.00872   0.00872   2.88989
   R17        2.07447  -0.00020   0.00000  -0.00116  -0.00116   2.07331
   R18        2.07288   0.00733   0.00000   0.02288   0.02288   2.09576
   R19        2.06729   0.00103   0.00000   0.00338   0.00338   2.07067
   R20        2.06921   0.00063   0.00000   0.00171   0.00171   2.07093
   R21        2.06820   0.00010   0.00000  -0.00084  -0.00084   2.06736
    A1        1.91481  -0.00459   0.00000  -0.00343  -0.00378   1.91103
    A2        1.97044  -0.00070   0.00000  -0.04130  -0.04100   1.92943
    A3        1.90433   0.00967   0.00000   0.07090   0.07109   1.97541
    A4        1.88186   0.00127   0.00000   0.01924   0.01901   1.90087
    A5        1.87433  -0.00333   0.00000  -0.02196  -0.02238   1.85195
    A6        1.91562  -0.00265   0.00000  -0.02390  -0.02316   1.89245
    A7        2.04860   0.03096   0.00000  -0.02271  -0.02539   2.02321
    A8        1.89807  -0.00909   0.00000  -0.04352  -0.04572   1.85235
    A9        1.84458  -0.00441   0.00000   0.08566   0.08500   1.92958
   A10        1.87647  -0.01248   0.00000  -0.04667  -0.04933   1.82713
   A11        1.92294  -0.00938   0.00000   0.04017   0.03882   1.96176
   A12        1.86556   0.00265   0.00000  -0.01207  -0.01022   1.85535
   A13        1.94844   0.03242   0.00000   0.07348   0.07460   2.02304
   A14        1.85887  -0.01501   0.00000   0.03157   0.03371   1.89258
   A15        2.04288  -0.01838   0.00000  -0.10123  -0.10208   1.94080
   A16        1.94690   0.03128   0.00000   0.10859   0.10961   2.05651
   A17        1.94040  -0.01466   0.00000  -0.08328  -0.08349   1.85691
   A18        1.92528  -0.00579   0.00000   0.01297   0.01507   1.94035
   A19        1.85232  -0.01212   0.00000   0.00483   0.00638   1.85869
   A20        1.99190  -0.00955   0.00000  -0.09722  -0.09766   1.89424
   A21        1.80052   0.00759   0.00000   0.04310   0.04282   1.84335
   A22        1.91001  -0.00265   0.00000   0.02398   0.02406   1.93407
   A23        1.92659  -0.00303   0.00000  -0.03081  -0.03105   1.89554
   A24        1.99808   0.00576   0.00000  -0.01182  -0.01218   1.98590
   A25        1.87654   0.00156   0.00000   0.00829   0.00852   1.88507
   A26        1.87184   0.00001   0.00000   0.01744   0.01738   1.88922
   A27        1.87628  -0.00172   0.00000  -0.00501  -0.00567   1.87061
   A28        1.98942   0.00328   0.00000   0.03294   0.03286   2.02228
   A29        1.89355  -0.00523   0.00000  -0.03781  -0.03786   1.85569
   A30        1.94235   0.00025   0.00000   0.00140   0.00104   1.94340
   A31        1.86553   0.00283   0.00000   0.00692   0.00727   1.87279
   A32        1.90862  -0.00153   0.00000  -0.00207  -0.00231   1.90631
   A33        1.85810   0.00027   0.00000  -0.00408  -0.00423   1.85387
   A34        1.93870  -0.00094   0.00000  -0.00619  -0.00626   1.93244
   A35        1.91904  -0.00093   0.00000  -0.01557  -0.01556   1.90348
   A36        1.95191   0.00292   0.00000   0.02663   0.02667   1.97857
   A37        1.88282   0.00078   0.00000   0.00481   0.00471   1.88753
   A38        1.89656  -0.00107   0.00000  -0.00463  -0.00465   1.89190
   A39        1.87231  -0.00081   0.00000  -0.00559  -0.00548   1.86682
    D1        2.99703  -0.00348   0.00000  -0.26478  -0.26462   2.73242
    D2        0.86330  -0.00177   0.00000  -0.14969  -0.15064   0.71266
    D3       -1.13435   0.00159   0.00000  -0.15851  -0.15787  -1.29222
    D4        0.89773  -0.00142   0.00000  -0.25953  -0.25957   0.63817
    D5       -1.23601   0.00029   0.00000  -0.14443  -0.14559  -1.38160
    D6        3.04953   0.00365   0.00000  -0.15326  -0.15282   2.89671
    D7       -1.23720  -0.00451   0.00000  -0.25196  -0.25145  -1.48864
    D8        2.91225  -0.00280   0.00000  -0.13687  -0.13747   2.77478
    D9        0.91460   0.00056   0.00000  -0.14569  -0.14470   0.76990
   D10        0.93857   0.01044   0.00000   0.36798   0.36643   1.30500
   D11       -3.09511  -0.00169   0.00000   0.31314   0.31352  -2.78160
   D12        3.08339   0.01008   0.00000   0.25559   0.25555  -2.94425
   D13       -0.95030  -0.00204   0.00000   0.20075   0.20264  -0.74766
   D14       -1.17284   0.00121   0.00000   0.23625   0.23495  -0.93789
   D15        1.07666  -0.01091   0.00000   0.18141   0.18204   1.25871
   D16       -1.35747  -0.01509   0.00000   0.11734   0.11425  -1.24322
   D17        2.86187  -0.01061   0.00000   0.09514   0.09523   2.95711
   D18        0.87543  -0.00802   0.00000   0.08300   0.08308   0.95851
   D19        2.77768  -0.00765   0.00000   0.09153   0.09038   2.86806
   D20        0.71384  -0.00318   0.00000   0.06932   0.07137   0.78520
   D21       -1.27260  -0.00059   0.00000   0.05719   0.05921  -1.21339
   D22       -3.09832  -0.00940   0.00000  -0.10388  -0.10386   3.08101
   D23        1.10880  -0.01141   0.00000  -0.10710  -0.10659   1.00221
   D24       -0.92989  -0.00871   0.00000  -0.08004  -0.07982  -1.00970
   D25       -0.90498   0.00796   0.00000  -0.05288  -0.05336  -0.95834
   D26       -2.98105   0.00595   0.00000  -0.05610  -0.05609  -3.03715
   D27        1.26345   0.00866   0.00000  -0.02904  -0.02932   1.23413
   D28       -0.89540   0.00535   0.00000   0.02525   0.02372  -0.87168
[...]
     3  N   -0.033222   0.001193  -0.013703  -0.013539  -0.078462  -0.041196
     4  C    0.007792  -0.001195  -0.002324  -0.023125  -0.001876  -0.029447
     5  C   -0.001056   0.000198  -0.000723  -0.000861   0.000519   0.002150
     6  C    0.422974  -0.000424  -0.000468   0.000116  -0.111551  -0.017463
     7  C    5.596023   0.000010   0.000029   0.000009   0.001805   0.000335
     8  H    0.000010   0.690233   0.015377   0.035008   0.046264   0.017389
     9  H    0.000029   0.015377   0.626321   0.012239   0.029921   0.009753
    10  H    0.000009   0.035008   0.012239   0.698690   0.023475   0.015526
    11  H    0.001805   0.046264   0.029921   0.023475   1.078085   0.067198
    12  H    0.000335   0.017389   0.009753   0.015526   0.067198   0.612564
    13  H   -0.029830   0.000144   0.000405   0.002996   0.003571   0.007784
    14  H   -0.000863   0.004028   0.004285   0.048232   0.011708   0.031524
    15  H   -0.011243   0.000022   0.000581   0.000975   0.000335   0.000148
    16  H   -0.000421   0.000010   0.000108   0.001142   0.000035   0.000071
    17  H   -0.000698   0.000695   0.006716   0.015984   0.000899   0.000678
    18  H   -0.061058   0.000776   0.001993   0.000701   0.154497   0.017724
    19  H   -0.050739   0.000092   0.000124   0.000266   0.017718   0.009487
    20  H    0.250866   0.000006   0.000150   0.000035   0.001995   0.000124
    21  H    0.188199   0.000000   0.000006   0.000002   0.000776   0.000092
    22  H    0.134241   0.000002   0.000035   0.000036   0.000702   0.000266
              13         14         15         16         17         18
     1  C   -0.000864  -0.029815  -0.000699  -0.000421  -0.011245   0.001805
     2  C    0.006624   0.004755   0.001372   0.000365   0.002863  -0.111573
     3  N   -0.067638  -0.067618  -0.013169   0.001593  -0.013162  -0.078459
     4  C   -0.046384  -0.046159  -0.081959  -0.071098  -0.081916  -0.001882
     5  C    0.013493   0.013493   0.296809   0.353520   0.296884   0.000519
     6  C    0.004750   0.006618   0.002865   0.000364   0.001371  -0.222512
     7  C   -0.029830  -0.000863  -0.011243  -0.000421  -0.000698  -0.061058
     8  H    0.000144   0.004028   0.000022   0.000010   0.000695   0.000776
     9  H    0.000405   0.004285   0.000581   0.000108   0.006716   0.001993
    10  H    0.002996   0.048232   0.000975   0.001142   0.015984   0.000701
    11  H    0.003571   0.011708   0.000335   0.000035   0.000899   0.154497
    12  H    0.007784   0.031524   0.000148   0.000071   0.000678   0.017724
    13  H    0.794691   0.074752   0.017033   0.010561   0.013536   0.011712
    14  H    0.074752   0.794464   0.013538   0.010554   0.017005   0.003571
    15  H    0.017033   0.013538   0.616832  -0.009501  -0.002889   0.000899
    16  H    0.010561   0.010554  -0.009501   0.556993  -0.009514   0.000035
    17  H    0.013536   0.017005  -0.002889  -0.009514   0.616734   0.000335
    18  H    0.011712   0.003571   0.000899   0.000035   0.000335   1.078024
    19  H    0.031548   0.007787   0.000678   0.000071   0.000148   0.067207
    20  H    0.004288   0.000405   0.006711   0.000108   0.000580   0.029934
    21  H    0.004029   0.000144   0.000694   0.000010   0.000022   0.046258
    22  H    0.048265   0.002995   0.015987   0.001141   0.000974   0.023482
              19         20         21         22
     1  C    0.000335   0.000029   0.000010   0.000009
     2  C   -0.017460  -0.000470  -0.000424   0.000115
     3  N   -0.041199  -0.013708   0.001192  -0.013546
     4  C   -0.029466  -0.002325  -0.001196  -0.023142
     5  C    0.002150  -0.000722   0.000197  -0.000862
     6  C    0.186983  -0.073694  -0.115213  -0.060278
     7  C   -0.050739   0.250866   0.188199   0.134241
     8  H    0.000092   0.000006   0.000000   0.000002
     9  H    0.000124   0.000150   0.000006   0.000035
    10  H    0.000266   0.000035   0.000002   0.000036
    11  H    0.017718   0.001995   0.000776   0.000702
    12  H    0.009487   0.000124   0.000092   0.000266
    13  H    0.031548   0.004288   0.004029   0.048265
    14  H    0.007787   0.000405   0.000144   0.002995
    15  H    0.000678   0.006711   0.000694   0.015987
    16  H    0.000071   0.000108   0.000010   0.001141
    17  H    0.000148   0.000580   0.000022   0.000974
    18  H    0.067207   0.029934   0.046258   0.023482
    19  H    0.612608   0.009757   0.017392   0.015537
    20  H    0.009757   0.626393   0.015392   0.012276
    21  H    0.017392   0.015392   0.690224   0.035032
    22  H    0.015537   0.012276   0.035032   0.698801
 Mulliken charges:
               1
     1  C   -0.414961
     2  C   -0.095740
     3  N   -0.181509
     4  C   -0.074060
     5  C   -0.458395
     6  C   -0.095742
     7  C   -0.414939
     8  H    0.117163
     9  H    0.131891
    10  H    0.107963
    11  H    0.036004
    12  H    0.158993
    13  H    0.094535
    14  H    0.094596
    15  H    0.143980
    16  H    0.154274
    17  H    0.143999
    18  H    0.036012
    19  H    0.158977
    20  H    0.131870
    21  H    0.117159
    22  H    0.107931
 Sum of Mulliken charges =  -0.00000
 Mulliken charges with hydrogens summed into heavy atoms:
               1
     1  C   -0.057943
     2  C    0.099257
     3  N   -0.181509
     4  C    0.115070
     5  C   -0.016143
     6  C    0.099247
     7  C   -0.057979
 Electronic spatial extent (au):  <R**2>=           1024.0750
 Charge=             -0.0000 electrons
 Dipole moment (field-independent basis, Debye):
    X=             -0.0010    Y=              0.6949    Z=              0.8311  Tot=              1.0833
 Quadrupole moment (field-independent basis, Debye-Ang):
   XX=            -52.6326   YY=            -51.6616   ZZ=            -48.8345
   XY=             -0.0009   XZ=              0.0001   YZ=             -2.0267
 Traceless Quadrupole moment (field-independent basis, Debye-Ang):
   XX=             -1.5897   YY=             -0.6187   ZZ=              2.2084
   XY=             -0.0009   XZ=              0.0001   YZ=             -2.0267
 Octapole moment (field-independent basis, Debye-Ang**2):
  XXX=             -0.0047  YYY=             14.1716  ZZZ=              0.2116  XYY=             -0.0056
  XXY=             -0.7488  XXZ=              1.6366  XZZ=             -0.0019  YZZ=              0.6341
  YYZ=              5.6940  XYZ=             -0.0013
 Hexadecapole moment (field-independent basis, Debye-Ang**3):
 XXXX=           -840.4969 YYYY=           -524.6619 ZZZZ=           -148.0160 XXXY=             -0.0068
 XXXZ=              0.0046 YYYX=             -0.0021 YYYZ=             -6.3979 ZZZX=              0.0004
 ZZZY=             -5.8408 XXYY=           -224.2977 XXZZ=           -162.0466 YYZZ=           -109.1994
 XXYZ=             -8.5179 YYXZ=             -0.0032 ZZXY=             -0.0023
 N-N= 3.368677806741D+02 E-N=-1.348095367484D+03  KE= 2.896330524400D+02
 Evaluate density.
 Using the total density.
 Monte-Carlo method of calculating molar volume:
 based on  0.001 e/bohr**3 density envelope.
 Number of points per bohr**3 =   20 CutOff= 1.00D-04
 Using the CI density.
 There are       373 points.  Will hold       373 in memory.
 LenV=   805236161 MDV=   805306368.
 Box volume = 6500.908 fraction occupied=0.209
 Integrated density= 4.6297767451679853D+01 error=-1.1702232548320147D+01
 Molar volume = 1359.439 bohr**3/mol (121.315 cm**3/mol)
 Recommended a0 for SCRF calculation =  4.50 angstrom (  8.51 bohr)
 ******************************Gaussian NBO Version 3.1******************************
             N A T U R A L   A T O M I C   O R B I T A L   A N D
          N A T U R A L   B O N D   O R B I T A L   A N A L Y S I S
 ******************************Gaussian NBO Version 3.1******************************
       /RESON  / : Allow strongly delocalized NBO set

 Analyzing the CI density

 Job title: Title Card Required                                             

 Storage needed:     56284 in NPA ( 805303728 available)


 NATURAL POPULATIONS:  Natural atomic orbital occupancies 
                                                          
   NAO  Atom  No  lang   Type(AO)    Occupancy
 --------------------------------------------
     1    C    1  S      Cor( 1S)     1.99944
     2    C    1  S      Val( 2S)     1.11879
     3    C    1  S      Ryd( 3S)     0.00055
     4    C    1  S      Ryd( 4S)     0.00002
     5    C    1  px     Val( 2p)     1.13340
     6    C    1  px     Ryd( 3p)     0.00304
     7    C    1  py     Val( 2p)     1.22452
     8    C    1  py     Ryd( 3p)     0.00299
     9    C    1  pz     Val( 2p)     1.21062
    10    C    1  pz     Ryd( 3p)     0.00142
    11    C    1  dxy    Ryd( 3d)     0.00082
    12    C    1  dxz    Ryd( 3d)     0.00033
    13    C    1  dyz    Ryd( 3d)     0.00048
    14    C    1  dx2y2  Ryd( 3d)     0.00051
    15    C    1  dz2    Ryd( 3d)     0.00099
 
    16    C    2  S      Cor( 1S)     1.99932
    17    C    2  S      Val( 2S)     1.04456
    18    C    2  S      Ryd( 3S)     0.00186
    19    C    2  S      Ryd( 4S)     0.00005
    20    C    2  px     Val( 2p)     0.89495
    21    C    2  px     Ryd( 3p)     0.00289
    22    C    2  py     Val( 2p)     1.15367
    23    C    2  py     Ryd( 3p)     0.00637
    24    C    2  pz     Val( 2p)     1.20798
    25    C    2  pz     Ryd( 3p)     0.00278
    26    C    2  dxy    Ryd( 3d)     0.00128
    27    C    2  dxz    Ryd( 3d)     0.00050
    28    C    2  dyz    Ryd( 3d)     0.00067
    29    C    2  dx2y2  Ryd( 3d)     0.00096
    30    C    2  dz2    Ryd( 3d)     0.00122
 
    31    N    3  S      Cor( 1S)     1.99930
    32    N    3  S      Val( 2S)     1.30095
    33    N    3  S      Ryd( 3S)     0.00154
    34    N    3  S      Ryd( 4S)     0.00008
    35    N    3  px     Val( 2p)     1.29775
    36    N    3  px     Ryd( 3p)     0.00123
    37    N    3  py     Val( 2p)     1.28687
    38    N    3  py     Ryd( 3p)     0.00105
    39    N    3  pz     Val( 2p)     1.15297
    40    N    3  pz     Ryd( 3p)     0.00280
    41    N    3  dxy    Ryd( 3d)     0.00086
    42    N    3  dxz    Ryd( 3d)     0.00075
    43    N    3  dyz    Ryd( 3d)     0.00086
    44    N    3  dx2y2  Ryd( 3d)     0.00089
    45    N    3  dz2    Ryd( 3d)     0.00039
 
    46    C    4  S      Cor( 1S)     1.99930
    47    C    4  S      Val( 2S)     1.06876
    48    C    4  S      Ryd( 3S)     0.00258
    49    C    4  S      Ryd( 4S)     0.00004
    50    C    4  px     Val( 2p)     1.27101
    51    C    4  px     Ryd( 3p)     0.00488
    52    C    4  py     Val( 2p)     0.86513
    53    C    4  py     Ryd( 3p)     0.00390
    54    C    4  pz     Val( 2p)     1.09619
    55    C    4  pz     Ryd( 3p)     0.00264
    56    C    4  dxy    Ryd( 3d)     0.00046
    57    C    4  dxz    Ryd( 3d)     0.00123
    58    C    4  dyz    Ryd( 3d)     0.00121
    59    C    4  dx2y2  Ryd( 3d)     0.00124
    60    C    4  dz2    Ryd( 3d)     0.00044
 
    61    C    5  S      Cor( 1S)     1.99943
    62    C    5  S      Val( 2S)     1.10858
    63    C    5  S      Ryd( 3S)     0.00049
    64    C    5  S      Ryd( 4S)     0.00001
    65    C    5  px     Val( 2p)     1.24970
    66    C    5  px     Ryd( 3p)     0.00145
    67    C    5  py     Val( 2p)     1.13480
    68    C    5  py     Ryd( 3p)     0.00269
    69    C    5  pz     Val( 2p)     1.19323
    70    C    5  pz     Ryd( 3p)     0.00604
    71    C    5  dxy    Ryd( 3d)     0.00011
    72    C    5  dxz    Ryd( 3d)     0.00118
    73    C    5  dyz    Ryd( 3d)     0.00082
    74    C    5  dx2y2  Ryd( 3d)     0.00093
    75    C    5  dz2    Ryd( 3d)     0.00009
 
    76    C    6  S      Cor( 1S)     1.99932
    77    C    6  S      Val( 2S)     1.04456
    78    C    6  S      Ryd( 3S)     0.00186
    79    C    6  S      Ryd( 4S)     0.00005
    80    C    6  px     Val( 2p)     0.89486
    81    C    6  px     Ryd( 3p)     0.00289
    82    C    6  py     Val( 2p)     1.15379
    83    C    6  py     Ryd( 3p)     0.00637
    84    C    6  pz     Val( 2p)     1.20795
    85    C    6  pz     Ryd( 3p)     0.00278
    86    C    6  dxy    Ryd( 3d)     0.00128
    87    C    6  dxz    Ryd( 3d)     0.00050
    88    C    6  dyz    Ryd( 3d)     0.00067
    89    C    6  dx2y2  Ryd( 3d)     0.00096
    90    C    6  dz2    Ryd( 3d)     0.00122
 
    91    C    7  S      Cor( 1S)     1.99944
    92    C    7  S      Val( 2S)     1.11880
    93    C    7  S      Ryd( 3S)     0.00055
    94    C    7  S      Ryd( 4S)     0.00002
    95    C    7  px     Val( 2p)     1.13343
    96    C    7  px     Ryd( 3p)     0.00304
    97    C    7  py     Val( 2p)     1.22450
    98    C    7  py     Ryd( 3p)     0.00299
    99    C    7  pz     Val( 2p)     1.21059
   100    C    7  pz     Ryd( 3p)     0.00142
   101    C    7  dxy    Ryd( 3d)     0.00082
   102    C    7  dxz    Ryd( 3d)     0.00033
   103    C    7  dyz    Ryd( 3d)     0.00048
   104    C    7  dx2y2  Ryd( 3d)     0.00051
   105    C    7  dz2    Ryd( 3d)     0.00099
 
   106    H    8  S      Val( 1S)     0.77569
   107    H    8  S      Ryd( 2S)     0.01371
 
   108    H    9  S      Val( 1S)     0.77195
   109    H    9  S      Ryd( 2S)     0.00969
 
   110    H   10  S      Val( 1S)     0.78123
   111    H   10  S      Ryd( 2S)     0.02152
 
   112    H   11  S      Val( 1S)     0.80962
   113    H   11  S      Ryd( 2S)     0.05314
 
   114    H   12  S      Val( 1S)     0.73370
   115    H   12  S      Ryd( 2S)     0.01635
 
   116    H   13  S      Val( 1S)     0.77102
   117    H   13  S      Ryd( 2S)     0.03392
 
   118    H   14  S      Val( 1S)     0.77098
   119    H   14  S      Ryd( 2S)     0.03389
 
   120    H   15  S      Val( 1S)     0.76937
   121    H   15  S      Ryd( 2S)     0.00907
 
   122    H   16  S      Val( 1S)     0.75578
   123    H   16  S      Ryd( 2S)     0.00354
 
   124    H   17  S      Val( 1S)     0.76937
   125    H   17  S      Ryd( 2S)     0.00906
 
   126    H   18  S      Val( 1S)     0.80961
   127    H   18  S      Ryd( 2S)     0.05314
 
   128    H   19  S      Val( 1S)     0.73371
   129    H   19  S      Ryd( 2S)     0.01636
 
   130    H   20  S      Val( 1S)     0.77196
   131    H   20  S      Ryd( 2S)     0.00970
 
   132    H   21  S      Val( 1S)     0.77570
   133    H   21  S      Ryd( 2S)     0.01371
 
   134    H   22  S      Val( 1S)     0.78123
   135    H   22  S      Ryd( 2S)     0.02154


 Summary of Natural Population Analysis:                  
                                                          
                                       Natural Population 
                Natural  -----------------------------------------------
    Atom  No    Charge         Core      Valence    Rydberg      Total
 -----------------------------------------------------------------------
      C    1   -0.69791      1.99944     4.68733    0.01114     6.69791
      C    2   -0.31905      1.99932     4.30116    0.01857     6.31905
      N    3   -0.04827      1.99930     5.03853    0.01043     7.04827
      C    4   -0.31902      1.99930     4.30109    0.01863     6.31902
      C    5   -0.69953      1.99943     4.68630    0.01380     6.69953
      C    6   -0.31906      1.99932     4.30116    0.01857     6.31906
      C    7   -0.69791      1.99944     4.68732    0.01114     6.69791
      H    8    0.21060      0.00000     0.77569    0.01371     0.78940
      H    9    0.21835      0.00000     0.77195    0.00969     0.78165
      H   10    0.19725      0.00000     0.78123    0.02152     0.80275
      H   11    0.13724      0.00000     0.80962    0.05314     0.86276
      H   12    0.24995      0.00000     0.73370    0.01635     0.75005
      H   13    0.19507      0.00000     0.77102    0.03392     0.80493
      H   14    0.19512      0.00000     0.77098    0.03389     0.80488
      H   15    0.22156      0.00000     0.76937    0.00907     0.77844
      H   16    0.24069      0.00000     0.75578    0.00354     0.75931
      H   17    0.22157      0.00000     0.76937    0.00906     0.77843
      H   18    0.13725      0.00000     0.80961    0.05314     0.86275
      H   19    0.24993      0.00000     0.73371    0.01636     0.75007
      H   20    0.21834      0.00000     0.77196    0.00970     0.78166
      H   21    0.21060      0.00000     0.77570    0.01371     0.78940
      H   22    0.19723      0.00000     0.78123    0.02154     0.80277
 =======================================================================
   * Total *    0.00000     13.99556    43.58382    0.42062    58.00000

                                 Natural Population      
 --------------------------------------------------------
   Core                      13.99556 ( 99.9683% of  14)
   Valence                   43.58382 ( 99.0541% of  44)
   Natural Minimal Basis     57.57938 ( 99.2748% of  58)
   Natural Rydberg Basis      0.42062 (  0.7252% of  58)
 --------------------------------------------------------

    Atom  No          Natural Electron Configuration
 ----------------------------------------------------------------------------
      C    1      [core]2S( 1.12)2p( 3.57)3p( 0.01)
      C    2      [core]2S( 1.04)2p( 3.26)3p( 0.01)
      N    3      [core]2S( 1.30)2p( 3.74)3p( 0.01)
      C    4      [core]2S( 1.07)2p( 3.23)3p( 0.01)
      C    5      [core]2S( 1.11)2p( 3.58)3p( 0.01)
      C    6      [core]2S( 1.04)2p( 3.26)3p( 0.01)
      C    7      [core]2S( 1.12)2p( 3.57)3p( 0.01)
      H    8            1S( 0.78)2S( 0.01)
      H    9            1S( 0.77)2S( 0.01)
      H   10            1S( 0.78)2S( 0.02)
      H   11            1S( 0.81)2S( 0.05)
      H   12            1S( 0.73)2S( 0.02)
      H   13            1S( 0.77)2S( 0.03)
      H   14            1S( 0.77)2S( 0.03)
      H   15            1S( 0.77)2S( 0.01)
      H   16            1S( 0.76)
      H   17            1S( 0.77)2S( 0.01)
      H   18            1S( 0.81)2S( 0.05)
      H   19            1S( 0.73)2S( 0.02)
      H   20            1S( 0.77)2S( 0.01)
      H   21            1S( 0.78)2S( 0.01)
      H   22            1S( 0.78)2S( 0.02)


 NBO analysis skipped by request.
 1\1\GINC-DELLA-R1C3N6\SP\RB3LYP TD-FC\6-31G(d)\C6H15N1\BJS4\24-Aug-202
 0\0\\# TD(NStates=10, Root=1) B3LYP/6-31G* scf=qc volume pop=NPA densi
 ty=current Geom=AllCheck Guess=Read\\Title Card Required\\0,1\C,0,1.12
 79393406,-0.4161541437,-0.2377380088\C,0,2.6133214042,-0.1703221501,0.
 0331401241\N,0,2.8985864257,1.2012874131,0.4589679029\C,0,2.3520971521
 ,1.5210561403,1.7905294192\C,0,1.2655139927,2.5995379848,1.7516542417\
 C,0,4.3131705258,1.5518145238,0.3171718717\C,0,4.5603581283,3.06136360
 89,0.3354000155\H,0,0.9738316269,-1.4378348159,-0.60421852\H,0,0.75637
 25473,0.2857272405,-0.9918583942\H,0,0.5197474376,-0.2962180101,0.6656
 579379\H,0,3.1691570636,-0.349320987,-0.8948977\H,0,2.9814744609,-0.91
 71412766,0.7664603996\H,0,3.1648899994,1.8468729789,2.4557527877\H,0,1
 .9444547404,0.6098786869,2.2519540218\H,0,1.6567559317,3.5322460411,1.
 3321532553\H,0,0.8860022204,2.8076621738,2.7603088337\H,0,0.4242882178
 ,2.2831262574,1.1261797087\H,0,4.6554598915,1.1561492557,-0.646432744\
 H,0,4.9401894611,1.0675083581,1.0939104135\H,0,3.9810108369,3.55239009
 13,-0.4536783524\H,0,5.6236219215,3.2730224585,0.1724274633\H,0,4.2788
 466735,3.5127081703,1.2932353231\\Version=ES64L-G16RevA.03\State=1-A\H
 F=-292.4143849\RMSD=3.902e-09\Dipole=-0.054022,-0.0168316,0.4224339\Qu
 adrupole=0.1211362,0.4212994,-0.5424357,-1.4462708,0.9738845,-1.067307
 5\PG=C01 [X(C6H15N1)]\\@


 EDUCATION IS NOT TRAINING BUT RATHER THE PROCESS THAT EQUIPS YOU TO
 ENTERTAIN YOURSELF, A FRIEND, OR AN IDEA.  -- WALLACE STERLING
 Job cpu time:       0 days  0 hours 10 minutes 40.8 seconds.
 Elapsed time:       0 days  0 hours  3 minutes 34.7 seconds.
 File lengths (MBytes):  RWF=    210 Int=      0 D2E=      0 Chk=     16 Scr=      1
 Normal termination of Gaussian 16 at Mon Aug 24 17:14:47 2020.
