 Entering Gaussian System, Link 0=g16
 Input=base_3_conf29123.com
 Output=base_3_conf29123.log
 Initial command:
 /opt/export//g16/l1.exe "/scratch/bjs4/job.18699/Gau-18701.inp" -scrdir="/scratch/bjs4/job.18699/"
 Entering Link 1 = /opt/export//g16/l1.exe PID=     18702.
  
 Copyright (c) 1988,1990,1992,1993,1995,1998,2003,2009,2016,
            Gaussian, Inc.  All Rights Reserved.
  
 This is part of the Gaussian(R) 16 program.  It is based on
 the Gaussian(R) 09 system (copyright 2009, Gaussian, Inc.),
 the Gaussian(R) 03 system (copyright 2003, Gaussian, Inc.),
 the Gaussian(R) 98 system (copyright 1998, Gaussian, Inc.),
 the Gaussian(R) 94 system (copyright 1995, Gaussian, Inc.),
 the Gaussian 92(TM) system (copyright 1992, Gaussian, Inc.),
 the Gaussian 90(TM) system (copyright 1990, Gaussian, Inc.),
 the Gaussian 88(TM) system (copyright 1988, Gaussian, Inc.),
 the Gaussian 86(TM) system (copyright 1986, Carnegie Mellon
 University), and the Gaussian 82(TM) system (copyright 1983,
 Carnegie Mellon University). Gaussian is a federally registered
 trademark of Gaussian, Inc.
  
 This software contains proprietary and confidential information,
 including trade secrets, belonging to Gaussian, Inc.
  
 This software is provided under written license and may be
 used, copied, transmitted, or stored only in accord with that
 written license.
  
 The following legend is applicable only to US Government
 contracts under FAR:
  
                    RESTRICTED RIGHTS LEGEND
  
 Use, reproduction and disclosure by the US Government is
 subject to restrictions as set forth in subparagraphs (a)
 and (c) of the Commercial Computer Software - Restricted
 Rights clause in FAR 52.227-19.
  
 Gaussian, Inc.
 340 Quinnipiac St., Bldg. 40, Wallingford CT 06492
  
  
 ---------------------------------------------------------------
 Warning -- This program may not be used in any manner that
 competes with the business of Gaussian, Inc. or will provide
 assistance to any competitor of Gaussian, Inc.  The licensee
 of this program is prohibited from giving any competitor of
 Gaussian, Inc. access to this program.  By using this program,
 the user acknowledges that Gaussian, Inc. is engaged in the
 business of creating and licensing software in the field of
 computational chemistry and represents and warrants to the
 licensee that it is not a competitor of Gaussian, Inc. and that
 it will not use this program in any manner prohibited above.
 ---------------------------------------------------------------
  

 Cite this work as:
 Gaussian 16, Revision A.03,
 M. J. Frisch, G. W. Trucks, H. B. Schlegel, G. E. Scuseria, 
 M. A. Robb, J. R. Cheeseman, G. Scalmani, V. Barone, 
 G. A. Petersson, H. Nakatsuji, X. Li, M. Caricato, A. V. Marenich, 
 J. Bloino, B. G. Janesko, R. Gomperts, B. Mennucci, H. P. Hratchian, 
 J. V. Ortiz, A. F. Izmaylov, J. L. Sonnenberg, D. Williams-Young, 
 F. Ding, F. Lipparini, F. Egidi, J. Goings, B. Peng, A. Petrone, 
 T. Henderson, D. Ranasinghe, V. G. Zakrzewski, J. Gao, N. Rega, 
 G. Zheng, W. Liang, M. Hada, M. Ehara, K. Toyota, R. Fukuda, 
 J. Hasegawa, M. Ishida, T. Nakajima, Y. Honda, O. Kitao, H. Nakai, 
 T. Vreven, K. Throssell, J. A. Montgomery, Jr., J. E. Peralta, 
 F. Ogliaro, M. J. Bearpark, J. J. Heyd, E. N. Brothers, K. N. Kudin, 
 V. N. Staroverov, T. A. Keith, R. Kobayashi, J. Normand, 
 K. Raghavachari, A. P. Rendell, J. C. Burant, S. S. Iyengar, 
 J. Tomasi, M. Cossi, J. M. Millam, M. Klene, C. Adamo, R. Cammi, 
 J. W. Ochterski, R. L. Martin, K. Morokuma, O. Farkas, 
 J. B. Foresman, and D. J. Fox, Gaussian, Inc., Wallingford CT, 2016.
 
 ******************************************
 Gaussian 16:  ES64L-G16RevA.03 25-Dec-2016
                24-Aug-2020 
 ******************************************
 %nprocshared=5
 Will use up to    5 processors via shared memory.
 %Mem=10GB
 %Chk=base_3_conf291.chk
 ---------------------------------
 # opt=CalcAll B3LYP/6-31G* scf=qc
 ---------------------------------
 1/10=4,18=20,19=15,26=3,38=1/1,3;
 2/9=110,12=2,17=6,18=5,40=1/2;
 3/5=1,6=6,7=1,11=2,25=1,30=1,71=2,74=-5,140=1/1,2,3;
 4//1;
 5/5=2,8=3,38=5/8;
 8/6=4,10=90,11=11/1;
 11/6=1,8=1,9=11,15=111,16=1/1,2,10;
 10/6=1/2;
 6/7=2,8=2,9=2,10=2,18=1,28=1/1;
 7/10=1,25=1/1,2,3,16;
 1/10=4,18=20,19=15,26=3/3(3);
 2/9=110/2;
 7/8=1,9=1,25=1,44=-1/16;
 99//99;
 2/9=110/2;
 3/5=1,6=6,7=1,11=2,25=1,30=1,71=2,74=-5,140=1/1,2,3;
 4/5=5,16=3,69=1/1;
 5/5=2,8=3,38=5/8;
 8/6=4,10=90,11=11/1;
 11/6=1,8=1,9=11,15=111,16=1/1,2,10;
 10/6=1/2;
 7/10=1,25=1/1,2,3,16;
 1/10=4,18=20,19=15,26=3/3(-8);
 2/9=110/2;
 6/7=2,8=2,9=2,10=2,18=1,19=2,28=1/1;
 7/8=1,9=1,25=1,44=-1/16;
 99//99;
 -------------------
 Title Card Required
 -------------------
 Symbolic Z-matrix:
 Charge =  0 Multiplicity = 1
 N                     1.4187    0.1287    0.123 
 C                     0.481    -0.8828   -0.0433 
 N1                   -0.7977   -0.8604   -0.0093 
 C                    -1.8463    0.1303    0.1023 
 C                    -2.31904   0.65264  -1.25651 
 C                    -3.04345  -0.62533   0.7415 
 C                    -1.47477   1.24328   1.09017 
 N                     1.052    -2.1118   -0.3736 
 C                     0.27114  -3.32102  -0.61337 
 C                     2.372    -2.15712  -1.01047 
 C                     1.14188   1.52487  -0.23418 
 C                     2.63027   0.01932   0.91406 
 H                    -2.21934  -0.10919  -2.03757 
 H                    -1.76978   1.54204  -1.56746 
 H                    -3.37175   0.95917  -1.23323 
 H                    -3.23424  -1.57567   0.22883 
 H                    -3.96502  -0.02934   0.70446 
 H                    -2.85221  -0.85914   1.79353 
 H                    -0.55972   1.77018   0.83085 
 H                    -1.30904   0.83927   2.09586 
 H                    -2.27511   1.98925   1.15908 
 H                    -0.76585  -3.24543  -0.2687 
 H                     0.73519  -4.16603  -0.09148 
 H                     0.2413   -3.55904  -1.68079 
 H                     2.95646  -1.24411  -0.85354 
 H                     2.27734  -2.32428  -2.08942 
 H                     2.95853  -2.97763  -0.5839 
 H                     0.21988   1.6606   -0.81119 
 H                     1.96843   1.91787  -0.83823 
 H                     1.05009   2.13253   0.66432 
 H                     2.9129   -1.00528   1.12772 
 H                     2.53188   0.57693   1.84919 
 H                     3.47806   0.45309   0.36952 
 

 GradGradGradGradGradGradGradGradGradGradGradGradGradGradGradGradGradGrad
 Berny optimization.
 Initialization pass.
                           ----------------------------
                           !    Initial Parameters    !
                           ! (Angstroms and Degrees)  !
 --------------------------                            --------------------------
 ! Name  Definition              Value          Derivative Info.                !
 --------------------------------------------------------------------------------
 ! R1    R(1,2)                  1.3893         calculate D2E/DX2 analytically  !
 ! R2    R(1,11)                 1.4675         calculate D2E/DX2 analytically  !
 ! R3    R(1,12)                 1.4511         calculate D2E/DX2 analytically  !
 ! R4    R(2,3)                  1.2793         calculate D2E/DX2 analytically  !
 ! R5    R(2,8)                  1.3948         calculate D2E/DX2 analytically  !
 ! R6    R(3,4)                  1.4469         calculate D2E/DX2 analytically  !
 ! R7    R(4,5)                  1.5306         calculate D2E/DX2 analytically  !
 ! R8    R(4,6)                  1.5533         calculate D2E/DX2 analytically  !
 ! R9    R(4,7)                  1.5338         calculate D2E/DX2 analytically  !
 ! R10   R(5,13)                 1.0956         calculate D2E/DX2 analytically  !
 ! R11   R(5,14)                 1.0906         calculate D2E/DX2 analytically  !
 ! R12   R(5,15)                 1.0967         calculate D2E/DX2 analytically  !
 ! R13   R(6,16)                 1.0965         calculate D2E/DX2 analytically  !
 ! R14   R(6,17)                 1.0981         calculate D2E/DX2 analytically  !
 ! R15   R(6,18)                 1.0945         calculate D2E/DX2 analytically  !
 ! R16   R(7,19)                 1.0873         calculate D2E/DX2 analytically  !
 ! R17   R(7,20)                 1.0964         calculate D2E/DX2 analytically  !
 ! R18   R(7,21)                 1.0962         calculate D2E/DX2 analytically  !
 ! R19   R(8,9)                  1.4593         calculate D2E/DX2 analytically  !
 ! R20   R(8,10)                 1.4663         calculate D2E/DX2 analytically  !
 ! R21   R(9,22)                 1.0954         calculate D2E/DX2 analytically  !
 ! R22   R(9,23)                 1.0962         calculate D2E/DX2 analytically  !
 ! R23   R(9,24)                 1.094          calculate D2E/DX2 analytically  !
 ! R24   R(10,25)                1.0954         calculate D2E/DX2 analytically  !
 ! R25   R(10,26)                1.0959         calculate D2E/DX2 analytically  !
 ! R26   R(10,27)                1.0951         calculate D2E/DX2 analytically  !
 ! R27   R(11,28)                1.0961         calculate D2E/DX2 analytically  !
 ! R28   R(11,29)                1.0966         calculate D2E/DX2 analytically  !
 ! R29   R(11,30)                1.0886         calculate D2E/DX2 analytically  !
 ! R30   R(12,31)                1.0841         calculate D2E/DX2 analytically  !
 ! R31   R(12,32)                1.0932         calculate D2E/DX2 analytically  !
 ! R32   R(12,33)                1.097          calculate D2E/DX2 analytically  !
 ! A1    A(2,1,11)             122.4283         calculate D2E/DX2 analytically  !
 ! A2    A(2,1,12)             125.0245         calculate D2E/DX2 analytically  !
 ! A3    A(11,1,12)            111.2172         calculate D2E/DX2 analytically  !
 ! A4    A(1,2,3)              131.1999         calculate D2E/DX2 analytically  !
 ! A5    A(1,2,8)              113.1759         calculate D2E/DX2 analytically  !
 ! A6    A(3,2,8)              115.5233         calculate D2E/DX2 analytically  !
 ! A7    A(2,3,4)              137.595          calculate D2E/DX2 analytically  !
 ! A8    A(3,4,5)              112.8945         calculate D2E/DX2 analytically  !
 ! A9    A(3,4,6)              104.9045         calculate D2E/DX2 analytically  !
 ! A10   A(3,4,7)              111.7754         calculate D2E/DX2 analytically  !
 ! A11   A(5,4,6)              107.0557         calculate D2E/DX2 analytically  !
 ! A12   A(5,4,7)              113.5129         calculate D2E/DX2 analytically  !
 ! A13   A(6,4,7)              105.9406         calculate D2E/DX2 analytically  !
 ! A14   A(4,5,13)             111.5605         calculate D2E/DX2 analytically  !
 ! A15   A(4,5,14)             112.0785         calculate D2E/DX2 analytically  !
 ! A16   A(4,5,15)             111.9021         calculate D2E/DX2 analytically  !
 ! A17   A(13,5,14)            108.5404         calculate D2E/DX2 analytically  !
 ! A18   A(13,5,15)            107.2678         calculate D2E/DX2 analytically  !
 ! A19   A(14,5,15)            105.162          calculate D2E/DX2 analytically  !
 ! A20   A(4,6,16)             111.304          calculate D2E/DX2 analytically  !
 ! A21   A(4,6,17)             111.6478         calculate D2E/DX2 analytically  !
 ! A22   A(4,6,18)             111.3945         calculate D2E/DX2 analytically  !
 ! A23   A(16,6,17)            107.9742         calculate D2E/DX2 analytically  !
 ! A24   A(16,6,18)            107.1363         calculate D2E/DX2 analytically  !
 ! A25   A(17,6,18)            107.1569         calculate D2E/DX2 analytically  !
 ! A26   A(4,7,19)             113.6959         calculate D2E/DX2 analytically  !
 ! A27   A(4,7,20)             111.1001         calculate D2E/DX2 analytically  !
 ! A28   A(4,7,21)             110.9413         calculate D2E/DX2 analytically  !
 ! A29   A(19,7,20)            105.6717         calculate D2E/DX2 analytically  !
 ! A30   A(19,7,21)            107.4369         calculate D2E/DX2 analytically  !
 ! A31   A(20,7,21)            107.6645         calculate D2E/DX2 analytically  !
 ! A32   A(2,8,9)              123.3659         calculate D2E/DX2 analytically  !
 ! A33   A(2,8,10)             119.9077         calculate D2E/DX2 analytically  !
 ! A34   A(9,8,10)             112.6274         calculate D2E/DX2 analytically  !
 ! A35   A(8,9,22)             113.4343         calculate D2E/DX2 analytically  !
 ! A36   A(8,9,23)             109.5121         calculate D2E/DX2 analytically  !
 ! A37   A(8,9,24)             110.8049         calculate D2E/DX2 analytically  !
 ! A38   A(22,9,23)            107.7063         calculate D2E/DX2 analytically  !
 ! A39   A(22,9,24)            107.2291         calculate D2E/DX2 analytically  !
 ! A40   A(23,9,24)            107.9587         calculate D2E/DX2 analytically  !
 ! A41   A(8,10,25)            113.1008         calculate D2E/DX2 analytically  !
 ! A42   A(8,10,26)            110.767          calculate D2E/DX2 analytically  !
 ! A43   A(8,10,27)            109.6413         calculate D2E/DX2 analytically  !
 ! A44   A(25,10,26)           108.3171         calculate D2E/DX2 analytically  !
 ! A45   A(25,10,27)           106.4357         calculate D2E/DX2 analytically  !
 ! A46   A(26,10,27)           108.3896         calculate D2E/DX2 analytically  !
 ! A47   A(1,11,28)            113.8669         calculate D2E/DX2 analytically  !
 ! A48   A(1,11,29)            109.4424         calculate D2E/DX2 analytically  !
 ! A49   A(1,11,30)            110.249          calculate D2E/DX2 analytically  !
 ! A50   A(28,11,29)           107.4377         calculate D2E/DX2 analytically  !
 ! A51   A(28,11,30)           107.1247         calculate D2E/DX2 analytically  !
 ! A52   A(29,11,30)           108.552          calculate D2E/DX2 analytically  !
 ! A53   A(1,12,31)            113.3499         calculate D2E/DX2 analytically  !
 ! A54   A(1,12,32)            110.6545         calculate D2E/DX2 analytically  !
 ! A55   A(1,12,33)            110.1725         calculate D2E/DX2 analytically  !
 ! A56   A(31,12,32)           109.6908         calculate D2E/DX2 analytically  !
 ! A57   A(31,12,33)           105.6675         calculate D2E/DX2 analytically  !
 ! A58   A(32,12,33)           107.0065         calculate D2E/DX2 analytically  !
 ! D1    D(11,1,2,3)           -29.647          calculate D2E/DX2 analytically  !
 ! D2    D(11,1,2,8)           146.4705         calculate D2E/DX2 analytically  !
 ! D3    D(12,1,2,3)           136.0113         calculate D2E/DX2 analytically  !
 ! D4    D(12,1,2,8)           -47.8712         calculate D2E/DX2 analytically  !
 ! D5    D(2,1,11,28)          -11.0495         calculate D2E/DX2 analytically  !
 ! D6    D(2,1,11,29)         -131.2935         calculate D2E/DX2 analytically  !
 ! D7    D(2,1,11,30)          109.3759         calculate D2E/DX2 analytically  !
 ! D8    D(12,1,11,28)        -178.4816         calculate D2E/DX2 analytically  !
 ! D9    D(12,1,11,29)          61.2744         calculate D2E/DX2 analytically  !
 ! D10   D(12,1,11,30)         -58.0562         calculate D2E/DX2 analytically  !
 ! D11   D(2,1,12,31)           17.7563         calculate D2E/DX2 analytically  !
 ! D12   D(2,1,12,32)         -105.9507         calculate D2E/DX2 analytically  !
 ! D13   D(2,1,12,33)          135.9184         calculate D2E/DX2 analytically  !
 ! D14   D(11,1,12,31)        -175.2043         calculate D2E/DX2 analytically  !
 ! D15   D(11,1,12,32)          61.0887         calculate D2E/DX2 analytically  !
 ! D16   D(11,1,12,33)         -57.0422         calculate D2E/DX2 analytically  !
 ! D17   D(1,2,3,4)              5.6172         calculate D2E/DX2 analytically  !
 ! D18   D(8,2,3,4)           -170.4274         calculate D2E/DX2 analytically  !
 ! D19   D(1,2,8,9)           -179.2942         calculate D2E/DX2 analytically  !
 ! D20   D(1,2,8,10)           -23.7581         calculate D2E/DX2 analytically  !
 ! D21   D(3,2,8,9)             -2.5306         calculate D2E/DX2 analytically  !
 ! D22   D(3,2,8,10)           153.0054         calculate D2E/DX2 analytically  !
 ! D23   D(2,3,4,5)             90.3529         calculate D2E/DX2 analytically  !
 ! D24   D(2,3,4,6)           -153.424          calculate D2E/DX2 analytically  !
 ! D25   D(2,3,4,7)            -39.0705         calculate D2E/DX2 analytically  !
 ! D26   D(3,4,5,13)            30.2631         calculate D2E/DX2 analytically  !
 ! D27   D(3,4,5,14)           -91.6899         calculate D2E/DX2 analytically  !
 ! D28   D(3,4,5,15)           150.4523         calculate D2E/DX2 analytically  !
 ! D29   D(6,4,5,13)           -84.673          calculate D2E/DX2 analytically  !
 ! D30   D(6,4,5,14)           153.374          calculate D2E/DX2 analytically  !
 ! D31   D(6,4,5,15)            35.5162         calculate D2E/DX2 analytically  !
 ! D32   D(7,4,5,13)           158.7905         calculate D2E/DX2 analytically  !
 ! D33   D(7,4,5,14)            36.8375         calculate D2E/DX2 analytically  !
 ! D34   D(7,4,5,15)           -81.0203         calculate D2E/DX2 analytically  !
 ! D35   D(3,4,6,16)           -48.4776         calculate D2E/DX2 analytically  !
 ! D36   D(3,4,6,17)          -169.2168         calculate D2E/DX2 analytically  !
 ! D37   D(3,4,6,18)            71.0238         calculate D2E/DX2 analytically  !
 ! D38   D(5,4,6,16)            71.7049         calculate D2E/DX2 analytically  !
 ! D39   D(5,4,6,17)           -49.0342         calculate D2E/DX2 analytically  !
 ! D40   D(5,4,6,18)          -168.7937         calculate D2E/DX2 analytically  !
 ! D41   D(7,4,6,16)          -166.8539         calculate D2E/DX2 analytically  !
 ! D42   D(7,4,6,17)            72.407          calculate D2E/DX2 analytically  !
 ! D43   D(7,4,6,18)           -47.3524         calculate D2E/DX2 analytically  !
 ! D44   D(3,4,7,19)            58.3984         calculate D2E/DX2 analytically  !
 ! D45   D(3,4,7,20)           -60.65           calculate D2E/DX2 analytically  !
 ! D46   D(3,4,7,21)           179.6196         calculate D2E/DX2 analytically  !
 ! D47   D(5,4,7,19)           -70.7006         calculate D2E/DX2 analytically  !
 ! D48   D(5,4,7,20)           170.251          calculate D2E/DX2 analytically  !
 ! D49   D(5,4,7,21)            50.5206         calculate D2E/DX2 analytically  !
 ! D50   D(6,4,7,19)           172.1109         calculate D2E/DX2 analytically  !
 ! D51   D(6,4,7,20)            53.0625         calculate D2E/DX2 analytically  !
 ! D52   D(6,4,7,21)           -66.6679         calculate D2E/DX2 analytically  !
 ! D53   D(2,8,9,22)           -14.5878         calculate D2E/DX2 analytically  !
 ! D54   D(2,8,9,23)          -134.937          calculate D2E/DX2 analytically  !
 ! D55   D(2,8,9,24)           106.0782         calculate D2E/DX2 analytically  !
 ! D56   D(10,8,9,22)         -171.7012         calculate D2E/DX2 analytically  !
 ! D57   D(10,8,9,23)           67.9495         calculate D2E/DX2 analytically  !
 ! D58   D(10,8,9,24)          -51.0352         calculate D2E/DX2 analytically  !
 ! D59   D(2,8,10,25)           20.7616         calculate D2E/DX2 analytically  !
 ! D60   D(2,8,10,26)         -101.0524         calculate D2E/DX2 analytically  !
 ! D61   D(2,8,10,27)          139.3715         calculate D2E/DX2 analytically  !
 ! D62   D(9,8,10,25)          178.7555         calculate D2E/DX2 analytically  !
 ! D63   D(9,8,10,26)           56.9414         calculate D2E/DX2 analytically  !
 ! D64   D(9,8,10,27)          -62.6347         calculate D2E/DX2 analytically  !
 --------------------------------------------------------------------------------
 Trust Radius=3.00D-01 FncErr=1.00D-07 GrdErr=1.00D-06 EigMax=2.50D+02 EigMin=1.00D-04
 Number of steps in this run=    164 maximum allowed number of steps=    198.
 GradGradGradGradGradGradGradGradGradGradGradGradGradGradGradGradGradGrad

                          Input orientation:                          
 ---------------------------------------------------------------------
 Center     Atomic      Atomic             Coordinates (Angstroms)
 Number     Number       Type             X           Y           Z
 ---------------------------------------------------------------------
      1          7           0        1.418700    0.128700    0.123000
      2          6           0        0.481000   -0.882800   -0.043300
      3          7           0       -0.797700   -0.860400   -0.009300
      4          6           0       -1.846300    0.130300    0.102300
      5          6           0       -2.319040    0.652640   -1.256510
      6          6           0       -3.043450   -0.625330    0.741500
      7          6           0       -1.474770    1.243280    1.090170
      8          7           0        1.052000   -2.111800   -0.373600
      9          6           0        0.271140   -3.321020   -0.613370
     10          6           0        2.372000   -2.157120   -1.010470
     11          6           0        1.141880    1.524870   -0.234180
     12          6           0        2.630270    0.019320    0.914060
     13          1           0       -2.219340   -0.109190   -2.037570
     14          1           0       -1.769780    1.542040   -1.567460
     15          1           0       -3.371750    0.959170   -1.233230
     16          1           0       -3.234240   -1.575670    0.228830
     17          1           0       -3.965020   -0.029340    0.704460
     18          1           0       -2.852210   -0.859140    1.793530
     19          1           0       -0.559720    1.770180    0.830850
     20          1           0       -1.309040    0.839270    2.095860
     21          1           0       -2.275110    1.989250    1.159080
     22          1           0       -0.765850   -3.245430   -0.268700
     23          1           0        0.735190   -4.166030   -0.091480
     24          1           0        0.241300   -3.559040   -1.680790
     25          1           0        2.956460   -1.244110   -0.853540
     26          1           0        2.277340   -2.324280   -2.089420
     27          1           0        2.958530   -2.977630   -0.583900
     28          1           0        0.219880    1.660600   -0.811190
     29          1           0        1.968430    1.917870   -0.838230
     30          1           0        1.050090    2.132530    0.664320
     31          1           0        2.912900   -1.005280    1.127720
     32          1           0        2.531880    0.576930    1.849190
     33          1           0        3.478060    0.453090    0.369520
 ---------------------------------------------------------------------
                    Distance matrix (angstroms):
                    1          2          3          4          5
     1  N    0.000000
     2  C    1.389269   0.000000
     3  N    2.430689   1.279348   0.000000
     4  C    3.265066   2.542419   1.446894   0.000000
     5  C    4.018490   3.416091   2.481793   1.530584   0.000000
     6  C    4.567481   3.619938   2.379570   1.553294   2.479924
     7  C    3.248057   3.103225   2.468345   1.533834   2.562919
     8  N    2.323988   1.394841   2.262765   3.695083   4.448097
     9  C    3.709407   2.512755   2.749904   4.111854   4.786714
    10  C    2.723694   2.476932   3.568028   4.925911   5.473677
    11  C    1.467480   2.504011   3.082540   3.314704   3.712669
    12  C    1.451083   2.519865   3.657524   4.550928   5.441336
    13  H    4.237923   3.444912   2.588292   2.185305   1.095618
    14  H    3.875770   3.642653   3.023991   2.187913   1.090600
    15  H    5.047519   4.433111   3.381505   2.190357   1.096677
    16  H    4.956403   3.789081   2.550499   2.202889   2.830051
    17  H    5.417335   4.588533   3.351422   2.208406   2.649481
    18  H    4.691180   3.805889   2.733351   2.202522   3.445648
    19  H    2.666393   2.980862   2.771721   2.208004   2.949775
    20  H    3.440589   3.278075   2.753551   2.183018   3.506182
    21  H    4.263724   4.158188   3.415898   2.180907   2.761074
    22  H    4.038619   2.680944   2.399306   3.563785   4.310814
    23  H    4.354066   3.293408   3.644680   5.015984   5.822817
    24  H    4.270756   3.146600   3.340069   4.598773   4.947080
    25  H    2.280996   2.629627   3.867000   5.086171   5.620582
    26  H    3.413089   3.080797   3.990704   5.275700   5.539179
    27  H    3.538371   3.289182   4.349953   5.763375   6.440808
    28  H    2.157915   2.669592   2.834420   2.728623   2.767744
    29  H    2.104114   3.269268   4.007167   4.316500   4.489784
    30  H    2.108136   3.149096   3.581302   3.565651   4.150988
    31  H    2.127911   2.701930   3.883601   4.999101   5.983849
    32  H    2.102335   3.149355   4.075047   4.734930   5.760428
    33  H    2.099277   3.307173   4.488974   5.340825   6.024132
                    6          7          8          9         10
     6  C    0.000000
     7  C    2.464555   0.000000
     8  N    4.497305   4.447893   0.000000
     9  C    4.482067   5.175238   1.459262   0.000000
    10  C    5.894309   5.547346   1.466307   2.434330   0.000000
    11  C    4.805445   2.946193   3.640451   4.938079   3.958898
    12  C    5.712832   4.287242   2.947995   4.365365   2.916747
    13  H    2.944281   3.488025   4.181018   4.306587   5.131214
    14  H    3.413360   2.690592   4.768468   5.359570   5.581072
    15  H    2.553033   3.012879   5.453383   5.654635   6.538467
    16  H    1.096530   3.432801   4.361446   4.005401   5.770951
    17  H    1.098120   2.823062   5.537991   5.524209   6.901178
    18  H    1.094535   2.610024   4.637722   4.648584   6.069558
    19  H    3.451864   1.087284   4.372426   5.356904   5.235373
    20  H    2.643392   1.096405   4.514594   5.210078   5.672539
    21  H    2.756945   1.096250   5.498853   6.150117   6.595071
    22  H    3.615645   4.743165   2.144924   1.095381   3.403049
    23  H    5.244858   5.961615   2.097575   1.096245   2.749438
    24  H    5.026303   5.803912   2.111986   1.094043   2.637156
    25  H    6.239067   5.440672   2.147137   3.403260   1.095357
    26  H    6.261896   6.075821   2.119114   2.682732   1.095918
    27  H    6.581319   6.346081   2.104458   2.709400   1.095087
    28  H    4.276172   2.580923   3.887790   4.985810   4.387063
    29  H    5.838009   4.003676   4.158601   5.511563   4.098546
    30  H    4.936478   2.710541   4.369396   5.655127   4.790977
    31  H    5.980939   4.930424   2.634634   3.920834   2.488205
    32  H    5.810053   4.131994   3.789473   5.135091   3.959577
    33  H    6.620533   5.066978   3.607860   5.049190   3.152925
                   11         12         13         14         15
    11  C    0.000000
    12  C    2.408410   0.000000
    13  H    4.149719   5.678675   0.000000
    14  H    3.202451   5.276084   1.774730   0.000000
    15  H    4.657357   6.443479   1.765334   1.737169   0.000000
    16  H    5.383136   6.116045   2.883948   3.884767   2.929495
    17  H    5.420059   6.598799   3.251539   3.528446   2.254720
    18  H    5.074236   5.621632   3.954779   4.270079   3.568956
    19  H    2.022352   3.639845   3.809751   2.695957   3.581295
    20  H    3.450528   4.193702   4.337449   3.758468   3.918161
    21  H    3.719226   5.291825   3.824282   2.808803   2.826098
    22  H    5.137741   4.857072   3.882980   5.061079   5.039811
    23  H    5.707197   4.703147   5.382793   6.405892   6.666200
    24  H    5.361890   5.024449   4.252471   5.484369   5.802470
    25  H    3.368020   2.197058   5.429445   5.532600   6.711546
    26  H    4.421215   3.825953   5.012928   5.621392   6.589865
    27  H    4.867754   3.366504   6.095198   6.614508   7.482812
    28  H    1.096105   3.388254   3.253607   2.131841   3.683738
    29  H    1.096590   2.667029   4.804665   3.827171   5.439913
    30  H    1.088567   2.650471   4.797363   3.644336   4.952791
    31  H    3.375343   1.084129   6.096058   5.973301   6.994996
    32  H    2.677895   1.093196   6.176711   5.577563   6.670852
    33  H    2.640247   1.097009   6.210524   5.698906   7.053001
                   16         17         18         19         20
    16  H    0.000000
    17  H    1.775218   0.000000
    18  H    1.762852   1.764366   0.000000
    19  H    4.325529   3.853611   3.618783   0.000000
    20  H    3.608896   3.121651   2.314600   1.740208   0.000000
    21  H    3.807092   2.671550   2.974710   1.760196   1.770114
    22  H    3.021355   4.639500   3.781543   5.138856   4.750892
    23  H    4.750678   6.311711   5.230509   6.145411   5.832355
    24  H    4.433935   5.986763   5.378677   5.945633   6.000981
    25  H    6.293348   7.197910   6.394985   4.928147   5.588732
    26  H    6.025962   7.213846   6.598198   5.774209   6.355056
    27  H    6.401283   7.634647   6.626075   6.076290   6.321550
    28  H    4.846239   4.760933   4.750936   1.821011   3.385723
    29  H    6.356982   6.432523   6.154390   3.033015   4.529246
    30  H    5.682947   5.461375   5.045111   1.658469   3.047511
    31  H    6.238644   6.959698   5.805269   4.455379   4.707912
    32  H    6.364542   6.624778   5.572595   3.466822   3.857763
    33  H    7.013603   7.466215   6.619824   4.272145   5.103500
                   21         22         23         24         25
    21  H    0.000000
    22  H    5.631900   0.000000
    23  H    6.965147   1.769755   0.000000
    24  H    6.721659   1.762583   1.771516   0.000000
    25  H    6.471057   4.266487   3.748652   3.662695   0.000000
    26  H    7.062867   3.663952   3.124425   2.416003   1.776336
    27  H    7.422861   3.747276   2.568660   2.987398   1.754366
    28  H    3.196084   5.033397   5.893483   5.291626   3.990990
    29  H    4.690626   5.870291   6.252388   5.804260   3.312787
    30  H    3.364858   5.752445   6.351555   6.208675   4.164114
    31  H    5.990296   4.527854   4.027308   4.641860   1.996078
    32  H    5.057475   5.474570   5.430466   5.900319   3.286519
    33  H    6.006843   5.665434   5.391857   5.547754   2.156022
                   26         27         28         29         30
    26  H    0.000000
    27  H    1.776929   0.000000
    28  H    4.663291   5.391200   0.000000
    29  H    4.433592   5.001090   1.767582   0.000000
    30  H    5.380742   5.595885   1.757583   1.774002   0.000000
    31  H    3.534641   2.611875   4.256600   3.647162   3.678403
    32  H    4.898414   4.328609   3.687453   3.055785   2.453469
    33  H    3.898961   3.598439   3.669863   2.425536   2.966895
                   31         32         33
    31  H    0.000000
    32  H    1.780192   0.000000
    33  H    1.738136   1.760686   0.000000
 Stoichiometry    C9H21N3
 Framework group  C1[X(C9H21N3)]
 Deg. of freedom    93
 Full point group                 C1      NOp   1
 Largest Abelian subgroup         C1      NOp   1
 Largest concise Abelian subgroup C1      NOp   1
                         Standard orientation:                         
 ---------------------------------------------------------------------
 Center     Atomic      Atomic             Coordinates (Angstroms)
 Number     Number       Type             X           Y           Z
 ---------------------------------------------------------------------
      1          7           0       -1.022874    1.177905   -0.013571
      2          6           0       -0.592639   -0.140276   -0.099397
      3          7           0        0.583609   -0.642443   -0.131026
      4          6           0        1.947700   -0.177174   -0.003423
      5          6           0        2.456194   -0.212075    1.439803
      6          6           0        2.795373   -1.198786   -0.809948
      7          6           0        2.153510    1.177801   -0.692140
      8          7           0       -1.639171   -1.062065   -0.073823
      9          6           0       -1.438423   -2.506132   -0.135599
     10          6           0       -2.920829   -0.696307    0.537430
     11          6           0       -0.243645    2.217139    0.669284
     12          6           0       -2.092842    1.757863   -0.803800
     13          1           0        1.982891   -1.016149    2.014110
     14          1           0        2.284005    0.731952    1.958044
     15          1           0        3.540059   -0.372152    1.487898
     16          1           0        2.536693   -2.230264   -0.542524
     17          1           0        3.870516   -1.062305   -0.633010
     18          1           0        2.629432   -1.093490   -1.886695
     19          1           0        1.507472    1.964615   -0.310375
     20          1           0        1.937780    1.112004   -1.765096
     21          1           0        3.188970    1.520332   -0.581418
     22          1           0       -0.430587   -2.792572   -0.455096
     23          1           0       -2.150223   -2.944757   -0.844614
     24          1           0       -1.610807   -2.964624    0.842664
     25          1           0       -3.070084    0.386573    0.607450
     26          1           0       -3.006810   -1.121618    1.543787
     27          1           0       -3.743519   -1.083656   -0.072782
     28          1           0        0.594153    1.827667    1.259076
     29          1           0       -0.896527    2.772868    1.352966
     30          1           0        0.171818    2.914318   -0.056188
     31          1           0       -2.741748    1.017403   -1.257644
     32          1           0       -1.687957    2.416213   -1.576924
     33          1           0       -2.742863    2.371542   -0.167955
 ---------------------------------------------------------------------
 Rotational constants (GHZ):           1.2150484           0.7009580           0.5235269
 Standard basis: 6-31G(d) (6D, 7F)
 There are   222 symmetry adapted cartesian basis functions of A   symmetry.
 There are   222 symmetry adapted basis functions of A   symmetry.
   222 basis functions,   420 primitive gaussians,   222 cartesian basis functions
    48 alpha electrons       48 beta electrons
       nuclear repulsion energy       806.5646314931 Hartrees.
 NAtoms=   33 NActive=   33 NUniq=   33 SFac= 1.00D+00 NAtFMM=   60 NAOKFM=F Big=F
 Integral buffers will be    131072 words long.
 Raffenetti 2 integral format.
 Two-electron integral symmetry is turned on.
 One-electron integrals computed using PRISM.
 NBasis=   222 RedAO= T EigKep=  1.60D-03  NBF=   222
 NBsUse=   222 1.00D-06 EigRej= -1.00D+00 NBFU=   222
 ExpMin= 1.61D-01 ExpMax= 4.17D+03 ExpMxC= 6.27D+02 IAcc=3 IRadAn=         5 AccDes= 0.00D+00
 Harris functional with IExCor=  402 and IRadAn=       5 diagonalized for initial guess.
 HarFok:  IExCor=  402 AccDes= 0.00D+00 IRadAn=         5 IDoV= 1 UseB2=F ITyADJ=14
 ICtDFT=  3500011 ScaDFX=  1.000000  1.000000  1.000000  1.000000
 FoFCou: FMM=F IPFlag=           0 FMFlag=      100000 FMFlg1=           0
         NFxFlg=           0 DoJE=T BraDBF=F KetDBF=T FulRan=T
         wScrn=  0.000000 ICntrl=       500 IOpCl=  0 I1Cent=   200000004 NGrid=           0
         NMat0=    1 NMatS0=      1 NMatT0=    0 NMatD0=    1 NMtDS0=    0 NMtDT0=    0
 Petite list used in FoFCou.
 Gradient too large for Newton-Raphson -- use scaled steepest descent instead.
     Minimum is close to point  3 DX=  9.71D-03 DF= -2.23D-04 DXR=  2.37D-02 DFR=  5.65D-04 which will be used.
 Gradient too large for Newton-Raphson -- use scaled steepest descent instead.
 Gradient too large for Newton-Raphson -- use scaled steepest descent instead.
     Minimum is close to point  2 DX=  3.73D-02 DF= -3.49D-05 DXR=  8.53D-02 DFR=  7.33D-03 which will be used.
 Gradient too large for Newton-Raphson -- use scaled steepest descent instead.
 Gradient too large for Newton-Raphson -- use scaled steepest descent instead.
     Accept linear search using points  1 and  2.
 Gradient too large for Newton-Raphson -- use scaled steepest descent instead.
     Accept linear search using points  2 and  3.
 LinEq1:  Iter=  0 NonCon=     1 RMS=3.13D-05 Max=1.46D-03 NDo=     1
 AX will form     1 AO Fock derivatives at one time.
 LinEq1:  Iter=  1 NonCon=     1 RMS=4.49D-05 Max=3.64D-03 NDo=     1
 LinEq1:  Iter=  2 NonCon=     1 RMS=5.26D-06 Max=1.61D-04 NDo=     1
 LinEq1:  Iter=  3 NonCon=     1 RMS=2.41D-06 Max=3.79D-05 NDo=     1
 LinEq1:  Iter=  4 NonCon=     1 RMS=1.36D-06 Max=3.45D-05 NDo=     1
 LinEq1:  Iter=  5 NonCon=     1 RMS=4.92D-07 Max=1.27D-05 NDo=     1
 LinEq1:  Iter=  6 NonCon=     1 RMS=2.20D-07 Max=6.85D-06 NDo=     1
 LinEq1:  Iter=  7 NonCon=     1 RMS=1.14D-07 Max=1.79D-06 NDo=     1
 LinEq1:  Iter=  8 NonCon=     1 RMS=4.30D-08 Max=1.09D-06 NDo=     1
 LinEq1:  Iter=  9 NonCon=     1 RMS=1.37D-08 Max=2.45D-07 NDo=     1
 LinEq1:  Iter= 10 NonCon=     0 RMS=6.52D-09 Max=1.05D-07 NDo=     1
 Linear equations converged to 1.292D-08 1.292D-07 after    10 iterations.
     Minimum is close to point  2 DX=  1.58D-03 DF= -1.31D-11 DXR=  1.58D-03 DFR=  2.50D-06 which will be used.
 LinEq1:  Iter=  0 NonCon=     1 RMS=5.74D-08 Max=3.52D-06 NDo=     1
 LinEq1:  Iter=  1 NonCon=     1 RMS=6.87D-08 Max=5.01D-06 NDo=     1
 LinEq1:  Iter=  2 NonCon=     1 RMS=1.48D-08 Max=2.26D-07 NDo=     1
 LinEq1:  Iter=  3 NonCon=     1 RMS=8.68D-09 Max=1.87D-07 NDo=     1
 LinEq1:  Iter=  4 NonCon=     1 RMS=3.49D-09 Max=7.55D-08 NDo=     1
 LinEq1:  Iter=  5 NonCon=     1 RMS=1.63D-09 Max=3.95D-08 NDo=     1
 LinEq1:  Iter=  6 NonCon=     1 RMS=7.94D-10 Max=1.60D-08 NDo=     1
 LinEq1:  Iter=  7 NonCon=     1 RMS=3.83D-10 Max=3.65D-09 NDo=     1
 LinEq1:  Iter=  8 NonCon=     1 RMS=1.62D-10 Max=2.98D-09 NDo=     1
 LinEq1:  Iter=  9 NonCon=     1 RMS=5.05D-11 Max=7.14D-10 NDo=     1
 LinEq1:  Iter= 10 NonCon=     0 RMS=2.21D-11 Max=2.45D-10 NDo=     1
 Linear equations converged to 3.376D-11 3.376D-10 after    10 iterations.
 SCF Done:  E(RB3LYP) =  -519.793378200     a.u. after    9 cycles
            Convg  =    0.4753D-10                    40 Fock formations.
              S**2 =  0.0000                  -V/T =  2.0095
 DoSCS=F DFT=T ScalE2(SS,OS)=  1.000000  1.000000
 Range of M.O.s used for correlation:     1   222
 NBasis=   222 NAE=    48 NBE=    48 NFC=     0 NFV=     0
 NROrb=    222 NOA=    48 NOB=    48 NVA=   174 NVB=   174
 Symmetrizing basis deriv contribution to polar:
 IMax=3 JMax=2 DiffMx= 0.00D+00
 G2DrvN: will do    34 centers at a time, making    1 passes.
 Calling FoFCou, ICntrl=  3107 FMM=F I1Cent=   0 AccDes= 0.00D+00.
 End of G2Drv F.D. properties file   721 does not exist.
 End of G2Drv F.D. properties file   722 does not exist.
 End of G2Drv F.D. properties file   788 does not exist.
          IDoAtm=111111111111111111111111111111111
          Differentiating once with respect to electric field.
                with respect to dipole field.
          Differentiating once with respect to nuclear coordinates.
 Keep R1 ints in memory in canonical form, NReq=311927578.
          There are   102 degrees of freedom in the 1st order CPHF.  IDoFFX=6 NUNeed=     3.
     99 vectors produced by pass  0 Test12= 8.35D-15 1.00D-09 XBig12= 1.10D+02 5.02D+00.
 AX will form    99 AO Fock derivatives at one time.
     99 vectors produced by pass  1 Test12= 8.35D-15 1.00D-09 XBig12= 1.55D+01 8.30D-01.
     99 vectors produced by pass  2 Test12= 8.35D-15 1.00D-09 XBig12= 7.65D-02 3.19D-02.
     99 vectors produced by pass  3 Test12= 8.35D-15 1.00D-09 XBig12= 1.67D-04 1.52D-03.
     99 vectors produced by pass  4 Test12= 8.35D-15 1.00D-09 XBig12= 1.63D-07 3.33D-05.
     42 vectors produced by pass  5 Test12= 8.35D-15 1.00D-09 XBig12= 1.04D-10 8.29D-07.
      5 vectors produced by pass  6 Test12= 8.35D-15 1.00D-09 XBig12= 6.91D-14 3.13D-08.
      1 vectors produced by pass  7 Test12= 8.35D-15 1.00D-09 XBig12= 5.04D-17 1.09D-09.
 InvSVY:  IOpt=1 It=  1 EMax= 3.55D-15
 Solved reduced A of dimension   543 with   102 vectors.
 Isotropic polarizability for W=    0.000000      121.56 Bohr**3.
 End of Minotr F.D. properties file   721 does not exist.
 End of Minotr F.D. properties file   722 does not exist.
 End of Minotr F.D. properties file   788 does not exist.

 **********************************************************************

            Population analysis using the SCF density.

 **********************************************************************

 Orbital symmetries:
       Occupied  (A) (A) (A) (A) (A) (A) (A) (A) (A) (A) (A) (A)
                 (A) (A) (A) (A) (A) (A) (A) (A) (A) (A) (A) (A)
                 (A) (A) (A) (A) (A) (A) (A) (A) (A) (A) (A) (A)
                 (A) (A) (A) (A) (A) (A) (A) (A) (A) (A) (A) (A)
       Virtual   (A) (A) (A) (A) (A) (A) (A) (A) (A) (A) (A) (A)
                 (A) (A) (A) (A) (A) (A) (A) (A) (A) (A) (A) (A)
                 (A) (A) (A) (A) (A) (A) (A) (A) (A) (A) (A) (A)
                 (A) (A) (A) (A) (A) (A) (A) (A) (A) (A) (A) (A)
                 (A) (A) (A) (A) (A) (A) (A) (A) (A) (A) (A) (A)
                 (A) (A) (A) (A) (A) (A) (A) (A) (A) (A) (A) (A)
                 (A) (A) (A) (A) (A) (A) (A) (A) (A) (A) (A) (A)
                 (A) (A) (A) (A) (A) (A) (A) (A) (A) (A) (A) (A)
                 (A) (A) (A) (A) (A) (A) (A) (A) (A) (A) (A) (A)
                 (A) (A) (A) (A) (A) (A) (A) (A) (A) (A) (A) (A)
                 (A) (A) (A) (A) (A) (A) (A) (A) (A) (A) (A) (A)
                 (A) (A) (A) (A) (A) (A) (A) (A) (A) (A) (A) (A)
                 (A) (A) (A) (A) (A) (A) (A) (A) (A) (A) (A) (A)
                 (A) (A) (A) (A) (A) (A) (A) (A) (A) (A) (A) (A)
                 (A) (A) (A) (A) (A) (A)
 The electronic state is 1-A.
 Alpha  occ. eigenvalues --  -14.34313 -14.33241 -14.26170 -10.26803 -10.21535
 Alpha  occ. eigenvalues --  -10.21285 -10.20782 -10.20359 -10.19345 -10.16064
 Alpha  occ. eigenvalues --  -10.14894 -10.14880  -0.96999  -0.89806  -0.86126
 Alpha  occ. eigenvalues --   -0.77230  -0.72308  -0.70228  -0.68765  -0.67344
 Alpha  occ. eigenvalues --   -0.66173  -0.64095  -0.57220  -0.53158  -0.50464
 Alpha  occ. eigenvalues --   -0.47693  -0.46632  -0.45693  -0.44021  -0.43219
 Alpha  occ. eigenvalues --   -0.42656  -0.42158  -0.40815  -0.40338  -0.38654
 Alpha  occ. eigenvalues --   -0.38180  -0.37638  -0.37065  -0.36682  -0.35885
 Alpha  occ. eigenvalues --   -0.35097  -0.34106  -0.33318  -0.31193  -0.30545
 Alpha  occ. eigenvalues --   -0.22080  -0.20170  -0.18112
 Alpha virt. eigenvalues --    0.05527   0.08159   0.10012   0.10928   0.12551
 Alpha virt. eigenvalues --    0.13744   0.14230   0.14709   0.15312   0.15560
 Alpha virt. eigenvalues --    0.15665   0.17030   0.17335   0.17632   0.17878
 Alpha virt. eigenvalues --    0.18527   0.18899   0.19124   0.19842   0.20511
 Alpha virt. eigenvalues --    0.22094   0.22936   0.23198   0.23939   0.24971
 Alpha virt. eigenvalues --    0.26347   0.27547   0.28678   0.29567   0.30493
 Alpha virt. eigenvalues --    0.34328   0.37511   0.44717   0.48121   0.49798
 Alpha virt. eigenvalues --    0.50950   0.51846   0.53026   0.54175   0.54451
 Alpha virt. eigenvalues --    0.55622   0.58201   0.58531   0.59978   0.60690
 Alpha virt. eigenvalues --    0.63697   0.66081   0.67737   0.68254   0.70067
 Alpha virt. eigenvalues --    0.70713   0.72769   0.74370   0.76108   0.76709
 Alpha virt. eigenvalues --    0.78152   0.78822   0.79664   0.80895   0.82110
 Alpha virt. eigenvalues --    0.83342   0.84888   0.86799   0.87500   0.88288
 Alpha virt. eigenvalues --    0.88477   0.89435   0.90475   0.90662   0.91739
 Alpha virt. eigenvalues --    0.92399   0.93268   0.93987   0.94926   0.95134
 Alpha virt. eigenvalues --    0.95896   0.97506   0.98055   0.98656   0.99153
 Alpha virt. eigenvalues --    0.99837   1.01043   1.02101   1.04326   1.05042
 Alpha virt. eigenvalues --    1.07607   1.09512   1.10926   1.13952   1.14883
 Alpha virt. eigenvalues --    1.17871   1.26486   1.30515   1.31345   1.35748
 Alpha virt. eigenvalues --    1.39396   1.42428   1.43253   1.45499   1.48398
 Alpha virt. eigenvalues --    1.49390   1.50888   1.52593   1.54682   1.58583
 Alpha virt. eigenvalues --    1.65057   1.68013   1.75335   1.77458   1.78948
 Alpha virt. eigenvalues --    1.80294   1.82087   1.86084   1.89143   1.90160
 Alpha virt. eigenvalues --    1.91151   1.92344   1.93547   1.94305   1.95424
 Alpha virt. eigenvalues --    1.97414   1.99551   2.01792   2.05235   2.06902
 Alpha virt. eigenvalues --    2.07781   2.08629   2.11301   2.12898   2.13768
 Alpha virt. eigenvalues --    2.14748   2.17359   2.21303   2.21889   2.23073
 Alpha virt. eigenvalues --    2.27426   2.27761   2.28663   2.29431   2.29822
 Alpha virt. eigenvalues --    2.32095   2.32747   2.34124   2.39885   2.40300
 Alpha virt. eigenvalues --    2.43168   2.45744   2.49472   2.52558   2.53790
 Alpha virt. eigenvalues --    2.57736   2.60875   2.65423   2.66940   2.72949
 Alpha virt. eigenvalues --    2.75340   2.79451   2.82764   2.88009   2.99180
 Alpha virt. eigenvalues --    3.23532   3.32822   4.00348   4.08534   4.12802
 Alpha virt. eigenvalues --    4.23222   4.26144   4.30127   4.33100   4.34029
 Alpha virt. eigenvalues --    4.35645   4.37342   4.52076   4.75559
          Condensed to atoms (all electrons):
               1          2          3          4          5          6
     1  N    7.034902   0.266433  -0.093412  -0.013042   0.000331  -0.000017
     2  C    0.266433   4.342783   0.605320  -0.053649  -0.000396   0.002458
     3  N   -0.093412   0.605320   6.951471   0.337974  -0.067534  -0.087721
     4  C   -0.013042  -0.053649   0.337974   4.628649   0.366499   0.399710
     5  C    0.000331  -0.000396  -0.067534   0.366499   5.225882  -0.072333
     6  C   -0.000017   0.002458  -0.087721   0.399710  -0.072333   5.210160
     7  C    0.011273  -0.003117  -0.067701   0.337680  -0.061665  -0.074096
     8  N   -0.120912   0.309855  -0.111171   0.006892   0.000145  -0.000057
     9  C    0.005774  -0.029462  -0.012618   0.000138  -0.000054  -0.000035
    10  C   -0.004297  -0.037832   0.003184  -0.000224   0.000020  -0.000001
    11  C    0.324939  -0.031880  -0.006174   0.003605  -0.003251  -0.000097
    12  C    0.297098  -0.015441   0.003377   0.000132  -0.000026   0.000011
    13  H    0.000139   0.001452   0.004376  -0.027334   0.358271  -0.002742
    14  H   -0.000027   0.000455   0.000532  -0.032858   0.358118   0.006484
    15  H   -0.000003  -0.000089   0.003939  -0.025767   0.355258  -0.008364
    16  H    0.000023   0.000425   0.003547  -0.027911  -0.002830   0.357197
    17  H    0.000004  -0.000096   0.005950  -0.027817  -0.005987   0.343523
    18  H   -0.000014   0.000285  -0.000392  -0.026106   0.006177   0.363926
    19  H   -0.008695   0.001142  -0.003229  -0.030239  -0.003466   0.006546
    20  H   -0.000384   0.000879   0.000028  -0.024725   0.005722  -0.011039
    21  H    0.000002   0.000086   0.004563  -0.024065  -0.002196  -0.002562
    22  H    0.000438  -0.001938   0.022589  -0.001055  -0.000001  -0.000187
    23  H   -0.000044   0.003041   0.001102  -0.000008   0.000001  -0.000005
    24  H   -0.000038   0.000703   0.002070   0.000008  -0.000026   0.000003
    25  H   -0.000310  -0.009763  -0.000239  -0.000009   0.000001  -0.000000
    26  H    0.000590   0.001769   0.000369   0.000009  -0.000005   0.000000
    27  H    0.000561   0.002520  -0.000078   0.000004   0.000000  -0.000000
    28  H   -0.027401   0.000089   0.001998   0.002251   0.002322   0.000097
    29  H   -0.048220   0.002502  -0.000028  -0.000102  -0.000044   0.000002
    30  H   -0.051868   0.000156   0.001233   0.000216   0.000316  -0.000025
    31  H   -0.031719  -0.001105  -0.000151   0.000006  -0.000000   0.000000
    32  H   -0.047891   0.000186   0.000312   0.000012   0.000003  -0.000002
    33  H   -0.050915   0.000357  -0.000204  -0.000009  -0.000000   0.000000
               7          8          9         10         11         12
     1  N    0.011273  -0.120912   0.005774  -0.004297   0.324939   0.297098
     2  C   -0.003117   0.309855  -0.029462  -0.037832  -0.031880  -0.015441
     3  N   -0.067701  -0.111171  -0.012618   0.003184  -0.006174   0.003377
     4  C    0.337680   0.006892   0.000138  -0.000224   0.003605   0.000132
     5  C   -0.061665   0.000145  -0.000054   0.000020  -0.003251  -0.000026
     6  C   -0.074096  -0.000057  -0.000035  -0.000001  -0.000097   0.000011
     7  C    5.294332  -0.000469   0.000006   0.000010  -0.023866  -0.000198
     8  N   -0.000469   6.964738   0.310475   0.306443   0.003454  -0.004442
     9  C    0.000006   0.310475   4.964935  -0.055715  -0.000116  -0.000149
    10  C    0.000010   0.306443  -0.055715   4.993608   0.000322  -0.008365
    11  C   -0.023866   0.003454  -0.000116   0.000322   5.018237  -0.060331
    12  C   -0.000198  -0.004442  -0.000149  -0.008365  -0.060331   4.998114
    13  H    0.006249  -0.000307   0.000055   0.000004   0.000092  -0.000001
    14  H   -0.008203  -0.000010  -0.000000  -0.000001  -0.002905   0.000004
    15  H    0.001775  -0.000000   0.000001  -0.000000   0.000113   0.000000
    16  H    0.006833  -0.000110  -0.000209   0.000001   0.000003  -0.000000
    17  H    0.000890  -0.000000   0.000000   0.000000   0.000003  -0.000000
    18  H   -0.008441  -0.000015  -0.000008   0.000000   0.000003  -0.000001
    19  H    0.356837  -0.000049  -0.000000  -0.000001  -0.001273  -0.000014
    20  H    0.367273  -0.000041  -0.000001   0.000001   0.000424  -0.000055
    21  H    0.342767   0.000006  -0.000000  -0.000000   0.000109   0.000001
    22  H    0.000102  -0.027700   0.367682   0.004548  -0.000004  -0.000023
    23  H    0.000002  -0.050783   0.373380  -0.001185  -0.000000   0.000001
    24  H    0.000001  -0.050593   0.372667  -0.003857   0.000012  -0.000005
    25  H    0.000001  -0.026580   0.004865   0.379684  -0.000338  -0.001395
    26  H   -0.000000  -0.050141  -0.004034   0.367976   0.000104   0.000451
    27  H   -0.000000  -0.050594  -0.000379   0.376731  -0.000029  -0.000368
    28  H   -0.011477   0.000101  -0.000009  -0.000024   0.379107   0.004720
    29  H    0.001976   0.000057   0.000002   0.000114   0.359884  -0.003705
    30  H   -0.016029  -0.000197   0.000004   0.000002   0.371419  -0.001723
    31  H    0.000007   0.005173  -0.000266  -0.002219   0.005031   0.381369
    32  H   -0.000129  -0.000161   0.000021   0.000802  -0.004598   0.376313
    33  H    0.000031   0.000707  -0.000001  -0.002031  -0.001247   0.368770
              13         14         15         16         17         18
     1  N    0.000139  -0.000027  -0.000003   0.000023   0.000004  -0.000014
     2  C    0.001452   0.000455  -0.000089   0.000425  -0.000096   0.000285
     3  N    0.004376   0.000532   0.003939   0.003547   0.005950  -0.000392
     4  C   -0.027334  -0.032858  -0.025767  -0.027911  -0.027817  -0.026106
     5  C    0.358271   0.358118   0.355258  -0.002830  -0.005987   0.006177
     6  C   -0.002742   0.006484  -0.008364   0.357197   0.343523   0.363926
     7  C    0.006249  -0.008203   0.001775   0.006833   0.000890  -0.008441
     8  N   -0.000307  -0.000010  -0.000000  -0.000110  -0.000000  -0.000015
     9  C    0.000055  -0.000000   0.000001  -0.000209   0.000000  -0.000008
    10  C    0.000004  -0.000001  -0.000000   0.000001   0.000000   0.000000
    11  C    0.000092  -0.002905   0.000113   0.000003   0.000003   0.000003
    12  C   -0.000001   0.000004   0.000000  -0.000000  -0.000000  -0.000001
    13  H    0.558731  -0.028909  -0.026832   0.001987   0.000439  -0.000153
    14  H   -0.028909   0.595311  -0.033769  -0.000121  -0.000001  -0.000249
    15  H   -0.026832  -0.033769   0.588696   0.000700   0.003815   0.000200
    16  H    0.001987  -0.000121   0.000700   0.576899  -0.028720  -0.029715
    17  H    0.000439  -0.000001   0.003815  -0.028720   0.617512  -0.031774
    18  H   -0.000153  -0.000249   0.000200  -0.029715  -0.031774   0.585830
    19  H   -0.000094   0.002922  -0.000120  -0.000253  -0.000133   0.000163
    20  H   -0.000175   0.000033  -0.000144   0.000124   0.000300   0.006364
    21  H   -0.000145   0.000429   0.000848  -0.000171   0.001328   0.000092
    22  H    0.000132  -0.000003  -0.000002   0.001574   0.000012   0.000056
    23  H    0.000001  -0.000000  -0.000000   0.000002   0.000000   0.000000
    24  H    0.000035   0.000000   0.000001   0.000014  -0.000000  -0.000001
    25  H   -0.000000  -0.000000  -0.000000  -0.000000   0.000000   0.000000
    26  H    0.000002   0.000000   0.000000   0.000000  -0.000000  -0.000000
    27  H   -0.000000  -0.000000  -0.000000  -0.000000   0.000000   0.000000
    28  H   -0.000154   0.008326  -0.000109   0.000003  -0.000005  -0.000002
    29  H    0.000005   0.000070   0.000001  -0.000000  -0.000000  -0.000000
    30  H   -0.000007  -0.000014  -0.000011   0.000000   0.000000   0.000001
    31  H   -0.000000   0.000000   0.000000  -0.000000  -0.000000  -0.000000
    32  H   -0.000000  -0.000000  -0.000000  -0.000000   0.000000   0.000000
    33  H    0.000000   0.000000   0.000000   0.000000   0.000000  -0.000000
              19         20         21         22         23         24
     1  N   -0.008695  -0.000384   0.000002   0.000438  -0.000044  -0.000038
     2  C    0.001142   0.000879   0.000086  -0.001938   0.003041   0.000703
     3  N   -0.003229   0.000028   0.004563   0.022589   0.001102   0.002070
     4  C   -0.030239  -0.024725  -0.024065  -0.001055  -0.000008   0.000008
     5  C   -0.003466   0.005722  -0.002196  -0.000001   0.000001  -0.000026
     6  C    0.006546  -0.011039  -0.002562  -0.000187  -0.000005   0.000003
     7  C    0.356837   0.367273   0.342767   0.000102   0.000002   0.000001
     8  N   -0.000049  -0.000041   0.000006  -0.027700  -0.050783  -0.050593
     9  C   -0.000000  -0.000001  -0.000000   0.367682   0.373380   0.372667
    10  C   -0.000001   0.000001  -0.000000   0.004548  -0.001185  -0.003857
    11  C   -0.001273   0.000424   0.000109  -0.000004  -0.000000   0.000012
    12  C   -0.000014  -0.000055   0.000001  -0.000023   0.000001  -0.000005
    13  H   -0.000094  -0.000175  -0.000145   0.000132   0.000001   0.000035
    14  H    0.002922   0.000033   0.000429  -0.000003  -0.000000   0.000000
    15  H   -0.000120  -0.000144   0.000848  -0.000002  -0.000000   0.000001
    16  H   -0.000253   0.000124  -0.000171   0.001574   0.000002   0.000014
    17  H   -0.000133   0.000300   0.001328   0.000012   0.000000  -0.000000
    18  H    0.000163   0.006364   0.000092   0.000056   0.000000  -0.000001
    19  H    0.624870  -0.037683  -0.028994  -0.000002  -0.000000   0.000000
    20  H   -0.037683   0.582967  -0.028719   0.000002   0.000000  -0.000000
    21  H   -0.028994  -0.028719   0.611706  -0.000001  -0.000000  -0.000000
    22  H   -0.000002   0.000002  -0.000001   0.495869  -0.026116  -0.026889
    23  H   -0.000000   0.000000  -0.000000  -0.026116   0.609368  -0.049187
    24  H    0.000000  -0.000000  -0.000000  -0.026889  -0.049187   0.611158
    25  H   -0.000001   0.000000   0.000000  -0.000185   0.000029  -0.000033
    26  H    0.000000  -0.000000  -0.000000  -0.000023  -0.001976   0.011593
    27  H    0.000000   0.000000   0.000000  -0.000069   0.005583  -0.002899
    28  H   -0.005939   0.000300   0.000526  -0.000002   0.000000   0.000000
    29  H    0.000673  -0.000050  -0.000040   0.000000   0.000000  -0.000001
    30  H    0.007860   0.001269   0.000196   0.000000  -0.000000   0.000000
    31  H   -0.000003  -0.000009   0.000000  -0.000005  -0.000026   0.000020
    32  H    0.000065   0.000146  -0.000003   0.000000  -0.000004   0.000000
    33  H   -0.000029  -0.000002  -0.000000   0.000001   0.000002   0.000000
              25         26         27         28         29         30
     1  N   -0.000310   0.000590   0.000561  -0.027401  -0.048220  -0.051868
     2  C   -0.009763   0.001769   0.002520   0.000089   0.002502   0.000156
     3  N   -0.000239   0.000369  -0.000078   0.001998  -0.000028   0.001233
     4  C   -0.000009   0.000009   0.000004   0.002251  -0.000102   0.000216
     5  C    0.000001  -0.000005   0.000000   0.002322  -0.000044   0.000316
     6  C   -0.000000   0.000000  -0.000000   0.000097   0.000002  -0.000025
     7  C    0.000001  -0.000000  -0.000000  -0.011477   0.001976  -0.016029
     8  N   -0.026580  -0.050141  -0.050594   0.000101   0.000057  -0.000197
     9  C    0.004865  -0.004034  -0.000379  -0.000009   0.000002   0.000004
    10  C    0.379684   0.367976   0.376731  -0.000024   0.000114   0.000002
    11  C   -0.000338   0.000104  -0.000029   0.379107   0.359884   0.371419
    12  C   -0.001395   0.000451  -0.000368   0.004720  -0.003705  -0.001723
    13  H   -0.000000   0.000002  -0.000000  -0.000154   0.000005  -0.000007
    14  H   -0.000000   0.000000  -0.000000   0.008326   0.000070  -0.000014
    15  H   -0.000000   0.000000  -0.000000  -0.000109   0.000001  -0.000011
    16  H   -0.000000   0.000000  -0.000000   0.000003  -0.000000   0.000000
    17  H    0.000000  -0.000000   0.000000  -0.000005  -0.000000   0.000000
    18  H    0.000000  -0.000000   0.000000  -0.000002  -0.000000   0.000001
    19  H   -0.000001   0.000000   0.000000  -0.005939   0.000673   0.007860
    20  H    0.000000  -0.000000   0.000000   0.000300  -0.000050   0.001269
    21  H    0.000000  -0.000000   0.000000   0.000526  -0.000040   0.000196
    22  H   -0.000185  -0.000023  -0.000069  -0.000002   0.000000   0.000000
    23  H    0.000029  -0.001976   0.005583   0.000000   0.000000  -0.000000
    24  H   -0.000033   0.011593  -0.002899   0.000000  -0.000001   0.000000
    25  H    0.542733  -0.030175  -0.030483  -0.000012   0.000177   0.000017
    26  H   -0.030175   0.610208  -0.048812   0.000002  -0.000021   0.000001
    27  H   -0.030483  -0.048812   0.604688  -0.000000  -0.000007   0.000001
    28  H   -0.000012   0.000002  -0.000000   0.521422  -0.025896  -0.038755
    29  H    0.000177  -0.000021  -0.000007  -0.025896   0.611695  -0.047518
    30  H    0.000017   0.000001   0.000001  -0.038755  -0.047518   0.599303
    31  H   -0.007534   0.000598   0.000163  -0.000195   0.000107  -0.000088
    32  H    0.000898  -0.000015   0.000001  -0.000075  -0.002266   0.011100
    33  H    0.002900   0.000024  -0.000238   0.000098   0.009702  -0.003668
              31         32         33
     1  N   -0.031719  -0.047891  -0.050915
     2  C   -0.001105   0.000186   0.000357
     3  N   -0.000151   0.000312  -0.000204
     4  C    0.000006   0.000012  -0.000009
     5  C   -0.000000   0.000003  -0.000000
     6  C    0.000000  -0.000002   0.000000
     7  C    0.000007  -0.000129   0.000031
     8  N    0.005173  -0.000161   0.000707
     9  C   -0.000266   0.000021  -0.000001
    10  C   -0.002219   0.000802  -0.002031
    11  C    0.005031  -0.004598  -0.001247
    12  C    0.381369   0.376313   0.368770
    13  H   -0.000000  -0.000000   0.000000
    14  H    0.000000  -0.000000   0.000000
    15  H    0.000000  -0.000000   0.000000
    16  H   -0.000000  -0.000000   0.000000
    17  H   -0.000000   0.000000   0.000000
    18  H   -0.000000   0.000000  -0.000000
    19  H   -0.000003   0.000065  -0.000029
    20  H   -0.000009   0.000146  -0.000002
    21  H    0.000000  -0.000003  -0.000000
    22  H   -0.000005   0.000000   0.000001
    23  H   -0.000026  -0.000004   0.000002
    24  H    0.000020   0.000000   0.000000
    25  H   -0.007534   0.000898   0.002900
    26  H    0.000598  -0.000015   0.000024
    27  H    0.000163   0.000001  -0.000238
    28  H   -0.000195  -0.000075   0.000098
    29  H    0.000107  -0.002266   0.009702
    30  H   -0.000088   0.011100  -0.003668
    31  H    0.523563  -0.027215  -0.031066
    32  H   -0.027215   0.591377  -0.050421
    33  H   -0.031066  -0.050421   0.610418
 Mulliken charges:
               1
     1  N   -0.443299
     2  C    0.641869
     3  N   -0.503281
     4  C    0.231140
     5  C   -0.459248
     6  C   -0.430836
     7  C   -0.452653
     8  N   -0.413713
     9  C   -0.296949
    10  C   -0.317700
    11  C   -0.330750
    12  C   -0.334119
    13  H    0.154884
    14  H    0.134384
    15  H    0.139865
    16  H    0.140710
    17  H    0.120759
    18  H    0.133773
    19  H    0.119140
    20  H    0.137195
    21  H    0.124238
    22  H    0.191202
    23  H    0.136821
    24  H    0.135243
    25  H    0.175751
    26  H    0.141506
    27  H    0.143705
    28  H    0.188693
    29  H    0.140932
    30  H    0.166807
    31  H    0.185563
    32  H    0.151542
    33  H    0.146824
 Sum of Mulliken charges =   0.00000
 Mulliken charges with hydrogens summed into heavy atoms:
               1
     1  N   -0.443299
     2  C    0.641869
     3  N   -0.503281
     4  C    0.231140
     5  C   -0.030116
     6  C   -0.035594
     7  C   -0.072079
     8  N   -0.413713
     9  C    0.166318
    10  C    0.143262
    11  C    0.165683
    12  C    0.149810
 APT charges:
               1
     1  N   -0.788168
     2  C    1.372541
     3  N   -1.019033
     4  C    0.557887
     5  C   -0.005189
     6  C    0.054382
     7  C   -0.028624
     8  N   -0.864770
     9  C    0.338883
    10  C    0.381050
    11  C    0.328027
    12  C    0.391178
    13  H   -0.002943
    14  H   -0.043524
    15  H   -0.038163
    16  H   -0.017540
    17  H   -0.056617
    18  H   -0.030105
    19  H    0.018044
    20  H   -0.026142
    21  H   -0.052848
    22  H    0.052330
    23  H   -0.072047
    24  H   -0.070660
    25  H    0.021212
    26  H   -0.086496
    27  H   -0.067469
    28  H    0.017533
    29  H   -0.075015
    30  H   -0.061908
    31  H    0.014974
    32  H   -0.076547
    33  H   -0.064235
 Sum of APT charges =   0.00000
 APT charges with hydrogens summed into heavy atoms:
               1
     1  N   -0.788168
     2  C    1.372541
     3  N   -1.019033
     4  C    0.557887
     5  C   -0.089819
     6  C   -0.049880
     7  C   -0.089570
     8  N   -0.864770
     9  C    0.248507
    10  C    0.248298
    11  C    0.208636
    12  C    0.265370
 Electronic spatial extent (au):  <R**2>=           2454.2474
 Charge=              0.0000 electrons
 Dipole moment (field-independent basis, Debye):
    X=             -1.9409    Y=              1.6345    Z=              0.4891  Tot=              2.5842
 Quadrupole moment (field-independent basis, Debye-Ang):
   XX=            -73.7836   YY=            -74.0028   ZZ=            -77.7406
   XY=             -0.1326   XZ=              1.2560   YZ=             -0.1314
 Traceless Quadrupole moment (field-independent basis, Debye-Ang):
   XX=              1.3921   YY=              1.1729   ZZ=             -2.5650
   XY=             -0.1326   XZ=              1.2560   YZ=             -0.1314
 Octapole moment (field-independent basis, Debye-Ang**2):
  XXX=            -21.3125  YYY=              0.2421  ZZZ=             -0.6454  XYY=             -9.9132
  XXY=              1.5583  XXZ=              1.3096  XZZ=             -4.0729  YZZ=              1.2420
  YYZ=              1.2517  XYZ=              1.3952
 Hexadecapole moment (field-independent basis, Debye-Ang**3):
 XXXX=          -1906.4567 YYYY=          -1035.9965 ZZZZ=           -358.3181 XXXY=             -5.1281
 XXXZ=             17.0492 YYYX=             -0.0207 YYYZ=              3.6780 ZZZX=             -1.4025
 ZZZY=             -2.3275 XXYY=           -499.5612 XXZZ=           -386.6516 YYZZ=           -232.7305
 XXYZ=             -1.5428 YYXZ=              4.6664 ZZXY=             -0.1421
 N-N= 8.065646314931D+02 E-N=-2.817895804643D+03  KE= 5.148978309801D+02
  Exact polarizability: 147.200  -1.169 123.030  -0.789  -0.318  94.437
 Approx polarizability: 192.415  -5.689 165.659  -0.052   0.936 135.584
 Calling FoFJK, ICntrl=    100127 FMM=F ISym2X=0 I1Cent= 0 IOpClX= 0 NMat=1 NMatS=1 NMatT=0.
 ***** Axes restored to original set *****
 -------------------------------------------------------------------
 Center     Atomic                   Forces (Hartrees/Bohr)
 Number     Number              X              Y              Z
 -------------------------------------------------------------------
      1        7           0.001555462    0.025577675   -0.003121179
      2        6          -0.022716327   -0.006675091   -0.009010812
      3        7          -0.004765785   -0.005362625   -0.019874761
      4        6           0.001035826   -0.009911709    0.030449202
      5        6           0.000792613    0.005233803   -0.009481101
      6        6          -0.005638499   -0.003621212    0.000540635
      7        6          -0.005026767    0.014034499    0.006841055
      8        7           0.022723968   -0.006051401    0.002410391
      9        6          -0.003161113    0.002106534    0.007354265
     10        6          -0.001130239   -0.001860465    0.003254167
     11        6           0.006662480   -0.009106597   -0.009016174
     12        6           0.001486315    0.002502239    0.000202241
     13        1           0.001185658   -0.000662603    0.002083070
     14        1           0.005438660    0.001775005   -0.003857536
     15        1           0.000327731   -0.000811394    0.002992941
     16        1           0.001042089    0.001796769   -0.002191197
     17        1           0.001263809    0.000969154    0.000361347
     18        1           0.002522383   -0.001027752    0.000193186
     19        1          -0.016420469   -0.000914546    0.004057782
     20        1          -0.002610914   -0.002805732   -0.000668045
     21        1          -0.002043790    0.001047539    0.001716859
     22        1           0.006264646    0.007939656    0.000978788
     23        1           0.002362409   -0.001755393   -0.000690686
     24        1           0.000557293   -0.000211614   -0.004805114
     25        1          -0.007316549   -0.007038152   -0.006666669
     26        1           0.000215164   -0.001499250   -0.003769037
     27        1           0.001144226   -0.004021607   -0.001376844
     28        1           0.008396647   -0.007300777   -0.000914762
     29        1           0.003603991    0.000145557   -0.000324117
     30        1           0.006507879    0.007206334    0.002312658
     31        1          -0.005692940   -0.003626290    0.005556379
     32        1          -0.000216419    0.000862829    0.005909966
     33        1           0.001650563    0.003066617   -0.001446898
 -------------------------------------------------------------------
 Cartesian Forces:  Max     0.030449202 RMS     0.007211840
 FormGI is forming the generalized inverse of G from B-inverse, IUseBI=4.

 GradGradGradGradGradGradGradGradGradGradGradGradGradGradGradGradGradGrad
 Berny optimization.
 Internal  Forces:  Max     0.088454315 RMS     0.013716188
 Search for a local minimum.
 Step number   1 out of a maximum of  164
 All quantities printed in internal units (Hartrees-Bohrs-Radians)
 Mixed Optimization -- RFO/linear search
 Second derivative matrix not updated -- analytic derivatives used.
 ITU=  0
     Eigenvalues ---   -0.04117  -0.01028  -0.00438  -0.00317   0.00005
     Eigenvalues ---    0.00049   0.00143   0.00247   0.00293   0.00345
     Eigenvalues ---    0.00935   0.02429   0.03946   0.04420   0.04638
     Eigenvalues ---    0.04664   0.04744   0.04815   0.04906   0.05685
     Eigenvalues ---    0.05927   0.06114   0.06217   0.06378   0.06522
     Eigenvalues ---    0.06543   0.06647   0.06729   0.07070   0.07250
     Eigenvalues ---    0.08738   0.11104   0.11889   0.12077   0.12173
     Eigenvalues ---    0.12414   0.12476   0.12892   0.13263   0.13373
     Eigenvalues ---    0.13897   0.14619   0.15194   0.15372   0.15590
     Eigenvalues ---    0.15963   0.16492   0.16675   0.17355   0.17554
     Eigenvalues ---    0.17696   0.18085   0.18145   0.18924   0.20528
     Eigenvalues ---    0.21404   0.22348   0.23402   0.24708   0.26136
     Eigenvalues ---    0.28332   0.29380   0.32430   0.32621   0.32864
     Eigenvalues ---    0.33013   0.33124   0.33169   0.33225   0.33264
     Eigenvalues ---    0.33502   0.33521   0.33679   0.33708   0.33836
     Eigenvalues ---    0.33998   0.34191   0.34375   0.34405   0.34569
     Eigenvalues ---    0.35029   0.35278   0.35729   0.36182   0.36594
     Eigenvalues ---    0.36768   0.36916   0.38161   0.41334   0.43199
     Eigenvalues ---    0.73002   0.82991   2.45568
 RFO step:  Lambda=-4.56969241D-02 EMin=-4.11707083D-02
 I=     1 Eig=   -4.12D-02 Dot1= -4.51D-03
 I=     1 Stepn= -6.00D-01 RXN=   6.00D-01 EDone=F
 I=     2 Eig=   -1.03D-02 Dot1=  1.80D-03
 I=     2 Stepn=  3.00D-01 RXN=   6.71D-01 EDone=F
 I=     3 Eig=   -4.38D-03 Dot1= -8.01D-04
 I=     3 Stepn= -1.50D-01 RXN=   6.87D-01 EDone=F
 Mixed    3 eigenvectors in step.  Raw Step.Grad=  7.11D-03.
 RFO eigenvector is Hessian eigenvector with negative curvature.
 Taking step of  6.00D-01 in eigenvector direction(s).  Step.Grad=  1.81D-02.
 Linear search not attempted -- first point.
 Iteration  1 RMS(Cart)=  0.22318294 RMS(Int)=  0.02151955
 Iteration  2 RMS(Cart)=  0.12104139 RMS(Int)=  0.00301127
 Iteration  3 RMS(Cart)=  0.00674332 RMS(Int)=  0.00028377
 Iteration  4 RMS(Cart)=  0.00001565 RMS(Int)=  0.00028370
 Iteration  5 RMS(Cart)=  0.00000000 RMS(Int)=  0.00028370
 Variable       Old X    -DE/DX   Delta X   Delta X   Delta X     New X
                                 (Linear)    (Quad)   (Total)
    R1        2.62534   0.03014   0.00000   0.00386   0.00386   2.62920
    R2        2.77314  -0.01143   0.00000   0.01942   0.01942   2.79256
    R3        2.74215   0.00305   0.00000  -0.00171  -0.00171   2.74044
    R4        2.41762   0.02323   0.00000   0.01010   0.01010   2.42772
    R5        2.63587   0.02057   0.00000  -0.00621  -0.00621   2.62966
    R6        2.73423   0.01918   0.00000   0.00502   0.00502   2.73926
    R7        2.89238   0.00683   0.00000   0.00425   0.00425   2.89663
    R8        2.93530   0.00109   0.00000   0.00167   0.00167   2.93697
    R9        2.89853   0.00962   0.00000   0.00066   0.00066   2.89919
   R10        2.07042  -0.00092   0.00000   0.00102   0.00102   2.07144
   R11        2.06094   0.00529   0.00000  -0.00459  -0.00459   2.05635
   R12        2.07242  -0.00048   0.00000  -0.00080  -0.00080   2.07162
   R13        2.07214  -0.00071   0.00000   0.00093   0.00093   2.07307
   R14        2.07515  -0.00055   0.00000  -0.00039  -0.00039   2.07475
   R15        2.06837   0.00085   0.00000  -0.00015  -0.00015   2.06822
   R16        2.05467  -0.01523   0.00000   0.00078   0.00078   2.05544
   R17        2.07190   0.00003   0.00000  -0.00147  -0.00147   2.07043
   R18        2.07161   0.00231   0.00000   0.00026   0.00026   2.07187
   R19        2.75761  -0.01038   0.00000   0.00221   0.00221   2.75982
   R20        2.77092  -0.00222   0.00000   0.00010   0.00010   2.77102
   R21        2.06997  -0.00507   0.00000   0.00004   0.00004   2.07001
   R22        2.07160   0.00202   0.00000  -0.00032  -0.00032   2.07129
   R23        2.06744   0.00472   0.00000  -0.00036  -0.00036   2.06708
   R24        2.06993  -0.01073   0.00000  -0.00053  -0.00053   2.06940
   R25        2.07098   0.00392   0.00000   0.00018   0.00018   2.07116
   R26        2.06941   0.00309   0.00000  -0.00077  -0.00077   2.06865
   R27        2.07134  -0.00749   0.00000  -0.00076  -0.00076   2.07058
   R28        2.07226   0.00295   0.00000   0.00113   0.00113   2.07339
   R29        2.05709   0.00538   0.00000  -0.00461  -0.00461   2.05249
   R30        2.04871   0.00304   0.00000   0.00061   0.00061   2.04932
   R31        2.06584   0.00552   0.00000  -0.00041  -0.00041   2.06543
   R32        2.07305   0.00321   0.00000  -0.00008  -0.00008   2.07297
    A1        2.13678   0.03271   0.00000   0.00440   0.00376   2.14054
    A2        2.18209  -0.02071   0.00000   0.01174   0.01116   2.19324
    A3        1.94111  -0.01098   0.00000  -0.00303  -0.00368   1.93743
    A4        2.28987   0.05105   0.00000  -0.00600  -0.00691   2.28296
    A5        1.97529  -0.01711   0.00000   0.00711   0.00616   1.98146
    A6        2.01626  -0.03369   0.00000  -0.00552  -0.00645   2.00981
    A7        2.40148   0.08845   0.00000  -0.16631  -0.16631   2.23518
    A8        1.97038  -0.01238   0.00000   0.03321   0.03393   2.00431
    A9        1.83093  -0.00694   0.00000   0.00679   0.00638   1.83731
   A10        1.95085   0.02381   0.00000  -0.07257  -0.07309   1.87775
   A11        1.86847   0.01200   0.00000  -0.02858  -0.02857   1.83990
   A12        1.98117  -0.00384   0.00000   0.05697   0.05728   2.03845
   A13        1.84901  -0.01372   0.00000  -0.00031  -0.00041   1.84860
   A14        1.94710  -0.00323   0.00000  -0.00587  -0.00591   1.94119
   A15        1.95614   0.00190   0.00000   0.02653   0.02651   1.98265
   A16        1.95306  -0.00341   0.00000  -0.00334  -0.00336   1.94970
   A17        1.89439  -0.00038   0.00000  -0.00375  -0.00379   1.89060
   A18        1.87218   0.00307   0.00000  -0.00253  -0.00256   1.86962
   A19        1.83542   0.00248   0.00000  -0.01248  -0.01248   1.82295
   A20        1.94262  -0.00306   0.00000  -0.00217  -0.00217   1.94045
   A21        1.94862  -0.00057   0.00000   0.00242   0.00242   1.95104
   A22        1.94420  -0.00165   0.00000   0.00092   0.00091   1.94511
   A23        1.88450   0.00176   0.00000   0.00013   0.00013   1.88463
   A24        1.86988   0.00216   0.00000  -0.00127  -0.00127   1.86861
   A25        1.87024   0.00173   0.00000  -0.00011  -0.00011   1.87013
   A26        1.98437   0.00786   0.00000   0.00284   0.00265   1.98702
   A27        1.93906  -0.00566   0.00000  -0.02043  -0.02045   1.91861
   A28        1.93629  -0.00068   0.00000   0.01659   0.01653   1.95282
   A29        1.84432   0.00158   0.00000  -0.01141  -0.01155   1.83277
   A30        1.87513  -0.00396   0.00000   0.01023   0.01003   1.88516
   A31        1.87910   0.00071   0.00000   0.00173   0.00183   1.88093
   A32        2.15314  -0.01969   0.00000  -0.00469  -0.00476   2.14838
   A33        2.09278   0.03010   0.00000  -0.00259  -0.00267   2.09012
   A34        1.96572  -0.01139   0.00000  -0.00056  -0.00064   1.96508
   A35        1.97980  -0.01267   0.00000   0.00144   0.00144   1.98125
   A36        1.91135   0.00221   0.00000  -0.00161  -0.00161   1.90973
   A37        1.93391   0.00062   0.00000  -0.00027  -0.00027   1.93364
   A38        1.87983   0.00543   0.00000   0.00141   0.00141   1.88124
   A39        1.87150   0.00504   0.00000  -0.00227  -0.00226   1.86924
   A40        1.88423   0.00002   0.00000   0.00137   0.00137   1.88561
   A41        1.97398   0.00154   0.00000   0.00230   0.00229   1.97628
   A42        1.93325  -0.00122   0.00000   0.00224   0.00223   1.93548
   A43        1.91360   0.00170   0.00000  -0.00460  -0.00460   1.90900
   A44        1.89049  -0.00224   0.00000   0.00064   0.00063   1.89112
   A45        1.85765   0.00220   0.00000  -0.00154  -0.00154   1.85611
   A46        1.89176  -0.00204   0.00000   0.00083   0.00084   1.89259
   A47        1.98735  -0.00784   0.00000   0.01504   0.01497   2.00232
   A48        1.91013  -0.00403   0.00000  -0.00244  -0.00251   1.90762
   A49        1.92421   0.00818   0.00000   0.00672   0.00670   1.93091
   A50        1.87514   0.00215   0.00000   0.01390   0.01378   1.88892
   A51        1.86968   0.00564   0.00000  -0.01594  -0.01596   1.85371
   A52        1.89459  -0.00407   0.00000  -0.01898  -0.01898   1.87561
   A53        1.97833  -0.00458   0.00000  -0.00047  -0.00047   1.97786
   A54        1.93129   0.00100   0.00000   0.00032   0.00032   1.93161
   A55        1.92287   0.00109   0.00000  -0.00048  -0.00048   1.92240
   A56        1.91447  -0.00219   0.00000   0.00047   0.00047   1.91494
   A57        1.84425   0.00505   0.00000  -0.00004  -0.00004   1.84421
   A58        1.86762   0.00002   0.00000   0.00021   0.00021   1.86782
    D1       -0.51744  -0.02480   0.00000   0.03091   0.03077  -0.48667
    D2        2.55639  -0.02164   0.00000  -0.05411  -0.05426   2.50213
    D3        2.37385  -0.02068   0.00000   0.10010   0.10025   2.47410
    D4       -0.83551  -0.01752   0.00000   0.01508   0.01522  -0.82029
    D5       -0.19285  -0.00363   0.00000   0.14015   0.14006  -0.05279
    D6       -2.29150   0.00174   0.00000   0.11407   0.11391  -2.17759
    D7        1.90897   0.00423   0.00000   0.13481   0.13470   2.04366
    D8       -3.11509  -0.00494   0.00000   0.07772   0.07788  -3.03722
    D9        1.06944   0.00042   0.00000   0.05165   0.05172   1.12116
   D10       -1.01327   0.00292   0.00000   0.07238   0.07251  -0.94077
   D11        0.30991  -0.00913   0.00000  -0.02996  -0.02999   0.27991
   D12       -1.84919  -0.00362   0.00000  -0.03048  -0.03052  -1.87970
   D13        2.37222  -0.00495   0.00000  -0.03064  -0.03067   2.34155
   D14       -3.05789   0.00035   0.00000   0.03324   0.03328  -3.02462
   D15        1.06620   0.00585   0.00000   0.03272   0.03275   1.09895
   D16       -0.99557   0.00453   0.00000   0.03256   0.03260  -0.96298
   D17        0.09804  -0.04050   0.00000  -0.35858  -0.35834  -0.26030
   D18       -2.97452  -0.04432   0.00000  -0.27235  -0.27259   3.03607
   D19       -3.12927  -0.01045   0.00000   0.01872   0.01878  -3.11050
   D20       -0.41466  -0.01544   0.00000  -0.00369  -0.00360  -0.41826
   D21       -0.04417  -0.00438   0.00000  -0.05227  -0.05236  -0.09652
   D22        2.67045  -0.00937   0.00000  -0.07468  -0.07474   2.59571
   D23        1.57695  -0.02289   0.00000   0.01759   0.01716   1.59412
   D24       -2.67775  -0.01895   0.00000   0.00422   0.00404  -2.67371
   D25       -0.68191  -0.02770   0.00000  -0.02667  -0.02606  -0.70797
   D26        0.52819  -0.00831   0.00000   0.00645   0.00573   0.53393
   D27       -1.60029  -0.00685   0.00000  -0.00351  -0.00424  -1.60453
   D28        2.62589  -0.00898   0.00000  -0.00317  -0.00388   2.62201
   D29       -1.47782  -0.00060   0.00000  -0.00214  -0.00211  -1.47994
   D30        2.67688   0.00087   0.00000  -0.01209  -0.01208   2.66480
   D31        0.61987  -0.00126   0.00000  -0.01176  -0.01173   0.60815
   D32        2.77142   0.01070   0.00000  -0.01539  -0.01470   2.75672
   D33        0.64294   0.01216   0.00000  -0.02535  -0.02467   0.61827
   D34       -1.41407   0.01003   0.00000  -0.02501  -0.02431  -1.43838
   D35       -0.84609   0.00895   0.00000  -0.03349  -0.03378  -0.87987
   D36       -2.95339   0.00921   0.00000  -0.03382  -0.03410  -2.98749
   D37        1.23960   0.00852   0.00000  -0.03594  -0.03623   1.20337
   D38        1.25149  -0.00303   0.00000  -0.00562  -0.00551   1.24597
   D39       -0.85581  -0.00277   0.00000  -0.00594  -0.00583  -0.86164
   D40       -2.94601  -0.00346   0.00000  -0.00807  -0.00796  -2.95397
   D41       -2.91215  -0.00859   0.00000   0.04590   0.04607  -2.86608
   D42        1.26374  -0.00832   0.00000   0.04557   0.04575   1.30949
   D43       -0.82646  -0.00901   0.00000   0.04345   0.04362  -0.78283
   D44        1.01924   0.00389   0.00000  -0.01163  -0.01243   1.00681
   D45       -1.05854   0.00052   0.00000   0.01578   0.01492  -1.04362
   D46        3.13495   0.00382   0.00000   0.01610   0.01539  -3.13284
   D47       -1.23396   0.00340   0.00000  -0.04316  -0.04255  -1.27651
   D48        2.97144   0.00004   0.00000  -0.01575  -0.01520   2.95624
   D49        0.88175   0.00333   0.00000  -0.01542  -0.01473   0.86702
   D50        3.00390  -0.00042   0.00000  -0.03914  -0.03898   2.96492
   D51        0.92612  -0.00378   0.00000  -0.01174  -0.01164   0.91448
   D52       -1.16357  -0.00048   0.00000  -0.01141  -0.01116  -1.17474
   D53       -0.25460   0.00237   0.00000  -0.01985  -0.01984  -0.27444
   D54       -2.35510   0.00230   0.00000  -0.02146  -0.02145  -2.37655
   D55        1.85141   0.00049   0.00000  -0.02197  -0.02196   1.82945
   D56       -2.99675  -0.00231   0.00000   0.00148   0.00147  -2.99528
   D57        1.18594  -0.00238   0.00000  -0.00013  -0.00014   1.18580
[...]
 Traceless Quadrupole moment (field-independent basis, Debye-Ang):
   XX=              1.0004   YY=              0.9992   ZZ=             -1.9997
   XY=             -0.2943   XZ=             -0.3599   YZ=              0.3639
 Octapole moment (field-independent basis, Debye-Ang**2):
  XXX=             -7.6263  YYY=              0.7729  ZZZ=             -3.6727  XYY=             -5.3641
  XXY=              2.4534  XXZ=             -3.6727  XZZ=             -1.3699  YZZ=              1.0996
  YYZ=             -0.5910  XYZ=             -1.0840
 Hexadecapole moment (field-independent basis, Debye-Ang**3):
 XXXX=          -1823.6640 YYYY=          -1017.7185 ZZZZ=           -419.7687 XXXY=              5.8617
 XXXZ=             -2.5484 YYYX=              4.1804 YYYZ=              2.4430 ZZZX=              3.4140
 ZZZY=              0.3491 XXYY=           -473.5286 XXZZ=           -386.9393 YYZZ=           -239.5716
 XXYZ=             -3.1659 YYXZ=              5.5482 ZZXY=             -4.1235
 N-N= 8.082621453182D+02 E-N=-2.821119581467D+03  KE= 5.149012162784D+02
 Evaluate density.
 Using the total density.
 Monte-Carlo method of calculating molar volume:
 based on  0.001 e/bohr**3 density envelope.
 Number of points per bohr**3 =   20 CutOff= 1.00D-04
 Using the CI density.
 There are       417 points.  Will hold       417 in memory.
 LenV=  1342033532 MDV=  1342177280.
 Box volume = 9074.904 fraction occupied=0.182
 Integrated density= 1.7803723894890098D+02 error= 8.2037238948900978D+01
 Molar volume = 1653.939 bohr**3/mol (147.596 cm**3/mol)
 Recommended a0 for SCRF calculation =  4.77 angstrom (  9.02 bohr)
 ******************************Gaussian NBO Version 3.1******************************
             N A T U R A L   A T O M I C   O R B I T A L   A N D
          N A T U R A L   B O N D   O R B I T A L   A N A L Y S I S
 ******************************Gaussian NBO Version 3.1******************************
       /RESON  / : Allow strongly delocalized NBO set

 Analyzing the CI density

 Job title: Title Card Required                                             

 Storage needed:    151374 in NPA (1342171505 available)


 NATURAL POPULATIONS:  Natural atomic orbital occupancies 
                                                          
   NAO  Atom  No  lang   Type(AO)    Occupancy
 --------------------------------------------
     1    N    1  S      Cor( 1S)     1.99935
     2    N    1  S      Val( 2S)     1.18672
     3    N    1  S      Ryd( 3S)     0.00085
     4    N    1  S      Ryd( 4S)     0.00002
     5    N    1  px     Val( 2p)     1.55848
     6    N    1  px     Ryd( 3p)     0.00570
     7    N    1  py     Val( 2p)     1.30475
     8    N    1  py     Ryd( 3p)     0.00109
     9    N    1  pz     Val( 2p)     1.39463
    10    N    1  pz     Ryd( 3p)     0.00173
    11    N    1  dxy    Ryd( 3d)     0.00037
    12    N    1  dxz    Ryd( 3d)     0.00058
    13    N    1  dyz    Ryd( 3d)     0.00129
    14    N    1  dx2y2  Ryd( 3d)     0.00053
    15    N    1  dz2    Ryd( 3d)     0.00041
 
    16    C    2  S      Cor( 1S)     1.99913
    17    C    2  S      Val( 2S)     0.69983
    18    C    2  S      Ryd( 3S)     0.00224
    19    C    2  S      Ryd( 4S)     0.00022
    20    C    2  px     Val( 2p)     0.85258
    21    C    2  px     Ryd( 3p)     0.00600
    22    C    2  py     Val( 2p)     0.81677
    23    C    2  py     Ryd( 3p)     0.00573
    24    C    2  pz     Val( 2p)     1.21919
    25    C    2  pz     Ryd( 3p)     0.01204
    26    C    2  dxy    Ryd( 3d)     0.00245
    27    C    2  dxz    Ryd( 3d)     0.00238
    28    C    2  dyz    Ryd( 3d)     0.00102
    29    C    2  dx2y2  Ryd( 3d)     0.00160
    30    C    2  dz2    Ryd( 3d)     0.00060
 
    31    N    3  S      Cor( 1S)     1.99898
    32    N    3  S      Val( 2S)     1.27315
    33    N    3  S      Ryd( 3S)     0.00214
    34    N    3  S      Ryd( 4S)     0.00003
    35    N    3  px     Val( 2p)     1.23445
    36    N    3  px     Ryd( 3p)     0.00200
    37    N    3  py     Val( 2p)     1.13590
    38    N    3  py     Ryd( 3p)     0.00431
    39    N    3  pz     Val( 2p)     1.67178
    40    N    3  pz     Ryd( 3p)     0.00715
    41    N    3  dxy    Ryd( 3d)     0.00082
    42    N    3  dxz    Ryd( 3d)     0.00112
    43    N    3  dyz    Ryd( 3d)     0.00072
    44    N    3  dx2y2  Ryd( 3d)     0.00031
    45    N    3  dz2    Ryd( 3d)     0.00055
 
    46    C    4  S      Cor( 1S)     1.99908
    47    C    4  S      Val( 2S)     0.90539
    48    C    4  S      Ryd( 3S)     0.00068
    49    C    4  S      Ryd( 4S)     0.00003
    50    C    4  px     Val( 2p)     0.90370
    51    C    4  px     Ryd( 3p)     0.00291
    52    C    4  py     Val( 2p)     1.02532
    53    C    4  py     Ryd( 3p)     0.00462
    54    C    4  pz     Val( 2p)     1.04963
    55    C    4  pz     Ryd( 3p)     0.00487
    56    C    4  dxy    Ryd( 3d)     0.00125
    57    C    4  dxz    Ryd( 3d)     0.00169
    58    C    4  dyz    Ryd( 3d)     0.00102
    59    C    4  dx2y2  Ryd( 3d)     0.00101
    60    C    4  dz2    Ryd( 3d)     0.00093
 
    61    C    5  S      Cor( 1S)     1.99935
    62    C    5  S      Val( 2S)     1.10195
    63    C    5  S      Ryd( 3S)     0.00084
    64    C    5  S      Ryd( 4S)     0.00002
    65    C    5  px     Val( 2p)     1.20302
    66    C    5  px     Ryd( 3p)     0.00165
    67    C    5  py     Val( 2p)     1.23344
    68    C    5  py     Ryd( 3p)     0.00216
    69    C    5  pz     Val( 2p)     1.12818
    70    C    5  pz     Ryd( 3p)     0.00242
    71    C    5  dxy    Ryd( 3d)     0.00043
    72    C    5  dxz    Ryd( 3d)     0.00035
    73    C    5  dyz    Ryd( 3d)     0.00106
    74    C    5  dx2y2  Ryd( 3d)     0.00092
    75    C    5  dz2    Ryd( 3d)     0.00063
 
    76    C    6  S      Cor( 1S)     1.99935
    77    C    6  S      Val( 2S)     1.10074
    78    C    6  S      Ryd( 3S)     0.00078
    79    C    6  S      Ryd( 4S)     0.00001
    80    C    6  px     Val( 2p)     1.19102
    81    C    6  px     Ryd( 3p)     0.00181
    82    C    6  py     Val( 2p)     1.14013
    83    C    6  py     Ryd( 3p)     0.00216
    84    C    6  pz     Val( 2p)     1.22374
    85    C    6  pz     Ryd( 3p)     0.00212
    86    C    6  dxy    Ryd( 3d)     0.00041
    87    C    6  dxz    Ryd( 3d)     0.00040
    88    C    6  dyz    Ryd( 3d)     0.00100
    89    C    6  dx2y2  Ryd( 3d)     0.00096
    90    C    6  dz2    Ryd( 3d)     0.00066
 
    91    C    7  S      Cor( 1S)     1.99931
    92    C    7  S      Val( 2S)     1.09802
    93    C    7  S      Ryd( 3S)     0.00065
    94    C    7  S      Ryd( 4S)     0.00002
    95    C    7  px     Val( 2p)     1.24345
    96    C    7  px     Ryd( 3p)     0.00148
    97    C    7  py     Val( 2p)     1.14367
    98    C    7  py     Ryd( 3p)     0.00207
    99    C    7  pz     Val( 2p)     1.16720
   100    C    7  pz     Ryd( 3p)     0.00184
   101    C    7  dxy    Ryd( 3d)     0.00043
   102    C    7  dxz    Ryd( 3d)     0.00056
   103    C    7  dyz    Ryd( 3d)     0.00068
   104    C    7  dx2y2  Ryd( 3d)     0.00097
   105    C    7  dz2    Ryd( 3d)     0.00076
 
   106    N    8  S      Cor( 1S)     1.99939
   107    N    8  S      Val( 2S)     1.23291
   108    N    8  S      Ryd( 3S)     0.00145
   109    N    8  S      Ryd( 4S)     0.00003
   110    N    8  px     Val( 2p)     1.31490
   111    N    8  px     Ryd( 3p)     0.00214
   112    N    8  py     Val( 2p)     1.28293
   113    N    8  py     Ryd( 3p)     0.00207
   114    N    8  pz     Val( 2p)     1.65304
   115    N    8  pz     Ryd( 3p)     0.00431
   116    N    8  dxy    Ryd( 3d)     0.00058
   117    N    8  dxz    Ryd( 3d)     0.00118
   118    N    8  dyz    Ryd( 3d)     0.00076
   119    N    8  dx2y2  Ryd( 3d)     0.00059
   120    N    8  dz2    Ryd( 3d)     0.00077
 
   121    C    9  S      Cor( 1S)     1.99949
   122    C    9  S      Val( 2S)     1.07933
   123    C    9  S      Ryd( 3S)     0.00111
   124    C    9  S      Ryd( 4S)     0.00003
   125    C    9  px     Val( 2p)     1.23705
   126    C    9  px     Ryd( 3p)     0.00296
   127    C    9  py     Val( 2p)     0.90601
   128    C    9  py     Ryd( 3p)     0.00201
   129    C    9  pz     Val( 2p)     1.23289
   130    C    9  pz     Ryd( 3p)     0.00151
   131    C    9  dxy    Ryd( 3d)     0.00084
   132    C    9  dxz    Ryd( 3d)     0.00092
   133    C    9  dyz    Ryd( 3d)     0.00140
   134    C    9  dx2y2  Ryd( 3d)     0.00116
   135    C    9  dz2    Ryd( 3d)     0.00071
 
   136    C   10  S      Cor( 1S)     1.99946
   137    C   10  S      Val( 2S)     1.08354
   138    C   10  S      Ryd( 3S)     0.00103
   139    C   10  S      Ryd( 4S)     0.00003
   140    C   10  px     Val( 2p)     1.00861
   141    C   10  px     Ryd( 3p)     0.00141
   142    C   10  py     Val( 2p)     1.22746
   143    C   10  py     Ryd( 3p)     0.00296
   144    C   10  pz     Val( 2p)     1.12919
   145    C   10  pz     Ryd( 3p)     0.00178
   146    C   10  dxy    Ryd( 3d)     0.00060
   147    C   10  dxz    Ryd( 3d)     0.00121
   148    C   10  dyz    Ryd( 3d)     0.00052
   149    C   10  dx2y2  Ryd( 3d)     0.00127
   150    C   10  dz2    Ryd( 3d)     0.00140
 
   151    C   11  S      Cor( 1S)     1.99946
   152    C   11  S      Val( 2S)     1.08113
   153    C   11  S      Ryd( 3S)     0.00112
   154    C   11  S      Ryd( 4S)     0.00002
   155    C   11  px     Val( 2p)     1.21651
   156    C   11  px     Ryd( 3p)     0.00147
   157    C   11  py     Val( 2p)     1.09132
   158    C   11  py     Ryd( 3p)     0.00218
   159    C   11  pz     Val( 2p)     1.06509
   160    C   11  pz     Ryd( 3p)     0.00254
   161    C   11  dxy    Ryd( 3d)     0.00140
   162    C   11  dxz    Ryd( 3d)     0.00107
   163    C   11  dyz    Ryd( 3d)     0.00131
   164    C   11  dx2y2  Ryd( 3d)     0.00047
   165    C   11  dz2    Ryd( 3d)     0.00072
 
   166    C   12  S      Cor( 1S)     1.99946
   167    C   12  S      Val( 2S)     1.08279
   168    C   12  S      Ryd( 3S)     0.00117
   169    C   12  S      Ryd( 4S)     0.00002
   170    C   12  px     Val( 2p)     1.09035
   171    C   12  px     Ryd( 3p)     0.00137
   172    C   12  py     Val( 2p)     1.21662
   173    C   12  py     Ryd( 3p)     0.00298
   174    C   12  pz     Val( 2p)     1.06768
   175    C   12  pz     Ryd( 3p)     0.00227
   176    C   12  dxy    Ryd( 3d)     0.00079
   177    C   12  dxz    Ryd( 3d)     0.00109
   178    C   12  dyz    Ryd( 3d)     0.00135
   179    C   12  dx2y2  Ryd( 3d)     0.00101
   180    C   12  dz2    Ryd( 3d)     0.00070
 
   181    H   13  S      Val( 1S)     0.76112
   182    H   13  S      Ryd( 2S)     0.00143
 
   183    H   14  S      Val( 1S)     0.77712
   184    H   14  S      Ryd( 2S)     0.00092
 
   185    H   15  S      Val( 1S)     0.77709
   186    H   15  S      Ryd( 2S)     0.00177
 
   187    H   16  S      Val( 1S)     0.76368
   188    H   16  S      Ryd( 2S)     0.00121
 
   189    H   17  S      Val( 1S)     0.77654
   190    H   17  S      Ryd( 2S)     0.00158
 
   191    H   18  S      Val( 1S)     0.76517
   192    H   18  S      Ryd( 2S)     0.00120
 
   193    H   19  S      Val( 1S)     0.76319
   194    H   19  S      Ryd( 2S)     0.00107
 
   195    H   20  S      Val( 1S)     0.75709
   196    H   20  S      Ryd( 2S)     0.00105
 
   197    H   21  S      Val( 1S)     0.76152
   198    H   21  S      Ryd( 2S)     0.00137
 
   199    H   22  S      Val( 1S)     0.76446
   200    H   22  S      Ryd( 2S)     0.00088
 
   201    H   23  S      Val( 1S)     0.77751
   202    H   23  S      Ryd( 2S)     0.00097
 
   203    H   24  S      Val( 1S)     0.80292
   204    H   24  S      Ryd( 2S)     0.00469
 
   205    H   25  S      Val( 1S)     0.77625
   206    H   25  S      Ryd( 2S)     0.00090
 
   207    H   26  S      Val( 1S)     0.80649
   208    H   26  S      Ryd( 2S)     0.00651
 
   209    H   27  S      Val( 1S)     0.78373
   210    H   27  S      Ryd( 2S)     0.00226
 
   211    H   28  S      Val( 1S)     0.76343
   212    H   28  S      Ryd( 2S)     0.00090
 
   213    H   29  S      Val( 1S)     0.79017
   214    H   29  S      Ryd( 2S)     0.00378
 
   215    H   30  S      Val( 1S)     0.79192
   216    H   30  S      Ryd( 2S)     0.00186
 
   217    H   31  S      Val( 1S)     0.74820
   218    H   31  S      Ryd( 2S)     0.00102
 
   219    H   32  S      Val( 1S)     0.78807
   220    H   32  S      Ryd( 2S)     0.00255
 
   221    H   33  S      Val( 1S)     0.78735
   222    H   33  S      Ryd( 2S)     0.00203

 WARNING:  1 low occupancy (<1.9990e) core orbital  found on  N    3


 Summary of Natural Population Analysis:                  
                                                          
                                       Natural Population 
                Natural  -----------------------------------------------
    Atom  No    Charge         Core      Valence    Rydberg      Total
 -----------------------------------------------------------------------
      N    1   -0.45652      1.99935     5.44458    0.01258     7.45652
      C    2    0.37822      1.99913     3.58837    0.03428     5.62178
      N    3   -0.33340      1.99898     5.31527    0.01914     7.33340
      C    4    0.09788      1.99908     3.88404    0.01901     5.90212
      C    5   -0.67641      1.99935     4.66658    0.01047     6.67641
      C    6   -0.66529      1.99935     4.65562    0.01032     6.66529
      C    7   -0.66112      1.99931     4.65234    0.00947     6.66112
      N    8   -0.49703      1.99939     5.48377    0.01386     7.49703
      C    9   -0.46742      1.99949     4.45528    0.01265     6.46742
      C   10   -0.46049      1.99946     4.44880    0.01223     6.46049
      C   11   -0.46580      1.99946     4.45405    0.01230     6.46580
      C   12   -0.46965      1.99946     4.45744    0.01275     6.46965
      H   13    0.23745      0.00000     0.76112    0.00143     0.76255
      H   14    0.22196      0.00000     0.77712    0.00092     0.77804
      H   15    0.22114      0.00000     0.77709    0.00177     0.77886
      H   16    0.23511      0.00000     0.76368    0.00121     0.76489
      H   17    0.22188      0.00000     0.77654    0.00158     0.77812
      H   18    0.23363      0.00000     0.76517    0.00120     0.76637
      H   19    0.23573      0.00000     0.76319    0.00107     0.76427
      H   20    0.24186      0.00000     0.75709    0.00105     0.75814
      H   21    0.23711      0.00000     0.76152    0.00137     0.76289
      H   22    0.23466      0.00000     0.76446    0.00088     0.76534
      H   23    0.22152      0.00000     0.77751    0.00097     0.77848
      H   24    0.19239      0.00000     0.80292    0.00469     0.80761
      H   25    0.22285      0.00000     0.77625    0.00090     0.77715
      H   26    0.18700      0.00000     0.80649    0.00651     0.81300
      H   27    0.21401      0.00000     0.78373    0.00226     0.78599
      H   28    0.23567      0.00000     0.76343    0.00090     0.76433
      H   29    0.20605      0.00000     0.79017    0.00378     0.79395
      H   30    0.20623      0.00000     0.79192    0.00186     0.79377
      H   31    0.25078      0.00000     0.74820    0.00102     0.74922
      H   32    0.20938      0.00000     0.78807    0.00255     0.79062
      H   33    0.21063      0.00000     0.78735    0.00203     0.78937
 =======================================================================
   * Total *   -0.00000     23.99182    71.78918    0.21900    96.00000

                                 Natural Population      
 --------------------------------------------------------
   Core                      23.99182 ( 99.9659% of  24)
   Valence                   71.78918 ( 99.7072% of  72)
   Natural Minimal Basis     95.78100 ( 99.7719% of  96)
   Natural Rydberg Basis      0.21900 (  0.2281% of  96)
 --------------------------------------------------------

    Atom  No          Natural Electron Configuration
 ----------------------------------------------------------------------------
      N    1      [core]2S( 1.19)2p( 4.26)3p( 0.01)
      C    2      [core]2S( 0.70)2p( 2.89)3p( 0.02)3d( 0.01)
      N    3      [core]2S( 1.27)2p( 4.04)3p( 0.01)
      C    4      [core]2S( 0.91)2p( 2.98)3p( 0.01)3d( 0.01)
      C    5      [core]2S( 1.10)2p( 3.56)3p( 0.01)
      C    6      [core]2S( 1.10)2p( 3.55)3p( 0.01)
      C    7      [core]2S( 1.10)2p( 3.55)3p( 0.01)
      N    8      [core]2S( 1.23)2p( 4.25)3p( 0.01)
      C    9      [core]2S( 1.08)2p( 3.38)3p( 0.01)3d( 0.01)
      C   10      [core]2S( 1.08)2p( 3.37)3p( 0.01)3d( 0.01)
      C   11      [core]2S( 1.08)2p( 3.37)3p( 0.01)
      C   12      [core]2S( 1.08)2p( 3.37)3p( 0.01)
      H   13            1S( 0.76)
      H   14            1S( 0.78)
      H   15            1S( 0.78)
      H   16            1S( 0.76)
      H   17            1S( 0.78)
      H   18            1S( 0.77)
      H   19            1S( 0.76)
      H   20            1S( 0.76)
      H   21            1S( 0.76)
      H   22            1S( 0.76)
      H   23            1S( 0.78)
      H   24            1S( 0.80)
      H   25            1S( 0.78)
      H   26            1S( 0.81)2S( 0.01)
      H   27            1S( 0.78)
      H   28            1S( 0.76)
      H   29            1S( 0.79)
      H   30            1S( 0.79)
      H   31            1S( 0.75)
      H   32            1S( 0.79)
      H   33            1S( 0.79)


 NBO analysis skipped by request.
 1\1\GINC-DELLA-R1C3N6\SP\RB3LYP TD-FC\6-31G(d)\C9H21N3\BJS4\24-Aug-202
 0\0\\# TD(NStates=10, Root=1) B3LYP/6-31G* scf=qc volume pop=NPA densi
 ty=current Geom=AllCheck Guess=Read\\Title Card Required\\0,1\N,0,1.27
 11591453,0.2463452461,0.1501647367\C,0,0.4477778051,-0.8521987714,-0.1
 739076059\N,0,-0.8221791248,-0.8736838712,-0.3454740697\C,0,-1.8257918
 397,0.0986654512,0.1032769977\C,0,-2.2969342841,0.9469326263,-1.097214
 1411\C,0,-3.0196326325,-0.7690986893,0.5687819567\C,0,-1.4182587802,1.
 0107792617,1.2808312854\N,0,1.1526994816,-2.0656571103,-0.2780384041\C
 ,0,0.3635847787,-3.2882419763,-0.319294787\C,0,2.3324619267,-2.1171262
 069,-1.1352607566\C,0,1.3062097242,1.4301352023,-0.6829239064\C,0,2.33
 93543713,0.1384663607,1.1253442407\H,0,-2.5569637061,0.2961851276,-1.9
 387261733\H,0,-1.5241076102,1.6459393518,-1.4326778826\H,0,-3.18277425
 76,1.53540115,-0.8293287139\H,0,-3.3342343665,-1.439697774,-0.23698721
 46\H,0,-3.8727164688,-0.1460046964,0.8642970986\H,0,-2.7309123068,-1.3
 865389611,1.4271178547\H,0,-0.6675557378,1.7547729935,1.0074131838\H,0
 ,-1.0218490785,0.4160812339,2.1115676996\H,0,-2.3005191936,1.550310841
 5,1.6465931121\H,0,-0.4202379385,-3.2436829136,0.4373410329\H,0,1.0247
 100946,-4.1386318505,-0.114215975\H,0,-0.1216081423,-3.4432780979,-1.2
 949532393\H,0,2.8625628676,-1.1644740589,-1.1142263899\H,0,2.065273762
 5,-2.3381772392,-2.1825981979\H,0,3.0153785678,-2.9012774403,-0.787645
 4926\H,0,0.5604069864,1.3483949123,-1.4740134762\H,0,2.2962049997,1.54
 67068027,-1.1562038131\H,0,1.1070396421,2.3483142791,-0.1097888341\H,0
 ,2.2395129326,-0.7979648869,1.6757704129\H,0,2.28378073,0.974509311,1.
 8381754472\H,0,3.3418876517,0.1642243925,0.6649540144\\Version=ES64L-G
 16RevA.03\State=1-A\HF=-519.8294524\RMSD=3.876e-10\Dipole=0.1748082,0.
 3876923,0.2032918\Quadrupole=0.8790761,0.5690784,-1.4481546,0.2101322,
 -0.4120571,0.1987669\PG=C01 [X(C9H21N3)]\\@


 ... THIS SEEMS PLAINLY ABSURD; BUT WHOEVER WISHES TO BECOME A 
 PHILOSOPHER MUST LEARN NOT TO BE FRIGHTENED BY ABSURDITIES.

                          -- BERTRAND RUSSELL
 Job cpu time:       0 days  0 hours 43 minutes  6.3 seconds.
 Elapsed time:       0 days  0 hours  8 minutes 38.6 seconds.
 File lengths (MBytes):  RWF=    456 Int=      0 D2E=      0 Chk=    268 Scr=      1
 Normal termination of Gaussian 16 at Mon Aug 24 16:49:10 2020.
