 Entering Gaussian System, Link 0=g16
 Input=base_3_conf24123.com
 Output=base_3_conf24123.log
 Initial command:
 /opt/export//g16/l1.exe "/scratch/bjs4/job.5910/Gau-5912.inp" -scrdir="/scratch/bjs4/job.5910/"
 Entering Link 1 = /opt/export//g16/l1.exe PID=      5913.
  
 Copyright (c) 1988,1990,1992,1993,1995,1998,2003,2009,2016,
            Gaussian, Inc.  All Rights Reserved.
  
 This is part of the Gaussian(R) 16 program.  It is based on
 the Gaussian(R) 09 system (copyright 2009, Gaussian, Inc.),
 the Gaussian(R) 03 system (copyright 2003, Gaussian, Inc.),
 the Gaussian(R) 98 system (copyright 1998, Gaussian, Inc.),
 the Gaussian(R) 94 system (copyright 1995, Gaussian, Inc.),
 the Gaussian 92(TM) system (copyright 1992, Gaussian, Inc.),
 the Gaussian 90(TM) system (copyright 1990, Gaussian, Inc.),
 the Gaussian 88(TM) system (copyright 1988, Gaussian, Inc.),
 the Gaussian 86(TM) system (copyright 1986, Carnegie Mellon
 University), and the Gaussian 82(TM) system (copyright 1983,
 Carnegie Mellon University). Gaussian is a federally registered
 trademark of Gaussian, Inc.
  
 This software contains proprietary and confidential information,
 including trade secrets, belonging to Gaussian, Inc.
  
 This software is provided under written license and may be
 used, copied, transmitted, or stored only in accord with that
 written license.
  
 The following legend is applicable only to US Government
 contracts under FAR:
  
                    RESTRICTED RIGHTS LEGEND
  
 Use, reproduction and disclosure by the US Government is
 subject to restrictions as set forth in subparagraphs (a)
 and (c) of the Commercial Computer Software - Restricted
 Rights clause in FAR 52.227-19.
  
 Gaussian, Inc.
 340 Quinnipiac St., Bldg. 40, Wallingford CT 06492
  
  
 ---------------------------------------------------------------
 Warning -- This program may not be used in any manner that
 competes with the business of Gaussian, Inc. or will provide
 assistance to any competitor of Gaussian, Inc.  The licensee
 of this program is prohibited from giving any competitor of
 Gaussian, Inc. access to this program.  By using this program,
 the user acknowledges that Gaussian, Inc. is engaged in the
 business of creating and licensing software in the field of
 computational chemistry and represents and warrants to the
 licensee that it is not a competitor of Gaussian, Inc. and that
 it will not use this program in any manner prohibited above.
 ---------------------------------------------------------------
  

 Cite this work as:
 Gaussian 16, Revision A.03,
 M. J. Frisch, G. W. Trucks, H. B. Schlegel, G. E. Scuseria, 
 M. A. Robb, J. R. Cheeseman, G. Scalmani, V. Barone, 
 G. A. Petersson, H. Nakatsuji, X. Li, M. Caricato, A. V. Marenich, 
 J. Bloino, B. G. Janesko, R. Gomperts, B. Mennucci, H. P. Hratchian, 
 J. V. Ortiz, A. F. Izmaylov, J. L. Sonnenberg, D. Williams-Young, 
 F. Ding, F. Lipparini, F. Egidi, J. Goings, B. Peng, A. Petrone, 
 T. Henderson, D. Ranasinghe, V. G. Zakrzewski, J. Gao, N. Rega, 
 G. Zheng, W. Liang, M. Hada, M. Ehara, K. Toyota, R. Fukuda, 
 J. Hasegawa, M. Ishida, T. Nakajima, Y. Honda, O. Kitao, H. Nakai, 
 T. Vreven, K. Throssell, J. A. Montgomery, Jr., J. E. Peralta, 
 F. Ogliaro, M. J. Bearpark, J. J. Heyd, E. N. Brothers, K. N. Kudin, 
 V. N. Staroverov, T. A. Keith, R. Kobayashi, J. Normand, 
 K. Raghavachari, A. P. Rendell, J. C. Burant, S. S. Iyengar, 
 J. Tomasi, M. Cossi, J. M. Millam, M. Klene, C. Adamo, R. Cammi, 
 J. W. Ochterski, R. L. Martin, K. Morokuma, O. Farkas, 
 J. B. Foresman, and D. J. Fox, Gaussian, Inc., Wallingford CT, 2016.
 
 ******************************************
 Gaussian 16:  ES64L-G16RevA.03 25-Dec-2016
                24-Aug-2020 
 ******************************************
 %nprocshared=5
 Will use up to    5 processors via shared memory.
 %Mem=10GB
 %Chk=base_3_conf241.chk
 ---------------------------------
 # opt=CalcAll B3LYP/6-31G* scf=qc
 ---------------------------------
 1/10=4,18=20,19=15,26=3,38=1/1,3;
 2/9=110,12=2,17=6,18=5,40=1/2;
 3/5=1,6=6,7=1,11=2,25=1,30=1,71=2,74=-5,140=1/1,2,3;
 4//1;
 5/5=2,8=3,38=5/8;
 8/6=4,10=90,11=11/1;
 11/6=1,8=1,9=11,15=111,16=1/1,2,10;
 10/6=1/2;
 6/7=2,8=2,9=2,10=2,18=1,28=1/1;
 7/10=1,25=1/1,2,3,16;
 1/10=4,18=20,19=15,26=3/3(3);
 2/9=110/2;
 7/8=1,9=1,25=1,44=-1/16;
 99//99;
 2/9=110/2;
 3/5=1,6=6,7=1,11=2,25=1,30=1,71=2,74=-5,140=1/1,2,3;
 4/5=5,16=3,69=1/1;
 5/5=2,8=3,38=5/8;
 8/6=4,10=90,11=11/1;
 11/6=1,8=1,9=11,15=111,16=1/1,2,10;
 10/6=1/2;
 7/10=1,25=1/1,2,3,16;
 1/10=4,18=20,19=15,26=3/3(-8);
 2/9=110/2;
 6/7=2,8=2,9=2,10=2,18=1,19=2,28=1/1;
 7/8=1,9=1,25=1,44=-1/16;
 99//99;
 -------------------
 Title Card Required
 -------------------
 Symbolic Z-matrix:
 Charge =  0 Multiplicity = 1
 N                     1.4187    0.1287    0.123 
 C                     0.481    -0.8828   -0.0433 
 N1                   -0.7977   -0.8604   -0.0093 
 C                    -1.8463    0.1303    0.1023 
 C                    -2.31904   0.65264  -1.25651 
 C                    -3.04345  -0.62533   0.7415 
 C                    -1.47477   1.24328   1.09017 
 N                     1.052    -2.1118   -0.3736 
 C                     0.46892  -3.39508   0.00411 
 C                     1.9417   -2.21621  -1.53445 
 C                     2.75248  -0.11895   0.68263 
 C                     1.33867   1.44595  -0.4804 
 H                    -2.21934  -0.10919  -2.03757 
 H                    -1.76978   1.54204  -1.56746 
 H                    -3.37175   0.95917  -1.23323 
 H                    -3.23424  -1.57567   0.22883 
 H                    -3.96502  -0.02934   0.70446 
 H                    -2.85221  -0.85914   1.79353 
 H                    -0.55972   1.77018   0.83085 
 H                    -1.30904   0.83927   2.09586 
 H                    -2.27511   1.98925   1.15908 
 H                    -0.30557  -3.31188   0.77424 
 H                     1.25451  -4.05446   0.39116 
 H                     0.01364  -3.88494  -0.86174 
 H                     2.36681  -1.25346  -1.83808 
 H                     1.41193  -2.64483  -2.39275 
 H                     2.78888  -2.86624  -1.29163 
 H                     2.86916  -1.11406   1.12715 
 H                     2.96171   0.61802   1.46724 
 H                     3.51019  -0.02356  -0.09309 
 H                     0.34453   1.69788  -0.8319 
 H                     2.0541    1.53791  -1.30185 
 H                     1.59617   2.21616   0.25709 
 

 GradGradGradGradGradGradGradGradGradGradGradGradGradGradGradGradGradGrad
 Berny optimization.
 Initialization pass.
                           ----------------------------
                           !    Initial Parameters    !
                           ! (Angstroms and Degrees)  !
 --------------------------                            --------------------------
 ! Name  Definition              Value          Derivative Info.                !
 --------------------------------------------------------------------------------
 ! R1    R(1,2)                  1.3893         calculate D2E/DX2 analytically  !
 ! R2    R(1,11)                 1.4675         calculate D2E/DX2 analytically  !
 ! R3    R(1,12)                 1.4511         calculate D2E/DX2 analytically  !
 ! R4    R(2,3)                  1.2793         calculate D2E/DX2 analytically  !
 ! R5    R(2,8)                  1.3948         calculate D2E/DX2 analytically  !
 ! R6    R(3,4)                  1.4469         calculate D2E/DX2 analytically  !
 ! R7    R(4,5)                  1.5306         calculate D2E/DX2 analytically  !
 ! R8    R(4,6)                  1.5533         calculate D2E/DX2 analytically  !
 ! R9    R(4,7)                  1.5338         calculate D2E/DX2 analytically  !
 ! R10   R(5,13)                 1.0956         calculate D2E/DX2 analytically  !
 ! R11   R(5,14)                 1.0906         calculate D2E/DX2 analytically  !
 ! R12   R(5,15)                 1.0967         calculate D2E/DX2 analytically  !
 ! R13   R(6,16)                 1.0965         calculate D2E/DX2 analytically  !
 ! R14   R(6,17)                 1.0981         calculate D2E/DX2 analytically  !
 ! R15   R(6,18)                 1.0945         calculate D2E/DX2 analytically  !
 ! R16   R(7,19)                 1.0873         calculate D2E/DX2 analytically  !
 ! R17   R(7,20)                 1.0964         calculate D2E/DX2 analytically  !
 ! R18   R(7,21)                 1.0962         calculate D2E/DX2 analytically  !
 ! R19   R(8,9)                  1.4593         calculate D2E/DX2 analytically  !
 ! R20   R(8,10)                 1.4663         calculate D2E/DX2 analytically  !
 ! R21   R(9,22)                 1.0954         calculate D2E/DX2 analytically  !
 ! R22   R(9,23)                 1.0962         calculate D2E/DX2 analytically  !
 ! R23   R(9,24)                 1.094          calculate D2E/DX2 analytically  !
 ! R24   R(10,25)                1.0954         calculate D2E/DX2 analytically  !
 ! R25   R(10,26)                1.0959         calculate D2E/DX2 analytically  !
 ! R26   R(10,27)                1.0951         calculate D2E/DX2 analytically  !
 ! R27   R(11,28)                1.0961         calculate D2E/DX2 analytically  !
 ! R28   R(11,29)                1.0966         calculate D2E/DX2 analytically  !
 ! R29   R(11,30)                1.0886         calculate D2E/DX2 analytically  !
 ! R30   R(12,31)                1.0841         calculate D2E/DX2 analytically  !
 ! R31   R(12,32)                1.0932         calculate D2E/DX2 analytically  !
 ! R32   R(12,33)                1.097          calculate D2E/DX2 analytically  !
 ! A1    A(2,1,11)             122.4284         calculate D2E/DX2 analytically  !
 ! A2    A(2,1,12)             125.0246         calculate D2E/DX2 analytically  !
 ! A3    A(11,1,12)            111.2169         calculate D2E/DX2 analytically  !
 ! A4    A(1,2,3)              131.1999         calculate D2E/DX2 analytically  !
 ! A5    A(1,2,8)              113.1759         calculate D2E/DX2 analytically  !
 ! A6    A(3,2,8)              115.5233         calculate D2E/DX2 analytically  !
 ! A7    A(2,3,4)              137.595          calculate D2E/DX2 analytically  !
 ! A8    A(3,4,5)              112.8945         calculate D2E/DX2 analytically  !
 ! A9    A(3,4,6)              104.9045         calculate D2E/DX2 analytically  !
 ! A10   A(3,4,7)              111.7754         calculate D2E/DX2 analytically  !
 ! A11   A(5,4,6)              107.0557         calculate D2E/DX2 analytically  !
 ! A12   A(5,4,7)              113.5129         calculate D2E/DX2 analytically  !
 ! A13   A(6,4,7)              105.9406         calculate D2E/DX2 analytically  !
 ! A14   A(4,5,13)             111.5605         calculate D2E/DX2 analytically  !
 ! A15   A(4,5,14)             112.0785         calculate D2E/DX2 analytically  !
 ! A16   A(4,5,15)             111.9021         calculate D2E/DX2 analytically  !
 ! A17   A(13,5,14)            108.5404         calculate D2E/DX2 analytically  !
 ! A18   A(13,5,15)            107.2678         calculate D2E/DX2 analytically  !
 ! A19   A(14,5,15)            105.162          calculate D2E/DX2 analytically  !
 ! A20   A(4,6,16)             111.304          calculate D2E/DX2 analytically  !
 ! A21   A(4,6,17)             111.6478         calculate D2E/DX2 analytically  !
 ! A22   A(4,6,18)             111.3945         calculate D2E/DX2 analytically  !
 ! A23   A(16,6,17)            107.9742         calculate D2E/DX2 analytically  !
 ! A24   A(16,6,18)            107.1363         calculate D2E/DX2 analytically  !
 ! A25   A(17,6,18)            107.1569         calculate D2E/DX2 analytically  !
 ! A26   A(4,7,19)             113.6959         calculate D2E/DX2 analytically  !
 ! A27   A(4,7,20)             111.1001         calculate D2E/DX2 analytically  !
 ! A28   A(4,7,21)             110.9413         calculate D2E/DX2 analytically  !
 ! A29   A(19,7,20)            105.6717         calculate D2E/DX2 analytically  !
 ! A30   A(19,7,21)            107.4369         calculate D2E/DX2 analytically  !
 ! A31   A(20,7,21)            107.6645         calculate D2E/DX2 analytically  !
 ! A32   A(2,8,9)              123.3657         calculate D2E/DX2 analytically  !
 ! A33   A(2,8,10)             119.9075         calculate D2E/DX2 analytically  !
 ! A34   A(9,8,10)             112.6278         calculate D2E/DX2 analytically  !
 ! A35   A(8,9,22)             113.4346         calculate D2E/DX2 analytically  !
 ! A36   A(8,9,23)             109.5117         calculate D2E/DX2 analytically  !
 ! A37   A(8,9,24)             110.8047         calculate D2E/DX2 analytically  !
 ! A38   A(22,9,23)            107.7065         calculate D2E/DX2 analytically  !
 ! A39   A(22,9,24)            107.2294         calculate D2E/DX2 analytically  !
 ! A40   A(23,9,24)            107.9584         calculate D2E/DX2 analytically  !
 ! A41   A(8,10,25)            113.1011         calculate D2E/DX2 analytically  !
 ! A42   A(8,10,26)            110.7669         calculate D2E/DX2 analytically  !
 ! A43   A(8,10,27)            109.6411         calculate D2E/DX2 analytically  !
 ! A44   A(25,10,26)           108.3168         calculate D2E/DX2 analytically  !
 ! A45   A(25,10,27)           106.4363         calculate D2E/DX2 analytically  !
 ! A46   A(26,10,27)           108.3893         calculate D2E/DX2 analytically  !
 ! A47   A(1,11,28)            113.8671         calculate D2E/DX2 analytically  !
 ! A48   A(1,11,29)            109.4425         calculate D2E/DX2 analytically  !
 ! A49   A(1,11,30)            110.2492         calculate D2E/DX2 analytically  !
 ! A50   A(28,11,29)           107.4368         calculate D2E/DX2 analytically  !
 ! A51   A(28,11,30)           107.1248         calculate D2E/DX2 analytically  !
 ! A52   A(29,11,30)           108.5523         calculate D2E/DX2 analytically  !
 ! A53   A(1,12,31)            113.3497         calculate D2E/DX2 analytically  !
 ! A54   A(1,12,32)            110.6544         calculate D2E/DX2 analytically  !
 ! A55   A(1,12,33)            110.1727         calculate D2E/DX2 analytically  !
 ! A56   A(31,12,32)           109.6906         calculate D2E/DX2 analytically  !
 ! A57   A(31,12,33)           105.6678         calculate D2E/DX2 analytically  !
 ! A58   A(32,12,33)           107.0067         calculate D2E/DX2 analytically  !
 ! D1    D(11,1,2,3)           149.6472         calculate D2E/DX2 analytically  !
 ! D2    D(11,1,2,8)           -34.2353         calculate D2E/DX2 analytically  !
 ! D3    D(12,1,2,3)           -44.6944         calculate D2E/DX2 analytically  !
 ! D4    D(12,1,2,8)           131.423          calculate D2E/DX2 analytically  !
 ! D5    D(2,1,11,28)          -11.0501         calculate D2E/DX2 analytically  !
 ! D6    D(2,1,11,29)         -131.2932         calculate D2E/DX2 analytically  !
 ! D7    D(2,1,11,30)          109.3756         calculate D2E/DX2 analytically  !
 ! D8    D(12,1,11,28)        -178.4823         calculate D2E/DX2 analytically  !
 ! D9    D(12,1,11,29)          61.2746         calculate D2E/DX2 analytically  !
 ! D10   D(12,1,11,30)         -58.0566         calculate D2E/DX2 analytically  !
 ! D11   D(2,1,12,31)           17.7559         calculate D2E/DX2 analytically  !
 ! D12   D(2,1,12,32)         -105.9506         calculate D2E/DX2 analytically  !
 ! D13   D(2,1,12,33)          135.9183         calculate D2E/DX2 analytically  !
 ! D14   D(11,1,12,31)        -175.2046         calculate D2E/DX2 analytically  !
 ! D15   D(11,1,12,32)          61.089          calculate D2E/DX2 analytically  !
 ! D16   D(11,1,12,33)         -57.0422         calculate D2E/DX2 analytically  !
 ! D17   D(1,2,3,4)              5.6172         calculate D2E/DX2 analytically  !
 ! D18   D(8,2,3,4)           -170.4274         calculate D2E/DX2 analytically  !
 ! D19   D(1,2,8,9)            149.6469         calculate D2E/DX2 analytically  !
 ! D20   D(1,2,8,10)           -54.8167         calculate D2E/DX2 analytically  !
 ! D21   D(3,2,8,9)            -33.5896         calculate D2E/DX2 analytically  !
 ! D22   D(3,2,8,10)           121.9469         calculate D2E/DX2 analytically  !
 ! D23   D(2,3,4,5)             90.3529         calculate D2E/DX2 analytically  !
 ! D24   D(2,3,4,6)           -153.424          calculate D2E/DX2 analytically  !
 ! D25   D(2,3,4,7)            -39.0705         calculate D2E/DX2 analytically  !
 ! D26   D(3,4,5,13)            30.2631         calculate D2E/DX2 analytically  !
 ! D27   D(3,4,5,14)           -91.6899         calculate D2E/DX2 analytically  !
 ! D28   D(3,4,5,15)           150.4523         calculate D2E/DX2 analytically  !
 ! D29   D(6,4,5,13)           -84.673          calculate D2E/DX2 analytically  !
 ! D30   D(6,4,5,14)           153.374          calculate D2E/DX2 analytically  !
 ! D31   D(6,4,5,15)            35.5162         calculate D2E/DX2 analytically  !
 ! D32   D(7,4,5,13)           158.7905         calculate D2E/DX2 analytically  !
 ! D33   D(7,4,5,14)            36.8375         calculate D2E/DX2 analytically  !
 ! D34   D(7,4,5,15)           -81.0203         calculate D2E/DX2 analytically  !
 ! D35   D(3,4,6,16)           -48.4776         calculate D2E/DX2 analytically  !
 ! D36   D(3,4,6,17)          -169.2168         calculate D2E/DX2 analytically  !
 ! D37   D(3,4,6,18)            71.0238         calculate D2E/DX2 analytically  !
 ! D38   D(5,4,6,16)            71.7049         calculate D2E/DX2 analytically  !
 ! D39   D(5,4,6,17)           -49.0342         calculate D2E/DX2 analytically  !
 ! D40   D(5,4,6,18)          -168.7937         calculate D2E/DX2 analytically  !
 ! D41   D(7,4,6,16)          -166.8539         calculate D2E/DX2 analytically  !
 ! D42   D(7,4,6,17)            72.407          calculate D2E/DX2 analytically  !
 ! D43   D(7,4,6,18)           -47.3524         calculate D2E/DX2 analytically  !
 ! D44   D(3,4,7,19)            58.3984         calculate D2E/DX2 analytically  !
 ! D45   D(3,4,7,20)           -60.65           calculate D2E/DX2 analytically  !
 ! D46   D(3,4,7,21)           179.6196         calculate D2E/DX2 analytically  !
 ! D47   D(5,4,7,19)           -70.7006         calculate D2E/DX2 analytically  !
 ! D48   D(5,4,7,20)           170.251          calculate D2E/DX2 analytically  !
 ! D49   D(5,4,7,21)            50.5206         calculate D2E/DX2 analytically  !
 ! D50   D(6,4,7,19)           172.1109         calculate D2E/DX2 analytically  !
 ! D51   D(6,4,7,20)            53.0625         calculate D2E/DX2 analytically  !
 ! D52   D(6,4,7,21)           -66.6679         calculate D2E/DX2 analytically  !
 ! D53   D(2,8,9,22)           -14.5879         calculate D2E/DX2 analytically  !
 ! D54   D(2,8,9,23)          -134.9375         calculate D2E/DX2 analytically  !
 ! D55   D(2,8,9,24)           106.0786         calculate D2E/DX2 analytically  !
 ! D56   D(10,8,9,22)         -171.7016         calculate D2E/DX2 analytically  !
 ! D57   D(10,8,9,23)           67.9489         calculate D2E/DX2 analytically  !
 ! D58   D(10,8,9,24)          -51.0351         calculate D2E/DX2 analytically  !
 ! D59   D(2,8,10,25)           20.7612         calculate D2E/DX2 analytically  !
 ! D60   D(2,8,10,26)         -101.0527         calculate D2E/DX2 analytically  !
 ! D61   D(2,8,10,27)          139.3719         calculate D2E/DX2 analytically  !
 ! D62   D(9,8,10,25)          178.7553         calculate D2E/DX2 analytically  !
 ! D63   D(9,8,10,26)           56.9414         calculate D2E/DX2 analytically  !
 ! D64   D(9,8,10,27)          -62.634          calculate D2E/DX2 analytically  !
 --------------------------------------------------------------------------------
 Trust Radius=3.00D-01 FncErr=1.00D-07 GrdErr=1.00D-06 EigMax=2.50D+02 EigMin=1.00D-04
 Number of steps in this run=    164 maximum allowed number of steps=    198.
 GradGradGradGradGradGradGradGradGradGradGradGradGradGradGradGradGradGrad

                          Input orientation:                          
 ---------------------------------------------------------------------
 Center     Atomic      Atomic             Coordinates (Angstroms)
 Number     Number       Type             X           Y           Z
 ---------------------------------------------------------------------
      1          7           0        1.418700    0.128700    0.123000
      2          6           0        0.481000   -0.882800   -0.043300
      3          7           0       -0.797700   -0.860400   -0.009300
      4          6           0       -1.846300    0.130300    0.102300
      5          6           0       -2.319040    0.652640   -1.256510
      6          6           0       -3.043450   -0.625330    0.741500
      7          6           0       -1.474770    1.243280    1.090170
      8          7           0        1.052000   -2.111800   -0.373600
      9          6           0        0.468920   -3.395080    0.004110
     10          6           0        1.941700   -2.216210   -1.534450
     11          6           0        2.752480   -0.118950    0.682630
     12          6           0        1.338670    1.445950   -0.480400
     13          1           0       -2.219340   -0.109190   -2.037570
     14          1           0       -1.769780    1.542040   -1.567460
     15          1           0       -3.371750    0.959170   -1.233230
     16          1           0       -3.234240   -1.575670    0.228830
     17          1           0       -3.965020   -0.029340    0.704460
     18          1           0       -2.852210   -0.859140    1.793530
     19          1           0       -0.559720    1.770180    0.830850
     20          1           0       -1.309040    0.839270    2.095860
     21          1           0       -2.275110    1.989250    1.159080
     22          1           0       -0.305570   -3.311880    0.774240
     23          1           0        1.254510   -4.054460    0.391160
     24          1           0        0.013640   -3.884940   -0.861740
     25          1           0        2.366810   -1.253460   -1.838080
     26          1           0        1.411930   -2.644830   -2.392750
     27          1           0        2.788880   -2.866240   -1.291630
     28          1           0        2.869160   -1.114060    1.127150
     29          1           0        2.961710    0.618020    1.467240
     30          1           0        3.510190   -0.023560   -0.093090
     31          1           0        0.344530    1.697880   -0.831900
     32          1           0        2.054100    1.537910   -1.301850
     33          1           0        1.596170    2.216160    0.257090
 ---------------------------------------------------------------------
                    Distance matrix (angstroms):
                    1          2          3          4          5
     1  N    0.000000
     2  C    1.389269   0.000000
     3  N    2.430689   1.279348   0.000000
     4  C    3.265066   2.542419   1.446894   0.000000
     5  C    4.018490   3.416091   2.481793   1.530584   0.000000
     6  C    4.567481   3.619938   2.379570   1.553294   2.479924
     7  C    3.248057   3.103225   2.468345   1.533834   2.562919
     8  N    2.323988   1.394841   2.262765   3.695083   4.448097
     9  C    3.651471   2.512756   2.833568   4.218790   5.074044
    10  C    2.918779   2.476925   3.415936   4.746999   5.144070
    11  C    1.467476   2.504009   3.692194   4.641949   5.484153
    12  C    1.451084   2.519867   3.178878   3.494926   3.822372
    13  H    4.237923   3.444912   2.588292   2.185305   1.095618
    14  H    3.875770   3.642653   3.023991   2.187913   1.090600
    15  H    5.047519   4.433111   3.381505   2.190357   1.096677
    16  H    4.956403   3.789081   2.550499   2.202889   2.830051
    17  H    5.417335   4.588533   3.351422   2.208406   2.649481
    18  H    4.691180   3.805889   2.733351   2.202522   3.445648
    19  H    2.666393   2.980862   2.771721   2.208004   2.949775
    20  H    3.440589   3.278075   2.753551   2.183018   3.506182
    21  H    4.263724   4.158188   3.415898   2.180907   2.761074
    22  H    3.903180   2.680950   2.620283   3.830660   4.888295
    23  H    4.194961   3.293403   3.817585   5.216386   6.135297
    24  H    4.364999   3.146604   3.245423   4.528896   5.117311
    25  H    2.579751   2.629620   3.676011   4.840471   5.092016
    26  H    3.744531   3.080795   3.707761   4.954057   5.107297
    27  H    3.584444   3.289175   4.304802   5.692731   6.202789
    28  H    2.157917   2.669596   3.847301   4.983404   5.976662
    29  H    2.104114   3.269268   4.301053   5.021742   5.941913
    30  H    2.108129   3.149089   4.389218   5.362260   5.982534
    31  H    2.127910   2.701930   2.919958   2.851276   2.892650
    32  H    2.102333   3.149354   3.944026   4.377913   4.462075
    33  H    2.099277   3.307173   3.907275   4.028073   4.479336
                    6          7          8          9         10
     6  C    0.000000
     7  C    2.464555   0.000000
     8  N    4.497305   4.447893   0.000000
     9  C    4.533432   5.145079   1.459265   0.000000
    10  C    5.706362   5.525303   1.466302   2.434334   0.000000
    11  C    5.818307   4.459978   2.824660   4.050687   3.157738
    12  C    4.998621   3.228500   3.570878   4.942346   3.858249
    13  H    2.944281   3.488025   4.181018   4.710867   4.691153
    14  H    3.413360   2.690592   4.768468   5.644180   5.282103
    15  H    2.553033   3.012879   5.453383   5.936434   6.197300
    16  H    1.096530   3.432801   4.361446   4.132087   5.505434
    17  H    1.098120   2.823062   5.537991   5.610572   6.684644
    18  H    1.094535   2.610024   4.637722   4.545648   5.991549
    19  H    3.451864   1.087284   4.372426   5.331183   5.267167
    20  H    2.643392   1.096405   4.514594   5.046413   5.751732
    21  H    2.756945   1.096250   5.498853   6.152615   6.536244
    22  H    3.835963   4.713419   2.144930   1.095380   3.403052
    23  H    5.509458   6.000303   2.097569   1.096240   2.749430
    24  H    4.747761   5.685416   2.111989   1.094047   2.637160
    25  H    6.026582   5.437471   2.147132   3.403261   1.095353
    26  H    5.809674   5.964995   2.119112   2.682738   1.095924
    27  H    6.570492   6.382777   2.104450   2.709396   1.095087
    28  H    5.945296   4.942484   2.559259   3.496487   3.026389
    29  H    6.175319   4.496164   3.806258   4.945677   4.252461
    30  H    6.633918   5.277766   3.237612   4.541577   3.057024
    31  H    4.399011   2.685306   3.901822   5.162618   4.285397
    32  H    5.902534   4.273346   3.896952   5.343474   3.762998
    33  H    5.462123   3.327340   4.407395   5.728936   4.793215
                   11         12         13         14         15
    11  C    0.000000
    12  C    2.408404   0.000000
    13  H    5.667325   4.183620   0.000000
    14  H    5.317201   3.294449   1.774730   0.000000
    15  H    6.506847   4.794973   1.765334   1.737169   0.000000
    16  H    6.178089   5.526726   2.883948   3.884767   2.929495
    17  H    6.718133   5.631119   3.251539   3.528446   2.254720
    18  H    5.761469   5.296005   3.954779   4.270079   3.568956
    19  H    3.815947   2.329890   3.809751   2.695957   3.581295
    20  H    4.405831   3.743734   4.337449   3.758468   3.918161
    21  H    5.472492   4.005306   3.824282   2.808803   2.826098
    22  H    4.422088   5.187928   4.671832   5.584623   5.627900
    23  H    4.221032   5.569669   5.790641   6.656075   7.012661
    24  H    4.906017   5.506316   4.541483   5.755931   5.921509
    25  H    2.791027   3.191736   4.730954   4.999943   6.180020
    26  H    4.199417   4.516296   4.443168   5.322994   6.100565
    27  H    3.383287   4.621275   5.765416   6.347472   7.251933
    28  H    1.096110   3.388254   6.076022   5.986281   6.987033
    29  H    1.096592   2.667026   6.297286   5.696509   6.893594
    30  H    1.088561   2.650466   6.051103   5.701136   7.044627
    31  H    3.375336   1.084129   3.360442   2.244023   3.810183
    32  H    2.677887   1.093196   4.638589   3.833096   5.457059
    33  H    2.640242   1.097006   5.023030   3.887549   5.336788
                   16         17         18         19         20
    16  H    0.000000
    17  H    1.775218   0.000000
    18  H    1.762852   1.764366   0.000000
    19  H    4.325529   3.853611   3.618783   0.000000
    20  H    3.608896   3.121651   2.314600   1.740208   0.000000
    21  H    3.807092   2.671550   2.974710   1.760196   1.770114
    22  H    3.448044   4.916453   3.679709   5.088726   4.470534
    23  H    5.130266   6.598730   5.389050   6.116469   5.781556
    24  H    4.131682   5.757462   4.941561   5.930766   5.728441
    25  H    5.978938   6.932175   6.370420   4.982987   5.776441
    26  H    5.440835   6.733876   6.236707   5.811309   6.300020
    27  H    6.344710   7.592598   6.735619   6.100363   6.480651
    28  H    6.186401   6.932626   5.765685   4.490418   4.712882
    29  H    6.688478   6.998607   6.007506   3.759379   4.322432
    30  H    6.928204   7.517638   6.688622   4.542613   5.362924
    31  H    4.964763   4.890390   4.863166   1.894105   3.470343
    32  H    6.324864   6.535393   6.276871   3.381481   4.831484
    33  H    6.140980   6.014087   5.621939   2.275074   3.703667
                   21         22         23         24         25
    21  H    0.000000
    22  H    5.668260   0.000000
    23  H    7.040905   1.769753   0.000000
    24  H    6.620287   1.762590   1.771512   0.000000
    25  H    6.406681   4.266488   3.748643   3.662695   0.000000
    26  H    6.905393   3.663958   3.124419   2.416005   1.776335
    27  H    7.431403   3.747270   2.568646   2.987392   1.754369
    28  H    6.007917   3.877353   3.434345   4.448309   3.010710
    29  H    5.422132   5.157469   5.089651   5.864462   3.844670
    30  H    6.252122   5.111295   4.644432   5.265638   2.421768
    31  H    3.303243   5.300944   5.950912   5.592697   3.716507
    32  H    5.000194   5.779157   5.897477   5.810721   2.859559
    33  H    3.981442   5.868840   6.281352   6.401531   4.125759
                   26         27         28         29         30
    26  H    0.000000
    27  H    1.776930   0.000000
    28  H    4.105663   2.987821   0.000000
    29  H    5.286542   4.447618   1.767577   0.000000
    30  H    4.069667   3.168220   1.757582   1.774003   0.000000
    31  H    4.736531   5.197826   4.256600   3.647160   3.678396
    32  H    4.370098   4.465036   3.687453   3.055784   2.453464
    33  H    5.539388   5.445354   3.669860   2.425534   2.966891
                   31         32         33
    31  H    0.000000
    32  H    1.780189   0.000000
    33  H    1.738136   1.760686   0.000000
 Stoichiometry    C9H21N3
 Framework group  C1[X(C9H21N3)]
 Deg. of freedom    93
 Full point group                 C1      NOp   1
 Largest Abelian subgroup         C1      NOp   1
 Largest concise Abelian subgroup C1      NOp   1
                         Standard orientation:                         
 ---------------------------------------------------------------------
 Center     Atomic      Atomic             Coordinates (Angstroms)
 Number     Number       Type             X           Y           Z
 ---------------------------------------------------------------------
      1          7           0       -0.979899    1.209403   -0.217595
      2          6           0       -0.565392   -0.113460   -0.126561
      3          7           0        0.604538   -0.627861   -0.068359
      4          6           0        1.971711   -0.164467    0.029655
      5          6           0        2.449733   -0.021628    1.476644
      6          6           0        2.822350   -1.288801   -0.622272
      7          6           0        2.209567    1.090150   -0.820054
      8          7           0       -1.624287   -1.013596   -0.007919
      9          6           0       -1.576364   -2.380623   -0.516245
     10          6           0       -2.611272   -0.844263    1.063169
     11          6           0       -2.220463    1.600357   -0.897038
     12          6           0       -0.441210    2.306636    0.564414
     13          1           0        1.954092   -0.741503    2.137326
     14          1           0        2.279315    0.982177    1.867466
     15          1           0        3.530167   -0.185650    1.568626
     16          1           0        2.544620   -2.275346   -0.232433
     17          1           0        3.895308   -1.142261   -0.440188
     18          1           0        2.680124   -1.318986   -1.707107
     19          1           0        1.566195    1.925688   -0.555225
     20          1           0        2.015233    0.891260   -1.880610
     21          1           0        3.246939    1.433100   -0.730562
     22          1           0       -0.749217   -2.557890   -1.212133
     23          1           0       -2.510193   -2.608174   -1.043432
     24          1           0       -1.468927   -3.096647    0.303941
     25          1           0       -2.638504    0.174197    1.465406
     26          1           0       -2.410496   -1.535648    1.889441
     27          1           0       -3.614318   -1.051226    0.675510
     28          1           0       -2.679629    0.794027   -1.480522
     29          1           0       -2.014014    2.428085   -1.586067
     30          1           0       -2.960055    1.931158   -0.170031
     31          1           0        0.518880    2.082251    1.015206
     32          1           0       -1.149454    2.612198    1.339074
     33          1           0       -0.270491    3.180163   -0.076855
 ---------------------------------------------------------------------
 Rotational constants (GHZ):           1.1868544           0.6876624           0.5312949
 Standard basis: 6-31G(d) (6D, 7F)
 There are   222 symmetry adapted cartesian basis functions of A   symmetry.
 There are   222 symmetry adapted basis functions of A   symmetry.
   222 basis functions,   420 primitive gaussians,   222 cartesian basis functions
    48 alpha electrons       48 beta electrons
       nuclear repulsion energy       802.8299163835 Hartrees.
 NAtoms=   33 NActive=   33 NUniq=   33 SFac= 1.00D+00 NAtFMM=   60 NAOKFM=F Big=F
 Integral buffers will be    131072 words long.
 Raffenetti 2 integral format.
 Two-electron integral symmetry is turned on.
 One-electron integrals computed using PRISM.
 NBasis=   222 RedAO= T EigKep=  1.81D-03  NBF=   222
 NBsUse=   222 1.00D-06 EigRej= -1.00D+00 NBFU=   222
 ExpMin= 1.61D-01 ExpMax= 4.17D+03 ExpMxC= 6.27D+02 IAcc=3 IRadAn=         5 AccDes= 0.00D+00
 Harris functional with IExCor=  402 and IRadAn=       5 diagonalized for initial guess.
 HarFok:  IExCor=  402 AccDes= 0.00D+00 IRadAn=         5 IDoV= 1 UseB2=F ITyADJ=14
 ICtDFT=  3500011 ScaDFX=  1.000000  1.000000  1.000000  1.000000
 FoFCou: FMM=F IPFlag=           0 FMFlag=      100000 FMFlg1=           0
         NFxFlg=           0 DoJE=T BraDBF=F KetDBF=T FulRan=T
         wScrn=  0.000000 ICntrl=       500 IOpCl=  0 I1Cent=   200000004 NGrid=           0
         NMat0=    1 NMatS0=      1 NMatT0=    0 NMatD0=    1 NMtDS0=    0 NMtDT0=    0
 Petite list used in FoFCou.
 Gradient too large for Newton-Raphson -- use scaled steepest descent instead.
     Minimum is close to point  3 DX=  4.85D-03 DF= -5.67D-05 DXR=  1.20D-02 DFR=  1.44D-04 which will be used.
 Gradient too large for Newton-Raphson -- use scaled steepest descent instead.
 Gradient too large for Newton-Raphson -- use scaled steepest descent instead.
 Gradient too large for Newton-Raphson -- use scaled steepest descent instead.
     Minimum is close to point  2 DX=  4.24D-02 DF= -1.27D-05 DXR=  9.59D-02 DFR=  9.28D-03 which will be used.
 Gradient too large for Newton-Raphson -- use scaled steepest descent instead.
 Gradient too large for Newton-Raphson -- use scaled steepest descent instead.
     Accept linear search using points  1 and  2.
 Gradient too large for Newton-Raphson -- use scaled steepest descent instead.
     Accept linear search using points  2 and  3.
 LinEq1:  Iter=  0 NonCon=     1 RMS=1.75D-05 Max=1.26D-03 NDo=     1
 AX will form     1 AO Fock derivatives at one time.
 LinEq1:  Iter=  1 NonCon=     1 RMS=1.84D-05 Max=1.09D-03 NDo=     1
 LinEq1:  Iter=  2 NonCon=     1 RMS=2.71D-06 Max=7.77D-05 NDo=     1
 LinEq1:  Iter=  3 NonCon=     1 RMS=9.98D-07 Max=2.89D-05 NDo=     1
 LinEq1:  Iter=  4 NonCon=     1 RMS=5.82D-07 Max=1.22D-05 NDo=     1
 LinEq1:  Iter=  5 NonCon=     1 RMS=1.76D-07 Max=2.12D-06 NDo=     1
 LinEq1:  Iter=  6 NonCon=     1 RMS=1.03D-07 Max=5.07D-06 NDo=     1
 LinEq1:  Iter=  7 NonCon=     1 RMS=5.42D-08 Max=8.70D-07 NDo=     1
 LinEq1:  Iter=  8 NonCon=     1 RMS=1.80D-08 Max=4.03D-07 NDo=     1
 LinEq1:  Iter=  9 NonCon=     0 RMS=5.75D-09 Max=1.09D-07 NDo=     1
 Linear equations converged to 1.179D-08 1.179D-07 after     9 iterations.
 Restarting incremental Fock formation.
     Accept linear search using points  1 and  2.
     Minimum is close to point  2 DX= -5.75D-04 DF= -4.55D-13 DXR=  5.76D-04 DFR=  3.39D-07 which will be used.
 SCF Done:  E(RB3LYP) =  -519.804712085     a.u. after    9 cycles
            Convg  =    0.9487D-06                    30 Fock formations.
              S**2 =  0.0000                  -V/T =  2.0097
 DoSCS=F DFT=T ScalE2(SS,OS)=  1.000000  1.000000
 Range of M.O.s used for correlation:     1   222
 NBasis=   222 NAE=    48 NBE=    48 NFC=     0 NFV=     0
 NROrb=    222 NOA=    48 NOB=    48 NVA=   174 NVB=   174
 Symmetrizing basis deriv contribution to polar:
 IMax=3 JMax=2 DiffMx= 0.00D+00
 G2DrvN: will do    34 centers at a time, making    1 passes.
 Calling FoFCou, ICntrl=  3107 FMM=F I1Cent=   0 AccDes= 0.00D+00.
 End of G2Drv F.D. properties file   721 does not exist.
 End of G2Drv F.D. properties file   722 does not exist.
 End of G2Drv F.D. properties file   788 does not exist.
          IDoAtm=111111111111111111111111111111111
          Differentiating once with respect to electric field.
                with respect to dipole field.
          Differentiating once with respect to nuclear coordinates.
 Keep R1 ints in memory in canonical form, NReq=311927571.
          There are   102 degrees of freedom in the 1st order CPHF.  IDoFFX=6 NUNeed=     3.
     99 vectors produced by pass  0 Test12= 8.35D-15 1.00D-09 XBig12= 1.08D+02 4.85D+00.
 AX will form    99 AO Fock derivatives at one time.
     99 vectors produced by pass  1 Test12= 8.35D-15 1.00D-09 XBig12= 1.47D+01 7.53D-01.
     99 vectors produced by pass  2 Test12= 8.35D-15 1.00D-09 XBig12= 7.50D-02 3.88D-02.
     99 vectors produced by pass  3 Test12= 8.35D-15 1.00D-09 XBig12= 1.71D-04 1.27D-03.
     99 vectors produced by pass  4 Test12= 8.35D-15 1.00D-09 XBig12= 1.58D-07 3.49D-05.
     42 vectors produced by pass  5 Test12= 8.35D-15 1.00D-09 XBig12= 9.76D-11 9.13D-07.
      4 vectors produced by pass  6 Test12= 8.35D-15 1.00D-09 XBig12= 5.81D-14 3.05D-08.
      1 vectors produced by pass  7 Test12= 8.35D-15 1.00D-09 XBig12= 4.02D-17 1.11D-09.
 InvSVY:  IOpt=1 It=  1 EMax= 7.99D-15
 Solved reduced A of dimension   542 with   102 vectors.
 Isotropic polarizability for W=    0.000000      121.43 Bohr**3.
 End of Minotr F.D. properties file   721 does not exist.
 End of Minotr F.D. properties file   722 does not exist.
 End of Minotr F.D. properties file   788 does not exist.

 **********************************************************************

            Population analysis using the SCF density.

 **********************************************************************

 Orbital symmetries:
       Occupied  (A) (A) (A) (A) (A) (A) (A) (A) (A) (A) (A) (A)
                 (A) (A) (A) (A) (A) (A) (A) (A) (A) (A) (A) (A)
                 (A) (A) (A) (A) (A) (A) (A) (A) (A) (A) (A) (A)
                 (A) (A) (A) (A) (A) (A) (A) (A) (A) (A) (A) (A)
       Virtual   (A) (A) (A) (A) (A) (A) (A) (A) (A) (A) (A) (A)
                 (A) (A) (A) (A) (A) (A) (A) (A) (A) (A) (A) (A)
                 (A) (A) (A) (A) (A) (A) (A) (A) (A) (A) (A) (A)
                 (A) (A) (A) (A) (A) (A) (A) (A) (A) (A) (A) (A)
                 (A) (A) (A) (A) (A) (A) (A) (A) (A) (A) (A) (A)
                 (A) (A) (A) (A) (A) (A) (A) (A) (A) (A) (A) (A)
                 (A) (A) (A) (A) (A) (A) (A) (A) (A) (A) (A) (A)
                 (A) (A) (A) (A) (A) (A) (A) (A) (A) (A) (A) (A)
                 (A) (A) (A) (A) (A) (A) (A) (A) (A) (A) (A) (A)
                 (A) (A) (A) (A) (A) (A) (A) (A) (A) (A) (A) (A)
                 (A) (A) (A) (A) (A) (A) (A) (A) (A) (A) (A) (A)
                 (A) (A) (A) (A) (A) (A) (A) (A) (A) (A) (A) (A)
                 (A) (A) (A) (A) (A) (A) (A) (A) (A) (A) (A) (A)
                 (A) (A) (A) (A) (A) (A) (A) (A) (A) (A) (A) (A)
                 (A) (A) (A) (A) (A) (A)
 The electronic state is 1-A.
 Alpha  occ. eigenvalues --  -14.34238 -14.32459 -14.26686 -10.26562 -10.21185
 Alpha  occ. eigenvalues --  -10.21024 -10.20852 -10.20694 -10.19501 -10.16207
 Alpha  occ. eigenvalues --  -10.15354 -10.14993  -0.96685  -0.89548  -0.86166
 Alpha  occ. eigenvalues --   -0.77157  -0.71599  -0.70133  -0.68654  -0.67512
 Alpha  occ. eigenvalues --   -0.66232  -0.64008  -0.57199  -0.52807  -0.50178
 Alpha  occ. eigenvalues --   -0.47041  -0.46691  -0.45298  -0.44115  -0.43121
 Alpha  occ. eigenvalues --   -0.42465  -0.42215  -0.40161  -0.39844  -0.38691
 Alpha  occ. eigenvalues --   -0.38242  -0.37936  -0.37423  -0.37214  -0.36452
 Alpha  occ. eigenvalues --   -0.35280  -0.34396  -0.32904  -0.31157  -0.29858
 Alpha  occ. eigenvalues --   -0.21893  -0.21041  -0.17699
 Alpha virt. eigenvalues --    0.04442   0.07424   0.09847   0.10927   0.12915
 Alpha virt. eigenvalues --    0.13376   0.14528   0.15027   0.15297   0.15932
 Alpha virt. eigenvalues --    0.16370   0.16727   0.17231   0.17393   0.17707
 Alpha virt. eigenvalues --    0.18507   0.18705   0.18872   0.19503   0.20420
 Alpha virt. eigenvalues --    0.21864   0.22046   0.22489   0.23036   0.24972
 Alpha virt. eigenvalues --    0.25674   0.26700   0.28245   0.28974   0.29911
 Alpha virt. eigenvalues --    0.34529   0.37905   0.44556   0.47525   0.50186
 Alpha virt. eigenvalues --    0.50875   0.51741   0.52709   0.53383   0.53698
 Alpha virt. eigenvalues --    0.54662   0.56147   0.59159   0.59635   0.60265
 Alpha virt. eigenvalues --    0.63648   0.66046   0.66652   0.67612   0.69642
 Alpha virt. eigenvalues --    0.71204   0.72454   0.72733   0.74378   0.75461
 Alpha virt. eigenvalues --    0.76214   0.79318   0.79463   0.80911   0.81921
 Alpha virt. eigenvalues --    0.83572   0.84590   0.86148   0.86796   0.88341
 Alpha virt. eigenvalues --    0.88852   0.89985   0.90238   0.90748   0.91210
 Alpha virt. eigenvalues --    0.91641   0.92325   0.93719   0.94000   0.94778
 Alpha virt. eigenvalues --    0.95856   0.96790   0.96933   0.97799   0.98944
 Alpha virt. eigenvalues --    0.99438   1.01005   1.02476   1.03250   1.03645
 Alpha virt. eigenvalues --    1.05010   1.07754   1.09991   1.10725   1.13287
 Alpha virt. eigenvalues --    1.15039   1.22825   1.28867   1.32091   1.35320
 Alpha virt. eigenvalues --    1.38067   1.41937   1.44066   1.45408   1.46841
 Alpha virt. eigenvalues --    1.48171   1.50603   1.51071   1.54956   1.61105
 Alpha virt. eigenvalues --    1.64948   1.65844   1.75131   1.76123   1.78232
 Alpha virt. eigenvalues --    1.81167   1.82633   1.86384   1.88537   1.88818
 Alpha virt. eigenvalues --    1.90727   1.92343   1.93717   1.94298   1.96174
 Alpha virt. eigenvalues --    1.98125   2.01640   2.03718   2.04928   2.06347
 Alpha virt. eigenvalues --    2.07604   2.08549   2.10890   2.12079   2.14137
 Alpha virt. eigenvalues --    2.15376   2.17420   2.21555   2.22336   2.23009
 Alpha virt. eigenvalues --    2.26078   2.27289   2.28681   2.29058   2.29354
 Alpha virt. eigenvalues --    2.29790   2.31804   2.33507   2.39047   2.43054
 Alpha virt. eigenvalues --    2.45210   2.46664   2.47523   2.51510   2.53190
 Alpha virt. eigenvalues --    2.57005   2.58593   2.64789   2.68857   2.73904
 Alpha virt. eigenvalues --    2.75868   2.79622   2.84583   2.89101   2.99109
 Alpha virt. eigenvalues --    3.19125   3.31990   3.99085   4.09377   4.12831
 Alpha virt. eigenvalues --    4.23058   4.24732   4.29883   4.31562   4.33671
 Alpha virt. eigenvalues --    4.35016   4.37801   4.50129   4.74661
          Condensed to atoms (all electrons):
               1          2          3          4          5          6
     1  N    6.994368   0.281625  -0.093822  -0.011181   0.000268  -0.000038
     2  C    0.281625   4.395356   0.603950  -0.054739  -0.000628   0.002394
     3  N   -0.093822   0.603950   6.939220   0.322134  -0.066097  -0.086613
     4  C   -0.011181  -0.054739   0.322134   4.644306   0.368006   0.397291
     5  C    0.000268  -0.000628  -0.066097   0.368006   5.218474  -0.071177
     6  C   -0.000038   0.002394  -0.086613   0.397291  -0.071177   5.211665
     7  C    0.008144  -0.004535  -0.064830   0.339432  -0.059940  -0.074680
     8  N   -0.126718   0.326872  -0.129104   0.008141   0.000102  -0.000146
     9  C    0.006069  -0.028133  -0.002480  -0.000401  -0.000024  -0.000043
    10  C   -0.006443  -0.031889   0.002208  -0.000216   0.000041  -0.000003
    11  C    0.299697  -0.019819   0.003897   0.000095  -0.000018   0.000008
    12  C    0.323363  -0.033126  -0.004622   0.001365  -0.001928  -0.000037
    13  H    0.000131   0.001378   0.004723  -0.027775   0.358235  -0.002735
    14  H   -0.000077   0.000500   0.000562  -0.032373   0.359380   0.006425
    15  H   -0.000002  -0.000083   0.003838  -0.025559   0.357507  -0.008756
    16  H    0.000023   0.000397   0.005239  -0.028437  -0.002926   0.356962
    17  H    0.000004  -0.000090   0.005904  -0.027999  -0.006240   0.344066
    18  H   -0.000018   0.000232  -0.000644  -0.026019   0.006182   0.363402
    19  H   -0.004508   0.001139  -0.003770  -0.029011  -0.003729   0.006346
    20  H   -0.000428   0.000989  -0.000729  -0.023992   0.005620  -0.010678
    21  H    0.000016   0.000149   0.004412  -0.023870  -0.002983  -0.002271
    22  H    0.000313   0.000534   0.010727  -0.000582   0.000029   0.000027
    23  H    0.000114   0.003223   0.000665   0.000005   0.000000  -0.000004
    24  H   -0.000195  -0.000509   0.002318  -0.000042  -0.000018   0.000008
    25  H    0.006743  -0.004028  -0.000280  -0.000014   0.000005  -0.000000
    26  H   -0.000080   0.002420   0.001503  -0.000016  -0.000017   0.000001
    27  H    0.000286   0.001421  -0.000224   0.000006   0.000000  -0.000000
    28  H   -0.026627  -0.002474   0.000029  -0.000004  -0.000000   0.000001
    29  H   -0.046924   0.001953   0.000071  -0.000010   0.000001  -0.000000
    30  H   -0.052293  -0.002378  -0.000256  -0.000006  -0.000001   0.000000
    31  H   -0.030661   0.000084   0.002545   0.001861   0.001923   0.000074
    32  H   -0.054949   0.000323  -0.000030  -0.000060  -0.000065   0.000001
    33  H   -0.045410   0.002162   0.000320  -0.000037   0.000106  -0.000003
               7          8          9         10         11         12
     1  N    0.008144  -0.126718   0.006069  -0.006443   0.299697   0.323363
     2  C   -0.004535   0.326872  -0.028133  -0.031889  -0.019819  -0.033126
     3  N   -0.064830  -0.129104  -0.002480   0.002208   0.003897  -0.004622
     4  C    0.339432   0.008141  -0.000401  -0.000216   0.000095   0.001365
     5  C   -0.059940   0.000102  -0.000024   0.000041  -0.000018  -0.001928
     6  C   -0.074680  -0.000146  -0.000043  -0.000003   0.000008  -0.000037
     7  C    5.258313  -0.000512   0.000035   0.000009  -0.000148  -0.007863
     8  N   -0.000512   6.937437   0.307927   0.319612  -0.008629   0.004255
     9  C    0.000035   0.307927   4.946037  -0.054756  -0.000012  -0.000106
    10  C    0.000009   0.319612  -0.054756   4.957687  -0.003067  -0.000492
    11  C   -0.000148  -0.008629  -0.000012  -0.003067   4.979250  -0.061054
    12  C   -0.007863   0.004255  -0.000106  -0.000492  -0.061054   4.988316
    13  H    0.006199  -0.000335   0.000034   0.000015  -0.000001   0.000076
    14  H   -0.008234  -0.000009  -0.000001  -0.000002   0.000004  -0.001810
    15  H    0.001444   0.000001   0.000000  -0.000000   0.000000   0.000064
    16  H    0.006933  -0.000162   0.000070   0.000001  -0.000000   0.000002
    17  H    0.000951   0.000000   0.000002   0.000000  -0.000000   0.000001
    18  H   -0.008370  -0.000007  -0.000035   0.000000  -0.000001   0.000002
    19  H    0.362125  -0.000023   0.000000  -0.000000   0.000077  -0.000209
    20  H    0.367107  -0.000035  -0.000004   0.000001  -0.000024   0.000305
    21  H    0.346069   0.000007  -0.000000  -0.000000   0.000001  -0.000008
    22  H    0.000034  -0.028141   0.373713   0.004661  -0.000044  -0.000005
    23  H    0.000001  -0.053661   0.374671  -0.001368   0.000015  -0.000002
    24  H    0.000002  -0.047551   0.367753  -0.004281   0.000002   0.000010
    25  H    0.000001  -0.029487   0.005009   0.373683  -0.001586  -0.000502
    26  H    0.000001  -0.052462  -0.005582   0.371873   0.000220   0.000110
    27  H   -0.000000  -0.049921   0.000466   0.377548   0.000338  -0.000038
    28  H    0.000001   0.011395  -0.000184  -0.000941   0.373991   0.004754
    29  H   -0.000006   0.000463   0.000026   0.000127   0.378352  -0.002942
    30  H    0.000012   0.000542  -0.000086   0.001063   0.365463  -0.001368
    31  H   -0.006393   0.000001  -0.000003  -0.000040   0.005247   0.374498
    32  H    0.000633   0.000145  -0.000009   0.000321  -0.004379   0.370411
    33  H   -0.001607  -0.000184   0.000006   0.000002  -0.002231   0.371603
              13         14         15         16         17         18
     1  N    0.000131  -0.000077  -0.000002   0.000023   0.000004  -0.000018
     2  C    0.001378   0.000500  -0.000083   0.000397  -0.000090   0.000232
     3  N    0.004723   0.000562   0.003838   0.005239   0.005904  -0.000644
     4  C   -0.027775  -0.032373  -0.025559  -0.028437  -0.027999  -0.026019
     5  C    0.358235   0.359380   0.357507  -0.002926  -0.006240   0.006182
     6  C   -0.002735   0.006425  -0.008756   0.356962   0.344066   0.363402
     7  C    0.006199  -0.008234   0.001444   0.006933   0.000951  -0.008370
     8  N   -0.000335  -0.000009   0.000001  -0.000162   0.000000  -0.000007
     9  C    0.000034  -0.000001   0.000000   0.000070   0.000002  -0.000035
    10  C    0.000015  -0.000002  -0.000000   0.000001   0.000000   0.000000
    11  C   -0.000001   0.000004   0.000000  -0.000000  -0.000000  -0.000001
    12  C    0.000076  -0.001810   0.000064   0.000002   0.000001   0.000002
    13  H    0.557989  -0.028736  -0.026820   0.002062   0.000439  -0.000153
    14  H   -0.028736   0.594045  -0.034113  -0.000115  -0.000006  -0.000248
    15  H   -0.026820  -0.034113   0.585432   0.000682   0.003959   0.000211
    16  H    0.002062  -0.000115   0.000682   0.573437  -0.028395  -0.029479
    17  H    0.000439  -0.000006   0.003959  -0.028395   0.616594  -0.031798
    18  H   -0.000153  -0.000248   0.000211  -0.029479  -0.031798   0.587338
    19  H   -0.000086   0.002465  -0.000065  -0.000231  -0.000128   0.000131
    20  H   -0.000173   0.000054  -0.000141   0.000099   0.000266   0.006383
    21  H   -0.000146   0.000499   0.001080  -0.000190   0.001178   0.000016
    22  H    0.000005  -0.000001  -0.000001   0.000320   0.000005   0.000198
    23  H    0.000000  -0.000000  -0.000000   0.000000   0.000000   0.000001
    24  H    0.000017   0.000000   0.000000   0.000058  -0.000001  -0.000003
    25  H    0.000001  -0.000001  -0.000000  -0.000000   0.000000   0.000000
    26  H    0.000030   0.000001   0.000000   0.000001  -0.000000  -0.000000
    27  H   -0.000000  -0.000000   0.000000  -0.000000   0.000000   0.000000
    28  H   -0.000000   0.000000   0.000000   0.000000  -0.000000  -0.000000
    29  H    0.000000  -0.000000  -0.000000   0.000000   0.000000   0.000000
    30  H    0.000000   0.000000   0.000000   0.000000   0.000000  -0.000000
    31  H   -0.000166   0.006464  -0.000099  -0.000001  -0.000004  -0.000001
    32  H    0.000010   0.000078   0.000002   0.000000  -0.000000  -0.000000
    33  H   -0.000001  -0.000011  -0.000003  -0.000000   0.000000   0.000000
              19         20         21         22         23         24
     1  N   -0.004508  -0.000428   0.000016   0.000313   0.000114  -0.000195
     2  C    0.001139   0.000989   0.000149   0.000534   0.003223  -0.000509
     3  N   -0.003770  -0.000729   0.004412   0.010727   0.000665   0.002318
     4  C   -0.029011  -0.023992  -0.023870  -0.000582   0.000005  -0.000042
     5  C   -0.003729   0.005620  -0.002983   0.000029   0.000000  -0.000018
     6  C    0.006346  -0.010678  -0.002271   0.000027  -0.000004   0.000008
     7  C    0.362125   0.367107   0.346069   0.000034   0.000001   0.000002
     8  N   -0.000023  -0.000035   0.000007  -0.028141  -0.053661  -0.047551
     9  C    0.000000  -0.000004  -0.000000   0.373713   0.374671   0.367753
    10  C   -0.000000   0.000001  -0.000000   0.004661  -0.001368  -0.004281
    11  C    0.000077  -0.000024   0.000001  -0.000044   0.000015   0.000002
    12  C   -0.000209   0.000305  -0.000008  -0.000005  -0.000002   0.000010
    13  H   -0.000086  -0.000173  -0.000146   0.000005   0.000000   0.000017
    14  H    0.002465   0.000054   0.000499  -0.000001  -0.000000   0.000000
    15  H   -0.000065  -0.000141   0.001080  -0.000001  -0.000000   0.000000
    16  H   -0.000231   0.000099  -0.000190   0.000320   0.000000   0.000058
    17  H   -0.000128   0.000266   0.001178   0.000005   0.000000  -0.000001
    18  H    0.000131   0.006383   0.000016   0.000198   0.000001  -0.000003
    19  H    0.590387  -0.033469  -0.030918  -0.000001  -0.000000   0.000000
    20  H   -0.033469   0.578305  -0.030008   0.000013   0.000000  -0.000000
    21  H   -0.030918  -0.030008   0.609542  -0.000000  -0.000000  -0.000000
    22  H   -0.000001   0.000013  -0.000000   0.520216  -0.028483  -0.027563
    23  H   -0.000000   0.000000  -0.000000  -0.028483   0.619035  -0.052452
    24  H    0.000000  -0.000000  -0.000000  -0.027563  -0.052452   0.617133
    25  H    0.000001   0.000000  -0.000000  -0.000185   0.000012  -0.000051
    26  H    0.000000  -0.000000  -0.000000  -0.000010  -0.002231   0.013017
    27  H   -0.000000   0.000000   0.000000  -0.000061   0.006586  -0.003366
    28  H    0.000006  -0.000005  -0.000000  -0.000031  -0.000153   0.000050
    29  H   -0.000009   0.000026  -0.000002   0.000003  -0.000009   0.000001
    30  H   -0.000005  -0.000001   0.000000  -0.000002   0.000024  -0.000001
    31  H    0.000514   0.000025   0.000252  -0.000000  -0.000000   0.000000
    32  H    0.000380  -0.000018  -0.000007  -0.000000   0.000000  -0.000000
    33  H    0.003017   0.000123  -0.000059   0.000000  -0.000000  -0.000000
              25         26         27         28         29         30
     1  N    0.006743  -0.000080   0.000286  -0.026627  -0.046924  -0.052293
     2  C   -0.004028   0.002420   0.001421  -0.002474   0.001953  -0.002378
     3  N   -0.000280   0.001503  -0.000224   0.000029   0.000071  -0.000256
     4  C   -0.000014  -0.000016   0.000006  -0.000004  -0.000010  -0.000006
     5  C    0.000005  -0.000017   0.000000  -0.000000   0.000001  -0.000001
     6  C   -0.000000   0.000001  -0.000000   0.000001  -0.000000   0.000000
     7  C    0.000001   0.000001  -0.000000   0.000001  -0.000006   0.000012
     8  N   -0.029487  -0.052462  -0.049921   0.011395   0.000463   0.000542
     9  C    0.005009  -0.005582   0.000466  -0.000184   0.000026  -0.000086
    10  C    0.373683   0.371873   0.377548  -0.000941   0.000127   0.001063
    11  C   -0.001586   0.000220   0.000338   0.373991   0.378352   0.365463
    12  C   -0.000502   0.000110  -0.000038   0.004754  -0.002942  -0.001368
    13  H    0.000001   0.000030  -0.000000  -0.000000   0.000000   0.000000
    14  H   -0.000001   0.000001  -0.000000   0.000000  -0.000000   0.000000
    15  H   -0.000000   0.000000   0.000000   0.000000  -0.000000   0.000000
    16  H   -0.000000   0.000001  -0.000000   0.000000   0.000000   0.000000
    17  H    0.000000  -0.000000   0.000000  -0.000000   0.000000   0.000000
    18  H    0.000000  -0.000000   0.000000  -0.000000   0.000000  -0.000000
    19  H    0.000001   0.000000  -0.000000   0.000006  -0.000009  -0.000005
    20  H    0.000000  -0.000000   0.000000  -0.000005   0.000026  -0.000001
    21  H   -0.000000  -0.000000   0.000000  -0.000000  -0.000002   0.000000
    22  H   -0.000185  -0.000010  -0.000061  -0.000031   0.000003  -0.000002
    23  H    0.000012  -0.002231   0.006586  -0.000153  -0.000009   0.000024
    24  H   -0.000051   0.013017  -0.003366   0.000050   0.000001  -0.000001
    25  H    0.553143  -0.030952  -0.030105  -0.000503   0.000144   0.000632
    26  H   -0.030952   0.607192  -0.051388   0.000160   0.000001  -0.000049
    27  H   -0.030105  -0.051388   0.605147  -0.000550  -0.000045   0.000280
    28  H   -0.000503   0.000160  -0.000550   0.523164  -0.026415  -0.031145
    29  H    0.000144   0.000001  -0.000045  -0.026415   0.587740  -0.049156
    30  H    0.000632  -0.000049   0.000280  -0.031145  -0.049156   0.624828
    31  H   -0.000025   0.000007  -0.000001  -0.000196   0.000116  -0.000144
    32  H    0.000697  -0.000037   0.000003  -0.000035  -0.002388   0.011844
    33  H    0.000060   0.000000  -0.000001   0.000058   0.008727  -0.003526
              31         32         33
     1  N   -0.030661  -0.054949  -0.045410
     2  C    0.000084   0.000323   0.002162
     3  N    0.002545  -0.000030   0.000320
     4  C    0.001861  -0.000060  -0.000037
     5  C    0.001923  -0.000065   0.000106
     6  C    0.000074   0.000001  -0.000003
     7  C   -0.006393   0.000633  -0.001607
     8  N    0.000001   0.000145  -0.000184
     9  C   -0.000003  -0.000009   0.000006
    10  C   -0.000040   0.000321   0.000002
    11  C    0.005247  -0.004379  -0.002231
    12  C    0.374498   0.370411   0.371603
    13  H   -0.000166   0.000010  -0.000001
    14  H    0.006464   0.000078  -0.000011
    15  H   -0.000099   0.000002  -0.000003
    16  H   -0.000001   0.000000  -0.000000
    17  H   -0.000004  -0.000000   0.000000
    18  H   -0.000001  -0.000000   0.000000
    19  H    0.000514   0.000380   0.003017
    20  H    0.000025  -0.000018   0.000123
    21  H    0.000252  -0.000007  -0.000059
    22  H   -0.000000  -0.000000   0.000000
    23  H   -0.000000   0.000000  -0.000000
    24  H    0.000000  -0.000000  -0.000000
    25  H   -0.000025   0.000697   0.000060
    26  H    0.000007  -0.000037   0.000000
    27  H   -0.000001   0.000003  -0.000001
    28  H   -0.000196  -0.000035   0.000058
    29  H    0.000116  -0.002388   0.008727
    30  H   -0.000144   0.011844  -0.003526
    31  H    0.521559  -0.028858  -0.030762
    32  H   -0.028858   0.618628  -0.051950
    33  H   -0.030762  -0.051950   0.599187
 Mulliken charges:
               1
     1  N   -0.420789
     2  C    0.555328
     3  N   -0.460767
     4  C    0.229701
     5  C   -0.460088
     6  C   -0.431485
     7  C   -0.460327
     8  N   -0.389812
     9  C   -0.289958
    10  C   -0.305352
    11  C   -0.305643
    12  C   -0.323020
    13  H    0.155782
    14  H    0.135260
    15  H    0.141421
    16  H    0.143651
    17  H    0.121290
    18  H    0.132678
    19  H    0.139575
    20  H    0.140389
    21  H    0.127243
    22  H    0.174311
    23  H    0.134012
    24  H    0.135661
    25  H    0.157587
    26  H    0.146289
    27  H    0.143621
    28  H    0.175650
    29  H    0.150155
    30  H    0.135728
    31  H    0.182185
    32  H    0.139311
    33  H    0.150413
 Sum of Mulliken charges =   0.00000
 Mulliken charges with hydrogens summed into heavy atoms:
               1
     1  N   -0.420789
     2  C    0.555328
     3  N   -0.460767
     4  C    0.229701
     5  C   -0.027625
     6  C   -0.033865
     7  C   -0.053119
     8  N   -0.389812
     9  C    0.154026
    10  C    0.142144
    11  C    0.155890
    12  C    0.148889
 APT charges:
               1
     1  N   -0.772211
     2  C    1.309051
     3  N   -0.957551
     4  C    0.532239
     5  C   -0.001792
     6  C    0.051082
     7  C   -0.006997
     8  N   -0.839957
     9  C    0.361038
    10  C    0.395877
    11  C    0.372914
    12  C    0.332939
    13  H   -0.001421
    14  H   -0.041354
    15  H   -0.034665
    16  H   -0.013401
    17  H   -0.056183
    18  H   -0.030016
    19  H   -0.017008
    20  H   -0.024818
    21  H   -0.051174
    22  H    0.023399
    23  H   -0.076744
    24  H   -0.071724
    25  H   -0.002620
    26  H   -0.079986
    27  H   -0.064409
    28  H    0.019097
    29  H   -0.065991
    30  H   -0.073377
    31  H    0.017805
    32  H   -0.079270
    33  H   -0.052768
 Sum of APT charges =   0.00000
 APT charges with hydrogens summed into heavy atoms:
               1
     1  N   -0.772211
     2  C    1.309051
     3  N   -0.957551
     4  C    0.532239
     5  C   -0.079233
     6  C   -0.048519
     7  C   -0.099997
     8  N   -0.839957
     9  C    0.235969
    10  C    0.248863
    11  C    0.252642
    12  C    0.218705
 Electronic spatial extent (au):  <R**2>=           2465.1327
 Charge=              0.0000 electrons
 Dipole moment (field-independent basis, Debye):
    X=             -1.8337    Y=              1.4834    Z=              0.4330  Tot=              2.3980
 Quadrupole moment (field-independent basis, Debye-Ang):
   XX=            -74.0427   YY=            -74.7426   ZZ=            -76.5274
   XY=              0.4334   XZ=              0.5658   YZ=              0.7195
 Traceless Quadrupole moment (field-independent basis, Debye-Ang):
   XX=              1.0615   YY=              0.3617   ZZ=             -1.4232
   XY=              0.4334   XZ=              0.5658   YZ=              0.7195
 Octapole moment (field-independent basis, Debye-Ang**2):
  XXX=            -16.2920  YYY=              3.0889  ZZZ=             -1.8163  XYY=             -9.5112
  XXY=              0.7811  XXZ=              2.8239  XZZ=             -6.0109  YZZ=             -0.6831
  YYZ=             -0.1755  XYZ=              1.0493
 Hexadecapole moment (field-independent basis, Debye-Ang**3):
 XXXX=          -1898.6614 YYYY=          -1013.6064 ZZZZ=           -413.4723 XXXY=              2.3185
 XXXZ=             12.2079 YYYX=              3.1602 YYYZ=              1.8832 ZZZX=             -0.8000
 ZZZY=             -1.5166 XXYY=           -495.7373 XXZZ=           -387.6654 YYZZ=           -236.0435
 XXYZ=             -1.8049 YYXZ=              5.9256 ZZXY=             -2.3613
 N-N= 8.028299163835D+02 E-N=-2.810431649188D+03  KE= 5.148098082941D+02
  Exact polarizability: 144.797  -2.825 122.317   0.058  -0.121  97.173
 Approx polarizability: 188.619  -8.499 165.834   1.775   0.484 138.021
 Calling FoFJK, ICntrl=    100127 FMM=F ISym2X=0 I1Cent= 0 IOpClX= 0 NMat=1 NMatS=1 NMatT=0.
 ***** Axes restored to original set *****
 -------------------------------------------------------------------
 Center     Atomic                   Forces (Hartrees/Bohr)
 Number     Number              X              Y              Z
 -------------------------------------------------------------------
      1        7           0.013422161    0.007522597    0.006409975
      2        6          -0.024068831    0.000617910   -0.013982972
      3        7          -0.005308553   -0.007525187   -0.020997114
      4        6           0.000517441   -0.008058311    0.033655566
      5        6           0.002088450    0.004820703   -0.009790629
      6        6          -0.005856210   -0.003580614    0.000443309
      7        6          -0.003876899    0.012815649    0.005016438
      8        7           0.024186326   -0.016595604    0.007989907
      9        6          -0.003043009    0.006460958   -0.000418383
     10        6           0.001449275    0.002171573    0.011193656
     11        6          -0.006633579   -0.004437603    0.001533567
     12        6          -0.000755857    0.001666787    0.005708766
     13        1           0.001087966   -0.000740056    0.002007415
     14        1           0.005767256    0.001623965   -0.003524557
     15        1           0.000450393   -0.001088708    0.003292426
     16        1           0.001411486    0.001856820   -0.002187100
     17        1           0.001286850    0.000973043    0.000425494
     18        1           0.002463795   -0.001007470    0.000350661
     19        1          -0.002521063    0.001995066   -0.001050583
     20        1          -0.001973434   -0.002299206   -0.001225079
     21        1          -0.001363022    0.001325155    0.001455918
     22        1           0.002883826    0.007508714   -0.002779063
     23        1           0.002475151   -0.001765016   -0.000899778
     24        1          -0.003051227   -0.002846044   -0.003035153
     25        1          -0.005108900    0.000706088    0.003241861
     26        1          -0.001826491   -0.001133276   -0.003291865
     27        1           0.001807699   -0.003559444   -0.001675494
     28        1          -0.007874334    0.001990622   -0.003190362
     29        1           0.000528034    0.002309518   -0.000319514
     30        1           0.007972393    0.002027977   -0.004073190
     31        1          -0.001170298   -0.005508163   -0.005907727
     32        1           0.002687299    0.000682939   -0.005889679
     33        1           0.001945909    0.001068621    0.001513285
 -------------------------------------------------------------------
 Cartesian Forces:  Max     0.033655566 RMS     0.007062825
 FormGI is forming the generalized inverse of G from B-inverse, IUseBI=4.

 GradGradGradGradGradGradGradGradGradGradGradGradGradGradGradGradGradGrad
 Berny optimization.
 Internal  Forces:  Max     0.028557997 RMS     0.005597316
 Search for a local minimum.
 Step number   1 out of a maximum of  164
 All quantities printed in internal units (Hartrees-Bohrs-Radians)
 Mixed Optimization -- RFO/linear search
 Second derivative matrix not updated -- analytic derivatives used.
 ITU=  0
     Eigenvalues ---   -0.00191  -0.00091  -0.00008   0.00056   0.00135
     Eigenvalues ---    0.00203   0.00267   0.00332   0.00429   0.00557
     Eigenvalues ---    0.00755   0.02092   0.03884   0.04489   0.04642
     Eigenvalues ---    0.04685   0.04752   0.04792   0.04841   0.04888
     Eigenvalues ---    0.04932   0.05636   0.06250   0.06371   0.06426
     Eigenvalues ---    0.06484   0.06586   0.06600   0.06671   0.06786
     Eigenvalues ---    0.07859   0.11532   0.12128   0.12188   0.12274
     Eigenvalues ---    0.12330   0.12520   0.12933   0.13177   0.13246
     Eigenvalues ---    0.13970   0.14577   0.15183   0.15393   0.15923
     Eigenvalues ---    0.15986   0.16097   0.16214   0.17275   0.17555
     Eigenvalues ---    0.17732   0.18098   0.18166   0.18274   0.19477
     Eigenvalues ---    0.20054   0.21082   0.21864   0.23387   0.26051
     Eigenvalues ---    0.28046   0.29329   0.30440   0.32340   0.32879
     Eigenvalues ---    0.32907   0.33032   0.33100   0.33124   0.33263
     Eigenvalues ---    0.33471   0.33532   0.33621   0.33740   0.33846
     Eigenvalues ---    0.33986   0.34193   0.34228   0.34411   0.34556
     Eigenvalues ---    0.34749   0.34863   0.35183   0.36048   0.36315
     Eigenvalues ---    0.36504   0.36896   0.37037   0.38143   0.40834
     Eigenvalues ---    0.50878   0.70501   1.01543
 RFO step:  Lambda=-2.88282756D-02 EMin=-1.90628810D-03
 Linear search not attempted -- first point.
 Iteration  1 RMS(Cart)=  0.20847576 RMS(Int)=  0.03288494
 Iteration  2 RMS(Cart)=  0.10261880 RMS(Int)=  0.00385064
 Iteration  3 RMS(Cart)=  0.00495299 RMS(Int)=  0.00313904
 Iteration  4 RMS(Cart)=  0.00001157 RMS(Int)=  0.00313903
 Iteration  5 RMS(Cart)=  0.00000003 RMS(Int)=  0.00313903
 Variable       Old X    -DE/DX   Delta X   Delta X   Delta X     New X
                                 (Linear)    (Quad)   (Total)
    R1        2.62534   0.01166   0.00000   0.02561   0.02561   2.65095
    R2        2.77313  -0.00809   0.00000  -0.02553  -0.02553   2.74760
    R3        2.74215  -0.00014   0.00000  -0.00131  -0.00131   2.74084
    R4        2.41762   0.00605   0.00000   0.00939   0.00939   2.42701
    R5        2.63587   0.01363   0.00000   0.02936   0.02936   2.66523
    R6        2.73423   0.00852   0.00000   0.04073   0.04073   2.77496
    R7        2.89238   0.00579   0.00000   0.02867   0.02867   2.92105
    R8        2.93530   0.00099   0.00000  -0.00630  -0.00630   2.92900
    R9        2.89853   0.01039   0.00000   0.02302   0.02302   2.92154
   R10        2.07042  -0.00082   0.00000  -0.00129  -0.00129   2.06913
   R11        2.06094   0.00523   0.00000   0.00726   0.00726   2.06819
   R12        2.07242  -0.00067   0.00000  -0.00206  -0.00206   2.07036
   R13        2.07214  -0.00083   0.00000  -0.00341  -0.00341   2.06873
   R14        2.07515  -0.00057   0.00000  -0.00220  -0.00220   2.07295
   R15        2.06837   0.00098   0.00000   0.00227   0.00227   2.07064
   R16        2.05467  -0.00090   0.00000   0.00806   0.00806   2.06273
   R17        2.07190  -0.00057   0.00000  -0.00155  -0.00155   2.07036
   R18        2.07161   0.00199   0.00000   0.00160   0.00160   2.07321
   R19        2.75761  -0.00978   0.00000  -0.01266  -0.01266   2.74496
   R20        2.77091  -0.00960   0.00000  -0.02171  -0.02171   2.74920
   R21        2.06997  -0.00342   0.00000  -0.01058  -0.01058   2.05938
   R22        2.07159   0.00252   0.00000   0.00169   0.00169   2.07328
   R23        2.06745   0.00495   0.00000   0.01533   0.01533   2.08278
   R24        2.06992  -0.00226   0.00000  -0.00536  -0.00536   2.06456
   R25        2.07100   0.00390   0.00000   0.01531   0.01531   2.08630
   R26        2.06941   0.00314   0.00000   0.00190   0.00190   2.07131
   R27        2.07135  -0.00394   0.00000  -0.01330  -0.01330   2.05805
   R28        2.07226   0.00142   0.00000   0.00454   0.00454   2.07680
   R29        2.05708   0.00863   0.00000   0.02400   0.02400   2.08108
   R30        2.04871   0.00171   0.00000   0.00587   0.00587   2.05458
   R31        2.06584   0.00624   0.00000   0.01743   0.01743   2.08327
   R32        2.07304   0.00222   0.00000   0.00385   0.00385   2.07689
    A1        2.13678  -0.00395   0.00000  -0.01150  -0.01190   2.12488
    A2        2.18209  -0.00219   0.00000  -0.03831  -0.03851   2.14359
    A3        1.94110   0.00573   0.00000   0.03915   0.03853   1.97964
    A4        2.28987   0.00294   0.00000  -0.01064  -0.01104   2.27883
    A5        1.97529  -0.01218   0.00000  -0.01210  -0.01249   1.96280
    A6        2.01626   0.00960   0.00000   0.02562   0.02523   2.04149
    A7        2.40148   0.00231   0.00000  -0.17174  -0.17174   2.22975
    A8        1.97038  -0.00877   0.00000  -0.02817  -0.02805   1.94233
    A9        1.83093  -0.00258   0.00000  -0.01261  -0.01305   1.81788
   A10        1.95085   0.01269   0.00000   0.03320   0.03305   1.98390
   A11        1.86847   0.00790   0.00000   0.00821   0.00823   1.87670
   A12        1.98117  -0.00465   0.00000  -0.01723  -0.01720   1.96398
   A13        1.84901  -0.00432   0.00000   0.01915   0.01912   1.86813
   A14        1.94710  -0.00300   0.00000  -0.02281  -0.02295   1.92415
   A15        1.95614   0.00133   0.00000   0.02073   0.02085   1.97699
   A16        1.95306  -0.00383   0.00000  -0.02225  -0.02240   1.93066
   A17        1.89439  -0.00018   0.00000  -0.00496  -0.00484   1.88955
   A18        1.87218   0.00316   0.00000   0.01392   0.01351   1.88568
   A19        1.83542   0.00300   0.00000   0.01775   0.01787   1.85329
   A20        1.94262  -0.00349   0.00000  -0.02186  -0.02199   1.92063
   A21        1.94862  -0.00047   0.00000  -0.00110  -0.00111   1.94751
   A22        1.94420  -0.00154   0.00000  -0.01268  -0.01278   1.93142
   A23        1.88450   0.00199   0.00000   0.01333   0.01331   1.89781
   A24        1.86988   0.00225   0.00000   0.01105   0.01083   1.88072
   A25        1.87024   0.00164   0.00000   0.01370   0.01372   1.88396
   A26        1.98437   0.00169   0.00000  -0.00125  -0.00124   1.98313
   A27        1.93906  -0.00440   0.00000  -0.02146  -0.02156   1.91750
   A28        1.93629   0.00128   0.00000  -0.00888  -0.00900   1.92729
   A29        1.84432   0.00255   0.00000   0.02331   0.02334   1.86766
   A30        1.87513  -0.00153   0.00000   0.00738   0.00738   1.88251
   A31        1.87910   0.00047   0.00000   0.00329   0.00306   1.88216
   A32        2.15314  -0.01112   0.00000  -0.09612  -0.11132   2.04182
   A33        2.09278   0.00304   0.00000  -0.04953  -0.06984   2.02294
   A34        1.96573   0.00744   0.00000   0.02040  -0.00402   1.96171
   A35        1.97981  -0.01193   0.00000  -0.06265  -0.06277   1.91703
   A36        1.91134   0.00135   0.00000  -0.01018  -0.01052   1.90082
   A37        1.93391   0.00387   0.00000   0.03222   0.03234   1.96625
   A38        1.87983   0.00502   0.00000   0.03095   0.03036   1.91020
   A39        1.87151   0.00279   0.00000   0.00576   0.00608   1.87759
   A40        1.88423  -0.00062   0.00000   0.00709   0.00701   1.89124
   A41        1.97399  -0.00826   0.00000  -0.04158  -0.04157   1.93242
   A42        1.93325   0.00062   0.00000   0.01961   0.01962   1.95287
   A43        1.91360   0.00448   0.00000  -0.00007  -0.00014   1.91346
   A44        1.89049   0.00176   0.00000   0.00134   0.00142   1.89190
   A45        1.85766   0.00323   0.00000   0.02413   0.02407   1.88173
   A46        1.89175  -0.00160   0.00000  -0.00214  -0.00221   1.88954
   A47        1.98736  -0.01193   0.00000  -0.06463  -0.06453   1.92282
   A48        1.91013   0.00041   0.00000   0.00013  -0.00006   1.91007
   A49        1.92421   0.00598   0.00000   0.03250   0.03270   1.95692
   A50        1.87513   0.00465   0.00000   0.02904   0.02874   1.90387
   A51        1.86968   0.00331   0.00000   0.01889   0.01935   1.88903
   A52        1.89460  -0.00216   0.00000  -0.01453  -0.01460   1.87999
   A53        1.97833  -0.00537   0.00000  -0.03791  -0.03802   1.94030
   A54        1.93128   0.00078   0.00000   0.00717   0.00694   1.93822
   A55        1.92288   0.00152   0.00000   0.00797   0.00801   1.93088
   A56        1.91446  -0.00147   0.00000  -0.01217  -0.01251   1.90195
   A57        1.84425   0.00489   0.00000   0.03527   0.03542   1.87967
   A58        1.86762   0.00010   0.00000   0.00291   0.00284   1.87046
    D1        2.61184  -0.00761   0.00000   0.03758   0.03720   2.64904
    D2       -0.59752  -0.00058   0.00000   0.09371   0.09272  -0.50480
    D3       -0.78006  -0.00904   0.00000  -0.01360  -0.01261  -0.79268
    D4        2.29376  -0.00201   0.00000   0.04253   0.04290   2.33667
    D5       -0.19286  -0.00185   0.00000  -0.06514  -0.06525  -0.25812
    D6       -2.29150  -0.00015   0.00000  -0.05934  -0.05985  -2.35135
    D7        1.90896  -0.00141   0.00000  -0.06146  -0.06209   1.84688
    D8       -3.11510   0.00023   0.00000  -0.01113  -0.01041  -3.12551
    D9        1.06944   0.00193   0.00000  -0.00534  -0.00501   1.06443
   D10       -1.01328   0.00067   0.00000  -0.00745  -0.00724  -1.02052
   D11        0.30990  -0.00310   0.00000   0.00659   0.00683   0.31673
   D12       -1.84919   0.00221   0.00000   0.04520   0.04514  -1.80405
   D13        2.37222   0.00066   0.00000   0.03220   0.03215   2.40437
   D14       -3.05790  -0.00547   0.00000  -0.04466  -0.04451  -3.10240
   D15        1.06620  -0.00016   0.00000  -0.00605  -0.00620   1.06000
   D16       -0.99557  -0.00171   0.00000  -0.01905  -0.01918  -1.01476
   D17        0.09804  -0.02207   0.00000  -0.29046  -0.29028  -0.19224
   D18       -2.97452  -0.02856   0.00000  -0.34643  -0.34661   2.96205
   D19        2.61183   0.00041   0.00000   0.13482   0.12701   2.73885
   D20       -0.95673   0.00045   0.00000  -0.21641  -0.20911  -1.16584
   D21       -0.58625   0.00616   0.00000   0.18036   0.17306  -0.41319
   D22        2.12837   0.00619   0.00000  -0.17086  -0.16306   1.96532
   D23        1.57695  -0.01175   0.00000  -0.02437  -0.02471   1.55224
   D24       -2.67775  -0.00828   0.00000  -0.03635  -0.03612  -2.71387
   D25       -0.68191  -0.00881   0.00000  -0.00517  -0.00505  -0.68696
   D26        0.52819  -0.00233   0.00000   0.01582   0.01549   0.54368
   D27       -1.60029  -0.00088   0.00000   0.02388   0.02369  -1.57660
   D28        2.62589  -0.00301   0.00000   0.00241   0.00236   2.62825
   D29       -1.47782   0.00068   0.00000   0.04115   0.04102  -1.43680
   D30        2.67688   0.00213   0.00000   0.04921   0.04923   2.72611
   D31        0.61987  -0.00000   0.00000   0.02774   0.02789   0.64777
   D32        2.77142   0.00354   0.00000   0.02207   0.02211   2.79352
   D33        0.64294   0.00499   0.00000   0.03013   0.03031   0.67325
   D34       -1.41407   0.00286   0.00000   0.00866   0.00897  -1.40510
   D35       -0.84609   0.00548   0.00000   0.00877   0.00861  -0.83748
   D36       -2.95339   0.00568   0.00000   0.00765   0.00754  -2.94585
   D37        1.23960   0.00496   0.00000  -0.00039  -0.00043   1.23917
   D38        1.25149  -0.00211   0.00000  -0.02616  -0.02626   1.22522
   D39       -0.85581  -0.00191   0.00000  -0.02727  -0.02734  -0.88315
   D40       -2.94601  -0.00263   0.00000  -0.03532  -0.03531  -2.98132
   D41       -2.91215  -0.00574   0.00000  -0.03179  -0.03168  -2.94383
   D42        1.26374  -0.00554   0.00000  -0.03290  -0.03276   1.23098
   D43       -0.82646  -0.00626   0.00000  -0.04095  -0.04073  -0.86718
   D44        1.01924  -0.00095   0.00000   0.01593   0.01565   1.03490
   D45       -1.05854  -0.00224   0.00000   0.00211   0.00191  -1.05664
   D46        3.13495  -0.00078   0.00000   0.01804   0.01770  -3.13053
   D47       -1.23396   0.00409   0.00000   0.04077   0.04080  -1.19315
   D48        2.97144   0.00280   0.00000   0.02695   0.02706   2.99850
   D49        0.88175   0.00426   0.00000   0.04288   0.04286   0.92461
   D50        3.00390  -0.00025   0.00000   0.02797   0.02820   3.03210
   D51        0.92612  -0.00154   0.00000   0.01415   0.01446   0.94057
   D52       -1.16357  -0.00008   0.00000   0.03008   0.03025  -1.13332
   D53       -0.25461  -0.00042   0.00000  -0.31838  -0.31629  -0.57090
   D54       -2.35510   0.00014   0.00000  -0.30904  -0.30753  -2.66263
   D55        1.85142  -0.00233   0.00000  -0.33121  -0.32965   1.52177
   D56       -2.99676   0.00012   0.00000   0.02312   0.02176  -2.97499
   D57        1.18593   0.00068   0.00000   0.03246   0.03052   1.21646
   D58       -0.89073  -0.00179   0.00000   0.01029   0.00841  -0.88232
   D59        0.36235   0.00069   0.00000   0.33767   0.33959   0.70194
   D60       -1.76370   0.00381   0.00000   0.35104   0.35307  -1.41063
   D61        2.43250   0.00254   0.00000   0.34147   0.34345   2.77594
   D62        3.11987  -0.00349   0.00000  -0.00334  -0.00537   3.11450
   D63        0.99382  -0.00037   0.00000   0.01003   0.00811   1.00193
   D64       -1.09317  -0.00165   0.00000   0.00046  -0.00151  -1.09468
         Item               Value     Threshold  Converged?
 Maximum Force            0.028558     0.000450     NO 
 RMS     Force            0.005597     0.000300     NO 
 Maximum Displacement     0.892281     0.001800     NO 
 RMS     Displacement     0.281929     0.001200     NO 
 Predicted change in Energy=-2.146426D-02
 GradGradGradGradGradGradGradGradGradGradGradGradGradGradGradGradGradGrad

                          Input orientation:                          
 ---------------------------------------------------------------------
 Center     Atomic      Atomic             Coordinates (Angstroms)
 Number     Number       Type             X           Y           Z
[...]
   XY=             -0.2937   XZ=             -0.3599   YZ=              0.3636
 Traceless Quadrupole moment (field-independent basis, Debye-Ang):
   XX=              1.0007   YY=              0.9992   ZZ=             -1.9999
   XY=             -0.2937   XZ=             -0.3599   YZ=              0.3636
 Octapole moment (field-independent basis, Debye-Ang**2):
  XXX=             -7.6259  YYY=              0.7719  ZZZ=             -3.6740  XYY=             -5.3627
  XXY=              2.4533  XXZ=             -3.6724  XZZ=             -1.3695  YZZ=              1.0995
  YYZ=             -0.5914  XYZ=             -1.0838
 Hexadecapole moment (field-independent basis, Debye-Ang**3):
 XXXX=          -1823.6832 YYYY=          -1017.7168 ZZZZ=           -419.7667 XXXY=              5.8667
 XXXZ=             -2.5503 YYYX=              4.1836 YYYZ=              2.4394 ZZZX=              3.4136
 ZZZY=              0.3481 XXYY=           -473.5330 XXZZ=           -386.9415 YYZZ=           -239.5714
 XXYZ=             -3.1664 YYXZ=              5.5496 ZZXY=             -4.1223
 N-N= 8.082617871810D+02 E-N=-2.821118820067D+03  KE= 5.149012450061D+02
 Evaluate density.
 Using the total density.
 Monte-Carlo method of calculating molar volume:
 based on  0.001 e/bohr**3 density envelope.
 Number of points per bohr**3 =   20 CutOff= 1.00D-04
 Using the CI density.
 There are       417 points.  Will hold       417 in memory.
 LenV=  1342033532 MDV=  1342177280.
 Box volume = 9074.887 fraction occupied=0.223
 Integrated density= 1.3895823409124685D+02 error= 4.2958234091246851D+01
 Molar volume = 2023.896 bohr**3/mol (180.610 cm**3/mol)
 Recommended a0 for SCRF calculation =  5.07 angstrom (  9.58 bohr)
 ******************************Gaussian NBO Version 3.1******************************
             N A T U R A L   A T O M I C   O R B I T A L   A N D
          N A T U R A L   B O N D   O R B I T A L   A N A L Y S I S
 ******************************Gaussian NBO Version 3.1******************************
       /RESON  / : Allow strongly delocalized NBO set

 Analyzing the CI density

 Job title: Title Card Required                                             

 Storage needed:    151374 in NPA (1342171505 available)


 NATURAL POPULATIONS:  Natural atomic orbital occupancies 
                                                          
   NAO  Atom  No  lang   Type(AO)    Occupancy
 --------------------------------------------
     1    N    1  S      Cor( 1S)     1.99935
     2    N    1  S      Val( 2S)     1.18672
     3    N    1  S      Ryd( 3S)     0.00085
     4    N    1  S      Ryd( 4S)     0.00002
     5    N    1  px     Val( 2p)     1.55847
     6    N    1  px     Ryd( 3p)     0.00570
     7    N    1  py     Val( 2p)     1.30475
     8    N    1  py     Ryd( 3p)     0.00109
     9    N    1  pz     Val( 2p)     1.39465
    10    N    1  pz     Ryd( 3p)     0.00173
    11    N    1  dxy    Ryd( 3d)     0.00037
    12    N    1  dxz    Ryd( 3d)     0.00058
    13    N    1  dyz    Ryd( 3d)     0.00129
    14    N    1  dx2y2  Ryd( 3d)     0.00053
    15    N    1  dz2    Ryd( 3d)     0.00041
 
    16    C    2  S      Cor( 1S)     1.99913
    17    C    2  S      Val( 2S)     0.69983
    18    C    2  S      Ryd( 3S)     0.00224
    19    C    2  S      Ryd( 4S)     0.00022
    20    C    2  px     Val( 2p)     0.85258
    21    C    2  px     Ryd( 3p)     0.00600
    22    C    2  py     Val( 2p)     0.81678
    23    C    2  py     Ryd( 3p)     0.00573
    24    C    2  pz     Val( 2p)     1.21918
    25    C    2  pz     Ryd( 3p)     0.01203
    26    C    2  dxy    Ryd( 3d)     0.00245
    27    C    2  dxz    Ryd( 3d)     0.00238
    28    C    2  dyz    Ryd( 3d)     0.00102
    29    C    2  dx2y2  Ryd( 3d)     0.00160
    30    C    2  dz2    Ryd( 3d)     0.00060
 
    31    N    3  S      Cor( 1S)     1.99898
    32    N    3  S      Val( 2S)     1.27314
    33    N    3  S      Ryd( 3S)     0.00214
    34    N    3  S      Ryd( 4S)     0.00003
    35    N    3  px     Val( 2p)     1.23445
    36    N    3  px     Ryd( 3p)     0.00200
    37    N    3  py     Val( 2p)     1.13587
    38    N    3  py     Ryd( 3p)     0.00431
    39    N    3  pz     Val( 2p)     1.67179
    40    N    3  pz     Ryd( 3p)     0.00715
    41    N    3  dxy    Ryd( 3d)     0.00082
    42    N    3  dxz    Ryd( 3d)     0.00112
    43    N    3  dyz    Ryd( 3d)     0.00072
    44    N    3  dx2y2  Ryd( 3d)     0.00031
    45    N    3  dz2    Ryd( 3d)     0.00055
 
    46    C    4  S      Cor( 1S)     1.99908
    47    C    4  S      Val( 2S)     0.90539
    48    C    4  S      Ryd( 3S)     0.00068
    49    C    4  S      Ryd( 4S)     0.00003
    50    C    4  px     Val( 2p)     0.90370
    51    C    4  px     Ryd( 3p)     0.00291
    52    C    4  py     Val( 2p)     1.02532
    53    C    4  py     Ryd( 3p)     0.00462
    54    C    4  pz     Val( 2p)     1.04963
    55    C    4  pz     Ryd( 3p)     0.00487
    56    C    4  dxy    Ryd( 3d)     0.00125
    57    C    4  dxz    Ryd( 3d)     0.00169
    58    C    4  dyz    Ryd( 3d)     0.00102
    59    C    4  dx2y2  Ryd( 3d)     0.00101
    60    C    4  dz2    Ryd( 3d)     0.00093
 
    61    C    5  S      Cor( 1S)     1.99935
    62    C    5  S      Val( 2S)     1.10195
    63    C    5  S      Ryd( 3S)     0.00084
    64    C    5  S      Ryd( 4S)     0.00002
    65    C    5  px     Val( 2p)     1.20302
    66    C    5  px     Ryd( 3p)     0.00165
    67    C    5  py     Val( 2p)     1.23345
    68    C    5  py     Ryd( 3p)     0.00216
    69    C    5  pz     Val( 2p)     1.12817
    70    C    5  pz     Ryd( 3p)     0.00242
    71    C    5  dxy    Ryd( 3d)     0.00043
    72    C    5  dxz    Ryd( 3d)     0.00035
    73    C    5  dyz    Ryd( 3d)     0.00106
    74    C    5  dx2y2  Ryd( 3d)     0.00092
    75    C    5  dz2    Ryd( 3d)     0.00063
 
    76    C    6  S      Cor( 1S)     1.99935
    77    C    6  S      Val( 2S)     1.10074
    78    C    6  S      Ryd( 3S)     0.00078
    79    C    6  S      Ryd( 4S)     0.00001
    80    C    6  px     Val( 2p)     1.19102
    81    C    6  px     Ryd( 3p)     0.00181
    82    C    6  py     Val( 2p)     1.14014
    83    C    6  py     Ryd( 3p)     0.00216
    84    C    6  pz     Val( 2p)     1.22373
    85    C    6  pz     Ryd( 3p)     0.00212
    86    C    6  dxy    Ryd( 3d)     0.00041
    87    C    6  dxz    Ryd( 3d)     0.00040
    88    C    6  dyz    Ryd( 3d)     0.00100
    89    C    6  dx2y2  Ryd( 3d)     0.00096
    90    C    6  dz2    Ryd( 3d)     0.00066
 
    91    C    7  S      Cor( 1S)     1.99931
    92    C    7  S      Val( 2S)     1.09802
    93    C    7  S      Ryd( 3S)     0.00065
    94    C    7  S      Ryd( 4S)     0.00002
    95    C    7  px     Val( 2p)     1.24345
    96    C    7  px     Ryd( 3p)     0.00148
    97    C    7  py     Val( 2p)     1.14365
    98    C    7  py     Ryd( 3p)     0.00207
    99    C    7  pz     Val( 2p)     1.16722
   100    C    7  pz     Ryd( 3p)     0.00184
   101    C    7  dxy    Ryd( 3d)     0.00043
   102    C    7  dxz    Ryd( 3d)     0.00056
   103    C    7  dyz    Ryd( 3d)     0.00068
   104    C    7  dx2y2  Ryd( 3d)     0.00097
   105    C    7  dz2    Ryd( 3d)     0.00076
 
   106    N    8  S      Cor( 1S)     1.99939
   107    N    8  S      Val( 2S)     1.23291
   108    N    8  S      Ryd( 3S)     0.00145
   109    N    8  S      Ryd( 4S)     0.00003
   110    N    8  px     Val( 2p)     1.31490
   111    N    8  px     Ryd( 3p)     0.00214
   112    N    8  py     Val( 2p)     1.28293
   113    N    8  py     Ryd( 3p)     0.00207
   114    N    8  pz     Val( 2p)     1.65303
   115    N    8  pz     Ryd( 3p)     0.00431
   116    N    8  dxy    Ryd( 3d)     0.00058
   117    N    8  dxz    Ryd( 3d)     0.00118
   118    N    8  dyz    Ryd( 3d)     0.00076
   119    N    8  dx2y2  Ryd( 3d)     0.00059
   120    N    8  dz2    Ryd( 3d)     0.00077
 
   121    C    9  S      Cor( 1S)     1.99949
   122    C    9  S      Val( 2S)     1.07933
   123    C    9  S      Ryd( 3S)     0.00111
   124    C    9  S      Ryd( 4S)     0.00003
   125    C    9  px     Val( 2p)     1.23705
   126    C    9  px     Ryd( 3p)     0.00296
   127    C    9  py     Val( 2p)     0.90601
   128    C    9  py     Ryd( 3p)     0.00201
   129    C    9  pz     Val( 2p)     1.23289
   130    C    9  pz     Ryd( 3p)     0.00151
   131    C    9  dxy    Ryd( 3d)     0.00085
   132    C    9  dxz    Ryd( 3d)     0.00092
   133    C    9  dyz    Ryd( 3d)     0.00140
   134    C    9  dx2y2  Ryd( 3d)     0.00116
   135    C    9  dz2    Ryd( 3d)     0.00071
 
   136    C   10  S      Cor( 1S)     1.99946
   137    C   10  S      Val( 2S)     1.08354
   138    C   10  S      Ryd( 3S)     0.00103
   139    C   10  S      Ryd( 4S)     0.00003
   140    C   10  px     Val( 2p)     1.00862
   141    C   10  px     Ryd( 3p)     0.00141
   142    C   10  py     Val( 2p)     1.22746
   143    C   10  py     Ryd( 3p)     0.00296
   144    C   10  pz     Val( 2p)     1.12918
   145    C   10  pz     Ryd( 3p)     0.00178
   146    C   10  dxy    Ryd( 3d)     0.00060
   147    C   10  dxz    Ryd( 3d)     0.00121
   148    C   10  dyz    Ryd( 3d)     0.00052
   149    C   10  dx2y2  Ryd( 3d)     0.00127
   150    C   10  dz2    Ryd( 3d)     0.00140
 
   151    C   11  S      Cor( 1S)     1.99946
   152    C   11  S      Val( 2S)     1.08279
   153    C   11  S      Ryd( 3S)     0.00117
   154    C   11  S      Ryd( 4S)     0.00002
   155    C   11  px     Val( 2p)     1.09032
   156    C   11  px     Ryd( 3p)     0.00137
   157    C   11  py     Val( 2p)     1.21662
   158    C   11  py     Ryd( 3p)     0.00298
   159    C   11  pz     Val( 2p)     1.06771
   160    C   11  pz     Ryd( 3p)     0.00227
   161    C   11  dxy    Ryd( 3d)     0.00079
   162    C   11  dxz    Ryd( 3d)     0.00109
   163    C   11  dyz    Ryd( 3d)     0.00135
   164    C   11  dx2y2  Ryd( 3d)     0.00101
   165    C   11  dz2    Ryd( 3d)     0.00070
 
   166    C   12  S      Cor( 1S)     1.99946
   167    C   12  S      Val( 2S)     1.08113
   168    C   12  S      Ryd( 3S)     0.00112
   169    C   12  S      Ryd( 4S)     0.00002
   170    C   12  px     Val( 2p)     1.21652
   171    C   12  px     Ryd( 3p)     0.00147
   172    C   12  py     Val( 2p)     1.09131
   173    C   12  py     Ryd( 3p)     0.00217
   174    C   12  pz     Val( 2p)     1.06509
   175    C   12  pz     Ryd( 3p)     0.00255
   176    C   12  dxy    Ryd( 3d)     0.00140
   177    C   12  dxz    Ryd( 3d)     0.00107
   178    C   12  dyz    Ryd( 3d)     0.00131
   179    C   12  dx2y2  Ryd( 3d)     0.00047
   180    C   12  dz2    Ryd( 3d)     0.00072
 
   181    H   13  S      Val( 1S)     0.76112
   182    H   13  S      Ryd( 2S)     0.00143
 
   183    H   14  S      Val( 1S)     0.77712
   184    H   14  S      Ryd( 2S)     0.00092
 
   185    H   15  S      Val( 1S)     0.77709
   186    H   15  S      Ryd( 2S)     0.00177
 
   187    H   16  S      Val( 1S)     0.76368
   188    H   16  S      Ryd( 2S)     0.00121
 
   189    H   17  S      Val( 1S)     0.77654
   190    H   17  S      Ryd( 2S)     0.00158
 
   191    H   18  S      Val( 1S)     0.76517
   192    H   18  S      Ryd( 2S)     0.00120
 
   193    H   19  S      Val( 1S)     0.76319
   194    H   19  S      Ryd( 2S)     0.00107
 
   195    H   20  S      Val( 1S)     0.75708
   196    H   20  S      Ryd( 2S)     0.00105
 
   197    H   21  S      Val( 1S)     0.76152
   198    H   21  S      Ryd( 2S)     0.00137
 
   199    H   22  S      Val( 1S)     0.76446
   200    H   22  S      Ryd( 2S)     0.00088
 
   201    H   23  S      Val( 1S)     0.77751
   202    H   23  S      Ryd( 2S)     0.00097
 
   203    H   24  S      Val( 1S)     0.80292
   204    H   24  S      Ryd( 2S)     0.00469
 
   205    H   25  S      Val( 1S)     0.77625
   206    H   25  S      Ryd( 2S)     0.00090
 
   207    H   26  S      Val( 1S)     0.80648
   208    H   26  S      Ryd( 2S)     0.00651
 
   209    H   27  S      Val( 1S)     0.78373
   210    H   27  S      Ryd( 2S)     0.00226
 
   211    H   28  S      Val( 1S)     0.74820
   212    H   28  S      Ryd( 2S)     0.00102
 
   213    H   29  S      Val( 1S)     0.78807
   214    H   29  S      Ryd( 2S)     0.00255
 
   215    H   30  S      Val( 1S)     0.78735
   216    H   30  S      Ryd( 2S)     0.00203
 
   217    H   31  S      Val( 1S)     0.76343
   218    H   31  S      Ryd( 2S)     0.00090
 
   219    H   32  S      Val( 1S)     0.79018
   220    H   32  S      Ryd( 2S)     0.00378
 
   221    H   33  S      Val( 1S)     0.79191
   222    H   33  S      Ryd( 2S)     0.00186

 WARNING:  1 low occupancy (<1.9990e) core orbital  found on  N    3


 Summary of Natural Population Analysis:                  
                                                          
                                       Natural Population 
                Natural  -----------------------------------------------
    Atom  No    Charge         Core      Valence    Rydberg      Total
 -----------------------------------------------------------------------
      N    1   -0.45653      1.99935     5.44460    0.01258     7.45653
      C    2    0.37822      1.99913     3.58837    0.03428     5.62178
      N    3   -0.33338      1.99898     5.31525    0.01914     7.33338
      C    4    0.09787      1.99908     3.88404    0.01901     5.90213
      C    5   -0.67640      1.99935     4.66658    0.01047     6.67640
      C    6   -0.66530      1.99935     4.65562    0.01032     6.66530
      C    7   -0.66112      1.99931     4.65234    0.00947     6.66112
      N    8   -0.49703      1.99939     5.48377    0.01386     7.49703
      C    9   -0.46742      1.99949     4.45528    0.01265     6.46742
      C   10   -0.46049      1.99946     4.44880    0.01223     6.46049
      C   11   -0.46965      1.99946     4.45744    0.01275     6.46965
      C   12   -0.46580      1.99946     4.45404    0.01230     6.46580
      H   13    0.23745      0.00000     0.76112    0.00143     0.76255
      H   14    0.22196      0.00000     0.77712    0.00092     0.77804
      H   15    0.22114      0.00000     0.77709    0.00177     0.77886
      H   16    0.23511      0.00000     0.76368    0.00121     0.76489
      H   17    0.22188      0.00000     0.77654    0.00158     0.77812
      H   18    0.23363      0.00000     0.76517    0.00120     0.76637
      H   19    0.23574      0.00000     0.76319    0.00107     0.76426
      H   20    0.24186      0.00000     0.75708    0.00105     0.75814
      H   21    0.23711      0.00000     0.76152    0.00137     0.76289
      H   22    0.23466      0.00000     0.76446    0.00088     0.76534
      H   23    0.22152      0.00000     0.77751    0.00097     0.77848
      H   24    0.19239      0.00000     0.80292    0.00469     0.80761
      H   25    0.22286      0.00000     0.77625    0.00090     0.77714
      H   26    0.18700      0.00000     0.80648    0.00651     0.81300
      H   27    0.21400      0.00000     0.78373    0.00226     0.78600
      H   28    0.25078      0.00000     0.74820    0.00102     0.74922
      H   29    0.20938      0.00000     0.78807    0.00255     0.79062
      H   30    0.21062      0.00000     0.78735    0.00203     0.78938
      H   31    0.23567      0.00000     0.76343    0.00090     0.76433
      H   32    0.20604      0.00000     0.79018    0.00378     0.79396
      H   33    0.20623      0.00000     0.79191    0.00186     0.79377
 =======================================================================
   * Total *   -0.00000     23.99182    71.78918    0.21900    96.00000

                                 Natural Population      
 --------------------------------------------------------
   Core                      23.99182 ( 99.9659% of  24)
   Valence                   71.78918 ( 99.7072% of  72)
   Natural Minimal Basis     95.78100 ( 99.7719% of  96)
   Natural Rydberg Basis      0.21900 (  0.2281% of  96)
 --------------------------------------------------------

    Atom  No          Natural Electron Configuration
 ----------------------------------------------------------------------------
      N    1      [core]2S( 1.19)2p( 4.26)3p( 0.01)
      C    2      [core]2S( 0.70)2p( 2.89)3p( 0.02)3d( 0.01)
      N    3      [core]2S( 1.27)2p( 4.04)3p( 0.01)
      C    4      [core]2S( 0.91)2p( 2.98)3p( 0.01)3d( 0.01)
      C    5      [core]2S( 1.10)2p( 3.56)3p( 0.01)
      C    6      [core]2S( 1.10)2p( 3.55)3p( 0.01)
      C    7      [core]2S( 1.10)2p( 3.55)3p( 0.01)
      N    8      [core]2S( 1.23)2p( 4.25)3p( 0.01)
      C    9      [core]2S( 1.08)2p( 3.38)3p( 0.01)3d( 0.01)
      C   10      [core]2S( 1.08)2p( 3.37)3p( 0.01)3d( 0.01)
      C   11      [core]2S( 1.08)2p( 3.37)3p( 0.01)
      C   12      [core]2S( 1.08)2p( 3.37)3p( 0.01)
      H   13            1S( 0.76)
      H   14            1S( 0.78)
      H   15            1S( 0.78)
      H   16            1S( 0.76)
      H   17            1S( 0.78)
      H   18            1S( 0.77)
      H   19            1S( 0.76)
      H   20            1S( 0.76)
      H   21            1S( 0.76)
      H   22            1S( 0.76)
      H   23            1S( 0.78)
      H   24            1S( 0.80)
      H   25            1S( 0.78)
      H   26            1S( 0.81)2S( 0.01)
      H   27            1S( 0.78)
      H   28            1S( 0.75)
      H   29            1S( 0.79)
      H   30            1S( 0.79)
      H   31            1S( 0.76)
      H   32            1S( 0.79)
      H   33            1S( 0.79)


 NBO analysis skipped by request.
 1\1\GINC-DELLA-R1C3N8\SP\RB3LYP TD-FC\6-31G(d)\C9H21N3\BJS4\24-Aug-202
 0\0\\# TD(NStates=10, Root=1) B3LYP/6-31G* scf=qc volume pop=NPA densi
 ty=current Geom=AllCheck Guess=Read\\Title Card Required\\0,1\N,0,1.31
 91738194,0.1534913387,-0.0902931857\C,0,0.4284697736,-0.929524052,-0.2
 436102385\N,0,-0.8525380878,-0.909511193,-0.2797394768\C,0,-1.76824626
 87,0.1336476723,0.1970901036\C,0,-2.3357771855,0.9137515635,-1.0079193
 638\C,0,-2.9345226379,-0.6478267485,0.848289302\C,0,-1.205822695,1.108
 9672867,1.2540185007\N,0,1.0759552484,-2.175967676,-0.3295190987\C,0,0
 .2452992757,-3.3640169649,-0.1966158229\C,0,2.1546495183,-2.3377379663
 ,-1.2988332012\C,0,2.481344986,0.0699060393,0.7734336899\C,0,1.3056298
 958,1.2727770715,-1.008791435\H,0,-2.706790756,0.2165067304,-1.7664895
 499\H,0,-1.5796991007,1.5539086562,-1.4737056183\H,0,-3.1669671145,1.5
 566557271,-0.6939634423\H,0,-3.356477205,-1.3600231954,0.132278825\H,0
 ,-3.7291121394,0.0300589695,1.1835892237\H,0,-2.5769687125,-1.21445786
 39,1.7157094241\H,0,-0.463613058,1.7994489263,0.8488075379\H,0,-0.7433
 778463,0.5584886123,2.0810906047\H,0,-2.0247717793,1.7097262124,1.6683
 503815\H,0,-0.4509437369,-3.2329994268,0.6322029321\H,0,0.8948946832,-
 4.2248961395,0.0014220844\H,0,-0.3466861703,-3.5670962218,-1.101973404
 4\H,0,2.7164352937,-1.4091907168,-1.4046269082\H,0,1.7693741359,-2.620
 9676936,-2.293072791\H,0,2.8434655113,-3.1233882756,-0.9665817086\H,0,
 2.4088104034,-0.8201546705,1.3998293574\H,0,2.5313336485,0.9559200515,
 1.4235597185\H,0,3.4290704861,0.0206469907,0.2103282594\H,0,0.47682946
 22,1.1669702238,-1.7092291886\H,0,2.2425436197,1.3134635951,-1.5903565
 662\H,0,1.2010947329,2.2368331375,-0.488338945\\Version=ES64L-G16RevA.
 03\State=1-A\HF=-519.8294524\RMSD=1.003e-09\Dipole=0.2087129,0.3933515
 ,0.154353\Quadrupole=0.7800515,0.5726431,-1.3526946,0.173762,-0.658892
 5,0.05449\PG=C01 [X(C9H21N3)]\\@


 A MATHEMATICIAN IS A MACHINE FOR TURNING COFFEE INTO THEOREMS.
     -- QUOTED BY PAUL ERDOS
 Job cpu time:       0 days  0 hours 41 minutes 37.7 seconds.
 Elapsed time:       0 days  0 hours  8 minutes 20.8 seconds.
 File lengths (MBytes):  RWF=    456 Int=      0 D2E=      0 Chk=    268 Scr=      1
 Normal termination of Gaussian 16 at Mon Aug 24 16:36:15 2020.
