 Entering Gaussian System, Link 0=g16
 Input=base_6_conf17123.com
 Output=base_6_conf17123.log
 Initial command:
 /opt/export//g16/l1.exe "/scratch/bjs4/job.29197/Gau-29199.inp" -scrdir="/scratch/bjs4/job.29197/"
 Entering Link 1 = /opt/export//g16/l1.exe PID=     29200.
  
 Copyright (c) 1988,1990,1992,1993,1995,1998,2003,2009,2016,
            Gaussian, Inc.  All Rights Reserved.
  
 This is part of the Gaussian(R) 16 program.  It is based on
 the Gaussian(R) 09 system (copyright 2009, Gaussian, Inc.),
 the Gaussian(R) 03 system (copyright 2003, Gaussian, Inc.),
 the Gaussian(R) 98 system (copyright 1998, Gaussian, Inc.),
 the Gaussian(R) 94 system (copyright 1995, Gaussian, Inc.),
 the Gaussian 92(TM) system (copyright 1992, Gaussian, Inc.),
 the Gaussian 90(TM) system (copyright 1990, Gaussian, Inc.),
 the Gaussian 88(TM) system (copyright 1988, Gaussian, Inc.),
 the Gaussian 86(TM) system (copyright 1986, Carnegie Mellon
 University), and the Gaussian 82(TM) system (copyright 1983,
 Carnegie Mellon University). Gaussian is a federally registered
 trademark of Gaussian, Inc.
  
 This software contains proprietary and confidential information,
 including trade secrets, belonging to Gaussian, Inc.
  
 This software is provided under written license and may be
 used, copied, transmitted, or stored only in accord with that
 written license.
  
 The following legend is applicable only to US Government
 contracts under FAR:
  
                    RESTRICTED RIGHTS LEGEND
  
 Use, reproduction and disclosure by the US Government is
 subject to restrictions as set forth in subparagraphs (a)
 and (c) of the Commercial Computer Software - Restricted
 Rights clause in FAR 52.227-19.
  
 Gaussian, Inc.
 340 Quinnipiac St., Bldg. 40, Wallingford CT 06492
  
  
 ---------------------------------------------------------------
 Warning -- This program may not be used in any manner that
 competes with the business of Gaussian, Inc. or will provide
 assistance to any competitor of Gaussian, Inc.  The licensee
 of this program is prohibited from giving any competitor of
 Gaussian, Inc. access to this program.  By using this program,
 the user acknowledges that Gaussian, Inc. is engaged in the
 business of creating and licensing software in the field of
 computational chemistry and represents and warrants to the
 licensee that it is not a competitor of Gaussian, Inc. and that
 it will not use this program in any manner prohibited above.
 ---------------------------------------------------------------
  

 Cite this work as:
 Gaussian 16, Revision A.03,
 M. J. Frisch, G. W. Trucks, H. B. Schlegel, G. E. Scuseria, 
 M. A. Robb, J. R. Cheeseman, G. Scalmani, V. Barone, 
 G. A. Petersson, H. Nakatsuji, X. Li, M. Caricato, A. V. Marenich, 
 J. Bloino, B. G. Janesko, R. Gomperts, B. Mennucci, H. P. Hratchian, 
 J. V. Ortiz, A. F. Izmaylov, J. L. Sonnenberg, D. Williams-Young, 
 F. Ding, F. Lipparini, F. Egidi, J. Goings, B. Peng, A. Petrone, 
 T. Henderson, D. Ranasinghe, V. G. Zakrzewski, J. Gao, N. Rega, 
 G. Zheng, W. Liang, M. Hada, M. Ehara, K. Toyota, R. Fukuda, 
 J. Hasegawa, M. Ishida, T. Nakajima, Y. Honda, O. Kitao, H. Nakai, 
 T. Vreven, K. Throssell, J. A. Montgomery, Jr., J. E. Peralta, 
 F. Ogliaro, M. J. Bearpark, J. J. Heyd, E. N. Brothers, K. N. Kudin, 
 V. N. Staroverov, T. A. Keith, R. Kobayashi, J. Normand, 
 K. Raghavachari, A. P. Rendell, J. C. Burant, S. S. Iyengar, 
 J. Tomasi, M. Cossi, J. M. Millam, M. Klene, C. Adamo, R. Cammi, 
 J. W. Ochterski, R. L. Martin, K. Morokuma, O. Farkas, 
 J. B. Foresman, and D. J. Fox, Gaussian, Inc., Wallingford CT, 2016.
 
 ******************************************
 Gaussian 16:  ES64L-G16RevA.03 25-Dec-2016
                24-Aug-2020 
 ******************************************
 %nprocshared=7
 Will use up to    7 processors via shared memory.
 %Mem=14GB
 %Chk=base_6_conf171.chk
 ---------------------------------
 # opt=CalcAll B3LYP/6-31G* scf=qc
 ---------------------------------
 1/10=4,18=20,19=15,26=3,38=1/1,3;
 2/9=110,12=2,17=6,18=5,40=1/2;
 3/5=1,6=6,7=1,11=2,25=1,30=1,71=2,74=-5,140=1/1,2,3;
 4//1;
 5/5=2,8=3,38=5/8;
 8/6=4,10=90,11=11/1;
 11/6=1,8=1,9=11,15=111,16=1/1,2,10;
 10/6=1/2;
 6/7=2,8=2,9=2,10=2,18=1,28=1/1;
 7/10=1,25=1/1,2,3,16;
 1/10=4,18=20,19=15,26=3/3(3);
 2/9=110/2;
 7/8=1,9=1,25=1,44=-1/16;
 99//99;
 2/9=110/2;
 3/5=1,6=6,7=1,11=2,25=1,30=1,71=2,74=-5,140=1/1,2,3;
 4/5=5,16=3,69=1/1;
 5/5=2,8=3,38=5/8;
 8/6=4,10=90,11=11/1;
 11/6=1,8=1,9=11,15=111,16=1/1,2,10;
 10/6=1/2;
 7/10=1,25=1/1,2,3,16;
 1/10=4,18=20,19=15,26=3/3(-8);
 2/9=110/2;
 6/7=2,8=2,9=2,10=2,18=1,19=2,28=1/1;
 7/8=1,9=1,25=1,44=-1/16;
 99//99;
 -------------------
 Title Card Required
 -------------------
 Symbolic Z-matrix:
 Charge =  0 Multiplicity = 1
 N                    -1.3325    0.0965    1.2627 
 C                    -1.3347   -0.677     0.0182 
 C                    -0.0666   -0.9542   -0.8227 
 N1                    1.1923   -1.3331   -0.1966 
 C                     2.2526   -0.3428   -0.3632 
 C                     2.1781    1.0394    0.3401 
 N                     0.8633    1.5949    0.6743 
 P                    -0.0423    0.9382    1.9236 
 N                     0.8413   -0.1292    2.8862 
 C                     1.5867   -1.2768    2.35 
 C                     1.0899   -2.0077    1.0914 
 C                     1.4522    0.2657    4.1847 
 C                     2.23578  -0.82672   4.92117 
 C                     2.24742   1.57265   4.108 
 C                     0.3903    2.6135   -0.2921 
 C                     1.23836   3.88796  -0.47985 
 C                     0.17324   2.02452  -1.70148 
 C                    -2.6256    0.0807    1.981 
 C                    -3.09834  -1.33015   2.3814 
 C                    -2.59346   0.97774   3.2253 
 H                    -2.0236   -0.1957   -0.6861 
 H                    -1.7651   -1.6605    0.2217 
 H                     0.0784   -0.1219   -1.5231 
 H                    -0.3264   -1.7969   -1.4792 
 H                     2.3486   -0.1513   -1.4414 
 H                     3.212    -0.8052   -0.0938 
 H                     2.743     1.7228   -0.3027 
 H                     2.7948    1.0104    1.243 
 H                     1.589    -2.0553    3.1279 
 H                     2.6431   -1.0107    2.2176 
 H                     0.0892   -2.415     1.2778 
 H                     1.7144   -2.9071    1.0026 
 H                     0.63732   0.52073   4.8774 
 H                     3.17335  -1.08045   4.41825 
 H                     1.63792  -1.73548   5.03491 
 H                     2.4792   -0.48943   5.93738 
 H                     3.17727   1.45874   3.54367 
 H                     2.52255   1.89774   5.1274 
 H                     1.65551   2.37359   3.66545 
 H                    -0.5874    2.96912   0.06039 
 H                     2.25302   3.66053  -0.82356 
 H                     1.29117   4.47653   0.43764 
 H                     0.78372   4.54481  -1.23213 
 H                     1.11609   1.68856  -2.14336 
 H                    -0.25734   2.78339  -2.36775 
 H                    -0.52603   1.18542  -1.71149 
 H                    -3.41713   0.47926   1.32939 
 H                    -2.40345  -1.83063   3.06446 
 H                    -3.2327   -1.96503   1.50064 
 H                    -4.06272  -1.28045   2.90067 
 H                    -1.93361   0.58457   4.00527 
 H                    -3.59483   1.05612   3.6633 
 H                    -2.26492   1.98962   2.97316 
 

 GradGradGradGradGradGradGradGradGradGradGradGradGradGradGradGradGradGrad
 Berny optimization.
 Initialization pass.
                           ----------------------------
                           !    Initial Parameters    !
                           ! (Angstroms and Degrees)  !
 --------------------------                            --------------------------
 ! Name  Definition              Value          Derivative Info.                !
 --------------------------------------------------------------------------------
 ! R1    R(1,2)                  1.4653         calculate D2E/DX2 analytically  !
 ! R2    R(1,8)                  1.6763         calculate D2E/DX2 analytically  !
 ! R3    R(1,18)                 1.4793         calculate D2E/DX2 analytically  !
 ! R4    R(2,3)                  1.5466         calculate D2E/DX2 analytically  !
 ! R5    R(2,21)                 1.0965         calculate D2E/DX2 analytically  !
 ! R6    R(2,22)                 1.0927         calculate D2E/DX2 analytically  !
 ! R7    R(3,4)                  1.4562         calculate D2E/DX2 analytically  !
 ! R8    R(3,23)                 1.0974         calculate D2E/DX2 analytically  !
 ! R9    R(3,24)                 1.0994         calculate D2E/DX2 analytically  !
 ! R10   R(4,5)                  1.4604         calculate D2E/DX2 analytically  !
 ! R11   R(4,11)                 1.4576         calculate D2E/DX2 analytically  !
 ! R12   R(5,6)                  1.5526         calculate D2E/DX2 analytically  !
 ! R13   R(5,25)                 1.0993         calculate D2E/DX2 analytically  !
 ! R14   R(5,26)                 1.0986         calculate D2E/DX2 analytically  !
 ! R15   R(6,7)                  1.4659         calculate D2E/DX2 analytically  !
 ! R16   R(6,27)                 1.0951         calculate D2E/DX2 analytically  !
 ! R17   R(6,28)                 1.0938         calculate D2E/DX2 analytically  !
 ! R18   R(7,8)                  1.6769         calculate D2E/DX2 analytically  !
 ! R19   R(7,15)                 1.4816         calculate D2E/DX2 analytically  !
 ! R20   R(8,9)                  1.6872         calculate D2E/DX2 analytically  !
 ! R21   R(9,10)                 1.4697         calculate D2E/DX2 analytically  !
 ! R22   R(9,12)                 1.4884         calculate D2E/DX2 analytically  !
 ! R23   R(10,11)                1.5379         calculate D2E/DX2 analytically  !
 ! R24   R(10,29)                1.1005         calculate D2E/DX2 analytically  !
 ! R25   R(10,30)                1.0974         calculate D2E/DX2 analytically  !
 ! R26   R(11,31)                1.0964         calculate D2E/DX2 analytically  !
 ! R27   R(11,32)                1.0985         calculate D2E/DX2 analytically  !
 ! R28   R(12,13)                1.5329         calculate D2E/DX2 analytically  !
 ! R29   R(12,14)                1.5318         calculate D2E/DX2 analytically  !
 ! R30   R(12,33)                1.0995         calculate D2E/DX2 analytically  !
 ! R31   R(13,34)                1.0938         calculate D2E/DX2 analytically  !
 ! R32   R(13,35)                1.0937         calculate D2E/DX2 analytically  !
 ! R33   R(13,36)                1.098          calculate D2E/DX2 analytically  !
 ! R34   R(14,37)                1.0936         calculate D2E/DX2 analytically  !
 ! R35   R(14,38)                1.1048         calculate D2E/DX2 analytically  !
 ! R36   R(14,39)                1.0898         calculate D2E/DX2 analytically  !
 ! R37   R(15,16)                1.5423         calculate D2E/DX2 analytically  !
 ! R38   R(15,17)                1.5428         calculate D2E/DX2 analytically  !
 ! R39   R(15,40)                1.0985         calculate D2E/DX2 analytically  !
 ! R40   R(16,41)                1.0952         calculate D2E/DX2 analytically  !
 ! R41   R(16,42)                1.0913         calculate D2E/DX2 analytically  !
 ! R42   R(16,43)                1.0973         calculate D2E/DX2 analytically  !
 ! R43   R(17,44)                1.0941         calculate D2E/DX2 analytically  !
 ! R44   R(17,45)                1.0978         calculate D2E/DX2 analytically  !
 ! R45   R(17,46)                1.0923         calculate D2E/DX2 analytically  !
 ! R46   R(18,19)                1.5409         calculate D2E/DX2 analytically  !
 ! R47   R(18,20)                1.5343         calculate D2E/DX2 analytically  !
 ! R48   R(18,47)                1.1            calculate D2E/DX2 analytically  !
 ! R49   R(19,48)                1.0954         calculate D2E/DX2 analytically  !
 ! R50   R(19,49)                1.094          calculate D2E/DX2 analytically  !
 ! R51   R(19,50)                1.0964         calculate D2E/DX2 analytically  !
 ! R52   R(20,51)                1.0947         calculate D2E/DX2 analytically  !
 ! R53   R(20,52)                1.0958         calculate D2E/DX2 analytically  !
 ! R54   R(20,53)                1.0934         calculate D2E/DX2 analytically  !
 ! A1    A(2,1,8)              126.9472         calculate D2E/DX2 analytically  !
 ! A2    A(2,1,18)             113.9194         calculate D2E/DX2 analytically  !
 ! A3    A(8,1,18)             119.1257         calculate D2E/DX2 analytically  !
 ! A4    A(1,2,3)              123.7215         calculate D2E/DX2 analytically  !
 ! A5    A(1,2,21)             108.3469         calculate D2E/DX2 analytically  !
 ! A6    A(1,2,22)             108.515          calculate D2E/DX2 analytically  !
 ! A7    A(3,2,21)             104.1569         calculate D2E/DX2 analytically  !
 ! A8    A(3,2,22)             105.2422         calculate D2E/DX2 analytically  !
 ! A9    A(21,2,22)            105.5002         calculate D2E/DX2 analytically  !
 ! A10   A(2,3,4)              121.447          calculate D2E/DX2 analytically  !
 ! A11   A(2,3,23)             108.6273         calculate D2E/DX2 analytically  !
 ! A12   A(2,3,24)             105.5631         calculate D2E/DX2 analytically  !
 ! A13   A(4,3,23)             110.9488         calculate D2E/DX2 analytically  !
 ! A14   A(4,3,24)             105.1654         calculate D2E/DX2 analytically  !
 ! A15   A(23,3,24)            103.3825         calculate D2E/DX2 analytically  !
 ! A16   A(3,4,5)              113.7154         calculate D2E/DX2 analytically  !
 ! A17   A(3,4,11)             116.0808         calculate D2E/DX2 analytically  !
 ! A18   A(5,4,11)             117.7532         calculate D2E/DX2 analytically  !
 ! A19   A(4,5,6)              121.1423         calculate D2E/DX2 analytically  !
 ! A20   A(4,5,25)             107.0635         calculate D2E/DX2 analytically  !
 ! A21   A(4,5,26)             108.7035         calculate D2E/DX2 analytically  !
 ! A22   A(6,5,25)             107.0614         calculate D2E/DX2 analytically  !
 ! A23   A(6,5,26)             107.7902         calculate D2E/DX2 analytically  !
 ! A24   A(25,5,26)            103.7441         calculate D2E/DX2 analytically  !
 ! A25   A(5,6,7)              118.9239         calculate D2E/DX2 analytically  !
 ! A26   A(5,6,27)             105.3612         calculate D2E/DX2 analytically  !
 ! A27   A(5,6,28)             108.8603         calculate D2E/DX2 analytically  !
 ! A28   A(7,6,27)             111.0993         calculate D2E/DX2 analytically  !
 ! A29   A(7,6,28)             109.1199         calculate D2E/DX2 analytically  !
 ! A30   A(27,6,28)            102.1359         calculate D2E/DX2 analytically  !
 ! A31   A(6,7,8)              120.3846         calculate D2E/DX2 analytically  !
 ! A32   A(6,7,15)             113.4624         calculate D2E/DX2 analytically  !
 ! A33   A(8,7,15)             125.6441         calculate D2E/DX2 analytically  !
 ! A34   A(1,8,7)              108.5763         calculate D2E/DX2 analytically  !
 ! A35   A(1,8,9)              108.0811         calculate D2E/DX2 analytically  !
 ! A36   A(7,8,9)              112.9524         calculate D2E/DX2 analytically  !
 ! A37   A(8,9,10)             123.4659         calculate D2E/DX2 analytically  !
 ! A38   A(8,9,12)             123.014          calculate D2E/DX2 analytically  !
 ! A39   A(10,9,12)            108.4992         calculate D2E/DX2 analytically  !
 ! A40   A(9,10,11)            120.3867         calculate D2E/DX2 analytically  !
 ! A41   A(9,10,29)            107.1889         calculate D2E/DX2 analytically  !
 ! A42   A(9,10,30)            110.0533         calculate D2E/DX2 analytically  !
 ! A43   A(11,10,29)           104.0609         calculate D2E/DX2 analytically  !
 ! A44   A(11,10,30)           109.1154         calculate D2E/DX2 analytically  !
 ! A45   A(29,10,30)           104.7611         calculate D2E/DX2 analytically  !
 ! A46   A(4,11,10)            118.7198         calculate D2E/DX2 analytically  !
 ! A47   A(4,11,31)            112.7243         calculate D2E/DX2 analytically  !
 ! A48   A(4,11,32)            105.5188         calculate D2E/DX2 analytically  !
 ! A49   A(10,11,31)           109.4066         calculate D2E/DX2 analytically  !
 ! A50   A(10,11,32)           105.7606         calculate D2E/DX2 analytically  !
 ! A51   A(31,11,32)           103.2065         calculate D2E/DX2 analytically  !
 ! A52   A(9,12,13)            116.0964         calculate D2E/DX2 analytically  !
 ! A53   A(9,12,14)            113.3144         calculate D2E/DX2 analytically  !
 ! A54   A(9,12,33)            107.8777         calculate D2E/DX2 analytically  !
 ! A55   A(13,12,14)           111.5141         calculate D2E/DX2 analytically  !
 ! A56   A(13,12,33)           103.9731         calculate D2E/DX2 analytically  !
 ! A57   A(14,12,33)           102.615          calculate D2E/DX2 analytically  !
 ! A58   A(12,13,34)           112.4938         calculate D2E/DX2 analytically  !
 ! A59   A(12,13,35)           111.2645         calculate D2E/DX2 analytically  !
 ! A60   A(12,13,36)           109.819          calculate D2E/DX2 analytically  !
 ! A61   A(34,13,35)           108.8829         calculate D2E/DX2 analytically  !
 ! A62   A(34,13,36)           107.8644         calculate D2E/DX2 analytically  !
 ! A63   A(35,13,36)           106.27           calculate D2E/DX2 analytically  !
 ! A64   A(12,14,37)           112.2322         calculate D2E/DX2 analytically  !
 ! A65   A(12,14,38)           109.5207         calculate D2E/DX2 analytically  !
 ! A66   A(12,14,39)           111.4338         calculate D2E/DX2 analytically  !
 ! A67   A(37,14,38)           107.1598         calculate D2E/DX2 analytically  !
 ! A68   A(37,14,39)           109.1953         calculate D2E/DX2 analytically  !
 ! A69   A(38,14,39)           107.079          calculate D2E/DX2 analytically  !
 ! A70   A(7,15,16)            118.1614         calculate D2E/DX2 analytically  !
 ! A71   A(7,15,17)            112.2284         calculate D2E/DX2 analytically  !
 ! A72   A(7,15,40)            107.3023         calculate D2E/DX2 analytically  !
 ! A73   A(16,15,17)           106.3563         calculate D2E/DX2 analytically  !
 ! A74   A(16,15,40)           105.1269         calculate D2E/DX2 analytically  !
 ! A75   A(17,15,40)           106.948          calculate D2E/DX2 analytically  !
 ! A76   A(15,16,41)           112.089          calculate D2E/DX2 analytically  !
 ! A77   A(15,16,42)           111.7108         calculate D2E/DX2 analytically  !
 ! A78   A(15,16,43)           110.5045         calculate D2E/DX2 analytically  !
 ! A79   A(41,16,42)           109.3304         calculate D2E/DX2 analytically  !
 ! A80   A(41,16,43)           107.0386         calculate D2E/DX2 analytically  !
 ! A81   A(42,16,43)           105.8774         calculate D2E/DX2 analytically  !
 ! A82   A(15,17,44)           111.4024         calculate D2E/DX2 analytically  !
 ! A83   A(15,17,45)           110.2245         calculate D2E/DX2 analytically  !
 ! A84   A(15,17,46)           113.0596         calculate D2E/DX2 analytically  !
 ! A85   A(44,17,45)           107.7664         calculate D2E/DX2 analytically  !
 ! A86   A(44,17,46)           108.1848         calculate D2E/DX2 analytically  !
 ! A87   A(45,17,46)           105.924          calculate D2E/DX2 analytically  !
 ! A88   A(1,18,19)            113.8372         calculate D2E/DX2 analytically  !
 ! A89   A(1,18,20)            111.6689         calculate D2E/DX2 analytically  !
 ! A90   A(1,18,47)            109.7246         calculate D2E/DX2 analytically  !
 ! A91   A(19,18,20)           109.3305         calculate D2E/DX2 analytically  !
 ! A92   A(19,18,47)           105.3623         calculate D2E/DX2 analytically  !
 ! A93   A(20,18,47)           106.4783         calculate D2E/DX2 analytically  !
 ! A94   A(18,19,48)           112.69           calculate D2E/DX2 analytically  !
 ! A95   A(18,19,49)           111.0898         calculate D2E/DX2 analytically  !
 ! A96   A(18,19,50)           110.5739         calculate D2E/DX2 analytically  !
 ! A97   A(48,19,49)           108.3477         calculate D2E/DX2 analytically  !
 ! A98   A(48,19,50)           106.4606         calculate D2E/DX2 analytically  !
 ! A99   A(49,19,50)           107.4317         calculate D2E/DX2 analytically  !
 ! A100  A(18,20,51)           112.3634         calculate D2E/DX2 analytically  !
 ! A101  A(18,20,52)           110.2947         calculate D2E/DX2 analytically  !
 ! A102  A(18,20,53)           111.1229         calculate D2E/DX2 analytically  !
 ! A103  A(51,20,52)           106.9618         calculate D2E/DX2 analytically  !
 ! A104  A(51,20,53)           108.3961         calculate D2E/DX2 analytically  !
 ! A105  A(52,20,53)           107.4925         calculate D2E/DX2 analytically  !
 ! D1    D(8,1,2,3)              6.5288         calculate D2E/DX2 analytically  !
 ! D2    D(8,1,2,21)          -115.5544         calculate D2E/DX2 analytically  !
 ! D3    D(8,1,2,22)           130.3676         calculate D2E/DX2 analytically  !
 ! D4    D(18,1,2,3)          -172.4484         calculate D2E/DX2 analytically  !
 ! D5    D(18,1,2,21)           65.4684         calculate D2E/DX2 analytically  !
 ! D6    D(18,1,2,22)          -48.6096         calculate D2E/DX2 analytically  !
 ! D7    D(2,1,8,7)             35.5067         calculate D2E/DX2 analytically  !
 ! D8    D(2,1,8,9)            -87.3469         calculate D2E/DX2 analytically  !
 ! D9    D(18,1,8,7)          -145.5636         calculate D2E/DX2 analytically  !
 ! D10   D(18,1,8,9)            91.5828         calculate D2E/DX2 analytically  !
 ! D11   D(2,1,18,19)           59.2942         calculate D2E/DX2 analytically  !
 ! D12   D(2,1,18,20)         -176.3069         calculate D2E/DX2 analytically  !
 ! D13   D(2,1,18,47)          -58.4866         calculate D2E/DX2 analytically  !
 ! D14   D(8,1,18,19)         -119.7701         calculate D2E/DX2 analytically  !
 ! D15   D(8,1,18,20)            4.6288         calculate D2E/DX2 analytically  !
 ! D16   D(8,1,18,47)          122.4491         calculate D2E/DX2 analytically  !
 ! D17   D(1,2,3,4)             43.0242         calculate D2E/DX2 analytically  !
 ! D18   D(1,2,3,23)           -87.3954         calculate D2E/DX2 analytically  !
 ! D19   D(1,2,3,24)           162.2751         calculate D2E/DX2 analytically  !
 ! D20   D(21,2,3,4)           166.9873         calculate D2E/DX2 analytically  !
 ! D21   D(21,2,3,23)           36.5676         calculate D2E/DX2 analytically  !
 ! D22   D(21,2,3,24)          -73.7618         calculate D2E/DX2 analytically  !
 ! D23   D(22,2,3,4)           -82.2565         calculate D2E/DX2 analytically  !
 ! D24   D(22,2,3,23)          147.3239         calculate D2E/DX2 analytically  !
 ! D25   D(22,2,3,24)           36.9944         calculate D2E/DX2 analytically  !
 ! D26   D(2,3,4,5)           -114.6653         calculate D2E/DX2 analytically  !
 ! D27   D(2,3,4,11)            26.7144         calculate D2E/DX2 analytically  !
 ! D28   D(23,3,4,5)            14.756          calculate D2E/DX2 analytically  !
 ! D29   D(23,3,4,11)          156.1357         calculate D2E/DX2 analytically  !
 ! D30   D(24,3,4,5)           125.8894         calculate D2E/DX2 analytically  !
 ! D31   D(24,3,4,11)          -92.7309         calculate D2E/DX2 analytically  !
 ! D32   D(3,4,5,6)             68.5652         calculate D2E/DX2 analytically  !
 ! D33   D(3,4,5,25)           -54.3947         calculate D2E/DX2 analytically  !
 ! D34   D(3,4,5,26)          -165.8822         calculate D2E/DX2 analytically  !
 ! D35   D(11,4,5,6)           -72.1277         calculate D2E/DX2 analytically  !
 ! D36   D(11,4,5,25)          164.9123         calculate D2E/DX2 analytically  !
 ! D37   D(11,4,5,26)           53.4248         calculate D2E/DX2 analytically  !
 ! D38   D(3,4,11,10)         -112.0917         calculate D2E/DX2 analytically  !
 ! D39   D(3,4,11,31)           17.7182         calculate D2E/DX2 analytically  !
 ! D40   D(3,4,11,32)          129.6408         calculate D2E/DX2 analytically  !
 ! D41   D(5,4,11,10)           27.6876         calculate D2E/DX2 analytically  !
 ! D42   D(5,4,11,31)          157.4975         calculate D2E/DX2 analytically  !
 ! D43   D(5,4,11,32)          -90.5799         calculate D2E/DX2 analytically  !
 ! D44   D(4,5,6,7)            -26.5093         calculate D2E/DX2 analytically  !
 ! D45   D(4,5,6,27)          -151.8424         calculate D2E/DX2 analytically  !
 ! D46   D(4,5,6,28)            99.2384         calculate D2E/DX2 analytically  !
 ! D47   D(25,5,6,7)            96.4516         calculate D2E/DX2 analytically  !
 ! D48   D(25,5,6,27)          -28.8815         calculate D2E/DX2 analytically  !
 ! D49   D(25,5,6,28)         -137.8007         calculate D2E/DX2 analytically  !
 ! D50   D(26,5,6,7)          -152.48           calculate D2E/DX2 analytically  !
 ! D51   D(26,5,6,27)           82.187          calculate D2E/DX2 analytically  !
 ! D52   D(26,5,6,28)          -26.7322         calculate D2E/DX2 analytically  !
 ! D53   D(5,6,7,8)             72.2746         calculate D2E/DX2 analytically  !
 ! D54   D(5,6,7,15)           -99.993          calculate D2E/DX2 analytically  !
 ! D55   D(27,6,7,8)          -165.2037         calculate D2E/DX2 analytically  !
 ! D56   D(27,6,7,15)           22.5286         calculate D2E/DX2 analytically  !
 ! D57   D(28,6,7,8)           -53.3487         calculate D2E/DX2 analytically  !
 ! D58   D(28,6,7,15)          134.3837         calculate D2E/DX2 analytically  !
 ! D59   D(6,7,8,1)           -107.7318         calculate D2E/DX2 analytically  !
 ! D60   D(6,7,8,9)             12.1292         calculate D2E/DX2 analytically  !
 ! D61   D(15,7,8,1)            63.5326         calculate D2E/DX2 analytically  !
 ! D62   D(15,7,8,9)          -176.6064         calculate D2E/DX2 analytically  !
 ! D63   D(6,7,15,16)          -60.7059         calculate D2E/DX2 analytically  !
 ! D64   D(6,7,15,17)           63.6158         calculate D2E/DX2 analytically  !
 ! D65   D(6,7,15,40)         -179.1817         calculate D2E/DX2 analytically  !
 ! D66   D(8,7,15,16)          127.5053         calculate D2E/DX2 analytically  !
 ! D67   D(8,7,15,17)         -108.1729         calculate D2E/DX2 analytically  !
 ! D68   D(8,7,15,40)            9.0296         calculate D2E/DX2 analytically  !
 ! D69   D(1,8,9,10)            66.4619         calculate D2E/DX2 analytically  !
 ! D70   D(1,8,9,12)          -141.5205         calculate D2E/DX2 analytically  !
 ! D71   D(7,8,9,10)           -53.6833         calculate D2E/DX2 analytically  !
 ! D72   D(7,8,9,12)            98.3344         calculate D2E/DX2 analytically  !
 ! D73   D(8,9,10,11)          -31.3803         calculate D2E/DX2 analytically  !
 ! D74   D(8,9,10,29)         -149.818          calculate D2E/DX2 analytically  !
 ! D75   D(8,9,10,30)           96.8018         calculate D2E/DX2 analytically  !
 ! D76   D(12,9,10,11)         173.1314         calculate D2E/DX2 analytically  !
 ! D77   D(12,9,10,29)          54.6937         calculate D2E/DX2 analytically  !
 ! D78   D(12,9,10,30)         -58.6865         calculate D2E/DX2 analytically  !
 ! D79   D(8,9,12,13)         -179.2941         calculate D2E/DX2 analytically  !
 ! D80   D(8,9,12,14)          -48.3166         calculate D2E/DX2 analytically  !
 ! D81   D(8,9,12,33)           64.5693         calculate D2E/DX2 analytically  !
 ! D82   D(10,9,12,13)         -23.6712         calculate D2E/DX2 analytically  !
 ! D83   D(10,9,12,14)         107.3063         calculate D2E/DX2 analytically  !
 ! D84   D(10,9,12,33)        -139.8078         calculate D2E/DX2 analytically  !
 ! D85   D(9,10,11,4)           70.9889         calculate D2E/DX2 analytically  !
 ! D86   D(9,10,11,31)         -60.3146         calculate D2E/DX2 analytically  !
 ! D87   D(9,10,11,32)        -170.8699         calculate D2E/DX2 analytically  !
 ! D88   D(29,10,11,4)        -169.0092         calculate D2E/DX2 analytically  !
 ! D89   D(29,10,11,31)         59.6874         calculate D2E/DX2 analytically  !
 ! D90   D(29,10,11,32)        -50.8679         calculate D2E/DX2 analytically  !
 ! D91   D(30,10,11,4)         -57.6144         calculate D2E/DX2 analytically  !
 ! D92   D(30,10,11,31)        171.0821         calculate D2E/DX2 analytically  !
 ! D93   D(30,10,11,32)         60.5268         calculate D2E/DX2 analytically  !
 ! D94   D(9,12,13,34)          70.3399         calculate D2E/DX2 analytically  !
 ! D95   D(9,12,13,35)         -52.1414         calculate D2E/DX2 analytically  !
 ! D96   D(9,12,13,36)        -169.5167         calculate D2E/DX2 analytically  !
 ! D97   D(14,12,13,34)        -61.48           calculate D2E/DX2 analytically  !
 ! D98   D(14,12,13,35)        176.0387         calculate D2E/DX2 analytically  !
 ! D99   D(14,12,13,36)         58.6634         calculate D2E/DX2 analytically  !
 ! D100  D(33,12,13,34)       -171.3568         calculate D2E/DX2 analytically  !
 ! D101  D(33,12,13,35)         66.1618         calculate D2E/DX2 analytically  !
 ! D102  D(33,12,13,36)        -51.2134         calculate D2E/DX2 analytically  !
 ! D103  D(9,12,14,37)         -70.8695         calculate D2E/DX2 analytically  !
 ! D104  D(9,12,14,38)         170.2436         calculate D2E/DX2 analytically  !
 ! D105  D(9,12,14,39)          51.9538         calculate D2E/DX2 analytically  !
 ! D106  D(13,12,14,37)         62.3465         calculate D2E/DX2 analytically  !
 ! D107  D(13,12,14,38)        -56.5405         calculate D2E/DX2 analytically  !
 ! D108  D(13,12,14,39)       -174.8302         calculate D2E/DX2 analytically  !
 ! D109  D(33,12,14,37)        173.0903         calculate D2E/DX2 analytically  !
 ! D110  D(33,12,14,38)         54.2034         calculate D2E/DX2 analytically  !
 ! D111  D(33,12,14,39)        -64.0863         calculate D2E/DX2 analytically  !
 ! D112  D(7,15,16,41)          59.7681         calculate D2E/DX2 analytically  !
 ! D113  D(7,15,16,42)         -63.3319         calculate D2E/DX2 analytically  !
 ! D114  D(7,15,16,43)         179.0684         calculate D2E/DX2 analytically  !
 ! D115  D(17,15,16,41)        -67.4108         calculate D2E/DX2 analytically  !
 ! D116  D(17,15,16,42)        169.4892         calculate D2E/DX2 analytically  !
 ! D117  D(17,15,16,43)         51.8895         calculate D2E/DX2 analytically  !
 ! D118  D(40,15,16,41)        179.383          calculate D2E/DX2 analytically  !
 ! D119  D(40,15,16,42)         56.2831         calculate D2E/DX2 analytically  !
 ! D120  D(40,15,16,43)        -61.3166         calculate D2E/DX2 analytically  !
 ! D121  D(7,15,17,44)         -65.2495         calculate D2E/DX2 analytically  !
 ! D122  D(7,15,17,45)         175.1686         calculate D2E/DX2 analytically  !
 ! D123  D(7,15,17,46)          56.8343         calculate D2E/DX2 analytically  !
 ! D124  D(16,15,17,44)         65.3895         calculate D2E/DX2 analytically  !
 ! D125  D(16,15,17,45)        -54.1924         calculate D2E/DX2 analytically  !
 ! D126  D(16,15,17,46)       -172.5267         calculate D2E/DX2 analytically  !
 ! D127  D(40,15,17,44)        177.3366         calculate D2E/DX2 analytically  !
 ! D128  D(40,15,17,45)         57.7547         calculate D2E/DX2 analytically  !
 ! D129  D(40,15,17,46)        -60.5797         calculate D2E/DX2 analytically  !
 ! D130  D(1,18,19,48)          61.4943         calculate D2E/DX2 analytically  !
 ! D131  D(1,18,19,49)         -60.304          calculate D2E/DX2 analytically  !
 ! D132  D(1,18,19,50)        -179.4941         calculate D2E/DX2 analytically  !
 ! D133  D(20,18,19,48)        -64.1522         calculate D2E/DX2 analytically  !
 ! D134  D(20,18,19,49)        174.0494         calculate D2E/DX2 analytically  !
 ! D135  D(20,18,19,50)         54.8593         calculate D2E/DX2 analytically  !
 ! D136  D(47,18,19,48)       -178.2386         calculate D2E/DX2 analytically  !
 ! D137  D(47,18,19,49)         59.9631         calculate D2E/DX2 analytically  !
 ! D138  D(47,18,19,50)        -59.227          calculate D2E/DX2 analytically  !
 ! D139  D(1,18,20,51)         -68.3133         calculate D2E/DX2 analytically  !
 ! D140  D(1,18,20,52)         172.4456         calculate D2E/DX2 analytically  !
 ! D141  D(1,18,20,53)          53.3397         calculate D2E/DX2 analytically  !
 ! D142  D(19,18,20,51)         58.5728         calculate D2E/DX2 analytically  !
 ! D143  D(19,18,20,52)        -60.6683         calculate D2E/DX2 analytically  !
 ! D144  D(19,18,20,53)       -179.7741         calculate D2E/DX2 analytically  !
 ! D145  D(47,18,20,51)        171.9348         calculate D2E/DX2 analytically  !
 ! D146  D(47,18,20,52)         52.6937         calculate D2E/DX2 analytically  !
 ! D147  D(47,18,20,53)        -66.4122         calculate D2E/DX2 analytically  !
 --------------------------------------------------------------------------------
 Trust Radius=3.00D-01 FncErr=1.00D-07 GrdErr=1.00D-06 EigMax=2.50D+02 EigMin=1.00D-04
 Number of steps in this run=    316 maximum allowed number of steps=    318.
 GradGradGradGradGradGradGradGradGradGradGradGradGradGradGradGradGradGrad

 Stoichiometry    C15H33N4P
 Framework group  C1[X(C15H33N4P)]
 Deg. of freedom   153
 Full point group                 C1      NOp   1
 Largest Abelian subgroup         C1      NOp   1
 Largest concise Abelian subgroup C1      NOp   1
                         Standard orientation:                         
 ---------------------------------------------------------------------
 Center     Atomic      Atomic             Coordinates (Angstroms)
 Number     Number       Type             X           Y           Z
 ---------------------------------------------------------------------
      1          7           0        0.089597    1.660202   -0.214270
      2          6           0       -0.715016    2.087548    0.933363
      3          6           0       -1.452655    1.108935    1.876885
      4          7           0       -0.818165   -0.113048    2.350780
      5          6           0       -1.458708   -1.333095    1.867172
      6          6           0       -1.392806   -1.734936    0.368894
      7          7           0       -1.226949   -0.684628   -0.640221
      8         15           0        0.244144    0.101802   -0.812072
      9          7           0        1.497787   -0.657672    0.023553
     10          6           0        1.437009   -0.982912    1.455559
     11          6           0        0.637524   -0.093148    2.422122
     12          6           0        2.465364   -1.580844   -0.629743
     13          6           0        3.531795   -2.196358    0.283292
     14          6           0        1.793284   -2.643704   -1.504393
     15          6           0       -2.493291   -0.302805   -1.307898
     16          6           0       -3.256234   -1.386936   -2.096112
     17          6           0       -3.508760    0.314594   -0.324025
     18          6           0        0.840203    2.757778   -0.862522
     19          6           0        1.825627    3.478446    0.077627
     20          6           0        1.590937    2.271633   -2.109140
     21          1           0       -1.504183    2.757216    0.571380
     22          1           0       -0.089312    2.700093    1.586978
     23          1           0       -2.444866    0.898765    1.457774
     24          1           0       -1.677117    1.687125    2.784599
     25          1           0       -2.522325   -1.267771    2.137091
     26          1           0       -1.090936   -2.182426    2.458964
     27          1           0       -2.301001   -2.318588    0.184852
     28          1           0       -0.607200   -2.484677    0.238123
     29          1           0        2.466363   -0.940650    1.842651
     30          1           0        1.129854   -2.027666    1.591447
     31          1           0        1.048489    0.923163    2.406110
     32          1           0        0.887246   -0.448982    3.430996
     33          1           0        3.045300   -0.999671   -1.361054
     34          1           0        3.114400   -2.930345    0.978554
     35          1           0        4.057079   -1.426025    0.855028
     36          1           0        4.294169   -2.702670   -0.323450
     37          1           0        1.262481   -3.393125   -0.910525
     38          1           0        2.561350   -3.177766   -2.092108
     39          1           0        1.100907   -2.194275   -2.215970
     40          1           0       -2.251791    0.472700   -2.047412
     41          1           0       -3.545924   -2.230755   -1.460939
     42          1           0       -2.674378   -1.755160   -2.942780
     43          1           0       -4.179002   -0.974080   -2.522873
     44          1           0       -3.836931   -0.415726    0.421648
     45          1           0       -4.397902    0.663247   -0.865380
     46          1           0       -3.117335    1.187591    0.203072
     47          1           0        0.140691    3.535407   -1.203022
     48          1           0        2.603121    2.811810    0.466244
     49          1           0        1.302248    3.928648    0.926306
     50          1           0        2.344885    4.284993   -0.453401
     51          1           0        2.413987    1.593622   -1.861697
     52          1           0        2.027272    3.121649   -2.645623
     53          1           0        0.916674    1.758140   -2.799871
 ---------------------------------------------------------------------
 Rotational constants (GHZ):           0.3548486           0.3075263           0.2623885
 Standard basis: 6-31G(d) (6D, 7F)
 There are   370 symmetry adapted cartesian basis functions of A   symmetry.
 There are   370 symmetry adapted basis functions of A   symmetry.
   370 basis functions,   716 primitive gaussians,   370 cartesian basis functions
    83 alpha electrons       83 beta electrons
       nuclear repulsion energy      2093.8678300723 Hartrees.
 NAtoms=   53 NActive=   53 NUniq=   53 SFac= 1.00D+00 NAtFMM=   60 NAOKFM=F Big=F
 Integral buffers will be    131072 words long.
 Raffenetti 2 integral format.
 Two-electron integral symmetry is turned on.
 One-electron integrals computed using PRISM.
 NBasis=   370 RedAO= T EigKep=  2.87D-03  NBF=   370
 NBsUse=   370 1.00D-06 EigRej= -1.00D+00 NBFU=   370
 ExpMin= 9.98D-02 ExpMax= 1.94D+04 ExpMxC= 2.91D+03 IAcc=3 IRadAn=         5 AccDes= 0.00D+00
 Harris functional with IExCor=  402 and IRadAn=       5 diagonalized for initial guess.
 HarFok:  IExCor=  402 AccDes= 0.00D+00 IRadAn=         5 IDoV= 1 UseB2=F ITyADJ=14
 ICtDFT=  3500011 ScaDFX=  1.000000  1.000000  1.000000  1.000000
 FoFCou: FMM=F IPFlag=           0 FMFlag=      100000 FMFlg1=           0
         NFxFlg=           0 DoJE=T BraDBF=F KetDBF=T FulRan=T
         wScrn=  0.000000 ICntrl=       500 IOpCl=  0 I1Cent=   200000004 NGrid=           0
         NMat0=    1 NMatS0=      1 NMatT0=    0 NMatD0=    1 NMtDS0=    0 NMtDT0=    0
 Petite list used in FoFCou.
 Gradient too large for Newton-Raphson -- use scaled steepest descent instead.
     Accept linear search using points  2 and  3.
 Gradient too large for Newton-Raphson -- use scaled steepest descent instead.
     Minimum is close to point  3 DX=  2.81D-02 DF= -5.24D-05 DXR=  3.85D-02 DFR=  1.49D-03 which will be used.
 Gradient too large for Newton-Raphson -- use scaled steepest descent instead.
     Minimum is close to point  2 DX=  5.06D-02 DF= -2.01D-05 DXR=  9.19D-02 DFR=  8.51D-03 which will be used.
 Gradient too large for Newton-Raphson -- use scaled steepest descent instead.
     Minimum is close to point  2 DX=  4.27D-02 DF= -1.85D-06 DXR=  6.64D-02 DFR=  4.43D-03 which will be used.
 Gradient too large for Newton-Raphson -- use scaled steepest descent instead.
     Accept linear search using points  1 and  2.
 LinEq1:  Iter=  0 NonCon=     1 RMS=2.64D-05 Max=1.47D-03 NDo=     1
 AX will form     1 AO Fock derivatives at one time.
 LinEq1:  Iter=  1 NonCon=     1 RMS=1.31D-05 Max=4.00D-04 NDo=     1
 LinEq1:  Iter=  2 NonCon=     1 RMS=5.41D-06 Max=3.55D-04 NDo=     1
 LinEq1:  Iter=  3 NonCon=     1 RMS=2.18D-06 Max=5.89D-05 NDo=     1
 LinEq1:  Iter=  4 NonCon=     1 RMS=1.15D-06 Max=6.11D-05 NDo=     1
 LinEq1:  Iter=  5 NonCon=     1 RMS=6.35D-07 Max=1.67D-05 NDo=     1
 LinEq1:  Iter=  6 NonCon=     1 RMS=2.80D-07 Max=3.73D-06 NDo=     1
 LinEq1:  Iter=  7 NonCon=     1 RMS=1.43D-07 Max=3.72D-06 NDo=     1
 LinEq1:  Iter=  8 NonCon=     1 RMS=9.17D-08 Max=2.26D-06 NDo=     1
 LinEq1:  Iter=  9 NonCon=     1 RMS=3.40D-08 Max=7.94D-07 NDo=     1
 LinEq1:  Iter= 10 NonCon=     1 RMS=1.85D-08 Max=3.69D-07 NDo=     1
 LinEq1:  Iter= 11 NonCon=     0 RMS=5.49D-09 Max=1.58D-07 NDo=     1
 Linear equations converged to 2.183D-08 2.183D-07 after    11 iterations.
     Accept linear search using points  1 and  2.
     Minimum is close to point  2 DX= -1.26D-04 DF= -4.55D-13 DXR=  1.26D-04 DFR=  1.51D-08 which will be used.
 LinEq1:  Iter=  0 NonCon=     1 RMS=2.15D-08 Max=1.30D-06 NDo=     1
 LinEq1:  Iter=  1 NonCon=     1 RMS=1.30D-08 Max=5.85D-07 NDo=     1
 LinEq1:  Iter=  2 NonCon=     1 RMS=6.90D-09 Max=1.79D-07 NDo=     1
 LinEq1:  Iter=  3 NonCon=     1 RMS=3.65D-09 Max=8.50D-08 NDo=     1
 LinEq1:  Iter=  4 NonCon=     1 RMS=1.74D-09 Max=7.47D-08 NDo=     1
 LinEq1:  Iter=  5 NonCon=     1 RMS=9.37D-10 Max=3.50D-08 NDo=     1
 LinEq1:  Iter=  6 NonCon=     1 RMS=5.02D-10 Max=1.50D-08 NDo=     1
 LinEq1:  Iter=  7 NonCon=     1 RMS=1.94D-10 Max=3.72D-09 NDo=     1
 LinEq1:  Iter=  8 NonCon=     1 RMS=1.11D-10 Max=4.01D-09 NDo=     1
 LinEq1:  Iter=  9 NonCon=     1 RMS=5.92D-11 Max=1.61D-09 NDo=     1
 LinEq1:  Iter= 10 NonCon=     1 RMS=3.43D-11 Max=9.43D-10 NDo=     1
 LinEq1:  Iter= 11 NonCon=     1 RMS=1.27D-11 Max=3.05D-10 NDo=     1
 LinEq1:  Iter= 12 NonCon=     0 RMS=5.78D-12 Max=9.94D-11 NDo=     1
 Linear equations converged to 2.806D-11 2.806D-10 after    12 iterations.
 SCF Done:  E(RB3LYP) =  -1151.72052926     a.u. after    8 cycles
            Convg  =    0.1051D-09                    38 Fock formations.
              S**2 =  0.0000                  -V/T =  2.0077
 DoSCS=F DFT=T ScalE2(SS,OS)=  1.000000  1.000000
 Range of M.O.s used for correlation:     1   370
 NBasis=   370 NAE=    83 NBE=    83 NFC=     0 NFV=     0
 NROrb=    370 NOA=    83 NOB=    83 NVA=   287 NVB=   287
 Symmetrizing basis deriv contribution to polar:
 IMax=3 JMax=2 DiffMx= 0.00D+00
 G2DrvN: will do    54 centers at a time, making    1 passes.
 Calling FoFCou, ICntrl=  3107 FMM=F I1Cent=   0 AccDes= 0.00D+00.
 End of G2Drv F.D. properties file   721 does not exist.
 End of G2Drv F.D. properties file   722 does not exist.
 End of G2Drv F.D. properties file   788 does not exist.
          IDoAtm=11111111111111111111111111111111111111111111111111
          IDoAtm=111
          Differentiating once with respect to electric field.
                with respect to dipole field.
          Differentiating once with respect to nuclear coordinates.
 CalDSu exits because no D1Ps are significant.
          There are   162 degrees of freedom in the 1st order CPHF.  IDoFFX=6 NUNeed=     3.
    159 vectors produced by pass  0 Test12= 2.38D-14 1.00D-09 XBig12= 1.46D+02 2.36D+00.
 AX will form   159 AO Fock derivatives at one time.
    159 vectors produced by pass  1 Test12= 2.38D-14 1.00D-09 XBig12= 1.08D+01 3.51D-01.
    159 vectors produced by pass  2 Test12= 2.38D-14 1.00D-09 XBig12= 1.03D-01 3.66D-02.
    159 vectors produced by pass  3 Test12= 2.38D-14 1.00D-09 XBig12= 2.44D-04 1.20D-03.
    159 vectors produced by pass  4 Test12= 2.38D-14 1.00D-09 XBig12= 2.31D-07 3.09D-05.
     69 vectors produced by pass  5 Test12= 2.38D-14 1.00D-09 XBig12= 1.58D-10 8.90D-07.
      3 vectors produced by pass  6 Test12= 2.38D-14 1.00D-09 XBig12= 1.01D-13 2.20D-08.
      1 vectors produced by pass  7 Test12= 2.38D-14 1.00D-09 XBig12= 1.45D-16 1.08D-09.
 InvSVY:  IOpt=1 It=  1 EMax= 3.55D-15
 Solved reduced A of dimension   868 with   162 vectors.
 Isotropic polarizability for W=    0.000000      202.38 Bohr**3.
 End of Minotr F.D. properties file   721 does not exist.
 End of Minotr F.D. properties file   722 does not exist.
 End of Minotr F.D. properties file   788 does not exist.

 **********************************************************************

            Population analysis using the SCF density.

 **********************************************************************

 Orbital symmetries:
       Occupied  (A) (A) (A) (A) (A) (A) (A) (A) (A) (A) (A) (A)
                 (A) (A) (A) (A) (A) (A) (A) (A) (A) (A) (A) (A)
                 (A) (A) (A) (A) (A) (A) (A) (A) (A) (A) (A) (A)
                 (A) (A) (A) (A) (A) (A) (A) (A) (A) (A) (A) (A)
                 (A) (A) (A) (A) (A) (A) (A) (A) (A) (A) (A) (A)
                 (A) (A) (A) (A) (A) (A) (A) (A) (A) (A) (A) (A)
                 (A) (A) (A) (A) (A) (A) (A) (A) (A) (A) (A)
       Virtual   (A) (A) (A) (A) (A) (A) (A) (A) (A) (A) (A) (A)
                 (A) (A) (A) (A) (A) (A) (A) (A) (A) (A) (A) (A)
                 (A) (A) (A) (A) (A) (A) (A) (A) (A) (A) (A) (A)
                 (A) (A) (A) (A) (A) (A) (A) (A) (A) (A) (A) (A)
                 (A) (A) (A) (A) (A) (A) (A) (A) (A) (A) (A) (A)
                 (A) (A) (A) (A) (A) (A) (A) (A) (A) (A) (A) (A)
                 (A) (A) (A) (A) (A) (A) (A) (A) (A) (A) (A) (A)
                 (A) (A) (A) (A) (A) (A) (A) (A) (A) (A) (A) (A)
                 (A) (A) (A) (A) (A) (A) (A) (A) (A) (A) (A) (A)
                 (A) (A) (A) (A) (A) (A) (A) (A) (A) (A) (A) (A)
                 (A) (A) (A) (A) (A) (A) (A) (A) (A) (A) (A) (A)
                 (A) (A) (A) (A) (A) (A) (A) (A) (A) (A) (A) (A)
                 (A) (A) (A) (A) (A) (A) (A) (A) (A) (A) (A) (A)
                 (A) (A) (A) (A) (A) (A) (A) (A) (A) (A) (A) (A)
                 (A) (A) (A) (A) (A) (A) (A) (A) (A) (A) (A) (A)
                 (A) (A) (A) (A) (A) (A) (A) (A) (A) (A) (A) (A)
                 (A) (A) (A) (A) (A) (A) (A) (A) (A) (A) (A) (A)
                 (A) (A) (A) (A) (A) (A) (A) (A) (A) (A) (A) (A)
                 (A) (A) (A) (A) (A) (A) (A) (A) (A) (A) (A) (A)
                 (A) (A) (A) (A) (A) (A) (A) (A) (A) (A) (A) (A)
                 (A) (A) (A) (A) (A) (A) (A) (A) (A) (A) (A) (A)
                 (A) (A) (A) (A) (A) (A) (A) (A) (A) (A) (A) (A)
                 (A) (A) (A) (A) (A) (A) (A) (A) (A) (A) (A) (A)
                 (A) (A) (A) (A) (A) (A) (A) (A) (A) (A) (A)
 The electronic state is 1-A.
 Alpha  occ. eigenvalues --  -77.09339 -14.31601 -14.31467 -14.31345 -14.31059
 Alpha  occ. eigenvalues --  -10.22097 -10.21430 -10.21217 -10.20260 -10.20162
 Alpha  occ. eigenvalues --  -10.20022 -10.20000 -10.19938 -10.19528 -10.17796
 Alpha  occ. eigenvalues --  -10.17262 -10.16980 -10.16508 -10.16305 -10.15656
 Alpha  occ. eigenvalues --   -6.55405  -4.71741  -4.71725  -4.71086  -0.93145
 Alpha  occ. eigenvalues --   -0.89802  -0.88914  -0.88629  -0.77399  -0.76711
 Alpha  occ. eigenvalues --   -0.76493  -0.72693  -0.72090  -0.70912  -0.68387
 Alpha  occ. eigenvalues --   -0.68151  -0.67069  -0.62479  -0.61744  -0.60855
 Alpha  occ. eigenvalues --   -0.57059  -0.56290  -0.55841  -0.51721  -0.48786
 Alpha  occ. eigenvalues --   -0.48567  -0.48014  -0.47038  -0.46343  -0.45249
 Alpha  occ. eigenvalues --   -0.45006  -0.43984  -0.43838  -0.42875  -0.41776
 Alpha  occ. eigenvalues --   -0.41422  -0.40894  -0.39938  -0.39063  -0.38929
 Alpha  occ. eigenvalues --   -0.38586  -0.38477  -0.38228  -0.37827  -0.37630
 Alpha  occ. eigenvalues --   -0.36713  -0.36252  -0.35809  -0.35022  -0.34400
 Alpha  occ. eigenvalues --   -0.34242  -0.33406  -0.33301  -0.33020  -0.32413
 Alpha  occ. eigenvalues --   -0.32078  -0.31545  -0.30742  -0.24091  -0.22747
 Alpha  occ. eigenvalues --   -0.20898  -0.19187  -0.14598
 Alpha virt. eigenvalues --    0.06740   0.07784   0.08355   0.08539   0.09228
 Alpha virt. eigenvalues --    0.10445   0.10907   0.11823   0.12163   0.13372
 Alpha virt. eigenvalues --    0.13560   0.13889   0.13983   0.14384   0.14791
 Alpha virt. eigenvalues --    0.15163   0.15779   0.16184   0.16410   0.16939
 Alpha virt. eigenvalues --    0.17161   0.17795   0.18395   0.18442   0.18915
 Alpha virt. eigenvalues --    0.18949   0.19770   0.19875   0.20365   0.20719
 Alpha virt. eigenvalues --    0.21272   0.21521   0.22214   0.22460   0.22579
 Alpha virt. eigenvalues --    0.23227   0.23621   0.24236   0.24416   0.25402
 Alpha virt. eigenvalues --    0.25943   0.26115   0.26817   0.27457   0.28124
 Alpha virt. eigenvalues --    0.28179   0.28845   0.29688   0.30500   0.30974
 Alpha virt. eigenvalues --    0.32123   0.33396   0.35974   0.36615   0.40059
 Alpha virt. eigenvalues --    0.44123   0.45189   0.48750   0.49297   0.51158
 Alpha virt. eigenvalues --    0.51526   0.51625   0.52147   0.53195   0.53774
 Alpha virt. eigenvalues --    0.54202   0.54578   0.55390   0.57128   0.57670
 Alpha virt. eigenvalues --    0.59178   0.59503   0.60564   0.61116   0.61655
 Alpha virt. eigenvalues --    0.61993   0.63271   0.64449   0.64930   0.65552
 Alpha virt. eigenvalues --    0.66079   0.68162   0.68906   0.69378   0.70564
 Alpha virt. eigenvalues --    0.70964   0.72437   0.73066   0.73152   0.75605
 Alpha virt. eigenvalues --    0.75763   0.77414   0.77952   0.78642   0.78984
 Alpha virt. eigenvalues --    0.80861   0.81056   0.82191   0.83100   0.84001
 Alpha virt. eigenvalues --    0.84488   0.85221   0.85764   0.86652   0.87461
 Alpha virt. eigenvalues --    0.87696   0.88039   0.89048   0.89552   0.89834
 Alpha virt. eigenvalues --    0.89970   0.90602   0.91149   0.91258   0.91490
 Alpha virt. eigenvalues --    0.91846   0.92147   0.92328   0.92844   0.93466
 Alpha virt. eigenvalues --    0.93678   0.94888   0.95358   0.95568   0.96908
 Alpha virt. eigenvalues --    0.97588   0.97995   0.98549   0.98686   0.99323
 Alpha virt. eigenvalues --    1.00555   1.00834   1.01885   1.02903   1.03993
 Alpha virt. eigenvalues --    1.04647   1.04946   1.05620   1.05935   1.07351
 Alpha virt. eigenvalues --    1.07977   1.08684   1.10150   1.10890   1.12469
 Alpha virt. eigenvalues --    1.13760   1.14884   1.16397   1.18011   1.20004
 Alpha virt. eigenvalues --    1.20574   1.22578   1.24499   1.29246   1.29850
 Alpha virt. eigenvalues --    1.31341   1.34219   1.36033   1.36756   1.39160
 Alpha virt. eigenvalues --    1.42708   1.43004   1.44537   1.45555   1.47768
 Alpha virt. eigenvalues --    1.48944   1.50709   1.52578   1.57478   1.60511
 Alpha virt. eigenvalues --    1.61431   1.61749   1.63085   1.64486   1.65591
 Alpha virt. eigenvalues --    1.68094   1.69694   1.70721   1.72915   1.75054
 Alpha virt. eigenvalues --    1.75761   1.77124   1.78280   1.79488   1.79926
 Alpha virt. eigenvalues --    1.80397   1.81365   1.83187   1.84622   1.85810
 Alpha virt. eigenvalues --    1.88739   1.89233   1.89521   1.91489   1.91605
 Alpha virt. eigenvalues --    1.92729   1.93842   1.94699   1.97539   1.98291
 Alpha virt. eigenvalues --    2.00216   2.00469   2.02687   2.03629   2.05014
 Alpha virt. eigenvalues --    2.05631   2.06658   2.07846   2.08313   2.09294
 Alpha virt. eigenvalues --    2.10183   2.10794   2.11128   2.12487   2.14437
 Alpha virt. eigenvalues --    2.15441   2.16376   2.16826   2.17485   2.20490
 Alpha virt. eigenvalues --    2.20924   2.23161   2.25380   2.26436   2.26881
 Alpha virt. eigenvalues --    2.27447   2.28248   2.28345   2.28998   2.29212
 Alpha virt. eigenvalues --    2.30889   2.31956   2.32591   2.33694   2.36366
 Alpha virt. eigenvalues --    2.36999   2.39818   2.40353   2.41534   2.42257
 Alpha virt. eigenvalues --    2.46265   2.47651   2.49533   2.50090   2.51219
 Alpha virt. eigenvalues --    2.51621   2.52075   2.54897   2.56590   2.57427
 Alpha virt. eigenvalues --    2.60778   2.62376   2.65390   2.68250   2.69270
 Alpha virt. eigenvalues --    2.70453   2.72191   2.74612   2.76278   2.78042
 Alpha virt. eigenvalues --    2.80412   2.81826   2.83978   2.86069   2.88528
 Alpha virt. eigenvalues --    2.91791   2.96436   3.65762   3.99148   4.03055
 Alpha virt. eigenvalues --    4.07974   4.18716   4.22692   4.23374   4.25802
 Alpha virt. eigenvalues --    4.27805   4.28862   4.30756   4.33669   4.38989
 Alpha virt. eigenvalues --    4.40999   4.50799   4.55186   4.57327   4.60761
 Alpha virt. eigenvalues --    4.62903   4.65560
          Condensed to atoms (all electrons):
 Mulliken charges:
               1
     1  N   -0.552508
     2  C   -0.122032
     3  C   -0.147771
     4  N   -0.381648
     5  C   -0.150167
     6  C   -0.169591
     7  N   -0.529606
     8  P    0.703143
     9  N   -0.541619
    10  C   -0.135099
    11  C   -0.156400
    12  C    0.072307
    13  C   -0.472361
    14  C   -0.451674
    15  C    0.049262
    16  C   -0.444546
    17  C   -0.449747
    18  C    0.082138
    19  C   -0.449952
    20  C   -0.466848
    21  H    0.126946
    22  H    0.134026
    23  H    0.131080
    24  H    0.128972
    25  H    0.137222
    26  H    0.133033
    27  H    0.137065
    28  H    0.145593
    29  H    0.138023
    30  H    0.128233
    31  H    0.157212
    32  H    0.133160
    33  H    0.135752
    34  H    0.149964
    35  H    0.159188
    36  H    0.148776
    37  H    0.134834
    38  H    0.129052
    39  H    0.183156
    40  H    0.143407
    41  H    0.142971
    42  H    0.154441
    43  H    0.145081
    44  H    0.142508
    45  H    0.135106
    46  H    0.166291
    47  H    0.119874
    48  H    0.148178
    49  H    0.142162
    50  H    0.139138
    51  H    0.162361
    52  H    0.123415
    53  H    0.178503
 Sum of Mulliken charges =   0.00000
 Mulliken charges with hydrogens summed into heavy atoms:
               1
     1  N   -0.552508
     2  C    0.138940
     3  C    0.112281
     4  N   -0.381648
     5  C    0.120087
     6  C    0.113066
     7  N   -0.529606
     8  P    0.703143
     9  N   -0.541619
    10  C    0.131158
    11  C    0.133972
    12  C    0.208058
    13  C   -0.014433
    14  C   -0.004632
    15  C    0.192669
    16  C   -0.002053
    17  C   -0.005842
    18  C    0.202011
    19  C   -0.020475
    20  C   -0.002570
 APT charges:
               1
     1  N   -0.875880
     2  C    0.269967
     3  C    0.331955
     4  N   -0.587913
     5  C    0.317570
     6  C    0.244431
     7  N   -0.925107
     8  P    1.282601
     9  N   -0.827658
    10  C    0.228131
    11  C    0.371008
    12  C    0.443984
    13  C    0.038107
    14  C   -0.001167
    15  C    0.472262
    16  C    0.012899
    17  C   -0.018791
    18  C    0.491279
    19  C   -0.005687
    20  C    0.025762
    21  H   -0.088853
    22  H   -0.073830
    23  H    0.019879
    24  H   -0.106799
    25  H   -0.055418
    26  H   -0.054836
    27  H   -0.046708
    28  H   -0.057688
    29  H   -0.055026
    30  H   -0.066793
    31  H   -0.018439
    32  H   -0.097532
    33  H   -0.089213
    34  H   -0.013685
    35  H   -0.012240
    36  H   -0.023202
    37  H   -0.020675
    38  H   -0.048466
    39  H    0.017188
    40  H   -0.038246
    41  H   -0.012147
    42  H   -0.017335
    43  H   -0.029675
    44  H   -0.009926
    45  H   -0.049781
    46  H   -0.000048
    47  H   -0.125488
    48  H   -0.011625
    49  H   -0.014513
    50  H   -0.033277
    51  H   -0.005254
    52  H   -0.063280
    53  H    0.015177
 Sum of APT charges =   0.00000
 APT charges with hydrogens summed into heavy atoms:
               1
     1  N   -0.875880
     2  C    0.107285
     3  C    0.245036
     4  N   -0.587913
     5  C    0.207316
     6  C    0.140035
     7  N   -0.925107
     8  P    1.282601
     9  N   -0.827658
    10  C    0.106312
    11  C    0.255037
    12  C    0.354770
    13  C   -0.011020
    14  C   -0.053120
    15  C    0.434016
    16  C   -0.046258
    17  C   -0.078546
    18  C    0.365791
    19  C   -0.065102
    20  C   -0.027595
 Electronic spatial extent (au):  <R**2>=           5602.5424
 Charge=              0.0000 electrons
 Dipole moment (field-independent basis, Debye):
    X=             -0.3904    Y=             -0.4583    Z=              0.6597  Tot=              0.8931
 Quadrupole moment (field-independent basis, Debye-Ang):
   XX=           -127.4501   YY=           -130.2308   ZZ=           -138.8758
   XY=             -1.2621   XZ=              2.9188   YZ=             -0.7895
 Traceless Quadrupole moment (field-independent basis, Debye-Ang):
   XX=              4.7355   YY=              1.9548   ZZ=             -6.6902
   XY=             -1.2621   XZ=              2.9188   YZ=             -0.7895
 Octapole moment (field-independent basis, Debye-Ang**2):
  XXX=             -1.4822  YYY=              2.5709  ZZZ=             -8.2103  XYY=              0.9795
  XXY=             -8.4345  XXZ=             -5.1497  XZZ=              3.2842  YZZ=              1.2815
  YYZ=              4.2421  XYZ=              1.5795
 Hexadecapole moment (field-independent basis, Debye-Ang**3):
 XXXX=          -3206.9416 YYYY=          -2639.7986 ZZZZ=          -1839.4214 XXXY=            -19.3201
 XXXZ=              8.1995 YYYX=              4.0397 YYYZ=            -20.4116 ZZZX=             39.5131
 ZZZY=              4.1684 XXYY=           -972.8058 XXZZ=           -831.0528 YYZZ=           -731.5442
 XXYZ=              0.9877 YYXZ=            -16.4329 ZZXY=             -5.1650
 N-N= 2.093867830072D+03 E-N=-6.877188171065D+03  KE= 1.142890155104D+03
  Exact polarizability: 214.603  -1.770 205.451   1.805  -0.143 187.092
 Approx polarizability: 293.692  -2.421 291.529   3.786  -4.426 272.781
 Calling FoFJK, ICntrl=    100127 FMM=F ISym2X=0 I1Cent= 0 IOpClX= 0 NMat=1 NMatS=1 NMatT=0.
 ***** Axes restored to original set *****
 -------------------------------------------------------------------
 Center     Atomic                   Forces (Hartrees/Bohr)
 Number     Number              X              Y              Z
 -------------------------------------------------------------------
      1        7          -0.000667524   -0.018549864   -0.024202906
      2        6          -0.007000607   -0.009362188   -0.000908182
      3        6           0.000836618   -0.006359328   -0.011040415
      4        7          -0.006502336    0.024193619    0.007785065
      5        6           0.004203778   -0.007580379   -0.008969439
      6        6           0.009355513   -0.002480237    0.007312970
      7        7           0.045983852    0.000343596   -0.040990916
      8       15          -0.036128753    0.056116160    0.056393885
      9        7           0.031384066   -0.037186597   -0.013892301
     10        6           0.001835958   -0.016367456    0.000111583
     11        6           0.009892750   -0.006525704    0.001629829
     12        6          -0.016010980    0.028569690    0.013979299
     13        6           0.000238299   -0.002604109    0.001191413
     14        6           0.009881558    0.001245339    0.007468982
     15        6          -0.019413947   -0.000631042   -0.006520263
     16        6           0.004521697    0.000132940    0.010179357
     17        6          -0.010774866    0.008872589   -0.005195964
     18        6          -0.001024901    0.000560105    0.011565185
     19        6           0.000723948   -0.003461291   -0.000726801
     20        6          -0.006244043    0.006761458    0.002269529
     21        1          -0.005764407    0.000349635   -0.002884885
     22        1          -0.002532434   -0.002181814    0.000931943
     23        1           0.009335723   -0.018966943    0.012635403
     24        1          -0.010073182   -0.001416022   -0.000321682
     25        1          -0.003542447   -0.003546620   -0.000150459
     26        1          -0.000340795   -0.000999732    0.002104543
     27        1          -0.005039449    0.003500146   -0.000656248
     28        1          -0.002132843   -0.001921076    0.004934121
     29        1          -0.000484215    0.000572291   -0.007535371
     30        1           0.002132380   -0.001378810   -0.003990490
     31        1          -0.001959135    0.006802267   -0.005248342
     32        1           0.004536171   -0.002019512    0.006520781
     33        1          -0.006738733   -0.002501176   -0.003935822
     34        1           0.000895439   -0.001223889    0.001869432
     35        1           0.000934040   -0.000754727    0.001479956
     36        1          -0.000669467    0.003613953   -0.002981430
     37        1           0.002112173    0.000396730   -0.002747987
     38        1          -0.000069742   -0.001596767   -0.003775305
     39        1          -0.001482522   -0.000033151   -0.002569158
     40        1          -0.000141069   -0.004096234    0.003017346
     41        1           0.000790804    0.001415250    0.000978121
     42        1           0.003706350   -0.001021601    0.004293168
     43        1          -0.001668744   -0.004086125   -0.000394393
     44        1           0.000738973    0.000402759   -0.001309364
     45        1           0.002914843    0.001650280    0.000292386
     46        1          -0.001079853    0.014272324   -0.000183590
     47        1           0.002271713    0.002322979   -0.006089885
     48        1           0.003511385    0.001543396   -0.000953981
     49        1          -0.001479707   -0.002185104    0.001806513
     50        1          -0.000761545    0.002382773   -0.001820383
     51        1           0.001275838    0.000585237   -0.001476312
     52        1          -0.003612079   -0.003398660   -0.002002122
     53        1          -0.000673546   -0.002169359    0.002723587
 -------------------------------------------------------------------
 Cartesian Forces:  Max     0.056393885 RMS     0.011414788
 FormGI is forming the generalized inverse of G from B-inverse, IUseBI=4.

 GradGradGradGradGradGradGradGradGradGradGradGradGradGradGradGradGradGrad
 Berny optimization.
 Internal  Forces:  Max     0.048236366 RMS     0.009342390
 Search for a local minimum.
 Step number   1 out of a maximum of  316
 All quantities printed in internal units (Hartrees-Bohrs-Radians)
 Mixed Optimization -- RFO/linear search
 Second derivative matrix not updated -- analytic derivatives used.
 ITU=  0
     Eigenvalues ---   -0.01154  -0.00433  -0.00410  -0.00169  -0.00043
     Eigenvalues ---    0.00201   0.00236   0.00313   0.00382   0.00453
     Eigenvalues ---    0.00475   0.00597   0.00671   0.00744   0.00952
     Eigenvalues ---    0.01198   0.01387   0.01502   0.01929   0.02943
     Eigenvalues ---    0.03409   0.03535   0.04042   0.04195   0.04251
     Eigenvalues ---    0.04313   0.04382   0.04471   0.04528   0.04585
     Eigenvalues ---    0.04604   0.04631   0.04640   0.04725   0.04735
     Eigenvalues ---    0.04748   0.04817   0.04880   0.04916   0.04937
     Eigenvalues ---    0.04973   0.04983   0.04999   0.05077   0.05181
     Eigenvalues ---    0.05216   0.05364   0.05502   0.05510   0.05598
     Eigenvalues ---    0.05738   0.07108   0.07634   0.08027   0.08911
     Eigenvalues ---    0.09005   0.09107   0.09500   0.09733   0.09838
     Eigenvalues ---    0.10123   0.11067   0.11224   0.11423   0.12030
     Eigenvalues ---    0.12201   0.12325   0.12388   0.12527   0.12626
     Eigenvalues ---    0.12670   0.12789   0.12992   0.13074   0.13369
     Eigenvalues ---    0.13555   0.13669   0.13955   0.14218   0.14624
     Eigenvalues ---    0.14732   0.14846   0.15114   0.15250   0.15382
     Eigenvalues ---    0.16199   0.17023   0.18074   0.18561   0.18698
     Eigenvalues ---    0.19280   0.19513   0.20027   0.20256   0.21242
     Eigenvalues ---    0.21691   0.23475   0.24367   0.25048   0.25546
     Eigenvalues ---    0.25798   0.26301   0.26892   0.27032   0.27827
     Eigenvalues ---    0.28432   0.28829   0.29148   0.29589   0.29735
     Eigenvalues ---    0.30418   0.30776   0.31014   0.31249   0.31711
     Eigenvalues ---    0.31772   0.31893   0.32142   0.32183   0.32309
     Eigenvalues ---    0.32547   0.32823   0.33207   0.33388   0.33411
     Eigenvalues ---    0.33469   0.33478   0.33655   0.33805   0.33825
     Eigenvalues ---    0.33877   0.33934   0.33982   0.34169   0.34201
     Eigenvalues ---    0.34265   0.34351   0.34486   0.34534   0.34692
     Eigenvalues ---    0.34825   0.34903   0.34961   0.35091   0.35235
     Eigenvalues ---    0.35271   0.35584   0.36529   0.37815   0.39778
     Eigenvalues ---    0.56862   0.61999   0.93497
 RFO step:  Lambda=-6.39456498D-02 EMin=-1.15398275D-02
 Linear search not attempted -- first point.
 Maximum step size (   0.300) exceeded in Quadratic search.
    -- Step size scaled by   0.721
 Iteration  1 RMS(Cart)=  0.15199596 RMS(Int)=  0.00866070
 Iteration  2 RMS(Cart)=  0.02470098 RMS(Int)=  0.00058608
 Iteration  3 RMS(Cart)=  0.00045045 RMS(Int)=  0.00054866
 Iteration  4 RMS(Cart)=  0.00000034 RMS(Int)=  0.00054866
 Variable       Old X    -DE/DX   Delta X   Delta X   Delta X     New X
                                 (Linear)    (Quad)   (Total)
    R1        2.76900   0.00986   0.00000  -0.00350  -0.00356   2.76545
    R2        3.16768   0.03630   0.00000   0.05166   0.05172   3.21940
    R3        2.79546   0.00780   0.00000   0.00433   0.00433   2.79979
    R4        2.92269   0.00512   0.00000  -0.00823  -0.00837   2.91432
    R5        2.07205   0.00563   0.00000   0.00932   0.00932   2.08137
    R6        2.06485   0.00313   0.00000   0.00603   0.00603   2.07088
    R7        2.75174  -0.00045   0.00000   0.00746   0.00729   2.75903
    R8        2.07380  -0.02122   0.00000  -0.01584  -0.01584   2.05797
    R9        2.07752   0.00366   0.00000   0.00653   0.00653   2.08405
   R10        2.75970   0.00693   0.00000  -0.00595  -0.00672   2.75298
   R11        2.75441   0.00296   0.00000   0.00455   0.00423   2.75864
   R12        2.93404   0.01874   0.00000   0.01340   0.01278   2.94682
   R13        2.07733  -0.00078   0.00000  -0.00150  -0.00150   2.07582
   R14        2.07598   0.00064   0.00000   0.00079   0.00079   2.07677
   R15        2.77022   0.00741   0.00000  -0.02100  -0.02086   2.74936
   R16        2.06952  -0.00003   0.00000   0.00290   0.00290   2.07242
   R17        2.06697   0.00292   0.00000   0.00308   0.00308   2.07005
   R18        3.16895   0.03183   0.00000   0.05755   0.05798   3.22693
   R19        2.79986   0.01477   0.00000  -0.01472  -0.01472   2.78514
   R20        3.18837   0.01927   0.00000   0.04658   0.04690   3.23527
   R21        2.77739   0.01080   0.00000   0.00311   0.00360   2.78099
   R22        2.81261   0.01089   0.00000   0.00016   0.00016   2.81278
   R23        2.90619  -0.00821   0.00000  -0.00620  -0.00567   2.90052
   R24        2.07973  -0.00573   0.00000  -0.00474  -0.00474   2.07498
   R25        2.07381   0.00220   0.00000   0.00656   0.00656   2.08037
   R26        2.07185  -0.00163   0.00000  -0.00244  -0.00244   2.06941
   R27        2.07595   0.00370   0.00000   0.00698   0.00698   2.08293
   R28        2.89675   0.00216   0.00000  -0.00006  -0.00006   2.89669
   R29        2.89466   0.00551   0.00000   0.01042   0.01042   2.90508
   R30        2.07776   0.00193   0.00000   0.00056   0.00056   2.07832
   R31        2.06694   0.00019   0.00000   0.00182   0.00182   2.06876
   R32        2.06683   0.00027   0.00000   0.00293   0.00293   2.06975
   R33        2.07500  -0.00180   0.00000  -0.00334  -0.00334   2.07166
   R34        2.06669   0.00317   0.00000   0.00496   0.00496   2.07165
   R35        2.08775  -0.00397   0.00000  -0.00826  -0.00826   2.07949
   R36        2.05947   0.00182   0.00000   0.00373   0.00373   2.06319
   R37        2.91453  -0.00073   0.00000   0.00360   0.00360   2.91813
   R38        2.91555  -0.00262   0.00000   0.00752   0.00752   2.92307
   R39        2.07579  -0.00023   0.00000  -0.00409  -0.00409   2.07170
   R40        2.06957   0.00013   0.00000   0.00151   0.00151   2.07108
   R41        2.06231   0.00324   0.00000   0.00443   0.00443   2.06673
   R42        2.07360  -0.00148   0.00000  -0.00057  -0.00057   2.07304
   R43        2.06758   0.00104   0.00000   0.00314   0.00314   2.07072
   R44        2.07457  -0.00018   0.00000  -0.00275  -0.00275   2.07182
   R45        2.06419  -0.01027   0.00000  -0.00640  -0.00640   2.05779
   R46        2.91183   0.00052   0.00000   0.00219   0.00219   2.91403
   R47        2.89936   0.00208   0.00000   0.00251   0.00251   2.90187
   R48        2.07867   0.00281   0.00000   0.00412   0.00412   2.08279
   R49        2.07003   0.00093   0.00000   0.00082   0.00082   2.07084
   R50        2.06738  -0.00001   0.00000  -0.00051  -0.00051   2.06687
   R51        2.07194  -0.00008   0.00000   0.00019   0.00019   2.07212
   R52        2.06866  -0.00049   0.00000  -0.00095  -0.00095   2.06771
   R53        2.07072   0.00226   0.00000   0.00201   0.00201   2.07273
   R54        2.06613  -0.00284   0.00000  -0.00090  -0.00090   2.06523
    A1        2.21565   0.00942   0.00000   0.03276   0.03283   2.24848
    A2        1.98827  -0.02055   0.00000  -0.02827  -0.02855   1.95971
    A3        2.07914   0.01108   0.00000  -0.00502  -0.00531   2.07382
    A4        2.15935  -0.00482   0.00000  -0.02175  -0.02170   2.13765
    A5        1.89101   0.00133   0.00000   0.00140   0.00125   1.89226
    A6        1.89394   0.00040   0.00000   0.00592   0.00604   1.89998
    A7        1.81788   0.00301   0.00000   0.00091   0.00080   1.81868
    A8        1.83682   0.00208   0.00000   0.01799   0.01800   1.85483
    A9        1.84133  -0.00175   0.00000  -0.00251  -0.00253   1.83879
   A10        2.11965   0.00690   0.00000   0.01795   0.01769   2.13734
   A11        1.89590   0.00602   0.00000   0.00624   0.00640   1.90231
   A12        1.84242  -0.00736   0.00000  -0.02661  -0.02677   1.81565
   A13        1.93642  -0.01354   0.00000  -0.03311  -0.03289   1.90354
   A14        1.83548   0.00648   0.00000   0.02627   0.02647   1.86195
   A15        1.80436   0.00107   0.00000   0.01000   0.01019   1.81456
   A16        1.98471   0.00807   0.00000   0.02124   0.02154   2.00625
   A17        2.02599   0.00194   0.00000   0.01469   0.01401   2.04000
   A18        2.05518  -0.00719   0.00000  -0.00435  -0.00536   2.04982
   A19        2.11433   0.00241   0.00000  -0.01229  -0.01324   2.10109
   A20        1.86861   0.00058   0.00000  -0.00451  -0.00423   1.86438
   A21        1.89723  -0.00606   0.00000  -0.00518  -0.00488   1.89236
   A22        1.86857   0.00340   0.00000   0.01594   0.01654   1.88511
   A23        1.88129  -0.00142   0.00000   0.00104   0.00085   1.88214
   A24        1.81068   0.00122   0.00000   0.00856   0.00840   1.81907
   A25        2.07561   0.00945   0.00000  -0.02356  -0.02270   2.05292
   A26        1.83890   0.00949   0.00000   0.02502   0.02475   1.86365
   A27        1.89997  -0.01167   0.00000   0.00217   0.00150   1.90147
   A28        1.93905  -0.01236   0.00000  -0.01983  -0.01992   1.91913
   A29        1.90450   0.00114   0.00000   0.00568   0.00532   1.90982
   A30        1.78261   0.00309   0.00000   0.01698   0.01697   1.79957
   A31        2.10111  -0.00742   0.00000   0.05076   0.05049   2.15160
   A32        1.98029   0.04001   0.00000   0.06841   0.06793   2.04822
   A33        2.19290  -0.03107   0.00000  -0.11114  -0.11217   2.08074
   A34        1.89501   0.00333   0.00000  -0.02084  -0.02134   1.87367
   A35        1.88637  -0.00815   0.00000  -0.00079  -0.00301   1.88336
   A36        1.97139  -0.00885   0.00000  -0.06281  -0.06356   1.90783
   A37        2.15489   0.01257   0.00000   0.04850   0.04891   2.20380
   A38        2.14700  -0.04739   0.00000  -0.11098  -0.11148   2.03552
   A39        1.89367   0.03509   0.00000   0.05927   0.05988   1.95355
   A40        2.10114  -0.00568   0.00000  -0.03020  -0.03029   2.07085
   A41        1.87080   0.00462   0.00000   0.00997   0.01017   1.88097
   A42        1.92079   0.00492   0.00000   0.01726   0.01689   1.93769
   A43        1.81621  -0.00145   0.00000   0.00885   0.00852   1.82472
   A44        1.90442  -0.00218   0.00000  -0.00333  -0.00285   1.90158
   A45        1.82843   0.00035   0.00000   0.00110   0.00099   1.82942
   A46        2.07205   0.00707   0.00000   0.00754   0.00776   2.07981
   A47        1.96741  -0.00876   0.00000  -0.03069  -0.03090   1.93651
   A48        1.84165   0.00463   0.00000   0.02305   0.02326   1.86491
   A49        1.90951   0.00215   0.00000   0.00443   0.00418   1.91368
   A50        1.84587  -0.00880   0.00000  -0.01597  -0.01609   1.82978
   A51        1.80129   0.00333   0.00000   0.01522   0.01544   1.81674
   A52        2.02626   0.00884   0.00000  -0.02722  -0.02724   1.99902
   A53        1.97771  -0.00167   0.00000   0.02120   0.02107   1.99878
   A54        1.88282  -0.00508   0.00000  -0.01856  -0.01890   1.86392
   A55        1.94629  -0.00777   0.00000  -0.00535  -0.00525   1.94104
   A56        1.81467  -0.00072   0.00000   0.00922   0.00895   1.82362
   A57        1.79097   0.00632   0.00000   0.02565   0.02568   1.81665
   A58        1.96339   0.00387   0.00000   0.00575   0.00576   1.96914
   A59        1.94193   0.00321   0.00000  -0.00114  -0.00114   1.94079
   A60        1.91670  -0.00720   0.00000  -0.01073  -0.01072   1.90598
   A61        1.90036  -0.00210   0.00000  -0.00363  -0.00363   1.89673
   A62        1.88259   0.00042   0.00000  -0.00081  -0.00080   1.88179
   A63        1.85476   0.00161   0.00000   0.01089   0.01089   1.86565
   A64        1.95882   0.00059   0.00000   0.00050   0.00049   1.95931
   A65        1.91150   0.00090   0.00000   0.00222   0.00222   1.91371
   A66        1.94489  -0.00236   0.00000  -0.00382  -0.00382   1.94106
   A67        1.87029  -0.00023   0.00000   0.00031   0.00030   1.87060
   A68        1.90582  -0.00023   0.00000  -0.00405  -0.00406   1.90175
   A69        1.86888   0.00147   0.00000   0.00526   0.00526   1.87415
   A70        2.06231  -0.03608   0.00000  -0.09154  -0.09145   1.97085
   A71        1.95876   0.04824   0.00000   0.04280   0.04230   2.00106
   A72        1.87278  -0.00490   0.00000   0.00595   0.00444   1.87722
   A73        1.85627  -0.00843   0.00000   0.01434   0.01492   1.87119
   A74        1.83481   0.01244   0.00000   0.01350   0.01263   1.84744
   A75        1.86659  -0.01220   0.00000   0.02281   0.02206   1.88865
   A76        1.95632   0.00264   0.00000  -0.00759  -0.00769   1.94863
   A77        1.94972  -0.00033   0.00000  -0.01235  -0.01245   1.93728
   A78        1.92867  -0.00542   0.00000   0.00710   0.00712   1.93579
   A79        1.90818  -0.00219   0.00000  -0.00788  -0.00809   1.90009
   A80        1.86818   0.00130   0.00000   0.00559   0.00561   1.87378
   A81        1.84791   0.00412   0.00000   0.01720   0.01723   1.86514
   A82        1.94434   0.00255   0.00000  -0.00204  -0.00208   1.94226
   A83        1.92378  -0.00339   0.00000  -0.01114  -0.01116   1.91262
   A84        1.97326  -0.00103   0.00000   0.02831   0.02831   2.00157
   A85        1.88088  -0.00078   0.00000  -0.00270  -0.00276   1.87811
   A86        1.88818   0.00299   0.00000  -0.01502  -0.01504   1.87315
   A87        1.84872  -0.00041   0.00000   0.00145   0.00146   1.85019
   A88        1.98683  -0.00708   0.00000  -0.00657  -0.00663   1.98021
   A89        1.94899   0.01714   0.00000   0.03105   0.03113   1.98012
   A90        1.91506  -0.00585   0.00000  -0.02916  -0.02902   1.88603
   A91        1.90818  -0.00768   0.00000  -0.00895  -0.00899   1.89919
   A92        1.83892   0.00627   0.00000   0.02172   0.02163   1.86055
   A93        1.85840  -0.00336   0.00000  -0.00936  -0.00915   1.84925
   A94        1.96681  -0.00493   0.00000  -0.02308  -0.02307   1.94375
   A95        1.93888   0.00574   0.00000   0.01956   0.01962   1.95851
   A96        1.92988  -0.00355   0.00000  -0.00671  -0.00676   1.92312
   A97        1.89102  -0.00035   0.00000  -0.00125  -0.00114   1.88988
   A98        1.85809   0.00425   0.00000   0.01591   0.01581   1.87390
   A99        1.87504  -0.00106   0.00000  -0.00384  -0.00382   1.87121
   A100       1.96111  -0.00058   0.00000   0.00194   0.00193   1.96304
   A101       1.92500  -0.00717   0.00000  -0.02232  -0.02230   1.90270
   A102       1.93946   0.00436   0.00000   0.00993   0.00994   1.94940
   A103       1.86683   0.00330   0.00000   0.01032   0.01030   1.87713
   A104       1.89187  -0.00156   0.00000  -0.00580  -0.00582   1.88605
   A105       1.87610   0.00178   0.00000   0.00635   0.00641   1.88250
    D1        0.11395  -0.00078   0.00000  -0.03897  -0.03899   0.07496
    D2       -2.01680  -0.00256   0.00000  -0.02406  -0.02414  -2.04095
    D3        2.27534  -0.00140   0.00000  -0.02488  -0.02493   2.25042
    D4       -3.00979   0.00274   0.00000  -0.00369  -0.00354  -3.01333
    D5        1.14264   0.00095   0.00000   0.01122   0.01130   1.15394
    D6       -0.84840   0.00212   0.00000   0.01040   0.01052  -0.83788
    D7        0.61971   0.00448   0.00000  -0.01424  -0.01412   0.60558
    D8       -1.52449   0.01821   0.00000   0.07528   0.07555  -1.44894
    D9       -2.54056   0.00051   0.00000  -0.05134  -0.05174  -2.59230
   D10        1.59842   0.01425   0.00000   0.03818   0.03794   1.63636
   D11        1.03488   0.00104   0.00000   0.08495   0.08538   1.12026
   D12       -3.07714  -0.00101   0.00000   0.09284   0.09333  -2.98381
   D13       -1.02078   0.00164   0.00000   0.08172   0.08197  -0.93882
   D14       -2.09038   0.00424   0.00000   0.11678   0.11643  -1.97395
   D15        0.08079   0.00219   0.00000   0.12467   0.12438   0.20517
   D16        2.13714   0.00484   0.00000   0.11355   0.11302   2.25016
   D17        0.75091  -0.00548   0.00000   0.01120   0.01130   0.76221
   D18       -1.52534   0.00185   0.00000   0.03734   0.03731  -1.48803
   D19        2.83224   0.00150   0.00000   0.03564   0.03551   2.86774
   D20        2.91448  -0.00430   0.00000  -0.00232  -0.00217   2.91231
   D21        0.63823   0.00304   0.00000   0.02382   0.02384   0.66207
   D22       -1.28739   0.00268   0.00000   0.02212   0.02204  -1.26535
   D23       -1.43565  -0.00428   0.00000   0.00198   0.00215  -1.43349
   D24        2.57129   0.00305   0.00000   0.02812   0.02816   2.59945
   D25        0.64567   0.00270   0.00000   0.02642   0.02636   0.67204
   D26       -2.00129   0.00416   0.00000  -0.02691  -0.02690  -2.02819
   D27        0.46625   0.00508   0.00000   0.01327   0.01339   0.47965
   D28        0.25754   0.00534   0.00000  -0.03600  -0.03601   0.22153
   D29        2.72508   0.00626   0.00000   0.00418   0.00428   2.72936
   D30        2.19719   0.00398   0.00000  -0.02541  -0.02570   2.17148
   D31       -1.61846   0.00490   0.00000   0.01477   0.01459  -1.60386
   D32        1.19669   0.00656   0.00000   0.03345   0.03392   1.23061
   D33       -0.94937  -0.00053   0.00000   0.02471   0.02483  -0.92454
   D34       -2.89519   0.00058   0.00000   0.01942   0.01945  -2.87574
   D35       -1.25887   0.00174   0.00000  -0.01549  -0.01465  -1.27351
   D36        2.87826  -0.00535   0.00000  -0.02423  -0.02374   2.85452
   D37        0.93244  -0.00423   0.00000  -0.02951  -0.02912   0.90332
   D38       -1.95637  -0.00600   0.00000  -0.01038  -0.01008  -1.96645
   D39        0.30924  -0.00495   0.00000  -0.02870  -0.02850   0.28074
   D40        2.26266  -0.00250   0.00000  -0.01211  -0.01223   2.25043
   D41        0.48324   0.00118   0.00000   0.04198   0.04213   0.52537
   D42        2.74885   0.00223   0.00000   0.02366   0.02371   2.77256
   D43       -1.58092   0.00467   0.00000   0.04026   0.03998  -1.54094
[...]
   164    C   11  pz     Ryd( 3p)     0.00172
   165    C   11  dxy    Ryd( 3d)     0.00114
   166    C   11  dxz    Ryd( 3d)     0.00070
   167    C   11  dyz    Ryd( 3d)     0.00158
   168    C   11  dx2y2  Ryd( 3d)     0.00082
   169    C   11  dz2    Ryd( 3d)     0.00084
 
   170    C   12  S      Cor( 1S)     1.99924
   171    C   12  S      Val( 2S)     0.96198
   172    C   12  S      Ryd( 3S)     0.00203
   173    C   12  S      Ryd( 4S)     0.00004
   174    C   12  px     Val( 2p)     0.96916
   175    C   12  px     Ryd( 3p)     0.00264
   176    C   12  py     Val( 2p)     1.13457
   177    C   12  py     Ryd( 3p)     0.00501
   178    C   12  pz     Val( 2p)     0.98101
   179    C   12  pz     Ryd( 3p)     0.00352
   180    C   12  dxy    Ryd( 3d)     0.00059
   181    C   12  dxz    Ryd( 3d)     0.00120
   182    C   12  dyz    Ryd( 3d)     0.00142
   183    C   12  dx2y2  Ryd( 3d)     0.00112
   184    C   12  dz2    Ryd( 3d)     0.00074
 
   185    C   13  S      Cor( 1S)     1.99939
   186    C   13  S      Val( 2S)     1.09956
   187    C   13  S      Ryd( 3S)     0.00054
   188    C   13  S      Ryd( 4S)     0.00002
   189    C   13  px     Val( 2p)     1.09976
   190    C   13  px     Ryd( 3p)     0.00196
   191    C   13  py     Val( 2p)     1.24087
   192    C   13  py     Ryd( 3p)     0.00192
   193    C   13  pz     Val( 2p)     1.23230
   194    C   13  pz     Ryd( 3p)     0.00169
   195    C   13  dxy    Ryd( 3d)     0.00044
   196    C   13  dxz    Ryd( 3d)     0.00081
   197    C   13  dyz    Ryd( 3d)     0.00091
   198    C   13  dx2y2  Ryd( 3d)     0.00080
   199    C   13  dz2    Ryd( 3d)     0.00035
 
   200    C   14  S      Cor( 1S)     1.99939
   201    C   14  S      Val( 2S)     1.10480
   202    C   14  S      Ryd( 3S)     0.00049
   203    C   14  S      Ryd( 4S)     0.00001
   204    C   14  px     Val( 2p)     1.24194
   205    C   14  px     Ryd( 3p)     0.00195
   206    C   14  py     Val( 2p)     1.12216
   207    C   14  py     Ryd( 3p)     0.00123
   208    C   14  pz     Val( 2p)     1.20799
   209    C   14  pz     Ryd( 3p)     0.00142
   210    C   14  dxy    Ryd( 3d)     0.00022
   211    C   14  dxz    Ryd( 3d)     0.00077
   212    C   14  dyz    Ryd( 3d)     0.00085
   213    C   14  dx2y2  Ryd( 3d)     0.00105
   214    C   14  dz2    Ryd( 3d)     0.00038
 
   215    C   15  S      Cor( 1S)     1.99924
   216    C   15  S      Val( 2S)     0.94816
   217    C   15  S      Ryd( 3S)     0.00173
   218    C   15  S      Ryd( 4S)     0.00003
   219    C   15  px     Val( 2p)     0.97120
   220    C   15  px     Ryd( 3p)     0.00439
   221    C   15  py     Val( 2p)     1.02707
   222    C   15  py     Ryd( 3p)     0.00430
   223    C   15  pz     Val( 2p)     1.08861
   224    C   15  pz     Ryd( 3p)     0.00417
   225    C   15  dxy    Ryd( 3d)     0.00089
   226    C   15  dxz    Ryd( 3d)     0.00117
   227    C   15  dyz    Ryd( 3d)     0.00094
   228    C   15  dx2y2  Ryd( 3d)     0.00123
   229    C   15  dz2    Ryd( 3d)     0.00096
 
   230    C   16  S      Cor( 1S)     1.99940
   231    C   16  S      Val( 2S)     1.10345
   232    C   16  S      Ryd( 3S)     0.00055
   233    C   16  S      Ryd( 4S)     0.00002
   234    C   16  px     Val( 2p)     1.24400
   235    C   16  px     Ryd( 3p)     0.00205
   236    C   16  py     Val( 2p)     1.09326
   237    C   16  py     Ryd( 3p)     0.00115
   238    C   16  pz     Val( 2p)     1.23908
   239    C   16  pz     Ryd( 3p)     0.00110
   240    C   16  dxy    Ryd( 3d)     0.00065
   241    C   16  dxz    Ryd( 3d)     0.00075
   242    C   16  dyz    Ryd( 3d)     0.00062
   243    C   16  dx2y2  Ryd( 3d)     0.00067
   244    C   16  dz2    Ryd( 3d)     0.00062
 
   245    C   17  S      Cor( 1S)     1.99940
   246    C   17  S      Val( 2S)     1.10051
   247    C   17  S      Ryd( 3S)     0.00057
   248    C   17  S      Ryd( 4S)     0.00002
   249    C   17  px     Val( 2p)     1.11373
   250    C   17  px     Ryd( 3p)     0.00140
   251    C   17  py     Val( 2p)     1.22605
   252    C   17  py     Ryd( 3p)     0.00219
   253    C   17  pz     Val( 2p)     1.23271
   254    C   17  pz     Ryd( 3p)     0.00176
   255    C   17  dxy    Ryd( 3d)     0.00044
   256    C   17  dxz    Ryd( 3d)     0.00099
   257    C   17  dyz    Ryd( 3d)     0.00030
   258    C   17  dx2y2  Ryd( 3d)     0.00092
   259    C   17  dz2    Ryd( 3d)     0.00066
 
   260    C   18  S      Cor( 1S)     1.99923
   261    C   18  S      Val( 2S)     0.95207
   262    C   18  S      Ryd( 3S)     0.00146
   263    C   18  S      Ryd( 4S)     0.00004
   264    C   18  px     Val( 2p)     1.04542
   265    C   18  px     Ryd( 3p)     0.00248
   266    C   18  py     Val( 2p)     0.96475
   267    C   18  py     Ryd( 3p)     0.00285
   268    C   18  pz     Val( 2p)     1.07071
   269    C   18  pz     Ryd( 3p)     0.00573
   270    C   18  dxy    Ryd( 3d)     0.00080
   271    C   18  dxz    Ryd( 3d)     0.00082
   272    C   18  dyz    Ryd( 3d)     0.00179
   273    C   18  dx2y2  Ryd( 3d)     0.00115
   274    C   18  dz2    Ryd( 3d)     0.00067
 
   275    C   19  S      Cor( 1S)     1.99939
   276    C   19  S      Val( 2S)     1.10567
   277    C   19  S      Ryd( 3S)     0.00060
   278    C   19  S      Ryd( 4S)     0.00001
   279    C   19  px     Val( 2p)     1.18136
   280    C   19  px     Ryd( 3p)     0.00203
   281    C   19  py     Val( 2p)     1.24060
   282    C   19  py     Ryd( 3p)     0.00198
   283    C   19  pz     Val( 2p)     1.14799
   284    C   19  pz     Ryd( 3p)     0.00152
   285    C   19  dxy    Ryd( 3d)     0.00019
   286    C   19  dxz    Ryd( 3d)     0.00058
   287    C   19  dyz    Ryd( 3d)     0.00104
   288    C   19  dx2y2  Ryd( 3d)     0.00106
   289    C   19  dz2    Ryd( 3d)     0.00043
 
   290    C   20  S      Cor( 1S)     1.99940
   291    C   20  S      Val( 2S)     1.09943
   292    C   20  S      Ryd( 3S)     0.00051
   293    C   20  S      Ryd( 4S)     0.00002
   294    C   20  px     Val( 2p)     1.08514
   295    C   20  px     Ryd( 3p)     0.00142
   296    C   20  py     Val( 2p)     1.24361
   297    C   20  py     Ryd( 3p)     0.00168
   298    C   20  pz     Val( 2p)     1.24689
   299    C   20  pz     Ryd( 3p)     0.00247
   300    C   20  dxy    Ryd( 3d)     0.00027
   301    C   20  dxz    Ryd( 3d)     0.00083
   302    C   20  dyz    Ryd( 3d)     0.00090
   303    C   20  dx2y2  Ryd( 3d)     0.00089
   304    C   20  dz2    Ryd( 3d)     0.00039
 
   305    H   21  S      Val( 1S)     0.77008
   306    H   21  S      Ryd( 2S)     0.00238
 
   307    H   22  S      Val( 1S)     0.76412
   308    H   22  S      Ryd( 2S)     0.00973
 
   309    H   23  S      Val( 1S)     0.76294
   310    H   23  S      Ryd( 2S)     0.00173
 
   311    H   24  S      Val( 1S)     0.76253
   312    H   24  S      Ryd( 2S)     0.00324
 
   313    H   25  S      Val( 1S)     0.76082
   314    H   25  S      Ryd( 2S)     0.00439
 
   315    H   26  S      Val( 1S)     0.77478
   316    H   26  S      Ryd( 2S)     0.00637
 
   317    H   27  S      Val( 1S)     0.76741
   318    H   27  S      Ryd( 2S)     0.00347
 
   319    H   28  S      Val( 1S)     0.81104
   320    H   28  S      Ryd( 2S)     0.01508
 
   321    H   29  S      Val( 1S)     0.76418
   322    H   29  S      Ryd( 2S)     0.00187
 
   323    H   30  S      Val( 1S)     0.77397
   324    H   30  S      Ryd( 2S)     0.00716
 
   325    H   31  S      Val( 1S)     0.76337
   326    H   31  S      Ryd( 2S)     0.00323
 
   327    H   32  S      Val( 1S)     0.76553
   328    H   32  S      Ryd( 2S)     0.00478
 
   329    H   33  S      Val( 1S)     0.76247
   330    H   33  S      Ryd( 2S)     0.01686
 
   331    H   34  S      Val( 1S)     0.78325
   332    H   34  S      Ryd( 2S)     0.00103
 
   333    H   35  S      Val( 1S)     0.77642
   334    H   35  S      Ryd( 2S)     0.00751
 
   335    H   36  S      Val( 1S)     0.76837
   336    H   36  S      Ryd( 2S)     0.00361
 
   337    H   37  S      Val( 1S)     0.77999
   338    H   37  S      Ryd( 2S)     0.00106
 
   339    H   38  S      Val( 1S)     0.76938
   340    H   38  S      Ryd( 2S)     0.00349
 
   341    H   39  S      Val( 1S)     0.76893
   342    H   39  S      Ryd( 2S)     0.00526
 
   343    H   40  S      Val( 1S)     0.74678
   344    H   40  S      Ryd( 2S)     0.00249
 
   345    H   41  S      Val( 1S)     0.78225
   346    H   41  S      Ryd( 2S)     0.00360
 
   347    H   42  S      Val( 1S)     0.76987
   348    H   42  S      Ryd( 2S)     0.00486
 
   349    H   43  S      Val( 1S)     0.76647
   350    H   43  S      Ryd( 2S)     0.00082
 
   351    H   44  S      Val( 1S)     0.78157
   352    H   44  S      Ryd( 2S)     0.00109
 
   353    H   45  S      Val( 1S)     0.76725
   354    H   45  S      Ryd( 2S)     0.00086
 
   355    H   46  S      Val( 1S)     0.76049
   356    H   46  S      Ryd( 2S)     0.00098
 
   357    H   47  S      Val( 1S)     0.76267
   358    H   47  S      Ryd( 2S)     0.00230
 
   359    H   48  S      Val( 1S)     0.75478
   360    H   48  S      Ryd( 2S)     0.00273
 
   361    H   49  S      Val( 1S)     0.77088
   362    H   49  S      Ryd( 2S)     0.00228
 
   363    H   50  S      Val( 1S)     0.76858
   364    H   50  S      Ryd( 2S)     0.00118
 
   365    H   51  S      Val( 1S)     0.75781
   366    H   51  S      Ryd( 2S)     0.00438
 
   367    H   52  S      Val( 1S)     0.77551
   368    H   52  S      Ryd( 2S)     0.00268
 
   369    H   53  S      Val( 1S)     0.76495
   370    H   53  S      Ryd( 2S)     0.00201


 Summary of Natural Population Analysis:                  
                                                          
                                       Natural Population 
                Natural  -----------------------------------------------
    Atom  No    Charge         Core      Valence    Rydberg      Total
 -----------------------------------------------------------------------
      N    1   -0.69203      1.99945     5.67195    0.02062     7.69203
      C    2   -0.28337      1.99926     4.26524    0.01887     6.28337
      C    3   -0.25284      1.99930     4.23525    0.01829     6.25284
      N    4   -0.45035      1.99940     5.43800    0.01295     7.45035
      C    5   -0.25737      1.99931     4.24017    0.01789     6.25737
      C    6   -0.27179      1.99929     4.25435    0.01815     6.27179
      N    7   -0.83489      1.99942     5.80974    0.02572     7.83489
      P    8    1.12627      9.99841     3.78254    0.09277    13.87373
      N    9   -0.74795      1.99946     5.72221    0.02628     7.74795
      C   10   -0.28366      1.99930     4.26628    0.01808     6.28366
      C   11   -0.26646      1.99933     4.24841    0.01872     6.26646
      C   12   -0.06427      1.99924     4.04673    0.01831     6.06427
      C   13   -0.68133      1.99939     4.67249    0.00944     6.68133
      C   14   -0.68465      1.99939     4.67688    0.00838     6.68465
      C   15   -0.05409      1.99924     4.03503    0.01982     6.05409
      C   16   -0.68737      1.99940     4.67979    0.00817     6.68737
      C   17   -0.68165      1.99940     4.67301    0.00924     6.68165
      C   18   -0.04995      1.99923     4.03295    0.01777     6.04995
      C   19   -0.68446      1.99939     4.67562    0.00944     6.68446
      C   20   -0.68386      1.99940     4.67507    0.00939     6.68386
      H   21    0.22754      0.00000     0.77008    0.00238     0.77246
      H   22    0.22615      0.00000     0.76412    0.00973     0.77385
      H   23    0.23533      0.00000     0.76294    0.00173     0.76467
      H   24    0.23424      0.00000     0.76253    0.00324     0.76576
      H   25    0.23479      0.00000     0.76082    0.00439     0.76521
      H   26    0.21885      0.00000     0.77478    0.00637     0.78115
      H   27    0.22912      0.00000     0.76741    0.00347     0.77088
      H   28    0.17387      0.00000     0.81104    0.01508     0.82613
      H   29    0.23395      0.00000     0.76418    0.00187     0.76605
      H   30    0.21887      0.00000     0.77397    0.00716     0.78113
      H   31    0.23340      0.00000     0.76337    0.00323     0.76660
      H   32    0.22969      0.00000     0.76553    0.00478     0.77031
      H   33    0.22068      0.00000     0.76247    0.01686     0.77932
      H   34    0.21572      0.00000     0.78325    0.00103     0.78428
      H   35    0.21607      0.00000     0.77642    0.00751     0.78393
      H   36    0.22801      0.00000     0.76837    0.00361     0.77199
      H   37    0.21894      0.00000     0.77999    0.00106     0.78106
      H   38    0.22713      0.00000     0.76938    0.00349     0.77287
      H   39    0.22582      0.00000     0.76893    0.00526     0.77418
      H   40    0.25073      0.00000     0.74678    0.00249     0.74927
      H   41    0.21415      0.00000     0.78225    0.00360     0.78585
      H   42    0.22528      0.00000     0.76987    0.00486     0.77472
      H   43    0.23271      0.00000     0.76647    0.00082     0.76729
      H   44    0.21734      0.00000     0.78157    0.00109     0.78266
      H   45    0.23189      0.00000     0.76725    0.00086     0.76811
      H   46    0.23853      0.00000     0.76049    0.00098     0.76147
      H   47    0.23503      0.00000     0.76267    0.00230     0.76497
      H   48    0.24249      0.00000     0.75478    0.00273     0.75751
      H   49    0.22684      0.00000     0.77088    0.00228     0.77316
      H   50    0.23024      0.00000     0.76858    0.00118     0.76976
      H   51    0.23781      0.00000     0.75781    0.00438     0.76219
      H   52    0.22182      0.00000     0.77551    0.00268     0.77818
      H   53    0.23303      0.00000     0.76495    0.00201     0.76697
 =======================================================================
   * Total *    0.00000     47.98602   117.48117    0.53281   166.00000

                                 Natural Population      
 --------------------------------------------------------
   Core                      47.98602 ( 99.9709% of  48)
   Valence                  117.48117 ( 99.5603% of 118)
   Natural Minimal Basis    165.46719 ( 99.6790% of 166)
   Natural Rydberg Basis      0.53281 (  0.3210% of 166)
 --------------------------------------------------------

    Atom  No          Natural Electron Configuration
 ----------------------------------------------------------------------------
      N    1      [core]2S( 1.35)2p( 4.32)3p( 0.01)
      C    2      [core]2S( 1.03)2p( 3.24)3p( 0.01)
      C    3      [core]2S( 1.01)2p( 3.22)3p( 0.01)3d( 0.01)
      N    4      [core]2S( 1.18)2p( 4.26)3p( 0.01)
      C    5      [core]2S( 1.01)2p( 3.23)3p( 0.01)3d( 0.01)
      C    6      [core]2S( 1.01)2p( 3.24)3p( 0.01)3d( 0.01)
      N    7      [core]2S( 1.33)2p( 4.48)3S( 0.01)3p( 0.01)
      P    8      [core]3S( 1.32)3p( 2.46)4S( 0.01)3d( 0.05)4p( 0.04)
      N    9      [core]2S( 1.37)2p( 4.35)3S( 0.01)3p( 0.01)
      C   10      [core]2S( 1.01)2p( 3.25)3p( 0.01)
      C   11      [core]2S( 1.01)2p( 3.24)3p( 0.01)3d( 0.01)
      C   12      [core]2S( 0.96)2p( 3.08)3p( 0.01)3d( 0.01)
      C   13      [core]2S( 1.10)2p( 3.57)3p( 0.01)
      C   14      [core]2S( 1.10)2p( 3.57)
      C   15      [core]2S( 0.95)2p( 3.09)3p( 0.01)3d( 0.01)
      C   16      [core]2S( 1.10)2p( 3.58)
      C   17      [core]2S( 1.10)2p( 3.57)3p( 0.01)
      C   18      [core]2S( 0.95)2p( 3.08)3p( 0.01)3d( 0.01)
      C   19      [core]2S( 1.11)2p( 3.57)3p( 0.01)
      C   20      [core]2S( 1.10)2p( 3.58)3p( 0.01)
      H   21            1S( 0.77)
      H   22            1S( 0.76)2S( 0.01)
      H   23            1S( 0.76)
      H   24            1S( 0.76)
      H   25            1S( 0.76)
      H   26            1S( 0.77)2S( 0.01)
      H   27            1S( 0.77)
      H   28            1S( 0.81)2S( 0.02)
      H   29            1S( 0.76)
      H   30            1S( 0.77)2S( 0.01)
      H   31            1S( 0.76)
      H   32            1S( 0.77)
      H   33            1S( 0.76)2S( 0.02)
      H   34            1S( 0.78)
      H   35            1S( 0.78)2S( 0.01)
      H   36            1S( 0.77)
      H   37            1S( 0.78)
      H   38            1S( 0.77)
      H   39            1S( 0.77)2S( 0.01)
      H   40            1S( 0.75)
      H   41            1S( 0.78)
      H   42            1S( 0.77)
      H   43            1S( 0.77)
      H   44            1S( 0.78)
      H   45            1S( 0.77)
      H   46            1S( 0.76)
      H   47            1S( 0.76)
      H   48            1S( 0.75)
      H   49            1S( 0.77)
      H   50            1S( 0.77)
      H   51            1S( 0.76)
      H   52            1S( 0.78)
      H   53            1S( 0.76)


 NBO analysis skipped by request.
 1\1\GINC-DELLA-R1C4N12\SP\RB3LYP TD-FC\6-31G(d)\C15H33N4P1\BJS4\24-Aug
 -2020\0\\# TD(NStates=10, Root=1) B3LYP/6-31G* scf=qc volume pop=NPA d
 ensity=current Geom=AllCheck Guess=Read\\Title Card Required\\0,1\N,0,
 -1.2345874384,-0.424598538,1.2608109209\C,0,-0.9642456938,-1.859618384
 4,1.3407767307\C,0,-0.131823083,-2.3374733398,0.14338862\N,0,1.0408916
 143,-1.5307370335,-0.1097659665\C,0,1.0115990209,-0.5226759908,-1.1414
 585697\C,0,1.3892297767,0.9028801085,-0.71812245\N,0,0.6372814988,1.48
 35029833,0.3994954713\P,0,-0.0605791224,0.7548448027,1.8102080173\N,0,
 1.1680498345,-0.2605769355,2.5410838226\C,0,2.3999163505,-0.6081069567
 ,1.832622122\C,0,2.1999340786,-1.6849846306,0.7335208022\C,0,1.2821041
 357,-0.0638282436,4.0065856151\C,0,1.5584356542,-1.3871794043,4.736440
 5972\C,0,2.2918463,1.0255429234,4.4099533964\C,0,0.7269390762,2.963489
 8494,0.4876121185\C,0,2.1695422364,3.4799877239,0.6313382479\C,0,-0.00
 30179577,3.6696966018,-0.6686617206\C,0,-2.6594628881,-0.04691966,1.43
 19197174\C,0,-3.1337860964,-0.0835103623,2.8965837515\C,0,-2.995242798
 1,1.2964646618,0.7712915165\H,0,-1.9187057048,-2.4011352752,1.35250362
 47\H,0,-0.4361143014,-2.1169356495,2.269051215\H,0,-0.757180658,-2.318
 6330885,-0.7568934407\H,0,0.1613935098,-3.3885895414,0.3046416179\H,0,
 0.0027444555,-0.5087116621,-1.5617487379\H,0,1.7049900099,-0.775630580
 2,-1.9691673972\H,0,1.2309510238,1.5285487336,-1.6065326366\H,0,2.4724
 974878,0.9365001296,-0.526564055\H,0,3.1187283581,-1.0141847913,2.5535
 33992\H,0,2.8799072461,0.2827243166,1.4044773085\H,0,2.1185345339,-2.6
 632218176,1.2231256099\H,0,3.1191286285,-1.7133177311,0.1210226806\H,0
 ,0.2918783166,0.2779128648,4.331937992\H,0,2.5435943046,-1.798653787,4
 .4856277637\H,0,0.8027053091,-2.1363331855,4.479163813\H,0,1.538568486
 7,-1.2336180631,5.8220154156\H,0,3.3149819753,0.755982417,4.1222673728
 \H,0,2.2839062138,1.1791454509,5.4958465842\H,0,2.0417067704,1.9782716
 711,3.930203159\H,0,0.1963038853,3.2286642779,1.409042084\H,0,2.764282
 1295,3.2959066239,-0.2709569604\H,0,2.6747580958,2.9991609284,1.476534
 4855\H,0,2.1687260419,4.562465093,0.8062880565\H,0,0.4946523823,3.5181
 469357,-1.6336075996\H,0,-0.0320345153,4.7510424773,-0.4884692998\H,0,
 -1.0320239996,3.3073296499,-0.7535010863\H,0,-3.2254072208,-0.81125525
 02,0.8819831727\H,0,-2.6186621584,0.6822040245,3.4874661076\H,0,-2.929
 3595936,-1.0596851608,3.3513322373\H,0,-4.2132915104,0.1010646339,2.96
 6041686\H,0,-2.5186521899,2.1342572811,1.2908101539\H,0,-4.0789876368,
 1.4627820519,0.7966762249\H,0,-2.6651541748,1.3065558471,-0.2722439042
 \\Version=ES64L-G16RevA.03\State=1-A\HF=-1151.7991319\RMSD=8.850e-10\D
 ipole=0.1075982,-0.9061611,-0.6423887\Quadrupole=1.0632367,1.1015909,-
 2.1648276,0.7489463,0.6139415,0.865955\PG=C01 [X(C15H33N4P1)]\\@


 THOSE WITH THE GOLD MAKE THE RULES.

             -- PETER'S GOLDEN RULE
 Job cpu time:       0 days  2 hours 19 minutes 24.2 seconds.
 Elapsed time:       0 days  0 hours 19 minutes 55.4 seconds.
 File lengths (MBytes):  RWF=   1125 Int=      0 D2E=      0 Chk=    268 Scr=      1
 Normal termination of Gaussian 16 at Mon Aug 24 17:39:29 2020.
