 Entering Gaussian System, Link 0=g16
 Input=base_4_conf12123.com
 Output=base_4_conf12123.log
 Initial command:
 /opt/export//g16/l1.exe "/scratch/bjs4/job.2904/Gau-2906.inp" -scrdir="/scratch/bjs4/job.2904/"
 Entering Link 1 = /opt/export//g16/l1.exe PID=      2907.
  
 Copyright (c) 1988,1990,1992,1993,1995,1998,2003,2009,2016,
            Gaussian, Inc.  All Rights Reserved.
  
 This is part of the Gaussian(R) 16 program.  It is based on
 the Gaussian(R) 09 system (copyright 2009, Gaussian, Inc.),
 the Gaussian(R) 03 system (copyright 2003, Gaussian, Inc.),
 the Gaussian(R) 98 system (copyright 1998, Gaussian, Inc.),
 the Gaussian(R) 94 system (copyright 1995, Gaussian, Inc.),
 the Gaussian 92(TM) system (copyright 1992, Gaussian, Inc.),
 the Gaussian 90(TM) system (copyright 1990, Gaussian, Inc.),
 the Gaussian 88(TM) system (copyright 1988, Gaussian, Inc.),
 the Gaussian 86(TM) system (copyright 1986, Carnegie Mellon
 University), and the Gaussian 82(TM) system (copyright 1983,
 Carnegie Mellon University). Gaussian is a federally registered
 trademark of Gaussian, Inc.
  
 This software contains proprietary and confidential information,
 including trade secrets, belonging to Gaussian, Inc.
  
 This software is provided under written license and may be
 used, copied, transmitted, or stored only in accord with that
 written license.
  
 The following legend is applicable only to US Government
 contracts under FAR:
  
                    RESTRICTED RIGHTS LEGEND
  
 Use, reproduction and disclosure by the US Government is
 subject to restrictions as set forth in subparagraphs (a)
 and (c) of the Commercial Computer Software - Restricted
 Rights clause in FAR 52.227-19.
  
 Gaussian, Inc.
 340 Quinnipiac St., Bldg. 40, Wallingford CT 06492
  
  
 ---------------------------------------------------------------
 Warning -- This program may not be used in any manner that
 competes with the business of Gaussian, Inc. or will provide
 assistance to any competitor of Gaussian, Inc.  The licensee
 of this program is prohibited from giving any competitor of
 Gaussian, Inc. access to this program.  By using this program,
 the user acknowledges that Gaussian, Inc. is engaged in the
 business of creating and licensing software in the field of
 computational chemistry and represents and warrants to the
 licensee that it is not a competitor of Gaussian, Inc. and that
 it will not use this program in any manner prohibited above.
 ---------------------------------------------------------------
  

 Cite this work as:
 Gaussian 16, Revision A.03,
 M. J. Frisch, G. W. Trucks, H. B. Schlegel, G. E. Scuseria, 
 M. A. Robb, J. R. Cheeseman, G. Scalmani, V. Barone, 
 G. A. Petersson, H. Nakatsuji, X. Li, M. Caricato, A. V. Marenich, 
 J. Bloino, B. G. Janesko, R. Gomperts, B. Mennucci, H. P. Hratchian, 
 J. V. Ortiz, A. F. Izmaylov, J. L. Sonnenberg, D. Williams-Young, 
 F. Ding, F. Lipparini, F. Egidi, J. Goings, B. Peng, A. Petrone, 
 T. Henderson, D. Ranasinghe, V. G. Zakrzewski, J. Gao, N. Rega, 
 G. Zheng, W. Liang, M. Hada, M. Ehara, K. Toyota, R. Fukuda, 
 J. Hasegawa, M. Ishida, T. Nakajima, Y. Honda, O. Kitao, H. Nakai, 
 T. Vreven, K. Throssell, J. A. Montgomery, Jr., J. E. Peralta, 
 F. Ogliaro, M. J. Bearpark, J. J. Heyd, E. N. Brothers, K. N. Kudin, 
 V. N. Staroverov, T. A. Keith, R. Kobayashi, J. Normand, 
 K. Raghavachari, A. P. Rendell, J. C. Burant, S. S. Iyengar, 
 J. Tomasi, M. Cossi, J. M. Millam, M. Klene, C. Adamo, R. Cammi, 
 J. W. Ochterski, R. L. Martin, K. Morokuma, O. Farkas, 
 J. B. Foresman, and D. J. Fox, Gaussian, Inc., Wallingford CT, 2016.
 
 ******************************************
 Gaussian 16:  ES64L-G16RevA.03 25-Dec-2016
                24-Aug-2020 
 ******************************************
 %nprocshared=3
 Will use up to    3 processors via shared memory.
 %Mem=6GB
 %Chk=base_4_conf121.chk
 ---------------------------------
 # opt=CalcAll B3LYP/6-31G* scf=qc
 ---------------------------------
 1/10=4,18=20,19=15,26=3,38=1/1,3;
 2/9=110,12=2,17=6,18=5,40=1/2;
 3/5=1,6=6,7=1,11=2,25=1,30=1,71=2,74=-5,140=1/1,2,3;
 4//1;
 5/5=2,8=3,38=5/8;
 8/6=4,10=90,11=11/1;
 11/6=1,8=1,9=11,15=111,16=1/1,2,10;
 10/6=1/2;
 6/7=2,8=2,9=2,10=2,18=1,28=1/1;
 7/10=1,25=1/1,2,3,16;
 1/10=4,18=20,19=15,26=3/3(3);
 2/9=110/2;
 7/8=1,9=1,25=1,44=-1/16;
 99//99;
 2/9=110/2;
 3/5=1,6=6,7=1,11=2,25=1,30=1,71=2,74=-5,140=1/1,2,3;
 4/5=5,16=3,69=1/1;
 5/5=2,8=3,38=5/8;
 8/6=4,10=90,11=11/1;
 11/6=1,8=1,9=11,15=111,16=1/1,2,10;
 10/6=1/2;
 7/10=1,25=1/1,2,3,16;
 1/10=4,18=20,19=15,26=3/3(-8);
 2/9=110/2;
 6/7=2,8=2,9=2,10=2,18=1,19=2,28=1/1;
 7/8=1,9=1,25=1,44=-1/16;
 99//99;
 -------------------
 Title Card Required
 -------------------
 Symbolic Z-matrix:
 Charge =  0 Multiplicity = 1
 C                     2.918    -1.01139   1.0436 
 C                     2.5217    0.0373    0.0088 
 N1                    2.953     1.4118    0.3252 
 C                     2.4005    1.9412    1.5807 
 C                     2.80132   3.36575   1.94774 
 C                     4.4213    1.4981    0.2306 
 C                     5.17315   0.58048   1.18896 
 H                     2.39542  -1.95184   0.83879 
 H                     2.65035  -0.69324   2.05611 
 H                     3.99144  -1.22382   1.01359 
 H                     1.42555   0.02505  -0.04781 
 H                     2.88922  -0.27575  -0.97602 
 H                     2.66431   1.2748    2.41083 
 H                     1.30586   1.88195   1.54709 
 H                     3.88652   3.49944   1.94964 
 H                     2.4394    3.60301   2.95365 
 H                     2.36203   4.09471   1.25997 
 H                     4.72666   2.5248    0.47252 
 H                     4.76204   1.30566  -0.79476 
 H                     4.83463   0.72361   2.21949 
 H                     6.24411   0.80551   1.15299 
 H                     5.05361  -0.47418   0.9236 
 

 GradGradGradGradGradGradGradGradGradGradGradGradGradGradGradGradGradGrad
 Berny optimization.
 Initialization pass.
                           ----------------------------
                           !    Initial Parameters    !
                           ! (Angstroms and Degrees)  !
 --------------------------                            --------------------------
 ! Name  Definition              Value          Derivative Info.                !
 --------------------------------------------------------------------------------
 ! R1    R(1,2)                  1.5257         calculate D2E/DX2 analytically  !
 ! R2    R(1,8)                  1.0952         calculate D2E/DX2 analytically  !
 ! R3    R(1,9)                  1.0945         calculate D2E/DX2 analytically  !
 ! R4    R(1,10)                 1.0947         calculate D2E/DX2 analytically  !
 ! R5    R(2,3)                  1.4749         calculate D2E/DX2 analytically  !
 ! R6    R(2,11)                 1.0977         calculate D2E/DX2 analytically  !
 ! R7    R(2,12)                 1.0968         calculate D2E/DX2 analytically  !
 ! R8    R(3,4)                  1.4703         calculate D2E/DX2 analytically  !
 ! R9    R(3,6)                  1.4739         calculate D2E/DX2 analytically  !
 ! R10   R(4,5)                  1.5247         calculate D2E/DX2 analytically  !
 ! R11   R(4,13)                 1.0967         calculate D2E/DX2 analytically  !
 ! R12   R(4,14)                 1.0968         calculate D2E/DX2 analytically  !
 ! R13   R(5,15)                 1.0934         calculate D2E/DX2 analytically  !
 ! R14   R(5,16)                 1.095          calculate D2E/DX2 analytically  !
 ! R15   R(5,17)                 1.0943         calculate D2E/DX2 analytically  !
 ! R16   R(6,7)                  1.525          calculate D2E/DX2 analytically  !
 ! R17   R(6,18)                 1.0981         calculate D2E/DX2 analytically  !
 ! R18   R(6,19)                 1.0975         calculate D2E/DX2 analytically  !
 ! R19   R(7,20)                 1.0941         calculate D2E/DX2 analytically  !
 ! R20   R(7,21)                 1.0949         calculate D2E/DX2 analytically  !
 ! R21   R(7,22)                 1.0941         calculate D2E/DX2 analytically  !
 ! A1    A(2,1,8)              109.8439         calculate D2E/DX2 analytically  !
 ! A2    A(2,1,9)              111.3531         calculate D2E/DX2 analytically  !
 ! A3    A(2,1,10)             111.6858         calculate D2E/DX2 analytically  !
 ! A4    A(8,1,9)              107.8127         calculate D2E/DX2 analytically  !
 ! A5    A(8,1,10)             107.2255         calculate D2E/DX2 analytically  !
 ! A6    A(9,1,10)             108.757          calculate D2E/DX2 analytically  !
 ! A7    A(1,2,3)              114.7785         calculate D2E/DX2 analytically  !
 ! A8    A(1,2,11)             106.6608         calculate D2E/DX2 analytically  !
 ! A9    A(1,2,12)             109.0135         calculate D2E/DX2 analytically  !
 ! A10   A(3,2,11)             108.269          calculate D2E/DX2 analytically  !
 ! A11   A(3,2,12)             111.1386         calculate D2E/DX2 analytically  !
 ! A12   A(11,2,12)            106.5665         calculate D2E/DX2 analytically  !
 ! A13   A(2,3,4)              114.1321         calculate D2E/DX2 analytically  !
 ! A14   A(2,3,6)              109.3972         calculate D2E/DX2 analytically  !
 ! A15   A(4,3,6)              114.084          calculate D2E/DX2 analytically  !
 ! A16   A(3,4,5)              116.3073         calculate D2E/DX2 analytically  !
 ! A17   A(3,4,13)             109.7041         calculate D2E/DX2 analytically  !
 ! A18   A(3,4,14)             109.234          calculate D2E/DX2 analytically  !
 ! A19   A(5,4,13)             108.8001         calculate D2E/DX2 analytically  !
 ! A20   A(5,4,14)             108.6767         calculate D2E/DX2 analytically  !
 ! A21   A(13,4,14)            103.3235         calculate D2E/DX2 analytically  !
 ! A22   A(4,5,15)             112.0594         calculate D2E/DX2 analytically  !
 ! A23   A(4,5,16)             109.6749         calculate D2E/DX2 analytically  !
 ! A24   A(4,5,17)             111.4428         calculate D2E/DX2 analytically  !
 ! A25   A(15,5,16)            107.4538         calculate D2E/DX2 analytically  !
 ! A26   A(15,5,17)            108.5468         calculate D2E/DX2 analytically  !
 ! A27   A(16,5,17)            107.4785         calculate D2E/DX2 analytically  !
 ! A28   A(3,6,7)              114.5553         calculate D2E/DX2 analytically  !
 ! A29   A(3,6,18)             108.5195         calculate D2E/DX2 analytically  !
 ! A30   A(3,6,19)             111.0385         calculate D2E/DX2 analytically  !
 ! A31   A(7,6,18)             106.6803         calculate D2E/DX2 analytically  !
 ! A32   A(7,6,19)             109.1803         calculate D2E/DX2 analytically  !
 ! A33   A(18,6,19)            106.4649         calculate D2E/DX2 analytically  !
 ! A34   A(6,7,20)             111.14           calculate D2E/DX2 analytically  !
 ! A35   A(6,7,21)             109.7491         calculate D2E/DX2 analytically  !
 ! A36   A(6,7,22)             111.9464         calculate D2E/DX2 analytically  !
 ! A37   A(20,7,21)            107.8595         calculate D2E/DX2 analytically  !
 ! A38   A(20,7,22)            108.7081         calculate D2E/DX2 analytically  !
 ! A39   A(21,7,22)            107.2783         calculate D2E/DX2 analytically  !
 ! D1    D(8,1,2,3)            168.7482         calculate D2E/DX2 analytically  !
 ! D2    D(8,1,2,11)            48.8447         calculate D2E/DX2 analytically  !
 ! D3    D(8,1,2,12)           -65.8588         calculate D2E/DX2 analytically  !
 ! D4    D(9,1,2,3)             49.3894         calculate D2E/DX2 analytically  !
 ! D5    D(9,1,2,11)           -70.5142         calculate D2E/DX2 analytically  !
 ! D6    D(9,1,2,12)           174.7823         calculate D2E/DX2 analytically  !
 ! D7    D(10,1,2,3)           -72.4149         calculate D2E/DX2 analytically  !
 ! D8    D(10,1,2,11)          167.6816         calculate D2E/DX2 analytically  !
 ! D9    D(10,1,2,12)           52.9781         calculate D2E/DX2 analytically  !
 ! D10   D(1,2,3,4)            -60.706          calculate D2E/DX2 analytically  !
 ! D11   D(1,2,3,6)             68.4773         calculate D2E/DX2 analytically  !
 ! D12   D(11,2,3,4)            58.3016         calculate D2E/DX2 analytically  !
 ! D13   D(11,2,3,6)          -172.5151         calculate D2E/DX2 analytically  !
 ! D14   D(12,2,3,4)           175.0172         calculate D2E/DX2 analytically  !
 ! D15   D(12,2,3,6)           -55.7995         calculate D2E/DX2 analytically  !
 ! D16   D(2,3,4,5)           -179.2941         calculate D2E/DX2 analytically  !
 ! D17   D(2,3,4,13)            56.7249         calculate D2E/DX2 analytically  !
 ! D18   D(2,3,4,14)           -55.8696         calculate D2E/DX2 analytically  !
 ! D19   D(6,3,4,5)             53.917          calculate D2E/DX2 analytically  !
 ! D20   D(6,3,4,13)           -70.064          calculate D2E/DX2 analytically  !
 ! D21   D(6,3,4,14)           177.3415         calculate D2E/DX2 analytically  !
 ! D22   D(2,3,6,7)            -60.7059         calculate D2E/DX2 analytically  !
 ! D23   D(2,3,6,18)          -179.7743         calculate D2E/DX2 analytically  !
 ! D24   D(2,3,6,19)            63.54           calculate D2E/DX2 analytically  !
 ! D25   D(4,3,6,7)             68.5038         calculate D2E/DX2 analytically  !
 ! D26   D(4,3,6,18)           -50.5646         calculate D2E/DX2 analytically  !
 ! D27   D(4,3,6,19)          -167.2504         calculate D2E/DX2 analytically  !
 ! D28   D(3,4,5,15)           -53.5252         calculate D2E/DX2 analytically  !
 ! D29   D(3,4,5,16)          -172.773          calculate D2E/DX2 analytically  !
 ! D30   D(3,4,5,17)            68.3374         calculate D2E/DX2 analytically  !
 ! D31   D(13,4,5,15)           70.9201         calculate D2E/DX2 analytically  !
 ! D32   D(13,4,5,16)          -48.3277         calculate D2E/DX2 analytically  !
 ! D33   D(13,4,5,17)         -167.2172         calculate D2E/DX2 analytically  !
 ! D34   D(14,4,5,15)         -177.2381         calculate D2E/DX2 analytically  !
 ! D35   D(14,4,5,16)           63.5141         calculate D2E/DX2 analytically  !
 ! D36   D(14,4,5,17)          -55.3755         calculate D2E/DX2 analytically  !
 ! D37   D(3,6,7,20)           -52.9701         calculate D2E/DX2 analytically  !
 ! D38   D(3,6,7,21)          -172.1913         calculate D2E/DX2 analytically  !
 ! D39   D(3,6,7,22)            68.8033         calculate D2E/DX2 analytically  !
 ! D40   D(18,6,7,20)           67.126          calculate D2E/DX2 analytically  !
 ! D41   D(18,6,7,21)          -52.0952         calculate D2E/DX2 analytically  !
 ! D42   D(18,6,7,22)         -171.1006         calculate D2E/DX2 analytically  !
 ! D43   D(19,6,7,20)         -178.1972         calculate D2E/DX2 analytically  !
 ! D44   D(19,6,7,21)           62.5816         calculate D2E/DX2 analytically  !
 ! D45   D(19,6,7,22)          -56.4238         calculate D2E/DX2 analytically  !
 --------------------------------------------------------------------------------
 Trust Radius=3.00D-01 FncErr=1.00D-07 GrdErr=1.00D-06 EigMax=2.50D+02 EigMin=1.00D-04
 Number of steps in this run=    115 maximum allowed number of steps=    132.
 GradGradGradGradGradGradGradGradGradGradGradGradGradGradGradGradGradGrad

                          Input orientation:                          
 ---------------------------------------------------------------------
 Center     Atomic      Atomic             Coordinates (Angstroms)
 Number     Number       Type             X           Y           Z
 ---------------------------------------------------------------------
      1          6           0        2.918000   -1.011390    1.043600
      2          6           0        2.521700    0.037300    0.008800
      3          7           0        2.953000    1.411800    0.325200
      4          6           0        2.400500    1.941200    1.580700
      5          6           0        2.801320    3.365750    1.947740
      6          6           0        4.421300    1.498100    0.230600
      7          6           0        5.173150    0.580480    1.188960
      8          1           0        2.395420   -1.951840    0.838790
      9          1           0        2.650350   -0.693240    2.056110
     10          1           0        3.991440   -1.223820    1.013590
     11          1           0        1.425550    0.025050   -0.047810
     12          1           0        2.889220   -0.275750   -0.976020
     13          1           0        2.664310    1.274800    2.410830
     14          1           0        1.305860    1.881950    1.547090
     15          1           0        3.886520    3.499440    1.949640
     16          1           0        2.439400    3.603010    2.953650
     17          1           0        2.362030    4.094710    1.259970
     18          1           0        4.726660    2.524800    0.472520
     19          1           0        4.762040    1.305660   -0.794760
     20          1           0        4.834630    0.723610    2.219490
     21          1           0        6.244110    0.805510    1.152990
     22          1           0        5.053610   -0.474180    0.923600
 ---------------------------------------------------------------------
                    Distance matrix (angstroms):
                    1          2          3          4          5
     1  C    0.000000
     2  C    1.525652   0.000000
     3  N    2.527681   1.474917   0.000000
     4  C    3.045336   2.471921   1.470306   0.000000
     5  C    4.471067   3.862157   2.544320   1.524703   0.000000
     6  C    3.036185   2.406577   1.473873   2.470372   3.010153
     7  C    2.764214   2.952628   2.523141   3.113295   3.736182
     8  H    1.095209   2.159053   3.448006   3.963107   5.447136
     9  H    1.094547   2.177549   2.742050   2.688627   4.063242
    10  H    1.094669   2.181780   2.915258   3.587486   4.832512
    11  H    2.119620   1.097679   2.096501   2.697073   4.127377
    12  H    2.149618   1.096787   2.131916   3.419142   4.670827
    13  H    2.675881   2.705826   2.109968   1.096723   2.145995
    14  H    3.350211   2.692088   2.104074   1.096757   2.144431
    15  H    4.701758   4.197143   2.805086   2.184602   1.093406
    16  H    5.016975   4.625279   3.460338   2.155949   1.095049
    17  H    5.140834   4.248941   2.901904   2.177603   1.094251
    18  H    4.012733   3.356269   2.099129   2.641907   2.567178
    19  H    3.485509   2.696956   2.130306   3.409339   3.950911
    20  H    2.840143   3.272280   2.757258   2.795634   3.345011
    21  H    3.791583   3.969339   3.447351   4.030641   4.363400
    22  H    2.205408   2.740263   2.885752   3.647579   4.568012
                    6          7          8          9         10
     6  C    0.000000
     7  C    1.525044   0.000000
     8  H    4.046748   3.775056   0.000000
     9  H    3.357190   2.956151   1.769444   0.000000
    10  H    2.864734   2.163953   1.762909   1.779575   0.000000
    11  H    3.349911   3.985299   2.373774   2.538219   3.044674
    12  H    2.636237   3.261381   2.519256   3.070044   2.464198
    13  H    2.808964   2.875643   3.599280   1.999801   3.155417
    14  H    3.403888   4.096097   4.048058   2.949298   4.140383
    15  H    2.691923   3.279387   5.759672   4.372416   4.816262
    16  H    3.971596   4.441082   5.943982   4.394069   5.428715
    17  H    3.470242   4.500806   6.061293   4.862246   5.567984
    18  H    1.098127   2.119674   5.060547   4.144225   3.858168
    19  H    1.097497   2.151753   4.345191   4.072136   3.203470
    20  H    2.174019   1.094109   3.874805   2.608685   2.440829
    21  H    2.157109   1.094937   4.744904   3.997122   3.035150
    22  H    2.184022   1.094081   3.042474   2.665750   1.303174
                   11         12         13         14         15
    11  H    0.000000
    12  H    1.759086   0.000000
    13  H    3.023460   3.731694   0.000000
    14  H    2.450736   3.678149   1.720484   0.000000
    15  H    4.702932   4.879155   2.579829   3.072153   0.000000
    16  H    4.778959   5.539804   2.401208   2.495069   1.764347
    17  H    4.376005   4.937459   3.060677   2.468651   1.775968
    18  H    4.173346   3.649320   3.094000   3.642778   1.958990
    19  H    3.651036   2.457879   3.831087   4.214446   3.620903
    20  H    4.153368   3.872289   2.247379   3.774399   2.945669
    21  H    5.026884   4.117899   3.823266   5.069551   3.667443
    22  H    3.788890   2.886610   3.313539   4.470539   4.266675
                   16         17         18         19         20
    16  H    0.000000
    17  H    1.765306   0.000000
    18  H    3.542612   2.945534   0.000000
    19  H    4.972228   4.214352   1.758850   0.000000
    20  H    3.816682   4.289376   2.511543   3.070791   0.000000
    21  H    5.054127   5.089285   2.391997   2.498082   1.769396
    22  H    5.251540   5.313427   3.050287   2.491105   1.778197
                   21         22
    21  H    0.000000
    22  H    1.762815   0.000000
 Stoichiometry    C6H15N
 Framework group  C1[X(C6H15N)]
 Deg. of freedom    60
 Full point group                 C1      NOp   1
 Largest Abelian subgroup         C1      NOp   1
 Largest concise Abelian subgroup C1      NOp   1
                         Standard orientation:                         
 ---------------------------------------------------------------------
 Center     Atomic      Atomic             Coordinates (Angstroms)
 Number     Number       Type             X           Y           Z
 ---------------------------------------------------------------------
      1          6           0       -1.900407   -0.756661   -0.660509
      2          6           0       -1.153489   -0.958716    0.654368
      3          7           0        0.173765   -0.318426    0.716058
      4          6           0        1.122780   -0.803346   -0.296870
      5          6           0        2.516637   -0.186090   -0.267303
      6          6           0        0.010274    1.146232    0.734738
      7          6           0       -0.687795    1.721722   -0.492971
      8          1           0       -2.771441   -1.419463   -0.698943
      9          1           0       -1.264186   -0.989647   -1.520145
     10          1           0       -2.268793    0.269055   -0.762966
     11          1           0       -1.019338   -2.041246    0.776971
     12          1           0       -1.791581   -0.626907    1.482428
     13          1           0        0.696819   -0.666539   -1.298190
     14          1           0        1.219026   -1.892396   -0.209779
     15          1           0        2.482847    0.906237   -0.302199
     16          1           0        3.088461   -0.524972   -1.137539
     17          1           0        3.069302   -0.488817    0.627294
     18          1           0        1.005802    1.607812    0.776585
     19          1           0       -0.521755    1.471803    1.637759
     20          1           0       -0.201169    1.390314   -1.415164
     21          1           0       -0.644252    2.815426   -0.464640
     22          1           0       -1.744101    1.439479   -0.532593
 ---------------------------------------------------------------------
 Rotational constants (GHZ):           3.3014843           2.0067017           1.5983406
 Standard basis: 6-31G(d) (6D, 7F)
 There are   135 symmetry adapted cartesian basis functions of A   symmetry.
 There are   135 symmetry adapted basis functions of A   symmetry.
   135 basis functions,   256 primitive gaussians,   135 cartesian basis functions
    29 alpha electrons       29 beta electrons
       nuclear repulsion energy       346.0853099553 Hartrees.
 NAtoms=   22 NActive=   22 NUniq=   22 SFac= 1.00D+00 NAtFMM=   60 NAOKFM=F Big=F
 Integral buffers will be    131072 words long.
 Raffenetti 2 integral format.
 Two-electron integral symmetry is turned on.
 One-electron integrals computed using PRISM.
 NBasis=   135 RedAO= T EigKep=  4.19D-03  NBF=   135
 NBsUse=   135 1.00D-06 EigRej= -1.00D+00 NBFU=   135
 ExpMin= 1.61D-01 ExpMax= 4.17D+03 ExpMxC= 6.27D+02 IAcc=3 IRadAn=         5 AccDes= 0.00D+00
 Harris functional with IExCor=  402 and IRadAn=       5 diagonalized for initial guess.
 HarFok:  IExCor=  402 AccDes= 0.00D+00 IRadAn=         5 IDoV= 1 UseB2=F ITyADJ=14
 ICtDFT=  3500011 ScaDFX=  1.000000  1.000000  1.000000  1.000000
 FoFCou: FMM=F IPFlag=           0 FMFlag=      100000 FMFlg1=           0
         NFxFlg=           0 DoJE=T BraDBF=F KetDBF=T FulRan=T
         wScrn=  0.000000 ICntrl=       500 IOpCl=  0 I1Cent=   200000004 NGrid=           0
         NMat0=    1 NMatS0=      1 NMatT0=    0 NMatD0=    1 NMtDS0=    0 NMtDT0=    0
 Petite list used in FoFCou.
 Keep R1 ints in memory in canonical form, NReq=45019892.
 Gradient too large for Newton-Raphson -- use scaled steepest descent instead.
     Accept linear search using points  2 and  3.
 Gradient too large for Newton-Raphson -- use scaled steepest descent instead.
     Minimum is close to point  3 DX=  7.51D-02 DF= -1.30D-04 DXR=  9.69D-02 DFR=  9.52D-03 which will be used.
 Gradient too large for Newton-Raphson -- use scaled steepest descent instead.
 Gradient too large for Newton-Raphson -- use scaled steepest descent instead.
     Accept linear search using points  1 and  2.
 LinEq1:  Iter=  0 NonCon=     1 RMS=5.47D-05 Max=5.02D-04 NDo=     1
 AX will form     1 AO Fock derivatives at one time.
 LinEq1:  Iter=  1 NonCon=     1 RMS=2.71D-05 Max=3.31D-04 NDo=     1
 LinEq1:  Iter=  2 NonCon=     1 RMS=7.73D-06 Max=9.05D-05 NDo=     1
 LinEq1:  Iter=  3 NonCon=     1 RMS=2.84D-06 Max=3.51D-05 NDo=     1
 LinEq1:  Iter=  4 NonCon=     1 RMS=9.57D-07 Max=1.12D-05 NDo=     1
 LinEq1:  Iter=  5 NonCon=     1 RMS=3.52D-07 Max=7.92D-06 NDo=     1
 LinEq1:  Iter=  6 NonCon=     1 RMS=8.42D-08 Max=1.05D-06 NDo=     1
 LinEq1:  Iter=  7 NonCon=     1 RMS=3.62D-08 Max=3.45D-07 NDo=     1
 LinEq1:  Iter=  8 NonCon=     1 RMS=1.19D-08 Max=1.85D-07 NDo=     1
 LinEq1:  Iter=  9 NonCon=     0 RMS=3.48D-09 Max=3.72D-08 NDo=     1
 Linear equations converged to 7.841D-09 7.841D-08 after     9 iterations.
     Minimum is close to point  2 DX=  2.85D-05 DF=  0.00D+00 DXR=  2.85D-05 DFR=  0.00D+00 which will be used.
 LinEq1:  Iter=  0 NonCon=     1 RMS=3.98D-08 Max=3.53D-07 NDo=     1
 LinEq1:  Iter=  1 NonCon=     1 RMS=1.86D-08 Max=4.40D-07 NDo=     1
 LinEq1:  Iter=  2 NonCon=     1 RMS=7.78D-09 Max=8.66D-08 NDo=     1
 LinEq1:  Iter=  3 NonCon=     1 RMS=2.57D-09 Max=4.76D-08 NDo=     1
 LinEq1:  Iter=  4 NonCon=     1 RMS=9.18D-10 Max=1.23D-08 NDo=     1
 LinEq1:  Iter=  5 NonCon=     1 RMS=4.14D-10 Max=3.68D-09 NDo=     1
 LinEq1:  Iter=  6 NonCon=     1 RMS=1.37D-10 Max=1.01D-09 NDo=     1
 LinEq1:  Iter=  7 NonCon=     1 RMS=4.10D-11 Max=4.52D-10 NDo=     1
 LinEq1:  Iter=  8 NonCon=     0 RMS=2.07D-11 Max=2.03D-10 NDo=     1
 Linear equations converged to 2.179D-11 2.179D-10 after     8 iterations.
 SCF Done:  E(RB3LYP) =  -292.380665559     a.u. after    7 cycles
            Convg  =    0.4818D-10                    32 Fock formations.
              S**2 =  0.0000                  -V/T =  2.0093
 DoSCS=F DFT=T ScalE2(SS,OS)=  1.000000  1.000000
 Range of M.O.s used for correlation:     1   135
 NBasis=   135 NAE=    29 NBE=    29 NFC=     0 NFV=     0
 NROrb=    135 NOA=    29 NOB=    29 NVA=   106 NVB=   106
 Symmetrizing basis deriv contribution to polar:
 IMax=3 JMax=2 DiffMx= 0.00D+00
 G2DrvN: will do    23 centers at a time, making    1 passes.
 Calling FoFCou, ICntrl=  3107 FMM=F I1Cent=   0 AccDes= 0.00D+00.
 End of G2Drv F.D. properties file   721 does not exist.
 End of G2Drv F.D. properties file   722 does not exist.
 End of G2Drv F.D. properties file   788 does not exist.
          IDoAtm=1111111111111111111111
          Differentiating once with respect to electric field.
                with respect to dipole field.
          Differentiating once with respect to nuclear coordinates.
 Keep R1 ints in memory in canonical form, NReq=45034167.
          There are    69 degrees of freedom in the 1st order CPHF.  IDoFFX=6 NUNeed=     3.
     66 vectors produced by pass  0 Test12= 4.46D-15 1.45D-09 XBig12= 4.45D+01 1.51D+00.
 AX will form    66 AO Fock derivatives at one time.
     66 vectors produced by pass  1 Test12= 4.46D-15 1.45D-09 XBig12= 2.18D+00 2.17D-01.
     66 vectors produced by pass  2 Test12= 4.46D-15 1.45D-09 XBig12= 1.20D-02 1.36D-02.
     66 vectors produced by pass  3 Test12= 4.46D-15 1.45D-09 XBig12= 1.51D-05 4.88D-04.
     66 vectors produced by pass  4 Test12= 4.46D-15 1.45D-09 XBig12= 1.07D-08 1.56D-05.
     24 vectors produced by pass  5 Test12= 4.46D-15 1.45D-09 XBig12= 4.90D-12 2.25D-07.
      3 vectors produced by pass  6 Test12= 4.46D-15 1.45D-09 XBig12= 2.28D-15 5.58D-09.
 InvSVY:  IOpt=1 It=  1 EMax= 6.22D-15
 Solved reduced A of dimension   357 with    69 vectors.
 Isotropic polarizability for W=    0.000000       71.03 Bohr**3.
 End of Minotr F.D. properties file   721 does not exist.
 End of Minotr F.D. properties file   722 does not exist.
 End of Minotr F.D. properties file   788 does not exist.

 **********************************************************************

            Population analysis using the SCF density.

 **********************************************************************

 Orbital symmetries:
       Occupied  (A) (A) (A) (A) (A) (A) (A) (A) (A) (A) (A) (A)
                 (A) (A) (A) (A) (A) (A) (A) (A) (A) (A) (A) (A)
                 (A) (A) (A) (A) (A)
       Virtual   (A) (A) (A) (A) (A) (A) (A) (A) (A) (A) (A) (A)
                 (A) (A) (A) (A) (A) (A) (A) (A) (A) (A) (A) (A)
                 (A) (A) (A) (A) (A) (A) (A) (A) (A) (A) (A) (A)
                 (A) (A) (A) (A) (A) (A) (A) (A) (A) (A) (A) (A)
                 (A) (A) (A) (A) (A) (A) (A) (A) (A) (A) (A) (A)
                 (A) (A) (A) (A) (A) (A) (A) (A) (A) (A) (A) (A)
                 (A) (A) (A) (A) (A) (A) (A) (A) (A) (A) (A) (A)
                 (A) (A) (A) (A) (A) (A) (A) (A) (A) (A) (A) (A)
                 (A) (A) (A) (A) (A) (A) (A) (A) (A) (A)
 The electronic state is 1-A.
 Alpha  occ. eigenvalues --  -14.31242 -10.20150 -10.20039 -10.19857 -10.17375
 Alpha  occ. eigenvalues --  -10.16253 -10.16073  -0.90793  -0.75867  -0.74530
 Alpha  occ. eigenvalues --   -0.71334  -0.63099  -0.60757  -0.55454  -0.49182
 Alpha  occ. eigenvalues --   -0.46612  -0.45989  -0.41958  -0.40994  -0.39400
 Alpha  occ. eigenvalues --   -0.38780  -0.38312  -0.36929  -0.35601  -0.34725
 Alpha  occ. eigenvalues --   -0.33853  -0.33156  -0.29319  -0.19654
 Alpha virt. eigenvalues --    0.08341   0.10947   0.11692   0.12235   0.13408
 Alpha virt. eigenvalues --    0.15537   0.15823   0.16529   0.17222   0.18050
 Alpha virt. eigenvalues --    0.18899   0.20029   0.21191   0.22308   0.24269
 Alpha virt. eigenvalues --    0.25331   0.25391   0.27023   0.29050   0.30123
 Alpha virt. eigenvalues --    0.33836   0.50161   0.51168   0.52027   0.52998
 Alpha virt. eigenvalues --    0.55201   0.57209   0.59369   0.59760   0.60692
 Alpha virt. eigenvalues --    0.64128   0.66165   0.67161   0.67684   0.71036
 Alpha virt. eigenvalues --    0.77537   0.80459   0.83333   0.84069   0.86762
 Alpha virt. eigenvalues --    0.87194   0.88547   0.89612   0.90217   0.90842
 Alpha virt. eigenvalues --    0.91756   0.92101   0.95466   0.96201   0.98758
 Alpha virt. eigenvalues --    0.98973   0.99852   1.02755   1.04435   1.06055
 Alpha virt. eigenvalues --    1.09887   1.14316   1.14679   1.22588   1.34788
 Alpha virt. eigenvalues --    1.36455   1.39962   1.46459   1.50349   1.59720
 Alpha virt. eigenvalues --    1.61504   1.68314   1.70851   1.76415   1.80064
 Alpha virt. eigenvalues --    1.84586   1.91433   1.91607   1.94904   1.97306
 Alpha virt. eigenvalues --    1.98166   2.01739   2.03816   2.05171   2.11198
 Alpha virt. eigenvalues --    2.13292   2.17183   2.18166   2.26886   2.29931
 Alpha virt. eigenvalues --    2.30549   2.33059   2.33943   2.35059   2.35511
 Alpha virt. eigenvalues --    2.39013   2.44693   2.53066   2.58480   2.61693
 Alpha virt. eigenvalues --    2.69360   2.78194   2.82658   2.85474   4.02987
 Alpha virt. eigenvalues --    4.21005   4.24381   4.25233   4.42329   4.49161
 Alpha virt. eigenvalues --    4.54804
          Condensed to atoms (all electrons):
               1          2          3          4          5          6
     1  C    5.250171   0.344255  -0.065788  -0.012792   0.000228  -0.006066
     2  C    0.344255   4.888567   0.349039  -0.046623   0.004224  -0.061163
     3  N   -0.065788   0.349039   6.788592   0.321412  -0.042974   0.348536
     4  C   -0.012792  -0.046623   0.321412   4.885106   0.377362  -0.051139
     5  C    0.000228   0.004224  -0.042974   0.377362   5.093052  -0.007359
     6  C   -0.006066  -0.061163   0.348536  -0.051139  -0.007359   4.905645
     7  C   -0.026940  -0.005208  -0.071427  -0.008410  -0.001198   0.335096
     8  H    0.343616  -0.023218   0.004368   0.000355   0.000001   0.000110
     9  H    0.379304  -0.035652  -0.005817   0.002281  -0.000186  -0.000066
    10  H    0.386565  -0.041214   0.000162   0.000143  -0.000019   0.001104
    11  H   -0.055390   0.380795  -0.040926  -0.002652   0.000032   0.006186
    12  H   -0.057000   0.381361  -0.037512   0.005395  -0.000152  -0.003645
    13  H    0.007653  -0.007239  -0.059195   0.350177  -0.051996  -0.007581
    14  H   -0.001933  -0.002284  -0.042566   0.380472  -0.031161   0.005488
    15  H   -0.000028   0.000066  -0.005296  -0.034051   0.377751   0.000424
    16  H    0.000015  -0.000118   0.003155  -0.027626   0.366045   0.000249
    17  H    0.000009  -0.000007   0.002871  -0.030651   0.370927  -0.000344
    18  H   -0.000574   0.006130  -0.038160  -0.007935   0.002154   0.382327
    19  H   -0.001590  -0.004717  -0.038995   0.006185   0.000219   0.382925
    20  H    0.000798  -0.000993  -0.004666   0.003709   0.000320  -0.034473
    21  H    0.001378   0.000083   0.004607   0.000153  -0.000026  -0.021050
    22  H   -0.036261   0.004305  -0.001416  -0.000202   0.000028  -0.036028
               7          8          9         10         11         12
     1  C   -0.026940   0.343616   0.379304   0.386565  -0.055390  -0.057000
     2  C   -0.005208  -0.023218  -0.035652  -0.041214   0.380795   0.381361
     3  N   -0.071427   0.004368  -0.005817   0.000162  -0.040926  -0.037512
     4  C   -0.008410   0.000355   0.002281   0.000143  -0.002652   0.005395
     5  C   -0.001198   0.000001  -0.000186  -0.000019   0.000032  -0.000152
     6  C    0.335096   0.000110  -0.000066   0.001104   0.006186  -0.003645
     7  C    5.250549   0.001130   0.000872  -0.030943  -0.000495  -0.002072
     8  H    0.001130   0.599986  -0.027437  -0.027250  -0.003895   0.001351
     9  H    0.000872  -0.027437   0.563348  -0.033354  -0.003363   0.005056
    10  H   -0.030943  -0.027250  -0.033354   0.594265   0.006045  -0.006430
    11  H   -0.000495  -0.003895  -0.003363   0.006045   0.604632  -0.031788
    12  H   -0.002072   0.001351   0.005056  -0.006430  -0.031788   0.601288
    13  H    0.008171  -0.000623   0.005173  -0.000168  -0.001792  -0.000519
    14  H   -0.000235   0.000007   0.000408   0.000066   0.007019   0.000167
    15  H   -0.000163   0.000000   0.000013   0.000000   0.000009   0.000005
    16  H    0.000038  -0.000000   0.000019  -0.000001  -0.000011   0.000002
    17  H    0.000187  -0.000000   0.000001   0.000000  -0.000028  -0.000007
    18  H   -0.054647   0.000013  -0.000003  -0.000158  -0.000285   0.000195
    19  H   -0.059814   0.000032   0.000009   0.000353   0.000188   0.005752
    20  H    0.382461   0.000096  -0.001193  -0.000254  -0.000037   0.000090
    21  H    0.341934  -0.000036  -0.000000   0.001753   0.000014   0.000016
    22  H    0.391293   0.001686  -0.000252   0.005374  -0.000249   0.000660
              13         14         15         16         17         18
     1  C    0.007653  -0.001933  -0.000028   0.000015   0.000009  -0.000574
     2  C   -0.007239  -0.002284   0.000066  -0.000118  -0.000007   0.006130
     3  N   -0.059195  -0.042566  -0.005296   0.003155   0.002871  -0.038160
     4  C    0.350177   0.380472  -0.034051  -0.027626  -0.030651  -0.007935
     5  C   -0.051996  -0.031161   0.377751   0.366045   0.370927   0.002154
     6  C   -0.007581   0.005488   0.000424   0.000249  -0.000344   0.382327
     7  C    0.008171  -0.000235  -0.000163   0.000038   0.000187  -0.054647
     8  H   -0.000623   0.000007   0.000000  -0.000000  -0.000000   0.000013
     9  H    0.005173   0.000408   0.000013   0.000019   0.000001  -0.000003
    10  H   -0.000168   0.000066   0.000000  -0.000001   0.000000  -0.000158
    11  H   -0.001792   0.007019   0.000009  -0.000011  -0.000028  -0.000285
    12  H   -0.000519   0.000167   0.000005   0.000002  -0.000007   0.000195
    13  H    0.704333  -0.059802  -0.005101  -0.001106   0.006584  -0.000924
    14  H   -0.059802   0.611514   0.005166  -0.001690  -0.007703   0.000070
    15  H   -0.005101   0.005166   0.565859  -0.029025  -0.032527   0.005315
    16  H   -0.001106  -0.001690  -0.029025   0.575136  -0.029489  -0.000109
    17  H    0.006584  -0.007703  -0.032527  -0.029489   0.564693   0.000011
    18  H   -0.000924   0.000070   0.005315  -0.000109   0.000011   0.600444
    19  H   -0.000507  -0.000109  -0.000009  -0.000007  -0.000084  -0.031183
    20  H    0.002519  -0.000100   0.000476  -0.000062  -0.000005  -0.004319
    21  H   -0.000422   0.000008   0.000049  -0.000004  -0.000004  -0.003779
    22  H   -0.000137  -0.000022  -0.000022   0.000003  -0.000001   0.005675
              19         20         21         22
     1  C   -0.001590   0.000798   0.001378  -0.036261
     2  C   -0.004717  -0.000993   0.000083   0.004305
     3  N   -0.038995  -0.004666   0.004607  -0.001416
     4  C    0.006185   0.003709   0.000153  -0.000202
     5  C    0.000219   0.000320  -0.000026   0.000028
     6  C    0.382925  -0.034473  -0.021050  -0.036028
     7  C   -0.059814   0.382461   0.341934   0.391293
     8  H    0.000032   0.000096  -0.000036   0.001686
     9  H    0.000009  -0.001193  -0.000000  -0.000252
    10  H    0.000353  -0.000254   0.001753   0.005374
    11  H    0.000188  -0.000037   0.000014  -0.000249
    12  H    0.005752   0.000090   0.000016   0.000660
    13  H   -0.000507   0.002519  -0.000422  -0.000137
    14  H   -0.000109  -0.000100   0.000008  -0.000022
    15  H   -0.000009   0.000476   0.000049  -0.000022
    16  H   -0.000007  -0.000062  -0.000004   0.000003
    17  H   -0.000084  -0.000005  -0.000004  -0.000001
    18  H   -0.031183  -0.004319  -0.003779   0.005675
    19  H    0.604269   0.005198   0.000837  -0.005939
    20  H    0.005198   0.569329  -0.029042  -0.038890
    21  H    0.000837  -0.029042   0.600969  -0.026991
    22  H   -0.005939  -0.038890  -0.026991   0.586632
 Mulliken charges:
               1
     1  C   -0.449630
     2  C   -0.130389
     3  N   -0.368005
     4  C   -0.110668
     5  C   -0.457273
     6  C   -0.139176
     7  C   -0.450181
     8  H    0.129711
     9  H    0.150841
    10  H    0.143961
    11  H    0.135989
    12  H    0.137787
    13  H    0.112504
    14  H    0.137219
    15  H    0.151088
    16  H    0.144584
    17  H    0.155567
    18  H    0.139742
    19  H    0.136986
    20  H    0.149039
    21  H    0.129552
    22  H    0.150752
 Sum of Mulliken charges =   0.00000
 Mulliken charges with hydrogens summed into heavy atoms:
               1
     1  C   -0.025117
     2  C    0.143387
     3  N   -0.368005
     4  C    0.139055
     5  C   -0.006034
     6  C    0.137552
     7  C   -0.020838
 APT charges:
               1
     1  C   -0.035101
     2  C    0.396660
     3  N   -0.644758
     4  C    0.371582
     5  C    0.066441
     6  C    0.373113
     7  C   -0.020295
     8  H   -0.045999
     9  H   -0.008082
    10  H    0.019257
    11  H   -0.056908
    12  H   -0.053549
    13  H   -0.100707
    14  H   -0.054650
    15  H   -0.012075
    16  H   -0.025312
    17  H   -0.021956
    18  H   -0.041989
    19  H   -0.058112
    20  H   -0.013117
    21  H   -0.046836
    22  H    0.012393
 Sum of APT charges =   0.00000
 APT charges with hydrogens summed into heavy atoms:
               1
     1  C   -0.069925
     2  C    0.286202
     3  N   -0.644758
     4  C    0.216225
     5  C    0.007098
     6  C    0.273013
     7  C   -0.067855
 Electronic spatial extent (au):  <R**2>=            918.8875
 Charge=              0.0000 electrons
 Dipole moment (field-independent basis, Debye):
    X=             -0.1856    Y=              0.1964    Z=             -0.6480  Tot=              0.7021
 Quadrupole moment (field-independent basis, Debye-Ang):
   XX=            -46.1455   YY=            -46.4761   ZZ=            -49.1060
   XY=             -0.0630   XZ=             -1.7928   YZ=              1.0616
 Traceless Quadrupole moment (field-independent basis, Debye-Ang):
   XX=              1.0970   YY=              0.7665   ZZ=             -1.8635
   XY=             -0.0630   XZ=             -1.7928   YZ=              1.0616
 Octapole moment (field-independent basis, Debye-Ang**2):
  XXX=              1.4964  YYY=             -2.5103  ZZZ=             -0.3537  XYY=              1.2272
  XXY=             -0.7882  XXZ=              2.2507  XZZ=             -0.3805  YZZ=              0.8492
  YYZ=              1.9130  XYZ=              0.7235
 Hexadecapole moment (field-independent basis, Debye-Ang**3):
 XXXX=           -683.0155 YYYY=           -381.5659 ZZZZ=           -195.4272 XXXY=             -4.1568
 XXXZ=             -4.1761 YYYX=              1.9196 YYYZ=              1.2436 ZZZX=             -6.2745
 ZZZY=              3.2606 XXYY=           -176.4363 XXZZ=           -144.8965 YYZZ=            -98.7399
 XXYZ=             -0.4008 YYXZ=             -1.7522 ZZXY=             -1.2043
 N-N= 3.460853099553D+02 E-N=-1.368395881338D+03  KE= 2.896747086541D+02
  Exact polarizability:  77.658   1.378  73.417  -1.949   1.620  62.023
 Approx polarizability:  97.916   0.879  99.191  -3.504   2.831  89.740
 Calling FoFJK, ICntrl=    100127 FMM=F ISym2X=0 I1Cent= 0 IOpClX= 0 NMat=1 NMatS=1 NMatT=0.
 ***** Axes restored to original set *****
 -------------------------------------------------------------------
 Center     Atomic                   Forces (Hartrees/Bohr)
 Number     Number              X              Y              Z
 -------------------------------------------------------------------
      1        6          -0.007872789   -0.023263318   -0.000238529
      2        6          -0.011104296    0.006014775    0.010088287
      3        7           0.007777113    0.002759170   -0.016683465
      4        6          -0.000634710   -0.012077462    0.002715761
      5        6          -0.000965422    0.002022918   -0.003149883
      6        6          -0.002068740    0.008269488    0.008368292
      7        6           0.024845863    0.002748000   -0.000498303
      8        1          -0.003716858   -0.001004369    0.000626799
      9        1           0.001226410   -0.002951090    0.000245579
     10        1          -0.026261985   -0.013437825    0.003382421
     11        1          -0.001120447    0.003602304   -0.002676427
     12        1           0.001945183    0.006488536   -0.001220654
     13        1           0.002595546    0.001618817    0.007989347
     14        1          -0.001259931    0.000146571   -0.006372737
     15        1          -0.000553156    0.001769052    0.001687545
     16        1          -0.000633016   -0.000975608    0.000328697
     17        1           0.001690470    0.000439272   -0.002133409
     18        1          -0.001911685   -0.000978249   -0.005699615
     19        1          -0.005952394   -0.000191785   -0.001586314
     20        1           0.000994133   -0.002541875    0.000931456
     21        1           0.002469845    0.002827914    0.001479764
     22        1           0.020510864    0.018714764    0.002415387
 -------------------------------------------------------------------
 Cartesian Forces:  Max     0.026261985 RMS     0.007910951
 FormGI is forming the generalized inverse of G from B-inverse, IUseBI=4.

 GradGradGradGradGradGradGradGradGradGradGradGradGradGradGradGradGradGrad
 Berny optimization.
 Internal  Forces:  Max     0.116427723 RMS     0.025467983
 Search for a local minimum.
 Step number   1 out of a maximum of  115
 All quantities printed in internal units (Hartrees-Bohrs-Radians)
 Mixed Optimization -- RFO/linear search
 Second derivative matrix not updated -- analytic derivatives used.
 ITU=  0
     Eigenvalues ---   -0.10561  -0.01013  -0.00232  -0.00007   0.00272
     Eigenvalues ---    0.00276   0.03362   0.04134   0.04157   0.04363
     Eigenvalues ---    0.04621   0.04660   0.04801   0.04876   0.04976
     Eigenvalues ---    0.05179   0.05398   0.05495   0.06204   0.07011
     Eigenvalues ---    0.07748   0.08957   0.09197   0.10631   0.11244
     Eigenvalues ---    0.11838   0.12710   0.12729   0.12935   0.13573
     Eigenvalues ---    0.15176   0.15691   0.16463   0.16922   0.17049
     Eigenvalues ---    0.21267   0.26484   0.26995   0.27749   0.28523
     Eigenvalues ---    0.30001   0.30852   0.31337   0.32548   0.32666
     Eigenvalues ---    0.32936   0.33164   0.33739   0.33791   0.33999
     Eigenvalues ---    0.34066   0.34167   0.34379   0.34465   0.34894
     Eigenvalues ---    0.35029   0.35272   0.37395   0.43215   2.26690
 RFO step:  Lambda=-1.05729214D-01 EMin=-1.05610741D-01
 I=     1 Eig=   -1.06D-01 Dot1=  1.76D-03
 I=     1 Stepn=  6.00D-01 RXN=   6.00D-01 EDone=F
 I=     2 Eig=   -1.01D-02 Dot1= -8.65D-05
 I=     2 Stepn= -3.00D-01 RXN=   6.71D-01 EDone=F
 I=     3 Eig=   -2.32D-03 Dot1= -9.18D-05
 I=     3 Stepn= -1.50D-01 RXN=   6.87D-01 EDone=F
 Mixed    3 eigenvectors in step.  Raw Step.Grad=  1.94D-03.
 RFO eigenvector is Hessian eigenvector with negative curvature.
 Taking step of  6.00D-01 in eigenvector direction(s).  Step.Grad=  2.87D-03.
 Linear search not attempted -- first point.
 Iteration  1 RMS(Cart)=  0.18811643 RMS(Int)=  0.01674102
 Iteration  2 RMS(Cart)=  0.04303906 RMS(Int)=  0.00093178
 Iteration  3 RMS(Cart)=  0.00119033 RMS(Int)=  0.00068662
 Iteration  4 RMS(Cart)=  0.00000231 RMS(Int)=  0.00068662
 Iteration  5 RMS(Cart)=  0.00000000 RMS(Int)=  0.00068662
 Variable       Old X    -DE/DX   Delta X   Delta X   Delta X     New X
                                 (Linear)    (Quad)   (Total)
    R1        2.88307   0.02116   0.00000  -0.03133  -0.03133   2.85174
    R2        2.06965   0.00252   0.00000  -0.00109  -0.00109   2.06856
    R3        2.06839  -0.00093   0.00000   0.00339   0.00339   2.07178
    R4        2.06862  -0.02324   0.00000   0.00438   0.00438   2.07300
    R5        2.78719   0.03441   0.00000  -0.00154  -0.00154   2.78565
    R6        2.07431   0.00122   0.00000   0.00092   0.00092   2.07524
    R7        2.07263  -0.00010   0.00000   0.00067   0.00067   2.07330
    R8        2.77848  -0.00172   0.00000  -0.00344  -0.00344   2.77503
    R9        2.78522   0.04008   0.00000  -0.00093  -0.00093   2.78429
   R10        2.88127   0.00213   0.00000  -0.00135  -0.00135   2.87992
   R11        2.07251   0.00569   0.00000   0.00245   0.00245   2.07496
   R12        2.07257   0.00145   0.00000   0.00057   0.00057   2.07314
   R13        2.06624  -0.00033   0.00000  -0.00031  -0.00031   2.06592
   R14        2.06934   0.00030   0.00000  -0.00023  -0.00023   2.06911
   R15        2.06784   0.00096   0.00000  -0.00010  -0.00010   2.06774
   R16        2.88192   0.01370   0.00000   0.03104   0.03104   2.91296
   R17        2.07516  -0.00270   0.00000   0.00230   0.00230   2.07746
   R18        2.07397  -0.00033   0.00000  -0.00419  -0.00419   2.06978
   R19        2.06757   0.00024   0.00000   0.00123   0.00123   2.06880
   R20        2.06913   0.00295   0.00000   0.00028   0.00028   2.06941
   R21        2.06751  -0.02087   0.00000  -0.01950  -0.01950   2.04802
    A1        1.91714  -0.00719   0.00000   0.00434   0.00401   1.92115
    A2        1.94348   0.00197   0.00000   0.01911   0.01913   1.96261
    A3        1.94928   0.02134   0.00000  -0.05732  -0.05741   1.89187
    A4        1.88169  -0.00152   0.00000   0.00516   0.00497   1.88665
    A5        1.87144  -0.00926   0.00000   0.00485   0.00437   1.87581
    A6        1.89817  -0.00651   0.00000   0.02551   0.02576   1.92393
    A7        2.00326   0.10715   0.00000   0.04982   0.04932   2.05258
    A8        1.86158  -0.03966   0.00000   0.04440   0.04411   1.90569
    A9        1.90264  -0.01545   0.00000  -0.06528  -0.06449   1.83816
   A10        1.88965  -0.03508   0.00000  -0.02414  -0.02610   1.86355
   A11        1.93973  -0.03642   0.00000  -0.00864  -0.00807   1.93167
   A12        1.85994   0.01318   0.00000   0.00400   0.00464   1.86458
   A13        1.99198  -0.04655   0.00000   0.04987   0.04995   2.04193
   A14        1.90934   0.10179   0.00000  -0.00161  -0.00117   1.90818
   A15        1.99114  -0.02773   0.00000  -0.03825  -0.03835   1.95279
   A16        2.02994  -0.00301   0.00000   0.00184   0.00184   2.03178
   A17        1.91470   0.00761   0.00000  -0.00365  -0.00365   1.91105
   A18        1.90649  -0.00478   0.00000   0.00018   0.00018   1.90667
   A19        1.89892  -0.00295   0.00000   0.00374   0.00374   1.90266
   A20        1.89677   0.00190   0.00000   0.00033   0.00033   1.89710
   A21        1.80334   0.00176   0.00000  -0.00299  -0.00299   1.80034
   A22        1.95581   0.00325   0.00000  -0.00008  -0.00008   1.95573
   A23        1.91419  -0.00211   0.00000  -0.00095  -0.00095   1.91323
   A24        1.94504  -0.00022   0.00000  -0.00079  -0.00079   1.94425
   A25        1.87542  -0.00078   0.00000   0.00077   0.00077   1.87619
   A26        1.89450  -0.00161   0.00000   0.00052   0.00052   1.89502
   A27        1.87585   0.00139   0.00000   0.00063   0.00063   1.87648
   A28        1.99937   0.11643   0.00000  -0.04610  -0.04727   1.95210
   A29        1.89402  -0.03777   0.00000   0.01904   0.01541   1.90943
   A30        1.93799  -0.03773   0.00000   0.00905   0.00904   1.94703
   A31        1.86192  -0.03653   0.00000  -0.07186  -0.07223   1.78970
   A32        1.90556  -0.02459   0.00000   0.09197   0.09293   1.99849
   A33        1.85816   0.01360   0.00000  -0.00390  -0.00205   1.85611
   A34        1.93976   0.00361   0.00000  -0.03842  -0.03803   1.90173
   A35        1.91548  -0.00596   0.00000   0.00010  -0.00103   1.91446
   A36        1.95383   0.01295   0.00000   0.08986   0.08953   2.04336
   A37        1.88250  -0.00126   0.00000  -0.00534  -0.00573   1.87678
   A38        1.89731  -0.00241   0.00000  -0.03911  -0.03815   1.85917
   A39        1.87236  -0.00777   0.00000  -0.00948  -0.01102   1.86134
    D1        2.94521  -0.01262   0.00000   0.07123   0.07190   3.01711
    D2        0.85250  -0.00594   0.00000   0.03992   0.03901   0.89151
    D3       -1.14945   0.00674   0.00000   0.04416   0.04416  -1.10529
    D4        0.86201  -0.00729   0.00000   0.04985   0.05049   0.91249
    D5       -1.23070  -0.00062   0.00000   0.01854   0.01759  -1.21311
    D6        3.05053   0.01207   0.00000   0.02279   0.02275   3.07328
    D7       -1.26388  -0.01539   0.00000   0.04394   0.04489  -1.21899
    D8        2.92660  -0.00871   0.00000   0.01263   0.01200   2.93859
    D9        0.92464   0.00397   0.00000   0.01688   0.01715   0.94180
   D10       -1.05952   0.02154   0.00000  -0.10829  -0.10813  -1.16765
   D11        1.19515   0.03350   0.00000  -0.12115  -0.12067   1.07448
   D12        1.01755   0.01410   0.00000  -0.03749  -0.03805   0.97950
   D13       -3.01096   0.02606   0.00000  -0.05034  -0.05059  -3.06155
   D14        3.05463  -0.01149   0.00000  -0.05198  -0.05204   3.00258
   D15       -0.97388   0.00047   0.00000  -0.06483  -0.06458  -1.03847
   D16       -3.12927   0.04162   0.00000  -0.01749  -0.01771   3.13620
   D17        0.99004   0.04154   0.00000  -0.02090  -0.02111   0.96892
   D18       -0.97511   0.03799   0.00000  -0.01553  -0.01575  -0.99086
   D19        0.94103  -0.03592   0.00000  -0.02559  -0.02537   0.91566
   D20       -1.22285  -0.03600   0.00000  -0.02899  -0.02877  -1.25162
   D21        3.09519  -0.03955   0.00000  -0.02362  -0.02341   3.07179
   D22       -1.05952  -0.01792   0.00000  -0.28240  -0.28251  -1.34203
   D23       -3.13765  -0.01892   0.00000  -0.17521  -0.17499   2.97054
   D24        1.10898   0.00864   0.00000  -0.18703  -0.18721   0.92177
   D25        1.19562  -0.01634   0.00000  -0.24690  -0.24696   0.94865
   D26       -0.88252  -0.01734   0.00000  -0.13971  -0.13944  -1.02196
   D27       -2.91907   0.01022   0.00000  -0.15153  -0.15166  -3.07073
   D28       -0.93419  -0.00513   0.00000  -0.00227  -0.00227  -0.93646
   D29       -3.01546  -0.00482   0.00000  -0.00255  -0.00255  -3.01801
   D30        1.19271  -0.00506   0.00000  -0.00222  -0.00222   1.19049
   D31        1.23779   0.00038   0.00000  -0.00268  -0.00268   1.23511
   D32       -0.84348   0.00069   0.00000  -0.00296  -0.00296  -0.84644
   D33       -2.91849   0.00046   0.00000  -0.00263  -0.00263  -2.92112
   D34       -3.09339   0.00191   0.00000  -0.00413  -0.00413  -3.09752
   D35        1.10853   0.00222   0.00000  -0.00441  -0.00442   1.10411
   D36       -0.96648   0.00199   0.00000  -0.00409  -0.00409  -0.97057
   D37       -0.92450   0.00673   0.00000   0.02984   0.02914  -0.89537
   D38       -3.00530   0.00987   0.00000   0.06053   0.05975  -2.94556
   D39        1.20084   0.01532   0.00000   0.01535   0.01368   1.21452
   D40        1.17157   0.00474   0.00000  -0.02481  -0.02282   1.14875
   D41       -0.90923   0.00788   0.00000   0.00588   0.00779  -0.90144
   D42       -2.98627   0.01333   0.00000  -0.03929  -0.03828  -3.02455
   D43       -3.11013  -0.01044   0.00000  -0.02173  -0.02196  -3.13209
   D44        1.09225  -0.00730   0.00000   0.00896   0.00865   1.10091
   D45       -0.98478  -0.00185   0.00000  -0.03621  -0.03742  -1.02220
         Item               Value     Threshold  Converged?
 Maximum Force            0.116428     0.000450     NO 
 RMS     Force            0.025468     0.000300     NO 
 Maximum Displacement     1.037294     0.001800     NO 
 RMS     Displacement     0.218862     0.001200     NO 
 Predicted change in Energy=-1.654670D-02
 GradGradGradGradGradGradGradGradGradGradGradGradGradGradGradGradGradGrad

                          Input orientation:                          
 ---------------------------------------------------------------------
 Center     Atomic      Atomic             Coordinates (Angstroms)
 Number     Number       Type             X           Y           Z
 ---------------------------------------------------------------------
      1          6           0        2.941036   -1.129509    0.857157
      2          6           0        2.437809    0.006931    0.001253
      3          7           0        2.898584    1.367433    0.332473
      4          6           0        2.443216    1.933127    1.608825
      5          6           0        2.933309    3.337346    1.941274
      6          6           0        4.363988    1.433224    0.194221
      7          6           0        5.082936    0.773248    1.387399
      8          1           0        2.428813   -2.058495    0.587271
      9          1           0        2.780878   -0.950696    1.926894
     10          1           0        4.009351   -1.270749    0.651897
     11          1           0        1.340380    0.026685    0.036331
     12          1           0        2.718134   -0.257670   -1.025939
     13          1           0        2.716642    1.255422    2.428337
     14          1           0        1.346502    1.927835    1.635906
     15          1           0        4.022350    3.415770    1.886383
     16          1           0        2.635454    3.598665    2.961988
     17          1           0        2.495892    4.082266    1.269681
     18          1           0        4.691112    2.480190    0.267800
     19          1           0        4.691987    1.076062   -0.787866
     20          1           0        4.681125    1.186993    2.317918
     21          1           0        6.150792    1.013566    1.353565
     22          1           0        5.009830   -0.304693    1.472512
 ---------------------------------------------------------------------
                    Distance matrix (angstroms):
                    1          2          3          4          5
     1  C    0.000000
     2  C    1.509074   0.000000
     3  N    2.551826   1.474104   0.000000
     4  C    3.192580   2.508893   1.468484   0.000000
     5  C    4.596538   3.885983   2.543621   1.523990   0.000000
     6  C    3.005308   2.404518   1.473380   2.437288   2.953763
     7  C    2.913654   3.083073   2.497463   2.891794   3.391500
     8  H    1.094634   2.146971   3.467360   4.120294   5.585959
     9  H    1.096340   2.177806   2.815982   2.920893   4.290775
    10  H    1.096987   2.127334   2.880250   3.692332   4.904580
    11  H    2.138373   1.098168   2.076850   2.706198   4.138443
    12  H    2.087065   1.097142   2.125747   3.437608   4.666346
    13  H    2.864761   2.743576   2.106727   1.098019   2.149089
    14  H    3.535016   2.748256   2.102843   1.097061   2.144278
    15  H    4.784152   4.205314   2.805918   2.183789   1.093239
    16  H    5.184527   4.658923   3.458610   2.154535   1.094926
    17  H    5.246992   4.268564   2.900145   2.176371   1.094201
    18  H    4.054631   3.356401   2.110822   2.674072   2.573927
    19  H    3.261361   2.616690   2.134561   3.396419   3.956584
    20  H    3.244675   3.433940   2.674323   2.463284   2.796558
    21  H    3.891237   4.077782   3.427056   3.828430   4.012176
    22  H    2.310605   2.979430   2.924560   3.407921   4.218545
                    6          7          8          9         10
     6  C    0.000000
     7  C    1.541470   0.000000
     8  H    4.011419   3.962744   0.000000
     9  H    3.345365   2.926176   1.773628   0.000000
    10  H    2.765268   2.423112   1.767150   1.799222   0.000000
    11  H    3.338486   4.048391   2.415822   2.569929   3.030786
    12  H    2.656453   3.532602   2.434979   3.033718   2.347063
    13  H    2.781481   2.629713   3.801896   2.263300   3.347892
    14  H    3.380579   3.918643   4.261673   3.229249   4.276679
    15  H    2.628806   2.890805   5.847617   4.539705   4.846400
    16  H    3.916312   4.056165   6.138846   4.667896   5.561952
    17  H    3.415233   4.201935   6.178926   5.083685   5.597052
    18  H    1.099346   2.078624   5.081310   4.262929   3.831693
    19  H    1.095282   2.230767   4.103462   3.889731   2.836624
    20  H    2.161318   1.094762   4.312915   2.886789   3.044241
    21  H    2.170913   1.095087   4.886501   3.942506   3.208770
    22  H    2.251998   1.083764   3.243628   2.364743   1.614817
                   11         12         13         14         15
    11  H    0.000000
    12  H    1.762806   0.000000
    13  H    3.020858   3.771137   0.000000
    14  H    2.484562   3.707185   1.719700   0.000000
    15  H    4.701229   4.865877   2.581800   3.071946   0.000000
    16  H    4.795386   5.548127   2.404613   2.492301   1.764612
    17  H    4.393643   4.914703   3.063048   2.469168   1.776122
    18  H    4.159408   3.614177   3.172776   3.655575   1.985539
    19  H    3.607460   2.394079   3.778640   4.218111   3.615834
    20  H    4.208626   4.137845   1.968773   3.483345   2.363823
    21  H    5.084202   4.365916   3.606525   4.898654   3.253421
    22  H    3.954402   3.390625   2.933644   4.293116   3.871466
                   16         17         18         19         20
    16  H    0.000000
    17  H    1.765574   0.000000
    18  H    3.568664   2.896447   0.000000
    19  H    4.965305   4.253657   1.756704   0.000000
    20  H    3.227345   3.775798   2.423931   3.107784   0.000000
    21  H    4.650523   4.773076   2.336779   2.591862   1.766346
    22  H    4.805455   5.060279   3.050980   2.667737   1.745819
                   21         22
    21  H    0.000000
    22  H    1.747498   0.000000
 Stoichiometry    C6H15N
 Framework group  C1[X(C6H15N)]
 Deg. of freedom    60
 Full point group                 C1      NOp   1
 Largest Abelian subgroup         C1      NOp   1
 Largest concise Abelian subgroup C1      NOp   1
                         Standard orientation:                         
 ---------------------------------------------------------------------
 Center     Atomic      Atomic             Coordinates (Angstroms)
 Number     Number       Type             X           Y           Z
 ---------------------------------------------------------------------
      1          6           0       -2.123441   -0.373703   -0.645061
      2          6           0       -1.327098   -0.914899    0.516942
      3          7           0        0.065938   -0.455530    0.663273
      4          6           0        1.018055   -0.873593   -0.373617
      5          6           0        2.452750   -0.385269   -0.213196
      6          6           0        0.079562    1.003883    0.865207
      7          6           0       -0.156882    1.767568   -0.452750
      8          1           0       -3.088433   -0.886291   -0.710399
      9          1           0       -1.605137   -0.500108   -1.602841
     10          1           0       -2.326439    0.688479   -0.460833
     11          1           0       -1.294379   -2.010710    0.452894
     12          1           0       -1.912908   -0.666235    1.410649
     13          1           0        0.644039   -0.567325   -1.359497
     14          1           0        1.024489   -1.968729   -0.438251
     15          1           0        2.506398    0.700635   -0.098707
     16          1           0        3.033386   -0.651637   -1.102450
     17          1           0        2.938938   -0.851154    0.649270
     18          1           0        1.092498    1.323969    1.148171
     19          1           0       -0.579150    1.302500    1.687746
     20          1           0        0.538675    1.392982   -1.210634
     21          1           0        0.056724    2.831560   -0.306092
     22          1           0       -1.147945    1.706855   -0.887092
 ---------------------------------------------------------------------
 Rotational constants (GHZ):           3.4323324           1.9738355           1.6003511
 Standard basis: 6-31G(d) (6D, 7F)
 There are   135 symmetry adapted cartesian basis functions of A   symmetry.
 There are   135 symmetry adapted basis functions of A   symmetry.
   135 basis functions,   256 primitive gaussians,   135 cartesian basis functions
    29 alpha electrons       29 beta electrons
       nuclear repulsion energy       346.2842517424 Hartrees.
 NAtoms=   22 NActive=   22 NUniq=   22 SFac= 1.00D+00 NAtFMM=   60 NAOKFM=F Big=F
 Integral buffers will be    131072 words long.
 Raffenetti 2 integral format.
 Two-electron integral symmetry is turned on.
 One-electron integrals computed using PRISM.
 NBasis=   135 RedAO= T EigKep=  4.54D-03  NBF=   135
 NBsUse=   135 1.00D-06 EigRej= -1.00D+00 NBFU=   135
 Initial guess from the checkpoint file:  "base_4_conf121.chk"
 B after Tr=    -0.000000    0.000000    0.000000
         Rot=    0.995990   -0.048940    0.014113    0.073549 Ang= -10.27 deg.
 ExpMin= 1.61D-01 ExpMax= 4.17D+03 ExpMxC= 6.27D+02 IAcc=2 IRadAn=         4 AccDes= 0.00D+00
 Harris functional with IExCor=  402 and IRadAn=       4 diagonalized for initial guess.
 HarFok:  IExCor=  402 AccDes= 0.00D+00 IRadAn=         4 IDoV= 1 UseB2=F ITyADJ=14
 ICtDFT=  3500011 ScaDFX=  1.000000  1.000000  1.000000  1.000000
 FoFCou: FMM=F IPFlag=           0 FMFlag=      100000 FMFlg1=           0
         NFxFlg=           0 DoJE=T BraDBF=F KetDBF=T FulRan=T
         wScrn=  0.000000 ICntrl=       500 IOpCl=  0 I1Cent=   200000004 NGrid=           0
         NMat0=    1 NMatS0=      1 NMatT0=    0 NMatD0=    1 NMtDS0=    0 NMtDT0=    0
 Petite list used in FoFCou.
 Keep R1 ints in memory in canonical form, NReq=45019892.
 Gradient too large for Newton-Raphson -- use scaled steepest descent instead.
 Gradient too large for Newton-Raphson -- use scaled steepest descent instead.
 Gradient too large for Newton-Raphson -- use scaled steepest descent instead.
     Accept linear search using points  1 and  2.
 Gradient too large for Newton-Raphson -- use scaled steepest descent instead.
     Accept linear search using points  1 and  2.
 Gradient too large for Newton-Raphson -- use scaled steepest descent instead.
 Gradient too large for Newton-Raphson -- use scaled steepest descent instead.
     Accept linear search using points  1 and  2.
 Gradient too large for Newton-Raphson -- use scaled steepest descent instead.
     Accept linear search using points  2 and  3.
 Gradient too large for Newton-Raphson -- use scaled steepest descent instead.
     Accept linear search using points  1 and  2.
 Gradient too large for Newton-Raphson -- use scaled steepest descent instead.
     Accept linear search using points  2 and  3.
 Gradient too large for Newton-Raphson -- use scaled steepest descent instead.
     Accept linear search using points  1 and  2.
 LinEq1:  Iter=  0 NonCon=     1 RMS=1.46D-04 Max=2.74D-03 NDo=     1
 AX will form     1 AO Fock derivatives at one time.
 LinEq1:  Iter=  1 NonCon=     1 RMS=6.89D-06 Max=6.39D-05 NDo=     1
 LinEq1:  Iter=  2 NonCon=     1 RMS=5.06D-06 Max=6.57D-05 NDo=     1
 LinEq1:  Iter=  3 NonCon=     1 RMS=1.71D-06 Max=1.57D-05 NDo=     1
 LinEq1:  Iter=  4 NonCon=     1 RMS=8.47D-07 Max=9.08D-06 NDo=     1
 LinEq1:  Iter=  5 NonCon=     1 RMS=2.09D-07 Max=2.72D-06 NDo=     1
 LinEq1:  Iter=  6 NonCon=     1 RMS=5.73D-08 Max=4.58D-07 NDo=     1
 LinEq1:  Iter=  7 NonCon=     1 RMS=2.05D-08 Max=1.36D-07 NDo=     1
 LinEq1:  Iter=  8 NonCon=     1 RMS=8.66D-09 Max=8.41D-08 NDo=     1
 LinEq1:  Iter=  9 NonCon=     0 RMS=2.42D-09 Max=2.21D-08 NDo=     1
 Linear equations converged to 7.841D-09 7.841D-08 after     9 iterations.
     Accept linear search using points  1 and  2.
     Minimum is close to point  2 DX= -7.76D-05 DF= -3.98D-13 DXR=  7.76D-05 DFR=  5.72D-09 which will be used.
 LinEq1:  Iter=  0 NonCon=     1 RMS=3.56D-07 Max=3.34D-06 NDo=     1
 LinEq1:  Iter=  1 NonCon=     1 RMS=1.02D-07 Max=9.59D-07 NDo=     1
 LinEq1:  Iter=  2 NonCon=     1 RMS=6.06D-08 Max=7.44D-07 NDo=     1
 LinEq1:  Iter=  3 NonCon=     1 RMS=2.35D-08 Max=3.41D-07 NDo=     1
 LinEq1:  Iter=  4 NonCon=     1 RMS=7.26D-09 Max=1.00D-07 NDo=     1
 LinEq1:  Iter=  5 NonCon=     1 RMS=2.83D-09 Max=3.29D-08 NDo=     1
 LinEq1:  Iter=  6 NonCon=     1 RMS=1.24D-09 Max=1.46D-08 NDo=     1
 LinEq1:  Iter=  7 NonCon=     1 RMS=2.98D-10 Max=5.51D-09 NDo=     1
 LinEq1:  Iter=  8 NonCon=     0 RMS=1.46D-10 Max=1.80D-09 NDo=     1
 Linear equations converged to 2.067D-10 2.067D-09 after     8 iterations.
 SCF Done:  E(RB3LYP) =  -292.389672585     a.u. after   13 cycles
            Convg  =    0.2916D-09                    47 Fock formations.
              S**2 =  0.0000                  -V/T =  2.0095
 DoSCS=F DFT=T ScalE2(SS,OS)=  1.000000  1.000000
 Range of M.O.s used for correlation:     1   135
 NBasis=   135 NAE=    29 NBE=    29 NFC=     0 NFV=     0
 NROrb=    135 NOA=    29 NOB=    29 NVA=   106 NVB=   106
 Symmetrizing basis deriv contribution to polar:
 IMax=3 JMax=2 DiffMx= 0.00D+00
 G2DrvN: will do    23 centers at a time, making    1 passes.
 Calling FoFCou, ICntrl=  3107 FMM=F I1Cent=   0 AccDes= 0.00D+00.
 End of G2Drv F.D. properties file   721 does not exist.
 End of G2Drv F.D. properties file   722 does not exist.
 End of G2Drv F.D. properties file   788 does not exist.
          IDoAtm=1111111111111111111111
          Differentiating once with respect to electric field.
                with respect to dipole field.
          Differentiating once with respect to nuclear coordinates.
 Keep R1 ints in memory in canonical form, NReq=45034167.
          There are    69 degrees of freedom in the 1st order CPHF.  IDoFFX=6 NUNeed=     3.
     66 vectors produced by pass  0 Test12= 4.46D-15 1.45D-09 XBig12= 4.39D+01 1.35D+00.
 AX will form    66 AO Fock derivatives at one time.
     66 vectors produced by pass  1 Test12= 4.46D-15 1.45D-09 XBig12= 1.93D+00 2.12D-01.
     66 vectors produced by pass  2 Test12= 4.46D-15 1.45D-09 XBig12= 1.03D-02 1.71D-02.
     66 vectors produced by pass  3 Test12= 4.46D-15 1.45D-09 XBig12= 1.36D-05 4.39D-04.
     66 vectors produced by pass  4 Test12= 4.46D-15 1.45D-09 XBig12= 9.80D-09 1.25D-05.
     24 vectors produced by pass  5 Test12= 4.46D-15 1.45D-09 XBig12= 4.86D-12 1.89D-07.
      3 vectors produced by pass  6 Test12= 4.46D-15 1.45D-09 XBig12= 2.47D-15 6.14D-09.
 InvSVY:  IOpt=1 It=  1 EMax= 3.55D-15
 Solved reduced A of dimension   357 with    69 vectors.
 Isotropic polarizability for W=    0.000000       70.93 Bohr**3.
 End of Minotr F.D. properties file   721 does not exist.
 End of Minotr F.D. properties file   722 does not exist.
 End of Minotr F.D. properties file   788 does not exist.
 Calling FoFJK, ICntrl=    100127 FMM=F ISym2X=0 I1Cent= 0 IOpClX= 0 NMat=1 NMatS=1 NMatT=0.
 ***** Axes restored to original set *****
 -------------------------------------------------------------------
 Center     Atomic                   Forces (Hartrees/Bohr)
 Number     Number              X              Y              Z
 -------------------------------------------------------------------
      1        6           0.003090088   -0.015411734    0.003299018
      2        6          -0.018396265    0.012239957    0.002384919
      3        7           0.013669595    0.004703247   -0.020076159
      4        6          -0.009860671   -0.017736802    0.003327819
      5        6          -0.000815628    0.002243639   -0.003279855
      6        6           0.000801959    0.007542234    0.021396659
      7        6           0.020889548    0.004710481    0.001014725
      8        1          -0.002368079   -0.001201330    0.000098378
      9        1           0.002706738   -0.002318302   -0.000423291
     10        1          -0.010076455   -0.009082609    0.003247457
     11        1          -0.001158361    0.000403258   -0.001153284
     12        1          -0.000962777    0.010108590   -0.003267334
     13        1           0.000918663    0.001411785    0.007082297
     14        1          -0.001648506    0.000743279   -0.006159942
     15        1          -0.000668675    0.002215162    0.001734238
     16        1          -0.000896910   -0.000956354    0.000334040
     17        1           0.001561780    0.000295508   -0.002226741
     18        1          -0.004662827   -0.000220552   -0.009160194
     19        1          -0.003297080   -0.004690831    0.001214284
     20        1           0.004882332   -0.000225657    0.000023306
     21        1           0.002450402    0.001994303    0.001097927
     22        1           0.003841129    0.003232729   -0.000508268
 -------------------------------------------------------------------
 Cartesian Forces:  Max     0.021396659 RMS     0.007200398
 FormGI is forming the generalized inverse of G from B-inverse, IUseBI=4.

 GradGradGradGradGradGradGradGradGradGradGradGradGradGradGradGradGradGrad
 Berny optimization.
 Using GEDIIS/GDIIS optimizer.
 Internal  Forces:  Max     0.069950546 RMS     0.013370698
 Search for a local minimum.
 Step number   2 out of a maximum of  115
 All quantities printed in internal units (Hartrees-Bohrs-Radians)
 Mixed Optimization -- RFO/linear search
 Second derivative matrix not updated -- analytic derivatives used.
 ITU=  0  0
 Use linear search instead of GDIIS.
     Eigenvalues ---   -0.01341  -0.00144   0.00178   0.00474   0.00822
     Eigenvalues ---    0.01123   0.03551   0.04218   0.04431   0.04479
     Eigenvalues ---    0.04646   0.04811   0.04848   0.04876   0.04953
     Eigenvalues ---    0.04974   0.05010   0.05505   0.06770   0.07601
     Eigenvalues ---    0.08619   0.09216   0.10542   0.11496   0.12242
     Eigenvalues ---    0.12430   0.12757   0.13076   0.13617   0.14474
     Eigenvalues ---    0.15214   0.15955   0.16585   0.16816   0.17634
     Eigenvalues ---    0.22601   0.26520   0.26717   0.27404   0.29066
     Eigenvalues ---    0.30005   0.31307   0.31551   0.32541   0.32713
     Eigenvalues ---    0.32896   0.33462   0.33755   0.33854   0.34043
     Eigenvalues ---    0.34111   0.34199   0.34447   0.34485   0.35085
     Eigenvalues ---    0.35217   0.36488   0.38011   0.53444   1.16152
 RFO step:  Lambda=-3.03881933D-02 EMin=-1.34113481D-02
 Quintic linear search produced a step of  0.14269.
 Maximum step size (   0.300) exceeded in Quadratic search.
    -- Step size scaled by   0.831
 Iteration  1 RMS(Cart)=  0.21299880 RMS(Int)=  0.02278746
 Iteration  2 RMS(Cart)=  0.06657268 RMS(Int)=  0.00181389
 Iteration  3 RMS(Cart)=  0.00244120 RMS(Int)=  0.00115717
 Iteration  4 RMS(Cart)=  0.00000550 RMS(Int)=  0.00115717
 Iteration  5 RMS(Cart)=  0.00000001 RMS(Int)=  0.00115717
 Variable       Old X    -DE/DX   Delta X   Delta X   Delta X     New X
                                 (Linear)    (Quad)   (Total)
    R1        2.85174   0.02240  -0.00447   0.06126   0.05679   2.90853
    R2        2.06856   0.00210  -0.00016   0.00331   0.00316   2.07172
    R3        2.07178  -0.00119   0.00048  -0.00077  -0.00029   2.07150
    R4        2.07300  -0.00925   0.00062  -0.01937  -0.01874   2.05426
    R5        2.78565   0.01241  -0.00022  -0.01420  -0.01442   2.77123
    R6        2.07524   0.00113   0.00013   0.00367   0.00380   2.07904
    R7        2.07330   0.00038   0.00010  -0.00347  -0.00337   2.06993
    R8        2.77503  -0.00029  -0.00049  -0.00528  -0.00577   2.76926
    R9        2.78429   0.02391  -0.00013  -0.01602  -0.01615   2.76814
   R10        2.87992   0.00249  -0.00019   0.00819   0.00800   2.88792
   R11        2.07496   0.00464   0.00035   0.01263   0.01298   2.08794
   R12        2.07314   0.00149   0.00008   0.00269   0.00277   2.07591
   R13        2.06592  -0.00059  -0.00004   0.00164   0.00160   2.06752
   R14        2.06911   0.00033  -0.00003   0.00106   0.00103   2.07014
   R15        2.06774   0.00094  -0.00001   0.00203   0.00201   2.06975
   R16        2.91296   0.01206   0.00443  -0.02009  -0.01566   2.89729
   R17        2.07746  -0.00221   0.00033  -0.00702  -0.00669   2.07078
   R18        2.06978  -0.00055  -0.00060   0.00258   0.00199   2.07177
   R19        2.06880  -0.00186   0.00018   0.00852   0.00869   2.07749
   R20        2.06941   0.00279   0.00004   0.00226   0.00230   2.07171
   R21        2.04802  -0.00351  -0.00278   0.01126   0.00848   2.05650
    A1        1.92115  -0.00433   0.00057  -0.00784  -0.00778   1.91337
    A2        1.96261   0.00307   0.00273  -0.01586  -0.01318   1.94943
    A3        1.89187   0.01248  -0.00819   0.09005   0.08154   1.97341
    A4        1.88665  -0.00113   0.00071  -0.00976  -0.00927   1.87739
    A5        1.87581  -0.00533   0.00062  -0.01275  -0.01286   1.86295
    A6        1.92393  -0.00533   0.00368  -0.04482  -0.04105   1.88288
    A7        2.05258   0.05107   0.00704   0.01464   0.02062   2.07320
    A8        1.90569  -0.01657   0.00629  -0.06058  -0.05372   1.85197
    A9        1.83816  -0.00444  -0.00920   0.08655   0.07742   1.91558
   A10        1.86355  -0.01701  -0.00372  -0.01514  -0.01958   1.84397
   A11        1.93167  -0.02099  -0.00115  -0.02500  -0.02828   1.90338
   A12        1.86458   0.00484   0.00066  -0.00298  -0.00139   1.86319
   A13        2.04193  -0.02874   0.00713  -0.09274  -0.08862   1.95332
   A14        1.90818   0.04340  -0.00017   0.09813   0.09932   2.00749
   A15        1.95279  -0.00041  -0.00547   0.04318   0.03940   1.99219
   A16        2.03178  -0.00263   0.00026  -0.01758  -0.01758   2.01420
   A17        1.91105   0.00756  -0.00052   0.03961   0.03920   1.95024
   A18        1.90667  -0.00483   0.00003  -0.02957  -0.02983   1.87684
   A19        1.90266  -0.00219   0.00053  -0.01850  -0.01780   1.88486
   A20        1.89710   0.00123   0.00005   0.00244   0.00189   1.89899
   A21        1.80034   0.00128  -0.00043   0.02908   0.02888   1.82923
   A22        1.95573   0.00396  -0.00001   0.00460   0.00459   1.96032
   A23        1.91323  -0.00237  -0.00014  -0.00372  -0.00385   1.90938
   A24        1.94425  -0.00042  -0.00011   0.00192   0.00181   1.94606
   A25        1.87619  -0.00086   0.00011  -0.00557  -0.00546   1.87074
   A26        1.89502  -0.00184   0.00007  -0.00556  -0.00549   1.88953
   A27        1.87648   0.00143   0.00009   0.00825   0.00834   1.88482
   A28        1.95210   0.06995  -0.00674   0.09613   0.08858   2.04068
   A29        1.90943  -0.01897   0.00220  -0.04614  -0.04939   1.86004
   A30        1.94703  -0.02777   0.00129  -0.04421  -0.04229   1.90474
   A31        1.78970  -0.01640  -0.01031   0.07547   0.06504   1.85473
   A32        1.99849  -0.01830   0.01326  -0.07706  -0.06177   1.93671
   A33        1.85611   0.00842  -0.00029  -0.00012  -0.00019   1.85592
   A34        1.90173   0.00432  -0.00543   0.02598   0.02064   1.92238
   A35        1.91446  -0.00175  -0.00015   0.00684   0.00619   1.92064
   A36        2.04336   0.00239   0.01278  -0.07052  -0.05786   1.98551
   A37        1.87678  -0.00307  -0.00082   0.00627   0.00515   1.88193
   A38        1.85917  -0.00125  -0.00544   0.02566   0.02063   1.87980
   A39        1.86134  -0.00120  -0.00157   0.01085   0.00864   1.86998
    D1        3.01711  -0.00305   0.01026  -0.11003  -0.10039   2.91672
    D2        0.89151  -0.00384   0.00557  -0.05006  -0.04521   0.84629
    D3       -1.10529   0.00042   0.00630  -0.06267  -0.05543  -1.16072
    D4        0.91249  -0.00065   0.00720  -0.08155  -0.07492   0.83758
    D5       -1.21311  -0.00145   0.00251  -0.02158  -0.01974  -1.23285
    D6        3.07328   0.00281   0.00325  -0.03419  -0.02996   3.04332
    D7       -1.21899  -0.00462   0.00641  -0.07732  -0.07118  -1.29017
    D8        2.93859  -0.00542   0.00171  -0.01735  -0.01600   2.92259
    D9        0.94180  -0.00116   0.00245  -0.02996  -0.02622   0.91557
   D10       -1.16765  -0.00123  -0.01543   0.28040   0.26583  -0.90182
   D11        1.07448   0.01402  -0.01722   0.35337   0.33458   1.40906
   D12        0.97950  -0.00146  -0.00543   0.19781   0.19325   1.17276
   D13       -3.06155   0.01379  -0.00722   0.27078   0.26200  -2.79955
   D14        3.00258  -0.01621  -0.00743   0.17275   0.16724  -3.11336
   D15       -1.03847  -0.00096  -0.00922   0.24572   0.23599  -0.80248
   D16        3.13620   0.02115  -0.00253   0.12629   0.12249  -3.02449
   D17        0.96892   0.01977  -0.00301   0.13148   0.12751   1.09643
   D18       -0.99086   0.01684  -0.00225   0.09195   0.08905  -0.90181
   D19        0.91566  -0.01505  -0.00362   0.02751   0.02454   0.94020
   D20       -1.25162  -0.01643  -0.00411   0.03270   0.02956  -1.22206
   D21        3.07179  -0.01936  -0.00334  -0.00683  -0.00890   3.06289
   D22       -1.34203  -0.00824  -0.04031   0.16682   0.12362  -1.21841
   D23        2.97054  -0.01592  -0.02497   0.04938   0.02401   2.99455
   D24        0.92177   0.00231  -0.02671   0.10506   0.07529   0.99706
   D25        0.94865  -0.01093  -0.03524   0.15928   0.12538   1.07404
   D26       -1.02196  -0.01861  -0.01990   0.04184   0.02577  -0.99618
   D27       -3.07073  -0.00038  -0.02164   0.09752   0.07705  -2.99368
   D28       -0.93646  -0.00553  -0.00032  -0.03671  -0.03705  -0.97351
   D29       -3.01801  -0.00539  -0.00036  -0.03018  -0.03056  -3.04857
   D30        1.19049  -0.00538  -0.00032  -0.03923  -0.03956   1.15092
[...]
     2  C   -0.005721  -0.088990  -0.063991  -0.057312   0.064325   0.210171
     3  N   -0.027074   0.002073  -0.007637  -0.006357  -0.036993  -0.040367
     4  C    0.020132  -0.003330  -0.035623  -0.008288  -0.065729  -0.002195
     5  C    0.000974   0.000014   0.000269   0.000037   0.000331  -0.000198
     6  C    0.459799  -0.000270   0.000049  -0.001814  -0.002652  -0.033413
     7  C    5.966928  -0.000336  -0.004541  -0.022909  -0.000427  -0.000974
     8  H   -0.000336   0.664334   0.022026   0.027143   0.027329   0.016091
     9  H   -0.004541   0.022026   0.645532   0.022746   0.022769   0.011369
    10  H   -0.022909   0.027143   0.022746   0.657687   0.016617   0.015168
    11  H   -0.000427   0.027329   0.022769   0.016617   0.787018   0.032529
    12  H   -0.000974   0.016091   0.011369   0.015168   0.032529   0.643577
    13  H   -0.041478   0.001825   0.031370   0.008244   0.013462   0.002376
    14  H   -0.001920   0.002328   0.020946   0.002502   0.071894   0.005510
    15  H   -0.011058   0.000003   0.000162   0.000061   0.000446   0.000153
    16  H   -0.000522   0.000002   0.000163   0.000011   0.000454   0.000029
    17  H   -0.000224   0.000004   0.000076   0.000016   0.001896   0.000269
    18  H   -0.071065   0.000048   0.000294   0.000884   0.001644   0.004388
    19  H   -0.069814   0.000892   0.001188   0.009245   0.007245   0.043076
    20  H   -0.015389   0.000141   0.002638   0.005553   0.000460   0.000744
    21  H    0.118962   0.000021   0.000175   0.002070   0.000059   0.000492
    22  H    0.072859   0.001890   0.007035   0.046822   0.001050   0.004231
              13         14         15         16         17         18
     1  C   -0.019171  -0.007825  -0.000046  -0.000011   0.000012  -0.000223
     2  C   -0.003144  -0.043785   0.000200  -0.000168  -0.001128   0.003588
     3  N   -0.032707  -0.041196  -0.003045   0.003621  -0.001026  -0.031746
     4  C   -0.069650  -0.095167  -0.082786  -0.112418  -0.075375  -0.014171
     5  C   -0.069911  -0.070149   0.104760   0.171705   0.218317  -0.031279
     6  C   -0.009106   0.000904  -0.020239  -0.000742  -0.009303   0.083488
     7  C   -0.041478  -0.001920  -0.011058  -0.000522  -0.000224  -0.071065
     8  H    0.001825   0.002328   0.000003   0.000002   0.000004   0.000048
     9  H    0.031370   0.020946   0.000162   0.000163   0.000076   0.000294
    10  H    0.008244   0.002502   0.000061   0.000011   0.000016   0.000884
    11  H    0.013462   0.071894   0.000446   0.000454   0.001896   0.001644
    12  H    0.002376   0.005510   0.000153   0.000029   0.000269   0.004388
    13  H    0.796749   0.110630   0.035078   0.033579   0.015028   0.012622
    14  H    0.110630   0.888504   0.020753   0.037004   0.024968   0.004708
    15  H    0.035078   0.020753   0.715181   0.040951   0.020290   0.042646
    16  H    0.033579   0.037004   0.040951   0.686669   0.018576   0.002720
    17  H    0.015028   0.024968   0.020290   0.018576   0.649931   0.014437
    18  H    0.012622   0.004708   0.042646   0.002720   0.014437   0.720897
    19  H    0.004383   0.001884   0.002942   0.000110   0.001174   0.055522
    20  H    0.058081   0.003794   0.026045   0.002174   0.001126   0.032157
    21  H    0.002835   0.000115   0.002608   0.000046   0.000099   0.027702
    22  H    0.014108   0.001011   0.001170   0.000062   0.000068   0.016627
              19         20         21         22
     1  C   -0.003669  -0.003858  -0.000540  -0.026534
     2  C   -0.021488   0.002335   0.000588   0.004669
     3  N   -0.042051  -0.008130   0.002106  -0.006766
     4  C    0.001843  -0.025442  -0.000779  -0.007800
     5  C   -0.001731  -0.011118  -0.000665  -0.000162
     6  C    0.049843  -0.075639  -0.097043  -0.073623
     7  C   -0.069814  -0.015389   0.118962   0.072859
     8  H    0.000892   0.000141   0.000021   0.001890
     9  H    0.001188   0.002638   0.000175   0.007035
    10  H    0.009245   0.005553   0.002070   0.046822
    11  H    0.007245   0.000460   0.000059   0.001050
    12  H    0.043076   0.000744   0.000492   0.004231
    13  H    0.004383   0.058081   0.002835   0.014108
    14  H    0.001884   0.003794   0.000115   0.001011
    15  H    0.002942   0.026045   0.002608   0.001170
    16  H    0.000110   0.002174   0.000046   0.000062
    17  H    0.001174   0.001126   0.000099   0.000068
    18  H    0.055522   0.032157   0.027702   0.016627
    19  H    0.787113   0.020255   0.029617   0.028335
    20  H    0.020255   0.786335   0.057412   0.058907
    21  H    0.029617   0.057412   0.700072   0.041301
    22  H    0.028335   0.058907   0.041301   0.713320
 Mulliken charges:
               1
     1  C   -0.405067
     2  C   -0.114691
     3  N   -0.201723
     4  C   -0.056901
     5  C   -0.412269
     6  C   -0.093715
     7  C   -0.375391
     8  H    0.130462
     9  H    0.129900
    10  H    0.127730
    11  H    0.111200
    12  H    0.138821
    13  H    0.104799
    14  H    0.062588
    15  H    0.103723
    16  H    0.115984
    17  H    0.120768
    18  H    0.124112
    19  H    0.094085
    20  H    0.081419
    21  H    0.112746
    22  H    0.101421
 Sum of Mulliken charges =  -0.00000
 Mulliken charges with hydrogens summed into heavy atoms:
               1
     1  C   -0.016975
     2  C    0.135330
     3  N   -0.201723
     4  C    0.110486
     5  C   -0.071795
     6  C    0.124482
     7  C   -0.079805
 Electronic spatial extent (au):  <R**2>=            985.9872
 Charge=             -0.0000 electrons
 Dipole moment (field-independent basis, Debye):
    X=             -0.7489    Y=             -0.5363    Z=              1.1379  Tot=              1.4640
 Quadrupole moment (field-independent basis, Debye-Ang):
   XX=            -51.3777   YY=            -52.2454   ZZ=            -49.6610
   XY=              0.8786   XZ=             -0.0423   YZ=              0.5693
 Traceless Quadrupole moment (field-independent basis, Debye-Ang):
   XX=             -0.2830   YY=             -1.1507   ZZ=              1.4337
   XY=              0.8786   XZ=             -0.0423   YZ=              0.5693
 Octapole moment (field-independent basis, Debye-Ang**2):
  XXX=             -7.2498  YYY=              1.0177  ZZZ=              4.6515  XYY=             -0.4856
  XXY=             -2.7236  XXZ=              2.4448  XZZ=             -0.9961  YZZ=             -1.7134
  YYZ=              1.9050  XYZ=              1.6245
 Hexadecapole moment (field-independent basis, Debye-Ang**3):
 XXXX=           -738.7852 YYYY=           -510.7288 ZZZZ=           -200.9812 XXXY=              5.7908
 XXXZ=              1.2308 YYYX=              4.2183 YYYZ=             -0.2182 ZZZX=              1.1652
 ZZZY=              0.8760 XXYY=           -210.0639 XXZZ=           -154.2944 YYZZ=           -116.3542
 XXYZ=              0.1536 YYXZ=              0.5347 ZZXY=             -0.3578
 N-N= 3.388634086153D+02 E-N=-1.351885842812D+03  KE= 2.896069230972D+02
 Evaluate density.
 Using the total density.
 Monte-Carlo method of calculating molar volume:
 based on  0.001 e/bohr**3 density envelope.
 Number of points per bohr**3 =   20 CutOff= 1.00D-04
 Using the CI density.
 There are       369 points.  Will hold       369 in memory.
 LenV=   805236717 MDV=   805306368.
 Box volume = 6308.694 fraction occupied=0.201
 Integrated density= 4.7452191091284831D+01 error=-1.0547808908715169D+01
 Molar volume = 1265.158 bohr**3/mol (112.901 cm**3/mol)
 Recommended a0 for SCRF calculation =  4.41 angstrom (  8.33 bohr)
 ******************************Gaussian NBO Version 3.1******************************
             N A T U R A L   A T O M I C   O R B I T A L   A N D
          N A T U R A L   B O N D   O R B I T A L   A N A L Y S I S
 ******************************Gaussian NBO Version 3.1******************************
       /RESON  / : Allow strongly delocalized NBO set

 Analyzing the CI density

 Job title: Title Card Required                                             

 Storage needed:     56284 in NPA ( 805303728 available)


 NATURAL POPULATIONS:  Natural atomic orbital occupancies 
                                                          
   NAO  Atom  No  lang   Type(AO)    Occupancy
 --------------------------------------------
     1    C    1  S      Cor( 1S)     1.99940
     2    C    1  S      Val( 2S)     1.12883
     3    C    1  S      Ryd( 3S)     0.00046
     4    C    1  S      Ryd( 4S)     0.00003
     5    C    1  px     Val( 2p)     1.17097
     6    C    1  px     Ryd( 3p)     0.00231
     7    C    1  py     Val( 2p)     1.25773
     8    C    1  py     Ryd( 3p)     0.00158
     9    C    1  pz     Val( 2p)     1.11803
    10    C    1  pz     Ryd( 3p)     0.00256
    11    C    1  dxy    Ryd( 3d)     0.00062
    12    C    1  dxz    Ryd( 3d)     0.00070
    13    C    1  dyz    Ryd( 3d)     0.00048
    14    C    1  dx2y2  Ryd( 3d)     0.00068
    15    C    1  dz2    Ryd( 3d)     0.00066
 
    16    C    2  S      Cor( 1S)     1.99933
    17    C    2  S      Val( 2S)     1.03714
    18    C    2  S      Ryd( 3S)     0.00153
    19    C    2  S      Ryd( 4S)     0.00004
    20    C    2  px     Val( 2p)     0.86981
    21    C    2  px     Ryd( 3p)     0.00323
    22    C    2  py     Val( 2p)     1.22089
    23    C    2  py     Ryd( 3p)     0.00625
    24    C    2  pz     Val( 2p)     1.16329
    25    C    2  pz     Ryd( 3p)     0.00264
    26    C    2  dxy    Ryd( 3d)     0.00080
    27    C    2  dxz    Ryd( 3d)     0.00080
    28    C    2  dyz    Ryd( 3d)     0.00070
    29    C    2  dx2y2  Ryd( 3d)     0.00138
    30    C    2  dz2    Ryd( 3d)     0.00100
 
    31    N    3  S      Cor( 1S)     1.99937
    32    N    3  S      Val( 2S)     1.26776
    33    N    3  S      Ryd( 3S)     0.00154
    34    N    3  S      Ryd( 4S)     0.00003
    35    N    3  px     Val( 2p)     1.27598
    36    N    3  px     Ryd( 3p)     0.00096
    37    N    3  py     Val( 2p)     1.28152
    38    N    3  py     Ryd( 3p)     0.00071
    39    N    3  pz     Val( 2p)     1.20412
    40    N    3  pz     Ryd( 3p)     0.00276
    41    N    3  dxy    Ryd( 3d)     0.00061
    42    N    3  dxz    Ryd( 3d)     0.00057
    43    N    3  dyz    Ryd( 3d)     0.00055
    44    N    3  dx2y2  Ryd( 3d)     0.00107
    45    N    3  dz2    Ryd( 3d)     0.00060
 
    46    C    4  S      Cor( 1S)     1.99930
    47    C    4  S      Val( 2S)     1.05580
    48    C    4  S      Ryd( 3S)     0.00229
    49    C    4  S      Ryd( 4S)     0.00005
    50    C    4  px     Val( 2p)     1.00365
    51    C    4  px     Ryd( 3p)     0.00254
    52    C    4  py     Val( 2p)     1.16867
    53    C    4  py     Ryd( 3p)     0.00432
    54    C    4  pz     Val( 2p)     1.07190
    55    C    4  pz     Ryd( 3p)     0.00371
    56    C    4  dxy    Ryd( 3d)     0.00090
    57    C    4  dxz    Ryd( 3d)     0.00104
    58    C    4  dyz    Ryd( 3d)     0.00072
    59    C    4  dx2y2  Ryd( 3d)     0.00089
    60    C    4  dz2    Ryd( 3d)     0.00094
 
    61    C    5  S      Cor( 1S)     1.99944
    62    C    5  S      Val( 2S)     1.12377
    63    C    5  S      Ryd( 3S)     0.00053
    64    C    5  S      Ryd( 4S)     0.00003
    65    C    5  px     Val( 2p)     1.06846
    66    C    5  px     Ryd( 3p)     0.00428
    67    C    5  py     Val( 2p)     1.25477
    68    C    5  py     Ryd( 3p)     0.00142
    69    C    5  pz     Val( 2p)     1.24177
    70    C    5  pz     Ryd( 3p)     0.00196
    71    C    5  dxy    Ryd( 3d)     0.00052
    72    C    5  dxz    Ryd( 3d)     0.00043
    73    C    5  dyz    Ryd( 3d)     0.00057
    74    C    5  dx2y2  Ryd( 3d)     0.00074
    75    C    5  dz2    Ryd( 3d)     0.00083
 
    76    C    6  S      Cor( 1S)     1.99932
    77    C    6  S      Val( 2S)     1.04709
    78    C    6  S      Ryd( 3S)     0.00170
    79    C    6  S      Ryd( 4S)     0.00005
    80    C    6  px     Val( 2p)     1.25938
    81    C    6  px     Ryd( 3p)     0.00510
    82    C    6  py     Val( 2p)     0.82415
    83    C    6  py     Ryd( 3p)     0.00294
    84    C    6  pz     Val( 2p)     1.16434
    85    C    6  pz     Ryd( 3p)     0.00420
    86    C    6  dxy    Ryd( 3d)     0.00045
    87    C    6  dxz    Ryd( 3d)     0.00110
    88    C    6  dyz    Ryd( 3d)     0.00065
    89    C    6  dx2y2  Ryd( 3d)     0.00162
    90    C    6  dz2    Ryd( 3d)     0.00080
 
    91    C    7  S      Cor( 1S)     1.99940
    92    C    7  S      Val( 2S)     1.14078
    93    C    7  S      Ryd( 3S)     0.00063
    94    C    7  S      Ryd( 4S)     0.00006
    95    C    7  px     Val( 2p)     1.25031
    96    C    7  px     Ryd( 3p)     0.00152
    97    C    7  py     Val( 2p)     1.16824
    98    C    7  py     Ryd( 3p)     0.00220
    99    C    7  pz     Val( 2p)     1.12199
   100    C    7  pz     Ryd( 3p)     0.00457
   101    C    7  dxy    Ryd( 3d)     0.00022
   102    C    7  dxz    Ryd( 3d)     0.00085
   103    C    7  dyz    Ryd( 3d)     0.00064
   104    C    7  dx2y2  Ryd( 3d)     0.00095
   105    C    7  dz2    Ryd( 3d)     0.00043
 
   106    H    8  S      Val( 1S)     0.76743
   107    H    8  S      Ryd( 2S)     0.01123
 
   108    H    9  S      Val( 1S)     0.77163
   109    H    9  S      Ryd( 2S)     0.01571
 
   110    H   10  S      Val( 1S)     0.77456
   111    H   10  S      Ryd( 2S)     0.02102
 
   112    H   11  S      Val( 1S)     0.76691
   113    H   11  S      Ryd( 2S)     0.02880
 
   114    H   12  S      Val( 1S)     0.75666
   115    H   12  S      Ryd( 2S)     0.01581
 
   116    H   13  S      Val( 1S)     0.75859
   117    H   13  S      Ryd( 2S)     0.04077
 
   118    H   14  S      Val( 1S)     0.78834
   119    H   14  S      Ryd( 2S)     0.03951
 
   120    H   15  S      Val( 1S)     0.78276
   121    H   15  S      Ryd( 2S)     0.02549
 
   122    H   16  S      Val( 1S)     0.77311
   123    H   16  S      Ryd( 2S)     0.01390
 
   124    H   17  S      Val( 1S)     0.77530
   125    H   17  S      Ryd( 2S)     0.01078
 
   126    H   18  S      Val( 1S)     0.75660
   127    H   18  S      Ryd( 2S)     0.02472
 
   128    H   19  S      Val( 1S)     0.77664
   129    H   19  S      Ryd( 2S)     0.02776
 
   130    H   20  S      Val( 1S)     0.78963
   131    H   20  S      Ryd( 2S)     0.03280
 
   132    H   21  S      Val( 1S)     0.77254
   133    H   21  S      Ryd( 2S)     0.01492
 
   134    H   22  S      Val( 1S)     0.78822
   135    H   22  S      Ryd( 2S)     0.02392


 Summary of Natural Population Analysis:                  
                                                          
                                       Natural Population 
                Natural  -----------------------------------------------
    Atom  No    Charge         Core      Valence    Rydberg      Total
 -----------------------------------------------------------------------
      C    1   -0.68505      1.99940     4.67556    0.01009     6.68505
      C    2   -0.30884      1.99933     4.29113    0.01838     6.30884
      N    3   -0.03814      1.99937     5.02939    0.00939     7.03814
      C    4   -0.31673      1.99930     4.30003    0.01740     6.31673
      C    5   -0.69953      1.99944     4.68877    0.01132     6.69953
      C    6   -0.31288      1.99932     4.29496    0.01860     6.31288
      C    7   -0.69277      1.99940     4.68132    0.01206     6.69277
      H    8    0.22134      0.00000     0.76743    0.01123     0.77866
      H    9    0.21266      0.00000     0.77163    0.01571     0.78734
      H   10    0.20441      0.00000     0.77456    0.02102     0.79559
      H   11    0.20429      0.00000     0.76691    0.02880     0.79571
      H   12    0.22753      0.00000     0.75666    0.01581     0.77247
      H   13    0.20064      0.00000     0.75859    0.04077     0.79936
      H   14    0.17215      0.00000     0.78834    0.03951     0.82785
      H   15    0.19175      0.00000     0.78276    0.02549     0.80825
      H   16    0.21299      0.00000     0.77311    0.01390     0.78701
      H   17    0.21393      0.00000     0.77530    0.01078     0.78607
      H   18    0.21868      0.00000     0.75660    0.02472     0.78132
      H   19    0.19561      0.00000     0.77664    0.02776     0.80439
      H   20    0.17756      0.00000     0.78963    0.03280     0.82244
      H   21    0.21254      0.00000     0.77254    0.01492     0.78746
      H   22    0.18786      0.00000     0.78822    0.02392     0.81214
 =======================================================================
   * Total *   -0.00000     13.99557    43.56008    0.44436    58.00000

                                 Natural Population      
 --------------------------------------------------------
   Core                      13.99557 ( 99.9683% of  14)
   Valence                   43.56008 ( 99.0002% of  44)
   Natural Minimal Basis     57.55564 ( 99.2339% of  58)
   Natural Rydberg Basis      0.44436 (  0.7661% of  58)
 --------------------------------------------------------

    Atom  No          Natural Electron Configuration
 ----------------------------------------------------------------------------
      C    1      [core]2S( 1.13)2p( 3.55)3p( 0.01)
      C    2      [core]2S( 1.04)2p( 3.25)3p( 0.01)
      N    3      [core]2S( 1.27)2p( 3.76)
      C    4      [core]2S( 1.06)2p( 3.24)3p( 0.01)
      C    5      [core]2S( 1.12)2p( 3.57)3p( 0.01)
      C    6      [core]2S( 1.05)2p( 3.25)3p( 0.01)
      C    7      [core]2S( 1.14)2p( 3.54)3p( 0.01)
      H    8            1S( 0.77)2S( 0.01)
      H    9            1S( 0.77)2S( 0.02)
      H   10            1S( 0.77)2S( 0.02)
      H   11            1S( 0.77)2S( 0.03)
      H   12            1S( 0.76)2S( 0.02)
      H   13            1S( 0.76)2S( 0.04)
      H   14            1S( 0.79)2S( 0.04)
      H   15            1S( 0.78)2S( 0.03)
      H   16            1S( 0.77)2S( 0.01)
      H   17            1S( 0.78)2S( 0.01)
      H   18            1S( 0.76)2S( 0.02)
      H   19            1S( 0.78)2S( 0.03)
      H   20            1S( 0.79)2S( 0.03)
      H   21            1S( 0.77)2S( 0.01)
      H   22            1S( 0.79)2S( 0.02)


 NBO analysis skipped by request.
 1\1\GINC-DELLA-R1C4N7\SP\RB3LYP TD-FC\6-31G(d)\C6H15N1\BJS4\24-Aug-202
 0\0\\# TD(NStates=10, Root=1) B3LYP/6-31G* scf=qc volume pop=NPA densi
 ty=current Geom=AllCheck Guess=Read\\Title Card Required\\0,1\C,0,2.60
 98699898,-1.1978576455,0.8827763572\C,0,2.4300690187,0.0745463064,0.03
 07932963\N,0,3.0512216975,1.3140678891,0.4864906544\C,0,2.5329578243,1
 .8291358376,1.7490806488\C,0,2.7662050964,3.3321699095,1.9287047662\C,
 0,4.4878565306,1.4583708744,0.2621915259\C,0,5.4558036008,0.8411658219
 ,1.2911823523\H,0,2.0078713827,-2.0145187818,0.4649243035\H,0,2.280364
 0777,-1.0397603703,1.9160114593\H,0,3.651381791,-1.5338014362,0.908597
 4672\H,0,1.3522844526,0.2710618379,-0.0639658565\H,0,2.7953431238,-0.1
 216316044,-0.9858446666\H,0,2.9303020777,1.2972297029,2.6344606458\H,0
 ,1.4511477672,1.6425539705,1.7471030143\H,0,3.8286073317,3.5762015206,
 2.0376519469\H,0,2.2557228564,3.6861922646,2.8316306532\H,0,2.37645916
 98,3.8861329343,1.0679207454\H,0,4.7132773151,2.5305909337,0.186893057
 5\H,0,4.7008711816,1.0386498636,-0.7288593258\H,0,5.2874343118,1.24321
 34241,2.296806437\H,0,6.4905211236,1.0770531306,1.0133040331\H,0,5.364
 5482794,-0.2478163836,1.3474264847\\Version=ES64L-G16RevA.03\State=1-A
 \HF=-292.4126935\RMSD=1.014e-09\Dipole=-0.2658309,-0.1232445,-0.495871
 5\Quadrupole=-0.7847499,-0.1952629,0.9800128,0.7593755,-0.0537139,-0.4
 198572\PG=C01 [X(C6H15N1)]\\@


 IN-LAWS ARE LIKE SEEDS. YOU DON'T NEED THEM
 BUT THEY COME WITH THE TOMATO.
 Job cpu time:       0 days  0 hours 13 minutes 12.5 seconds.
 Elapsed time:       0 days  0 hours  4 minutes 25.3 seconds.
 File lengths (MBytes):  RWF=    210 Int=      0 D2E=      0 Chk=     16 Scr=      1
 Normal termination of Gaussian 16 at Mon Aug 24 17:01:23 2020.
