 Entering Gaussian System, Link 0=g16
 Input=base_3_conf14123.com
 Output=base_3_conf14123.log
 Initial command:
 /opt/export//g16/l1.exe "/scratch/bjs4/job.17608/Gau-17610.inp" -scrdir="/scratch/bjs4/job.17608/"
 Entering Link 1 = /opt/export//g16/l1.exe PID=     17611.
  
 Copyright (c) 1988,1990,1992,1993,1995,1998,2003,2009,2016,
            Gaussian, Inc.  All Rights Reserved.
  
 This is part of the Gaussian(R) 16 program.  It is based on
 the Gaussian(R) 09 system (copyright 2009, Gaussian, Inc.),
 the Gaussian(R) 03 system (copyright 2003, Gaussian, Inc.),
 the Gaussian(R) 98 system (copyright 1998, Gaussian, Inc.),
 the Gaussian(R) 94 system (copyright 1995, Gaussian, Inc.),
 the Gaussian 92(TM) system (copyright 1992, Gaussian, Inc.),
 the Gaussian 90(TM) system (copyright 1990, Gaussian, Inc.),
 the Gaussian 88(TM) system (copyright 1988, Gaussian, Inc.),
 the Gaussian 86(TM) system (copyright 1986, Carnegie Mellon
 University), and the Gaussian 82(TM) system (copyright 1983,
 Carnegie Mellon University). Gaussian is a federally registered
 trademark of Gaussian, Inc.
  
 This software contains proprietary and confidential information,
 including trade secrets, belonging to Gaussian, Inc.
  
 This software is provided under written license and may be
 used, copied, transmitted, or stored only in accord with that
 written license.
  
 The following legend is applicable only to US Government
 contracts under FAR:
  
                    RESTRICTED RIGHTS LEGEND
  
 Use, reproduction and disclosure by the US Government is
 subject to restrictions as set forth in subparagraphs (a)
 and (c) of the Commercial Computer Software - Restricted
 Rights clause in FAR 52.227-19.
  
 Gaussian, Inc.
 340 Quinnipiac St., Bldg. 40, Wallingford CT 06492
  
  
 ---------------------------------------------------------------
 Warning -- This program may not be used in any manner that
 competes with the business of Gaussian, Inc. or will provide
 assistance to any competitor of Gaussian, Inc.  The licensee
 of this program is prohibited from giving any competitor of
 Gaussian, Inc. access to this program.  By using this program,
 the user acknowledges that Gaussian, Inc. is engaged in the
 business of creating and licensing software in the field of
 computational chemistry and represents and warrants to the
 licensee that it is not a competitor of Gaussian, Inc. and that
 it will not use this program in any manner prohibited above.
 ---------------------------------------------------------------
  

 Cite this work as:
 Gaussian 16, Revision A.03,
 M. J. Frisch, G. W. Trucks, H. B. Schlegel, G. E. Scuseria, 
 M. A. Robb, J. R. Cheeseman, G. Scalmani, V. Barone, 
 G. A. Petersson, H. Nakatsuji, X. Li, M. Caricato, A. V. Marenich, 
 J. Bloino, B. G. Janesko, R. Gomperts, B. Mennucci, H. P. Hratchian, 
 J. V. Ortiz, A. F. Izmaylov, J. L. Sonnenberg, D. Williams-Young, 
 F. Ding, F. Lipparini, F. Egidi, J. Goings, B. Peng, A. Petrone, 
 T. Henderson, D. Ranasinghe, V. G. Zakrzewski, J. Gao, N. Rega, 
 G. Zheng, W. Liang, M. Hada, M. Ehara, K. Toyota, R. Fukuda, 
 J. Hasegawa, M. Ishida, T. Nakajima, Y. Honda, O. Kitao, H. Nakai, 
 T. Vreven, K. Throssell, J. A. Montgomery, Jr., J. E. Peralta, 
 F. Ogliaro, M. J. Bearpark, J. J. Heyd, E. N. Brothers, K. N. Kudin, 
 V. N. Staroverov, T. A. Keith, R. Kobayashi, J. Normand, 
 K. Raghavachari, A. P. Rendell, J. C. Burant, S. S. Iyengar, 
 J. Tomasi, M. Cossi, J. M. Millam, M. Klene, C. Adamo, R. Cammi, 
 J. W. Ochterski, R. L. Martin, K. Morokuma, O. Farkas, 
 J. B. Foresman, and D. J. Fox, Gaussian, Inc., Wallingford CT, 2016.
 
 ******************************************
 Gaussian 16:  ES64L-G16RevA.03 25-Dec-2016
                24-Aug-2020 
 ******************************************
 %nprocshared=5
 Will use up to    5 processors via shared memory.
 %Mem=10GB
 %Chk=base_3_conf141.chk
 ---------------------------------
 # opt=CalcAll B3LYP/6-31G* scf=qc
 ---------------------------------
 1/10=4,18=20,19=15,26=3,38=1/1,3;
 2/9=110,12=2,17=6,18=5,40=1/2;
 3/5=1,6=6,7=1,11=2,25=1,30=1,71=2,74=-5,140=1/1,2,3;
 4//1;
 5/5=2,8=3,38=5/8;
 8/6=4,10=90,11=11/1;
 11/6=1,8=1,9=11,15=111,16=1/1,2,10;
 10/6=1/2;
 6/7=2,8=2,9=2,10=2,18=1,28=1/1;
 7/10=1,25=1/1,2,3,16;
 1/10=4,18=20,19=15,26=3/3(3);
 2/9=110/2;
 7/8=1,9=1,25=1,44=-1/16;
 99//99;
 2/9=110/2;
 3/5=1,6=6,7=1,11=2,25=1,30=1,71=2,74=-5,140=1/1,2,3;
 4/5=5,16=3,69=1/1;
 5/5=2,8=3,38=5/8;
 8/6=4,10=90,11=11/1;
 11/6=1,8=1,9=11,15=111,16=1/1,2,10;
 10/6=1/2;
 7/10=1,25=1/1,2,3,16;
 1/10=4,18=20,19=15,26=3/3(-8);
 2/9=110/2;
 6/7=2,8=2,9=2,10=2,18=1,19=2,28=1/1;
 7/8=1,9=1,25=1,44=-1/16;
 99//99;
 -------------------
 Title Card Required
 -------------------
 Symbolic Z-matrix:
 Charge =  0 Multiplicity = 1
 N                     1.4187    0.1287    0.123 
 C                     0.481    -0.8828   -0.0433 
 N1                   -0.7977   -0.8604   -0.0093 
 C                    -1.8463    0.1303    0.1023 
 C                    -1.81234   1.16307  -1.02682 
 C                    -3.1692   -0.66914  -0.05115 
 C                    -1.89183   0.75543   1.50222 
 N                     1.052    -2.1118   -0.3736 
 C                     0.37923  -3.11527  -1.19206 
 C                     2.51064  -2.26117  -0.38362 
 C                     2.72377   0.10995  -0.54776 
 C                     1.14596   1.42973   0.70488 
 H                    -1.41337   0.73433  -1.95277 
 H                    -1.21601   2.03773  -0.76455 
 H                    -2.81142   1.55451  -1.25336 
 H                    -3.132    -1.33815  -0.91914 
 H                    -4.03334  -0.00274  -0.17371 
 H                    -3.36372  -1.29175   0.8278 
 H                    -0.9619    1.23569   1.79677 
 H                    -2.08804  -0.00462   2.26769 
 H                    -2.68597   1.50813   1.56957 
 H                    -0.69406  -2.93185  -1.31141 
 H                     0.49955  -4.10324  -0.73248 
 H                     0.81478  -3.15443  -2.1949 
 H                     3.02486  -1.49845   0.21105 
 H                     2.89856  -2.21887  -1.40772 
 H                     2.78456  -3.22879   0.04987 
 H                     2.96275  -0.84676  -1.02635 
 H                     3.51343   0.31748   0.18427 
 H                     2.76022   0.87381  -1.32246 
 H                     0.22747   1.45917   1.28007 
 H                     1.12045   2.20084  -0.06959 
 H                     1.94348   1.70531   1.40591 
 

 GradGradGradGradGradGradGradGradGradGradGradGradGradGradGradGradGradGrad
 Berny optimization.
 Initialization pass.
                           ----------------------------
                           !    Initial Parameters    !
                           ! (Angstroms and Degrees)  !
 --------------------------                            --------------------------
 ! Name  Definition              Value          Derivative Info.                !
 --------------------------------------------------------------------------------
 ! R1    R(1,2)                  1.3893         calculate D2E/DX2 analytically  !
 ! R2    R(1,11)                 1.4675         calculate D2E/DX2 analytically  !
 ! R3    R(1,12)                 1.4511         calculate D2E/DX2 analytically  !
 ! R4    R(2,3)                  1.2793         calculate D2E/DX2 analytically  !
 ! R5    R(2,8)                  1.3948         calculate D2E/DX2 analytically  !
 ! R6    R(3,4)                  1.4469         calculate D2E/DX2 analytically  !
 ! R7    R(4,5)                  1.5306         calculate D2E/DX2 analytically  !
 ! R8    R(4,6)                  1.5533         calculate D2E/DX2 analytically  !
 ! R9    R(4,7)                  1.5338         calculate D2E/DX2 analytically  !
 ! R10   R(5,13)                 1.0956         calculate D2E/DX2 analytically  !
 ! R11   R(5,14)                 1.0906         calculate D2E/DX2 analytically  !
 ! R12   R(5,15)                 1.0967         calculate D2E/DX2 analytically  !
 ! R13   R(6,16)                 1.0965         calculate D2E/DX2 analytically  !
 ! R14   R(6,17)                 1.0981         calculate D2E/DX2 analytically  !
 ! R15   R(6,18)                 1.0945         calculate D2E/DX2 analytically  !
 ! R16   R(7,19)                 1.0873         calculate D2E/DX2 analytically  !
 ! R17   R(7,20)                 1.0964         calculate D2E/DX2 analytically  !
 ! R18   R(7,21)                 1.0962         calculate D2E/DX2 analytically  !
 ! R19   R(8,9)                  1.4593         calculate D2E/DX2 analytically  !
 ! R20   R(8,10)                 1.4663         calculate D2E/DX2 analytically  !
 ! R21   R(9,22)                 1.0954         calculate D2E/DX2 analytically  !
 ! R22   R(9,23)                 1.0963         calculate D2E/DX2 analytically  !
 ! R23   R(9,24)                 1.094          calculate D2E/DX2 analytically  !
 ! R24   R(10,25)                1.0954         calculate D2E/DX2 analytically  !
 ! R25   R(10,26)                1.0959         calculate D2E/DX2 analytically  !
 ! R26   R(10,27)                1.0951         calculate D2E/DX2 analytically  !
 ! R27   R(11,28)                1.0961         calculate D2E/DX2 analytically  !
 ! R28   R(11,29)                1.0966         calculate D2E/DX2 analytically  !
 ! R29   R(11,30)                1.0886         calculate D2E/DX2 analytically  !
 ! R30   R(12,31)                1.0841         calculate D2E/DX2 analytically  !
 ! R31   R(12,32)                1.0932         calculate D2E/DX2 analytically  !
 ! R32   R(12,33)                1.097          calculate D2E/DX2 analytically  !
 ! A1    A(2,1,11)             122.4284         calculate D2E/DX2 analytically  !
 ! A2    A(2,1,12)             125.0246         calculate D2E/DX2 analytically  !
 ! A3    A(11,1,12)            111.2169         calculate D2E/DX2 analytically  !
 ! A4    A(1,2,3)              131.1999         calculate D2E/DX2 analytically  !
 ! A5    A(1,2,8)              113.1759         calculate D2E/DX2 analytically  !
 ! A6    A(3,2,8)              115.5233         calculate D2E/DX2 analytically  !
 ! A7    A(2,3,4)              137.595          calculate D2E/DX2 analytically  !
 ! A8    A(3,4,5)              112.8942         calculate D2E/DX2 analytically  !
 ! A9    A(3,4,6)              104.9045         calculate D2E/DX2 analytically  !
 ! A10   A(3,4,7)              111.7754         calculate D2E/DX2 analytically  !
 ! A11   A(5,4,6)              107.0555         calculate D2E/DX2 analytically  !
 ! A12   A(5,4,7)              113.5129         calculate D2E/DX2 analytically  !
 ! A13   A(6,4,7)              105.9409         calculate D2E/DX2 analytically  !
 ! A14   A(4,5,13)             111.5613         calculate D2E/DX2 analytically  !
 ! A15   A(4,5,14)             112.0786         calculate D2E/DX2 analytically  !
 ! A16   A(4,5,15)             111.9018         calculate D2E/DX2 analytically  !
 ! A17   A(13,5,14)            108.5399         calculate D2E/DX2 analytically  !
 ! A18   A(13,5,15)            107.2678         calculate D2E/DX2 analytically  !
 ! A19   A(14,5,15)            105.1617         calculate D2E/DX2 analytically  !
 ! A20   A(4,6,16)             111.3042         calculate D2E/DX2 analytically  !
 ! A21   A(4,6,17)             111.6479         calculate D2E/DX2 analytically  !
 ! A22   A(4,6,18)             111.3945         calculate D2E/DX2 analytically  !
 ! A23   A(16,6,17)            107.9752         calculate D2E/DX2 analytically  !
 ! A24   A(16,6,18)            107.1358         calculate D2E/DX2 analytically  !
 ! A25   A(17,6,18)            107.1559         calculate D2E/DX2 analytically  !
 ! A26   A(4,7,19)             113.6963         calculate D2E/DX2 analytically  !
 ! A27   A(4,7,20)             111.0996         calculate D2E/DX2 analytically  !
 ! A28   A(4,7,21)             110.9415         calculate D2E/DX2 analytically  !
 ! A29   A(19,7,20)            105.6715         calculate D2E/DX2 analytically  !
 ! A30   A(19,7,21)            107.4368         calculate D2E/DX2 analytically  !
 ! A31   A(20,7,21)            107.6644         calculate D2E/DX2 analytically  !
 ! A32   A(2,8,9)              123.3656         calculate D2E/DX2 analytically  !
 ! A33   A(2,8,10)             119.9075         calculate D2E/DX2 analytically  !
 ! A34   A(9,8,10)             112.6277         calculate D2E/DX2 analytically  !
 ! A35   A(8,9,22)             113.4347         calculate D2E/DX2 analytically  !
 ! A36   A(8,9,23)             109.5115         calculate D2E/DX2 analytically  !
 ! A37   A(8,9,24)             110.805          calculate D2E/DX2 analytically  !
 ! A38   A(22,9,23)            107.7059         calculate D2E/DX2 analytically  !
 ! A39   A(22,9,24)            107.2297         calculate D2E/DX2 analytically  !
 ! A40   A(23,9,24)            107.9584         calculate D2E/DX2 analytically  !
 ! A41   A(8,10,25)            113.1014         calculate D2E/DX2 analytically  !
 ! A42   A(8,10,26)            110.7671         calculate D2E/DX2 analytically  !
 ! A43   A(8,10,27)            109.6414         calculate D2E/DX2 analytically  !
 ! A44   A(25,10,26)           108.317          calculate D2E/DX2 analytically  !
 ! A45   A(25,10,27)           106.4354         calculate D2E/DX2 analytically  !
 ! A46   A(26,10,27)           108.3892         calculate D2E/DX2 analytically  !
 ! A47   A(1,11,28)            113.8676         calculate D2E/DX2 analytically  !
 ! A48   A(1,11,29)            109.4429         calculate D2E/DX2 analytically  !
 ! A49   A(1,11,30)            110.2494         calculate D2E/DX2 analytically  !
 ! A50   A(28,11,29)           107.4367         calculate D2E/DX2 analytically  !
 ! A51   A(28,11,30)           107.1238         calculate D2E/DX2 analytically  !
 ! A52   A(29,11,30)           108.5521         calculate D2E/DX2 analytically  !
 ! A53   A(1,12,31)            113.3494         calculate D2E/DX2 analytically  !
 ! A54   A(1,12,32)            110.6546         calculate D2E/DX2 analytically  !
 ! A55   A(1,12,33)            110.1722         calculate D2E/DX2 analytically  !
 ! A56   A(31,12,32)           109.691          calculate D2E/DX2 analytically  !
 ! A57   A(31,12,33)           105.6675         calculate D2E/DX2 analytically  !
 ! A58   A(32,12,33)           107.0073         calculate D2E/DX2 analytically  !
 ! D1    D(11,1,2,3)          -149.647          calculate D2E/DX2 analytically  !
 ! D2    D(11,1,2,8)            26.4705         calculate D2E/DX2 analytically  !
 ! D3    D(12,1,2,3)            16.0113         calculate D2E/DX2 analytically  !
 ! D4    D(12,1,2,8)          -167.8713         calculate D2E/DX2 analytically  !
 ! D5    D(2,1,11,28)          -11.0495         calculate D2E/DX2 analytically  !
 ! D6    D(2,1,11,29)         -131.2932         calculate D2E/DX2 analytically  !
 ! D7    D(2,1,11,30)          109.3755         calculate D2E/DX2 analytically  !
 ! D8    D(12,1,11,28)        -178.4816         calculate D2E/DX2 analytically  !
 ! D9    D(12,1,11,29)          61.2747         calculate D2E/DX2 analytically  !
 ! D10   D(12,1,11,30)         -58.0566         calculate D2E/DX2 analytically  !
 ! D11   D(2,1,12,31)           17.7566         calculate D2E/DX2 analytically  !
 ! D12   D(2,1,12,32)         -105.9502         calculate D2E/DX2 analytically  !
 ! D13   D(2,1,12,33)          135.9181         calculate D2E/DX2 analytically  !
 ! D14   D(11,1,12,31)        -175.204          calculate D2E/DX2 analytically  !
 ! D15   D(11,1,12,32)          61.0892         calculate D2E/DX2 analytically  !
 ! D16   D(11,1,12,33)         -57.0425         calculate D2E/DX2 analytically  !
 ! D17   D(1,2,3,4)              5.6172         calculate D2E/DX2 analytically  !
 ! D18   D(8,2,3,4)           -170.4274         calculate D2E/DX2 analytically  !
 ! D19   D(1,2,8,9)           -149.6469         calculate D2E/DX2 analytically  !
 ! D20   D(1,2,8,10)             5.8891         calculate D2E/DX2 analytically  !
 ! D21   D(3,2,8,9)             27.1166         calculate D2E/DX2 analytically  !
 ! D22   D(3,2,8,10)          -177.3474         calculate D2E/DX2 analytically  !
 ! D23   D(2,3,4,5)             59.2941         calculate D2E/DX2 analytically  !
 ! D24   D(2,3,4,6)            175.517          calculate D2E/DX2 analytically  !
 ! D25   D(2,3,4,7)            -70.1292         calculate D2E/DX2 analytically  !
 ! D26   D(3,4,5,13)            30.2627         calculate D2E/DX2 analytically  !
 ! D27   D(3,4,5,14)           -91.6903         calculate D2E/DX2 analytically  !
 ! D28   D(3,4,5,15)           150.4524         calculate D2E/DX2 analytically  !
 ! D29   D(6,4,5,13)           -84.6731         calculate D2E/DX2 analytically  !
 ! D30   D(6,4,5,14)           153.3738         calculate D2E/DX2 analytically  !
 ! D31   D(6,4,5,15)            35.5165         calculate D2E/DX2 analytically  !
 ! D32   D(7,4,5,13)           158.7901         calculate D2E/DX2 analytically  !
 ! D33   D(7,4,5,14)            36.837          calculate D2E/DX2 analytically  !
 ! D34   D(7,4,5,15)           -81.0202         calculate D2E/DX2 analytically  !
 ! D35   D(3,4,6,16)           -48.4767         calculate D2E/DX2 analytically  !
 ! D36   D(3,4,6,17)          -169.2174         calculate D2E/DX2 analytically  !
 ! D37   D(3,4,6,18)            71.0243         calculate D2E/DX2 analytically  !
 ! D38   D(5,4,6,16)            71.7055         calculate D2E/DX2 analytically  !
 ! D39   D(5,4,6,17)           -49.0352         calculate D2E/DX2 analytically  !
 ! D40   D(5,4,6,18)          -168.7935         calculate D2E/DX2 analytically  !
 ! D41   D(7,4,6,16)          -166.8531         calculate D2E/DX2 analytically  !
 ! D42   D(7,4,6,17)            72.4062         calculate D2E/DX2 analytically  !
 ! D43   D(7,4,6,18)           -47.3521         calculate D2E/DX2 analytically  !
 ! D44   D(3,4,7,19)            58.398          calculate D2E/DX2 analytically  !
 ! D45   D(3,4,7,20)           -60.65           calculate D2E/DX2 analytically  !
 ! D46   D(3,4,7,21)           179.6197         calculate D2E/DX2 analytically  !
 ! D47   D(5,4,7,19)           -70.7008         calculate D2E/DX2 analytically  !
 ! D48   D(5,4,7,20)           170.2512         calculate D2E/DX2 analytically  !
 ! D49   D(5,4,7,21)            50.5209         calculate D2E/DX2 analytically  !
 ! D50   D(6,4,7,19)           172.1107         calculate D2E/DX2 analytically  !
 ! D51   D(6,4,7,20)            53.0627         calculate D2E/DX2 analytically  !
 ! D52   D(6,4,7,21)           -66.6676         calculate D2E/DX2 analytically  !
 ! D53   D(2,8,9,22)           -14.5885         calculate D2E/DX2 analytically  !
 ! D54   D(2,8,9,23)          -134.9372         calculate D2E/DX2 analytically  !
 ! D55   D(2,8,9,24)           106.0787         calculate D2E/DX2 analytically  !
 ! D56   D(10,8,9,22)         -171.7018         calculate D2E/DX2 analytically  !
 ! D57   D(10,8,9,23)           67.9495         calculate D2E/DX2 analytically  !
 ! D58   D(10,8,9,24)          -51.0346         calculate D2E/DX2 analytically  !
 ! D59   D(2,8,10,25)           20.7617         calculate D2E/DX2 analytically  !
 ! D60   D(2,8,10,26)         -101.0528         calculate D2E/DX2 analytically  !
 ! D61   D(2,8,10,27)          139.3716         calculate D2E/DX2 analytically  !
 ! D62   D(9,8,10,25)          178.7554         calculate D2E/DX2 analytically  !
 ! D63   D(9,8,10,26)           56.9409         calculate D2E/DX2 analytically  !
 ! D64   D(9,8,10,27)          -62.6347         calculate D2E/DX2 analytically  !
 --------------------------------------------------------------------------------
 Trust Radius=3.00D-01 FncErr=1.00D-07 GrdErr=1.00D-06 EigMax=2.50D+02 EigMin=1.00D-04
 Number of steps in this run=    164 maximum allowed number of steps=    198.
 GradGradGradGradGradGradGradGradGradGradGradGradGradGradGradGradGradGrad

                          Input orientation:                          
 ---------------------------------------------------------------------
 Center     Atomic      Atomic             Coordinates (Angstroms)
 Number     Number       Type             X           Y           Z
 ---------------------------------------------------------------------
      1          7           0        1.418700    0.128700    0.123000
      2          6           0        0.481000   -0.882800   -0.043300
      3          7           0       -0.797700   -0.860400   -0.009300
      4          6           0       -1.846300    0.130300    0.102300
      5          6           0       -1.812340    1.163070   -1.026820
      6          6           0       -3.169200   -0.669140   -0.051150
      7          6           0       -1.891830    0.755430    1.502220
      8          7           0        1.052000   -2.111800   -0.373600
      9          6           0        0.379230   -3.115270   -1.192060
     10          6           0        2.510640   -2.261170   -0.383620
     11          6           0        2.723770    0.109950   -0.547760
     12          6           0        1.145960    1.429730    0.704880
     13          1           0       -1.413370    0.734330   -1.952770
     14          1           0       -1.216010    2.037730   -0.764550
     15          1           0       -2.811420    1.554510   -1.253360
     16          1           0       -3.132000   -1.338150   -0.919140
     17          1           0       -4.033340   -0.002740   -0.173710
     18          1           0       -3.363720   -1.291750    0.827800
     19          1           0       -0.961900    1.235690    1.796770
     20          1           0       -2.088040   -0.004620    2.267690
     21          1           0       -2.685970    1.508130    1.569570
     22          1           0       -0.694060   -2.931850   -1.311410
     23          1           0        0.499550   -4.103240   -0.732480
     24          1           0        0.814780   -3.154430   -2.194900
     25          1           0        3.024860   -1.498450    0.211050
     26          1           0        2.898560   -2.218870   -1.407720
     27          1           0        2.784560   -3.228790    0.049870
     28          1           0        2.962750   -0.846760   -1.026350
     29          1           0        3.513430    0.317480    0.184270
     30          1           0        2.760220    0.873810   -1.322460
     31          1           0        0.227470    1.459170    1.280070
     32          1           0        1.120450    2.200840   -0.069590
     33          1           0        1.943480    1.705310    1.405910
 ---------------------------------------------------------------------
                    Distance matrix (angstroms):
                    1          2          3          4          5
     1  N    0.000000
     2  C    1.389269   0.000000
     3  N    2.430689   1.279348   0.000000
     4  C    3.265066   2.542419   1.446894   0.000000
     5  C    3.582126   3.226810   2.481788   1.530581   0.000000
     6  C    4.660011   3.656456   2.379568   1.553292   2.479918
     7  C    3.640693   3.271506   2.468344   1.533831   2.562915
     8  N    2.323988   1.394841   2.262765   3.695083   4.399536
     9  C    3.651468   2.512753   2.805089   4.142714   4.809831
    10  C    2.675906   2.476926   3.612117   4.993813   5.552232
    11  C    1.467473   2.504007   3.692190   4.616117   4.681330
    12  C    1.451086   2.519869   3.087485   3.317415   3.438231
    13  H    3.563177   3.138443   2.588298   2.185313   1.095618
    14  H    3.372512   3.453917   3.023995   2.187918   1.090608
    15  H    4.671318   4.271388   3.381500   2.190353   1.096680
    16  H    4.893524   3.745425   2.550492   2.202887   2.830053
    17  H    5.461690   4.601171   3.351414   2.208399   2.649481
    18  H    5.038448   3.963323   2.733360   2.202530   3.445655
    19  H    3.113549   3.155284   2.771722   2.208003   2.949777
    20  H    4.112748   3.565367   2.753547   2.183015   3.506181
    21  H    4.565491   4.283409   3.415894   2.180904   2.761075
    22  H    3.986007   2.680947   2.448905   3.564126   4.254399
    23  H    4.414295   3.293410   3.566771   4.911490   5.758949
    24  H    4.064028   3.146600   3.555209   4.811229   5.187194
    25  H    2.288038   2.629628   3.881704   5.137397   5.658137
    26  H    3.169255   3.080799   4.178918   5.505675   5.811642
    27  H    3.625419   3.289185   4.294806   5.721110   6.448192
    28  H    2.157920   2.669601   3.895582   5.035420   5.180821
    29  H    2.104112   3.269265   4.473333   5.363624   5.526806
    30  H    2.108132   3.149091   4.170212   4.878809   4.591229
    31  H    2.127907   2.701927   2.844970   2.730121   3.093581
    32  H    2.102334   3.149353   3.613049   3.621918   3.254921
    33  H    2.099274   3.307170   4.012450   4.306099   4.507592
                    6          7          8          9         10
     6  C    0.000000
     7  C    2.464555   0.000000
     8  N    4.472558   4.517283   0.000000
     9  C    4.458316   5.234422   1.459263   0.000000
    10  C    5.908103   5.660213   1.466302   2.434332   0.000000
    11  C    5.964956   5.091446   2.785915   4.039064   2.386331
    12  C    4.857720   3.212258   3.703293   4.984303   4.082882
    13  H    2.944287   3.488026   4.083171   4.314106   5.180068
    14  H    3.413361   2.690590   4.745030   5.411189   5.702067
    15  H    2.553025   3.012872   5.398316   5.656045   6.606072
    16  H    1.096524   3.432795   4.289756   3.944791   5.742659
    17  H    1.098111   2.823053   5.508972   5.495057   6.925911
    18  H    1.094548   2.610028   4.649132   4.627606   6.075806
    19  H    3.451863   1.087281   4.469003   5.446337   5.388939
    20  H    2.643390   1.096412   4.612643   5.266254   5.767956
    21  H    2.756946   1.096244   5.554478   6.196602   6.710241
    22  H    3.582517   4.790324   2.144923   1.095372   3.403044
    23  H    5.071191   5.858264   2.097577   1.096255   2.749438
    24  H    5.161824   6.023408   2.111986   1.094041   2.637156
    25  H    6.254829   5.560660   2.147135   3.403261   1.095352
    26  H    6.407781   6.345238   2.119116   2.682735   1.095925
    27  H    6.481456   6.312840   2.104461   2.709408   1.095096
    28  H    6.211552   5.703300   2.382724   3.442118   1.618042
    29  H    6.759170   5.580827   3.503036   4.847810   2.824451
    30  H    6.257391   5.443749   3.568223   4.647459   3.282044
    31  H    4.223650   2.244111   4.020734   5.201919   4.671366
    32  H    5.161223   3.692374   4.323884   5.483646   4.684098
    33  H    5.822416   3.952360   4.304849   5.695113   4.388286
                   11         12         13         14         15
    11  C    0.000000
    12  C    2.408404   0.000000
    13  H    4.413596   3.754578   0.000000
    14  H    4.391492   2.847418   1.774731   0.000000
    15  H    5.763936   4.417141   1.765337   1.737173   0.000000
    16  H    6.043588   5.347854   2.883965   3.884776   2.929498
    17  H    6.768393   5.445093   3.251549   3.528450   2.254720
    18  H    6.396441   5.268660   3.954799   4.270091   3.568958
    19  H    4.510906   2.381795   3.809756   2.695960   3.581294
    20  H    5.576146   3.867621   4.337454   3.758472   3.918157
    21  H    5.975222   3.929061   3.824285   2.808803   2.826097
    22  H    4.638671   5.145336   3.790729   5.026750   4.961251
    23  H    4.767835   5.753052   5.343262   6.376181   6.576015
    24  H    4.124741   5.434421   4.488400   5.755739   6.017470
    25  H    1.803718   3.514025   5.418977   5.607258   6.747387
    26  H    2.488671   4.565848   5.254637   5.954998   6.845882
    27  H    3.392350   4.981552   6.110606   6.663638   7.476186
    28  H    1.096109   3.388258   4.744315   5.084374   6.257689
    29  H    1.096585   2.667030   5.386470   5.121242   6.603086
    30  H    1.088564   2.650470   4.223221   4.180476   5.613493
    31  H    3.375333   1.084128   3.697162   2.568820   3.957551
    32  H    2.677891   1.093190   3.480986   2.443076   4.156760
    33  H    2.640237   1.097008   4.846852   3.847568   5.450095
                   16         17         18         19         20
    16  H    0.000000
    17  H    1.775218   0.000000
    18  H    1.762852   1.764358   0.000000
    19  H    4.325523   3.853601   3.618784   0.000000
    20  H    3.608884   3.121639   2.314594   1.740209   0.000000
    21  H    3.807089   2.671546   2.974709   1.760188   1.770114
    22  H    2.938930   4.585285   3.793841   5.205854   4.829266
    23  H    4.568229   6.137867   5.026311   6.085813   5.700467
    24  H    4.528080   6.125572   5.483261   6.193801   6.185659
    25  H    6.261785   7.225190   6.421609   5.087660   5.709907
    26  H    6.114085   7.381412   6.713662   6.091461   6.578580
    27  H    6.286428   7.545936   6.492969   6.084341   6.249498
    28  H    6.115467   7.098214   6.607580   5.263980   6.088545
    29  H    6.936884   7.562039   7.092175   4.844775   5.985053
    30  H    6.306639   6.945533   6.842215   4.869777   6.096429
    31  H    4.893625   4.733409   4.546290   1.315874   2.911986
    32  H    5.597278   5.606082   5.754240   2.958208   4.541073
    33  H    6.358381   6.413658   6.122332   2.968930   4.463147
                   21         22         23         24         25
    21  H    0.000000
    22  H    5.655190   0.000000
    23  H    6.850872   1.769751   0.000000
    24  H    6.940169   1.762582   1.771520   0.000000
    25  H    6.595353   4.266484   3.748649   3.662693   0.000000
    26  H    7.344505   3.663951   3.124428   2.416002   1.776337
    27  H    7.394227   3.747273   2.568658   2.987399   1.754366
    28  H    6.647732   4.219137   4.093700   3.362235   1.399899
    29  H    6.462915   5.522515   5.428321   4.999732   1.880697
    30  H    6.198966   5.139574   5.498157   4.557697   2.837130
    31  H    2.928197   5.181317   5.921553   5.805657   4.209004
    32  H    4.201848   5.583822   6.369173   5.769687   4.170166
    33  H    4.636537   5.986961   6.355855   6.152794   3.586245
                   26         27         28         29         30
    26  H    0.000000
    27  H    1.776936   0.000000
    28  H    1.425570   2.619937   0.000000
    29  H    3.057052   3.622892   1.767570   0.000000
    30  H    3.096946   4.326108   1.757572   1.773997   0.000000
    31  H    5.280806   5.479879   4.256600   3.647159   3.678401
    32  H    4.948344   5.680177   3.687455   3.055788   2.453475
    33  H    4.922182   5.185711   3.669858   2.425535   2.966894
                   31         32         33
    31  H    0.000000
    32  H    1.780188   0.000000
    33  H    1.738134   1.760690   0.000000
 Stoichiometry    C9H21N3
 Framework group  C1[X(C9H21N3)]
 Deg. of freedom    93
 Full point group                 C1      NOp   1
 Largest Abelian subgroup         C1      NOp   1
 Largest concise Abelian subgroup C1      NOp   1
                         Standard orientation:                         
 ---------------------------------------------------------------------
 Center     Atomic      Atomic             Coordinates (Angstroms)
 Number     Number       Type             X           Y           Z
 ---------------------------------------------------------------------
      1          7           0        0.987964   -1.175590   -0.071068
      2          6           0        0.551759    0.137281   -0.198204
      3          7           0       -0.625351    0.638398   -0.193191
      4          6           0       -1.980270    0.181092    0.027190
      5          6           0       -2.184288   -0.429134    1.415959
      6          6           0       -2.851130    1.465621   -0.038420
      7          6           0       -2.469938   -0.718597   -1.114485
      8          7           0        1.596739    1.058276   -0.271453
      9          6           0        1.494267    2.428992    0.218534
     10          6           0        2.983318    0.586652   -0.342255
     11          6           0        2.281191   -1.520351    0.530747
     12          6           0        0.149446   -2.350145   -0.222588
     13          1           0       -1.518882    0.026424    2.157634
     14          1           0       -2.019673   -1.507244    1.418215
     15          1           0       -3.211925   -0.295136    1.774725
     16          1           0       -2.430154    2.264540    0.583571
     17          1           0       -3.877970    1.276696    0.301807
     18          1           0       -2.915617    1.852527   -1.060271
     19          1           0       -1.853486   -1.600452   -1.271003
     20          1           0       -2.465957   -0.181053   -2.070074
     21          1           0       -3.494477   -1.062430   -0.930501
     22          1           0        0.464090    2.745995    0.413679
     23          1           0        1.919627    3.115565   -0.522723
     24          1           0        2.053067    2.551081    1.151145
     25          1           0        3.067835   -0.449047   -0.688637
     26          1           0        3.470292    0.663300    0.636537
     27          1           0        3.544365    1.198877   -1.056146
     28          1           0        2.940200   -0.658987    0.689533
     29          1           0        2.811590   -2.223959   -0.122026
     30          1           0        2.131730   -1.992557    1.500105
     31          1           0       -0.782161   -2.149242   -0.739386
     32          1           0       -0.059237   -2.803052    0.750239
     33          1           0        0.665142   -3.107907   -0.825314
 ---------------------------------------------------------------------
 Rotational constants (GHZ):           1.2883220           0.6859991           0.5148017
 Standard basis: 6-31G(d) (6D, 7F)
 There are   222 symmetry adapted cartesian basis functions of A   symmetry.
 There are   222 symmetry adapted basis functions of A   symmetry.
   222 basis functions,   420 primitive gaussians,   222 cartesian basis functions
    48 alpha electrons       48 beta electrons
       nuclear repulsion energy       809.0714104764 Hartrees.
 NAtoms=   33 NActive=   33 NUniq=   33 SFac= 1.00D+00 NAtFMM=   60 NAOKFM=F Big=F
 Integral buffers will be    131072 words long.
 Raffenetti 2 integral format.
 Two-electron integral symmetry is turned on.
 One-electron integrals computed using PRISM.
 NBasis=   222 RedAO= T EigKep=  1.57D-03  NBF=   222
 NBsUse=   222 1.00D-06 EigRej= -1.00D+00 NBFU=   222
 ExpMin= 1.61D-01 ExpMax= 4.17D+03 ExpMxC= 6.27D+02 IAcc=3 IRadAn=         5 AccDes= 0.00D+00
 Harris functional with IExCor=  402 and IRadAn=       5 diagonalized for initial guess.
 HarFok:  IExCor=  402 AccDes= 0.00D+00 IRadAn=         5 IDoV= 1 UseB2=F ITyADJ=14
 ICtDFT=  3500011 ScaDFX=  1.000000  1.000000  1.000000  1.000000
 FoFCou: FMM=F IPFlag=           0 FMFlag=      100000 FMFlg1=           0
         NFxFlg=           0 DoJE=T BraDBF=F KetDBF=T FulRan=T
         wScrn=  0.000000 ICntrl=       500 IOpCl=  0 I1Cent=   200000004 NGrid=           0
         NMat0=    1 NMatS0=      1 NMatT0=    0 NMatD0=    1 NMtDS0=    0 NMtDT0=    0
 Petite list used in FoFCou.
 Gradient too large for Newton-Raphson -- use scaled steepest descent instead.
     Minimum is close to point  3 DX=  7.94D-03 DF= -1.50D-04 DXR=  1.95D-02 DFR=  3.81D-04 which will be used.
 Gradient too large for Newton-Raphson -- use scaled steepest descent instead.
     Accept linear search using points  2 and  3.
 Gradient too large for Newton-Raphson -- use scaled steepest descent instead.
 Gradient too large for Newton-Raphson -- use scaled steepest descent instead.
     Accept linear search using points  1 and  2.
 Gradient too large for Newton-Raphson -- use scaled steepest descent instead.
 LinEq1:  Iter=  0 NonCon=     1 RMS=7.01D-05 Max=2.13D-03 NDo=     1
 AX will form     1 AO Fock derivatives at one time.
 LinEq1:  Iter=  1 NonCon=     1 RMS=7.41D-05 Max=5.29D-03 NDo=     1
 LinEq1:  Iter=  2 NonCon=     1 RMS=1.36D-05 Max=3.26D-04 NDo=     1
 LinEq1:  Iter=  3 NonCon=     1 RMS=5.76D-06 Max=1.48D-04 NDo=     1
 LinEq1:  Iter=  4 NonCon=     1 RMS=3.08D-06 Max=1.02D-04 NDo=     1
 LinEq1:  Iter=  5 NonCon=     1 RMS=1.58D-06 Max=4.37D-05 NDo=     1
 LinEq1:  Iter=  6 NonCon=     1 RMS=6.52D-07 Max=1.82D-05 NDo=     1
 LinEq1:  Iter=  7 NonCon=     1 RMS=2.40D-07 Max=6.88D-06 NDo=     1
 LinEq1:  Iter=  8 NonCon=     1 RMS=1.21D-07 Max=3.53D-06 NDo=     1
 LinEq1:  Iter=  9 NonCon=     1 RMS=4.75D-08 Max=1.34D-06 NDo=     1
 LinEq1:  Iter= 10 NonCon=     1 RMS=1.76D-08 Max=3.81D-07 NDo=     1
 LinEq1:  Iter= 11 NonCon=     0 RMS=7.04D-09 Max=1.24D-07 NDo=     1
 Linear equations converged to 1.292D-08 1.292D-07 after    11 iterations.
     Minimum is close to point  2 DX=  1.42D-03 DF= -4.49D-11 DXR=  1.42D-03 DFR=  2.01D-06 which will be used.
 LinEq1:  Iter=  0 NonCon=     1 RMS=1.34D-07 Max=7.43D-06 NDo=     1
 LinEq1:  Iter=  1 NonCon=     1 RMS=1.36D-07 Max=9.16D-06 NDo=     1
 LinEq1:  Iter=  2 NonCon=     1 RMS=3.15D-08 Max=6.90D-07 NDo=     1
 LinEq1:  Iter=  3 NonCon=     1 RMS=2.06D-08 Max=5.01D-07 NDo=     1
 LinEq1:  Iter=  4 NonCon=     1 RMS=8.78D-09 Max=2.55D-07 NDo=     1
 LinEq1:  Iter=  5 NonCon=     1 RMS=3.55D-09 Max=1.08D-07 NDo=     1
 LinEq1:  Iter=  6 NonCon=     1 RMS=2.04D-09 Max=4.18D-08 NDo=     1
 LinEq1:  Iter=  7 NonCon=     1 RMS=9.19D-10 Max=1.91D-08 NDo=     1
 LinEq1:  Iter=  8 NonCon=     1 RMS=4.89D-10 Max=7.25D-09 NDo=     1
 LinEq1:  Iter=  9 NonCon=     1 RMS=1.44D-10 Max=1.99D-09 NDo=     1
 LinEq1:  Iter= 10 NonCon=     0 RMS=5.63D-11 Max=6.43D-10 NDo=     1
 Linear equations converged to 7.566D-11 7.566D-10 after    10 iterations.
 SCF Done:  E(RB3LYP) =  -519.726862432     a.u. after    8 cycles
            Convg  =    0.1514D-09                    40 Fock formations.
              S**2 =  0.0000                  -V/T =  2.0088
 DoSCS=F DFT=T ScalE2(SS,OS)=  1.000000  1.000000
 Range of M.O.s used for correlation:     1   222
 NBasis=   222 NAE=    48 NBE=    48 NFC=     0 NFV=     0
 NROrb=    222 NOA=    48 NOB=    48 NVA=   174 NVB=   174
 Symmetrizing basis deriv contribution to polar:
 IMax=3 JMax=2 DiffMx= 0.00D+00
 G2DrvN: will do    34 centers at a time, making    1 passes.
 Calling FoFCou, ICntrl=  3107 FMM=F I1Cent=   0 AccDes= 0.00D+00.
 End of G2Drv F.D. properties file   721 does not exist.
 End of G2Drv F.D. properties file   722 does not exist.
 End of G2Drv F.D. properties file   788 does not exist.
          IDoAtm=111111111111111111111111111111111
          Differentiating once with respect to electric field.
                with respect to dipole field.
          Differentiating once with respect to nuclear coordinates.
 Keep R1 ints in memory in canonical form, NReq=311927578.
          There are   102 degrees of freedom in the 1st order CPHF.  IDoFFX=6 NUNeed=     3.
     99 vectors produced by pass  0 Test12= 8.35D-15 1.00D-09 XBig12= 1.09D+02 5.78D+00.
 AX will form    99 AO Fock derivatives at one time.
     99 vectors produced by pass  1 Test12= 8.35D-15 1.00D-09 XBig12= 1.28D+01 9.09D-01.
     99 vectors produced by pass  2 Test12= 8.35D-15 1.00D-09 XBig12= 5.90D-02 3.28D-02.
     99 vectors produced by pass  3 Test12= 8.35D-15 1.00D-09 XBig12= 1.17D-04 1.38D-03.
     99 vectors produced by pass  4 Test12= 8.35D-15 1.00D-09 XBig12= 1.01D-07 2.80D-05.
     39 vectors produced by pass  5 Test12= 8.35D-15 1.00D-09 XBig12= 5.94D-11 6.87D-07.
      5 vectors produced by pass  6 Test12= 8.35D-15 1.00D-09 XBig12= 3.97D-14 2.52D-08.
 InvSVY:  IOpt=1 It=  1 EMax= 1.42D-14
 Solved reduced A of dimension   539 with   102 vectors.
 Isotropic polarizability for W=    0.000000      122.04 Bohr**3.
 End of Minotr F.D. properties file   721 does not exist.
 End of Minotr F.D. properties file   722 does not exist.
 End of Minotr F.D. properties file   788 does not exist.

 **********************************************************************

            Population analysis using the SCF density.

 **********************************************************************

 Orbital symmetries:
       Occupied  (A) (A) (A) (A) (A) (A) (A) (A) (A) (A) (A) (A)
                 (A) (A) (A) (A) (A) (A) (A) (A) (A) (A) (A) (A)
                 (A) (A) (A) (A) (A) (A) (A) (A) (A) (A) (A) (A)
                 (A) (A) (A) (A) (A) (A) (A) (A) (A) (A) (A) (A)
       Virtual   (A) (A) (A) (A) (A) (A) (A) (A) (A) (A) (A) (A)
                 (A) (A) (A) (A) (A) (A) (A) (A) (A) (A) (A) (A)
                 (A) (A) (A) (A) (A) (A) (A) (A) (A) (A) (A) (A)
                 (A) (A) (A) (A) (A) (A) (A) (A) (A) (A) (A) (A)
                 (A) (A) (A) (A) (A) (A) (A) (A) (A) (A) (A) (A)
                 (A) (A) (A) (A) (A) (A) (A) (A) (A) (A) (A) (A)
                 (A) (A) (A) (A) (A) (A) (A) (A) (A) (A) (A) (A)
                 (A) (A) (A) (A) (A) (A) (A) (A) (A) (A) (A) (A)
                 (A) (A) (A) (A) (A) (A) (A) (A) (A) (A) (A) (A)
                 (A) (A) (A) (A) (A) (A) (A) (A) (A) (A) (A) (A)
                 (A) (A) (A) (A) (A) (A) (A) (A) (A) (A) (A) (A)
                 (A) (A) (A) (A) (A) (A) (A) (A) (A) (A) (A) (A)
                 (A) (A) (A) (A) (A) (A) (A) (A) (A) (A) (A) (A)
                 (A) (A) (A) (A) (A) (A) (A) (A) (A) (A) (A) (A)
                 (A) (A) (A) (A) (A) (A)
 The electronic state is 1-A.
 Alpha  occ. eigenvalues --  -14.34675 -14.33817 -14.25815 -10.26923 -10.20844
 Alpha  occ. eigenvalues --  -10.20816 -10.20438 -10.19904 -10.19850 -10.15823
 Alpha  occ. eigenvalues --  -10.15756 -10.14822  -0.97526  -0.89832  -0.86451
 Alpha  occ. eigenvalues --   -0.77918  -0.74202  -0.69961  -0.69307  -0.67644
 Alpha  occ. eigenvalues --   -0.66235  -0.63925  -0.58295  -0.53997  -0.50153
 Alpha  occ. eigenvalues --   -0.48231  -0.47207  -0.46465  -0.44497  -0.43630
 Alpha  occ. eigenvalues --   -0.43073  -0.42264  -0.41994  -0.41064  -0.39500
 Alpha  occ. eigenvalues --   -0.38459  -0.37653  -0.36892  -0.36506  -0.34998
 Alpha  occ. eigenvalues --   -0.34080  -0.33710  -0.31738  -0.30745  -0.30180
 Alpha  occ. eigenvalues --   -0.22083  -0.19766  -0.18660
 Alpha virt. eigenvalues --    0.06407   0.08434   0.10381   0.10634   0.12172
 Alpha virt. eigenvalues --    0.12547   0.13840   0.14589   0.15068   0.15938
 Alpha virt. eigenvalues --    0.16017   0.16474   0.17123   0.17746   0.17892
 Alpha virt. eigenvalues --    0.18500   0.19223   0.19423   0.19795   0.20342
 Alpha virt. eigenvalues --    0.21910   0.22688   0.23343   0.23812   0.25900
 Alpha virt. eigenvalues --    0.26758   0.28319   0.28720   0.30593   0.35199
 Alpha virt. eigenvalues --    0.36270   0.38678   0.46315   0.47424   0.49200
 Alpha virt. eigenvalues --    0.51310   0.51688   0.52490   0.53327   0.55666
 Alpha virt. eigenvalues --    0.55893   0.57367   0.59058   0.59872   0.63661
 Alpha virt. eigenvalues --    0.66007   0.66652   0.67049   0.67656   0.69908
 Alpha virt. eigenvalues --    0.71440   0.72583   0.73221   0.73891   0.76347
 Alpha virt. eigenvalues --    0.77081   0.79312   0.79793   0.81849   0.82950
 Alpha virt. eigenvalues --    0.83533   0.85151   0.85543   0.86642   0.87826
 Alpha virt. eigenvalues --    0.88560   0.90067   0.90761   0.90886   0.91661
 Alpha virt. eigenvalues --    0.92631   0.93551   0.93757   0.94639   0.95296
 Alpha virt. eigenvalues --    0.95521   0.96664   0.98081   0.98621   0.99565
 Alpha virt. eigenvalues --    1.01128   1.01607   1.02886   1.05225   1.05786
 Alpha virt. eigenvalues --    1.07100   1.11631   1.12305   1.13612   1.15571
 Alpha virt. eigenvalues --    1.22418   1.26591   1.31802   1.34050   1.36012
 Alpha virt. eigenvalues --    1.38124   1.41403   1.45483   1.45836   1.48139
 Alpha virt. eigenvalues --    1.50422   1.53415   1.55816   1.56871   1.61850
 Alpha virt. eigenvalues --    1.67216   1.70034   1.76007   1.78529   1.80207
 Alpha virt. eigenvalues --    1.81774   1.84950   1.86351   1.88746   1.89682
 Alpha virt. eigenvalues --    1.90617   1.92379   1.93261   1.94029   1.96365
 Alpha virt. eigenvalues --    1.98237   2.00193   2.02045   2.04673   2.07437
 Alpha virt. eigenvalues --    2.07929   2.10922   2.11093   2.11731   2.14144
 Alpha virt. eigenvalues --    2.14397   2.18098   2.20824   2.22640   2.23747
 Alpha virt. eigenvalues --    2.25434   2.27843   2.28578   2.28757   2.31078
 Alpha virt. eigenvalues --    2.31793   2.33217   2.35194   2.38410   2.40514
 Alpha virt. eigenvalues --    2.44069   2.47178   2.50695   2.53107   2.55110
 Alpha virt. eigenvalues --    2.58874   2.62141   2.65411   2.66340   2.72714
 Alpha virt. eigenvalues --    2.75606   2.79176   2.82988   2.88233   2.99693
 Alpha virt. eigenvalues --    3.24434   3.34418   4.02232   4.03992   4.14423
 Alpha virt. eigenvalues --    4.23126   4.28907   4.31410   4.32279   4.34776
 Alpha virt. eigenvalues --    4.36820   4.40347   4.54424   4.75891
          Condensed to atoms (all electrons):
               1          2          3          4          5          6
     1  N    7.046508   0.266548  -0.098630  -0.012749   0.004790  -0.000116
     2  C    0.266548   4.324386   0.606394  -0.055820  -0.000236   0.002020
     3  N   -0.098630   0.606394   6.973803   0.316654  -0.061541  -0.090573
     4  C   -0.012749  -0.055820   0.316654   4.640665   0.346698   0.411725
     5  C    0.004790  -0.000236  -0.061541   0.346698   5.232561  -0.078772
     6  C   -0.000116   0.002020  -0.090573   0.411725  -0.078772   5.205361
     7  C    0.003190  -0.003401  -0.059437   0.357462  -0.055516  -0.074221
     8  N   -0.114848   0.302043  -0.106197   0.006655  -0.000166  -0.000004
     9  C    0.004990  -0.027351  -0.013865   0.000128  -0.000036  -0.000054
    10  C    0.000858  -0.036407   0.004609  -0.000218   0.000009   0.000001
    11  C    0.281068  -0.014510   0.003684   0.000046   0.000041   0.000005
    12  C    0.320881  -0.029016  -0.002766   0.002607  -0.001559  -0.000099
    13  H    0.000250   0.001920  -0.000090  -0.027874   0.364084  -0.002924
    14  H   -0.001492   0.000726   0.001210  -0.029517   0.357818   0.006336
    15  H   -0.000037  -0.000056   0.003924  -0.024995   0.354523  -0.007858
    16  H    0.000009   0.000421   0.001408  -0.026365  -0.001625   0.358620
    17  H    0.000006  -0.000046   0.006545  -0.029168  -0.004299   0.340019
    18  H    0.000006   0.000093   0.001102  -0.026140   0.006302   0.362325
    19  H    0.000355   0.001366  -0.004280  -0.036533  -0.003839   0.007201
    20  H   -0.000016   0.000719   0.000677  -0.027090   0.005783  -0.010577
    21  H   -0.000036   0.000051   0.004554  -0.025139  -0.002525  -0.001420
    22  H    0.000502  -0.000829   0.021806  -0.001152   0.000081  -0.000216
    23  H   -0.000090   0.001923   0.000479  -0.000007   0.000001   0.000003
    24  H    0.000253   0.002302   0.001599   0.000021  -0.000007  -0.000012
    25  H   -0.001020  -0.005867  -0.000220  -0.000011   0.000001  -0.000000
    26  H    0.002844   0.001586   0.000071   0.000012  -0.000002  -0.000000
    27  H   -0.000191   0.001927  -0.000025   0.000002   0.000000  -0.000000
    28  H   -0.035058  -0.000275  -0.000062   0.000021  -0.000007   0.000000
    29  H   -0.050264  -0.000773  -0.000198  -0.000007   0.000007  -0.000000
    30  H   -0.046623   0.001113   0.000263  -0.000003  -0.000067  -0.000000
    31  H   -0.030183  -0.002409   0.001849   0.002536  -0.001336  -0.000039
    32  H   -0.051052   0.001025   0.000998  -0.000322  -0.001890   0.000010
    33  H   -0.045722   0.001651  -0.000034   0.000010   0.000213  -0.000000
               7          8          9         10         11         12
     1  N    0.003190  -0.114848   0.004990   0.000858   0.281068   0.320881
     2  C   -0.003401   0.302043  -0.027351  -0.036407  -0.014510  -0.029016
     3  N   -0.059437  -0.106197  -0.013865   0.004609   0.003684  -0.002766
     4  C    0.357462   0.006655   0.000128  -0.000218   0.000046   0.002607
     5  C   -0.055516  -0.000166  -0.000036   0.000009   0.000041  -0.001559
     6  C   -0.074221  -0.000004  -0.000054   0.000001   0.000005  -0.000099
     7  C    5.274289  -0.000366  -0.000005   0.000012  -0.000129  -0.027583
     8  N   -0.000366   6.960544   0.313780   0.297377   0.003950   0.004354
     9  C   -0.000005   0.313780   4.973550  -0.058113  -0.000452  -0.000121
    10  C    0.000012   0.297377  -0.058113   5.198746  -0.113954   0.000028
    11  C   -0.000129   0.003950  -0.000452  -0.113954   5.207762  -0.057913
    12  C   -0.027583   0.004354  -0.000121   0.000028  -0.057913   5.011180
    13  H    0.005915  -0.000391   0.000005   0.000009  -0.000063  -0.000042
    14  H   -0.007604   0.000002   0.000001  -0.000000  -0.000007   0.000647
    15  H    0.001193   0.000002   0.000001  -0.000000  -0.000001   0.000054
    16  H    0.006186  -0.000090  -0.000244   0.000002  -0.000000   0.000006
    17  H    0.000180  -0.000002  -0.000000   0.000000  -0.000000   0.000002
    18  H   -0.007873  -0.000018  -0.000001   0.000000  -0.000000  -0.000000
    19  H    0.351111  -0.000027  -0.000001   0.000001  -0.000042  -0.032921
    20  H    0.362582  -0.000035   0.000000   0.000000   0.000001   0.001246
    21  H    0.343145   0.000003   0.000000  -0.000000   0.000002   0.000950
    22  H    0.000078  -0.028546   0.366626   0.004764  -0.000026  -0.000004
    23  H    0.000000  -0.048120   0.381514  -0.000006   0.000033   0.000004
    24  H    0.000001  -0.054292   0.365309  -0.005926  -0.000282  -0.000005
    25  H    0.000000  -0.026605   0.005268   0.425609  -0.049909  -0.000372
    26  H    0.000000  -0.055482  -0.001545   0.362869  -0.045607  -0.000226
    27  H   -0.000000  -0.041020  -0.003734   0.347797   0.009294   0.000048
    28  H    0.000001  -0.013572  -0.001248  -0.048674   0.416548   0.004714
    29  H    0.000001   0.001567  -0.000034  -0.008533   0.368491  -0.001189
    30  H    0.000006  -0.000350   0.000124   0.006081   0.356086  -0.004227
    31  H   -0.005823   0.000076  -0.000002   0.000030   0.005259   0.361787
    32  H    0.001205  -0.000123   0.000009   0.000009  -0.002885   0.373034
    33  H    0.000397  -0.000064  -0.000000   0.000021  -0.002657   0.372617
              13         14         15         16         17         18
     1  N    0.000250  -0.001492  -0.000037   0.000009   0.000006   0.000006
     2  C    0.001920   0.000726  -0.000056   0.000421  -0.000046   0.000093
     3  N   -0.000090   0.001210   0.003924   0.001408   0.006545   0.001102
     4  C   -0.027874  -0.029517  -0.024995  -0.026365  -0.029168  -0.026140
     5  C    0.364084   0.357818   0.354523  -0.001625  -0.004299   0.006302
     6  C   -0.002924   0.006336  -0.007858   0.358620   0.340019   0.362325
     7  C    0.005915  -0.007604   0.001193   0.006186   0.000180  -0.007873
     8  N   -0.000391   0.000002   0.000002  -0.000090  -0.000002  -0.000018
     9  C    0.000005   0.000001   0.000001  -0.000244  -0.000000  -0.000001
    10  C    0.000009  -0.000000  -0.000000   0.000002   0.000000   0.000000
    11  C   -0.000063  -0.000007  -0.000001  -0.000000  -0.000000  -0.000000
    12  C   -0.000042   0.000647   0.000054   0.000006   0.000002  -0.000000
    13  H    0.568626  -0.029707  -0.028458   0.001812   0.000497  -0.000139
    14  H   -0.029707   0.596492  -0.033215  -0.000099  -0.000045  -0.000249
    15  H   -0.028458  -0.033215   0.594331   0.000532   0.003110   0.000186
    16  H    0.001812  -0.000099   0.000532   0.577518  -0.029106  -0.028622
    17  H    0.000497  -0.000045   0.003110  -0.029106   0.624154  -0.031581
    18  H   -0.000139  -0.000249   0.000186  -0.028622  -0.031581   0.581848
    19  H   -0.000118   0.002903  -0.000073  -0.000258  -0.000187   0.000121
    20  H   -0.000166   0.000036  -0.000176   0.000119   0.000374   0.006336
    21  H   -0.000108   0.000337   0.000959  -0.000139   0.001181   0.000028
    22  H    0.000174  -0.000004  -0.000004   0.001882   0.000018   0.000062
    23  H   -0.000000  -0.000000  -0.000000  -0.000006   0.000000  -0.000000
    24  H    0.000023  -0.000000   0.000000   0.000014   0.000000  -0.000000
    25  H    0.000000  -0.000000  -0.000000   0.000000   0.000000   0.000000
    26  H    0.000002   0.000000   0.000000   0.000000  -0.000000  -0.000000
    27  H   -0.000000   0.000000  -0.000000  -0.000000  -0.000000   0.000000
    28  H   -0.000004   0.000002   0.000000  -0.000000  -0.000000  -0.000000
    29  H    0.000000  -0.000004  -0.000000  -0.000000   0.000000   0.000000
    30  H    0.000056   0.000030   0.000000   0.000000   0.000000  -0.000000
    31  H    0.000020  -0.001237   0.000033   0.000004   0.000000  -0.000001
    32  H    0.000197   0.004556   0.000012  -0.000000  -0.000000  -0.000000
    33  H   -0.000003  -0.000028  -0.000002  -0.000000   0.000000   0.000000
              19         20         21         22         23         24
     1  N    0.000355  -0.000016  -0.000036   0.000502  -0.000090   0.000253
     2  C    0.001366   0.000719   0.000051  -0.000829   0.001923   0.002302
     3  N   -0.004280   0.000677   0.004554   0.021806   0.000479   0.001599
     4  C   -0.036533  -0.027090  -0.025139  -0.001152  -0.000007   0.000021
     5  C   -0.003839   0.005783  -0.002525   0.000081   0.000001  -0.000007
     6  C    0.007201  -0.010577  -0.001420  -0.000216   0.000003  -0.000012
     7  C    0.351111   0.362582   0.343145   0.000078   0.000000   0.000001
     8  N   -0.000027  -0.000035   0.000003  -0.028546  -0.048120  -0.054292
     9  C   -0.000001   0.000000   0.000000   0.366626   0.381514   0.365309
    10  C    0.000001   0.000000  -0.000000   0.004764  -0.000006  -0.005926
    11  C   -0.000042   0.000001   0.000002  -0.000026   0.000033  -0.000282
    12  C   -0.032921   0.001246   0.000950  -0.000004   0.000004  -0.000005
    13  H   -0.000118  -0.000166  -0.000108   0.000174  -0.000000   0.000023
    14  H    0.002903   0.000036   0.000337  -0.000004  -0.000000  -0.000000
    15  H   -0.000073  -0.000176   0.000959  -0.000004  -0.000000   0.000000
    16  H   -0.000258   0.000119  -0.000139   0.001882  -0.000006   0.000014
    17  H   -0.000187   0.000374   0.001181   0.000018   0.000000   0.000000
    18  H    0.000121   0.006336   0.000028   0.000062  -0.000000  -0.000000
    19  H    0.586224  -0.028796  -0.027394  -0.000002  -0.000000  -0.000000
    20  H   -0.028796   0.568559  -0.027966   0.000003   0.000000   0.000000
    21  H   -0.027394  -0.027966   0.600172  -0.000001   0.000000  -0.000000
    22  H   -0.000002   0.000003  -0.000001   0.494252  -0.025649  -0.026640
    23  H   -0.000000   0.000000   0.000000  -0.025649   0.587892  -0.049523
    24  H   -0.000000   0.000000  -0.000000  -0.026640  -0.049523   0.627012
    25  H   -0.000002   0.000000  -0.000000  -0.000176  -0.000048   0.000077
    26  H    0.000000  -0.000000  -0.000000  -0.000000  -0.002276   0.012076
    27  H   -0.000000   0.000000   0.000000  -0.000048   0.006337  -0.002690
    28  H    0.000004  -0.000000  -0.000000   0.000005  -0.000035   0.000337
    29  H   -0.000003   0.000000   0.000000   0.000002  -0.000000   0.000005
    30  H   -0.000002  -0.000000  -0.000000  -0.000001   0.000001  -0.000027
    31  H    0.027207  -0.001043  -0.000263  -0.000001  -0.000000   0.000000
    32  H    0.000284  -0.000010  -0.000108   0.000000   0.000000  -0.000001
    33  H    0.001210  -0.000020  -0.000003   0.000000  -0.000000   0.000000
              25         26         27         28         29         30
     1  N   -0.001020   0.002844  -0.000191  -0.035058  -0.050264  -0.046623
     2  C   -0.005867   0.001586   0.001927  -0.000275  -0.000773   0.001113
     3  N   -0.000220   0.000071  -0.000025  -0.000062  -0.000198   0.000263
     4  C   -0.000011   0.000012   0.000002   0.000021  -0.000007  -0.000003
     5  C    0.000001  -0.000002   0.000000  -0.000007   0.000007  -0.000067
     6  C   -0.000000  -0.000000  -0.000000   0.000000  -0.000000  -0.000000
     7  C    0.000000   0.000000  -0.000000   0.000001   0.000001   0.000006
     8  N   -0.026605  -0.055482  -0.041020  -0.013572   0.001567  -0.000350
     9  C    0.005268  -0.001545  -0.003734  -0.001248  -0.000034   0.000124
    10  C    0.425609   0.362869   0.347797  -0.048674  -0.008533   0.006081
    11  C   -0.049909  -0.045607   0.009294   0.416548   0.368491   0.356086
    12  C   -0.000372  -0.000226   0.000048   0.004714  -0.001189  -0.004227
    13  H    0.000000   0.000002  -0.000000  -0.000004   0.000000   0.000056
    14  H   -0.000000   0.000000   0.000000   0.000002  -0.000004   0.000030
    15  H   -0.000000   0.000000  -0.000000   0.000000  -0.000000   0.000000
    16  H    0.000000   0.000000  -0.000000  -0.000000  -0.000000   0.000000
    17  H    0.000000  -0.000000  -0.000000  -0.000000   0.000000   0.000000
    18  H    0.000000  -0.000000   0.000000  -0.000000   0.000000  -0.000000
    19  H   -0.000002   0.000000  -0.000000   0.000004  -0.000003  -0.000002
    20  H    0.000000  -0.000000   0.000000  -0.000000   0.000000  -0.000000
    21  H   -0.000000  -0.000000   0.000000  -0.000000   0.000000  -0.000000
    22  H   -0.000176  -0.000000  -0.000048   0.000005   0.000002  -0.000001
    23  H   -0.000048  -0.002276   0.006337  -0.000035  -0.000000   0.000001
    24  H    0.000077   0.012076  -0.002690   0.000337   0.000005  -0.000027
    25  H    0.564946  -0.037030  -0.031587  -0.071503   0.005304   0.005841
    26  H   -0.037030   0.626604  -0.050259   0.014641   0.001051   0.000865
    27  H   -0.031587  -0.050259   0.621199   0.005512  -0.000287  -0.000211
    28  H   -0.071503   0.014641   0.005512   0.608740  -0.032529  -0.032103
    29  H    0.005304   0.001051  -0.000287  -0.032529   0.602738  -0.045190
    30  H    0.005841   0.000865  -0.000211  -0.032103  -0.045190   0.614091
    31  H    0.000057   0.000003  -0.000002  -0.000291   0.000142   0.000066
    32  H    0.000049   0.000003   0.000000  -0.000154  -0.002879   0.010221
    33  H   -0.000094   0.000002  -0.000005   0.000284   0.008807  -0.002441
              31         32         33
     1  N   -0.030183  -0.051052  -0.045722
     2  C   -0.002409   0.001025   0.001651
     3  N    0.001849   0.000998  -0.000034
     4  C    0.002536  -0.000322   0.000010
     5  C   -0.001336  -0.001890   0.000213
     6  C   -0.000039   0.000010  -0.000000
     7  C   -0.005823   0.001205   0.000397
     8  N    0.000076  -0.000123  -0.000064
     9  C   -0.000002   0.000009  -0.000000
    10  C    0.000030   0.000009   0.000021
    11  C    0.005259  -0.002885  -0.002657
    12  C    0.361787   0.373034   0.372617
    13  H    0.000020   0.000197  -0.000003
    14  H   -0.001237   0.004556  -0.000028
    15  H    0.000033   0.000012  -0.000002
    16  H    0.000004  -0.000000  -0.000000
    17  H    0.000000  -0.000000   0.000000
    18  H   -0.000001  -0.000000   0.000000
    19  H    0.027207   0.000284   0.001210
    20  H   -0.001043  -0.000010  -0.000020
    21  H   -0.000263  -0.000108  -0.000003
    22  H   -0.000001   0.000000   0.000000
    23  H   -0.000000   0.000000  -0.000000
    24  H    0.000000  -0.000001   0.000000
    25  H    0.000057   0.000049  -0.000094
    26  H    0.000003   0.000003   0.000002
    27  H   -0.000002   0.000000  -0.000005
    28  H   -0.000291  -0.000154   0.000284
    29  H    0.000142  -0.002879   0.008807
    30  H    0.000066   0.010221  -0.002441
    31  H    0.557333  -0.029637  -0.029259
    32  H   -0.029637   0.598499  -0.049123
    33  H   -0.029259  -0.049123   0.600534
 Mulliken charges:
               1
     1  N   -0.444931
     2  C    0.658785
     3  N   -0.513709
     4  C    0.237868
     5  C   -0.459490
     6  C   -0.426741
     7  C   -0.464998
     8  N   -0.400034
     9  C   -0.304501
    10  C   -0.377001
    11  C   -0.363831
    12  C   -0.296116
    13  H    0.146495
    14  H    0.132114
    15  H    0.136015
    16  H    0.138020
    17  H    0.118349
    18  H    0.136214
    19  H    0.156492
    20  H    0.149460
    21  H    0.133718
    22  H    0.193044
    23  H    0.147575
    24  H    0.130375
    25  H    0.217291
    26  H    0.169800
    27  H    0.137942
    28  H    0.184708
    29  H    0.153777
    30  H    0.136401
    31  H    0.145125
    32  H    0.148075
    33  H    0.143709
 Sum of Mulliken charges =   0.00000
 Mulliken charges with hydrogens summed into heavy atoms:
               1
     1  N   -0.444931
     2  C    0.658785
     3  N   -0.513709
     4  C    0.237868
     5  C   -0.044865
     6  C   -0.034158
     7  C   -0.025328
     8  N   -0.400034
     9  C    0.166493
    10  C    0.148032
    11  C    0.111055
    12  C    0.140793
 APT charges:
               1
     1  N   -0.783532
     2  C    1.374351
     3  N   -1.047129
     4  C    0.574959
     5  C   -0.018824
     6  C    0.063335
     7  C   -0.005016
     8  N   -0.807863
     9  C    0.351471
    10  C    0.354854
    11  C    0.291853
    12  C    0.307974
    13  H   -0.013163
    14  H   -0.033585
    15  H   -0.039447
    16  H   -0.020771
    17  H   -0.057928
    18  H   -0.029682
    19  H   -0.022735
    20  H   -0.023367
    21  H   -0.051274
    22  H    0.051835
    23  H   -0.056708
    24  H   -0.084974
    25  H    0.035348
    26  H   -0.104471
    27  H   -0.092836
    28  H    0.108283
    29  H   -0.070053
    30  H   -0.088299
    31  H    0.067248
    32  H   -0.064169
    33  H   -0.065683
 Sum of APT charges =   0.00000
 APT charges with hydrogens summed into heavy atoms:
               1
     1  N   -0.783532
     2  C    1.374351
     3  N   -1.047129
     4  C    0.574959
     5  C   -0.105020
     6  C   -0.045047
     7  C   -0.102392
     8  N   -0.807863
     9  C    0.261625
    10  C    0.192896
    11  C    0.241783
    12  C    0.245370
 Electronic spatial extent (au):  <R**2>=           2463.5358
 Charge=              0.0000 electrons
 Dipole moment (field-independent basis, Debye):
    X=              2.1982    Y=             -1.5083    Z=              0.6769  Tot=              2.7505
 Quadrupole moment (field-independent basis, Debye-Ang):
   XX=            -72.0564   YY=            -74.8436   ZZ=            -78.7596
   XY=              1.2188   XZ=              0.8156   YZ=              1.7881
 Traceless Quadrupole moment (field-independent basis, Debye-Ang):
   XX=              3.1635   YY=              0.3762   ZZ=             -3.5397
   XY=              1.2188   XZ=              0.8156   YZ=              1.7881
 Octapole moment (field-independent basis, Debye-Ang**2):
  XXX=             25.5836  YYY=              0.0768  ZZZ=             -0.7226  XYY=              7.6872
  XXY=             -2.5008  XXZ=              1.0260  XZZ=              2.2859  YZZ=              0.3721
  YYZ=             -0.5420  XYZ=              0.6870
 Hexadecapole moment (field-independent basis, Debye-Ang**3):
 XXXX=          -1985.4841 YYYY=          -1000.0908 ZZZZ=           -322.6881 XXXY=              1.9459
 XXXZ=             -3.7519 YYYX=             11.0017 YYYZ=              6.6210 ZZZX=              5.2652
 ZZZY=              0.2065 XXYY=           -511.8256 XXZZ=           -393.5870 YYZZ=           -223.8588
 XXYZ=              1.2600 YYXZ=             -3.3775 ZZXY=             -1.4774
 N-N= 8.090714104764D+02 E-N=-2.822893216477D+03  KE= 5.151829641512D+02
  Exact polarizability: 148.564  -1.616 124.509   0.401  -2.028  93.047
 Approx polarizability: 192.405  -5.903 169.763   0.370  -2.791 135.754
 Calling FoFJK, ICntrl=    100127 FMM=F ISym2X=0 I1Cent= 0 IOpClX= 0 NMat=1 NMatS=1 NMatT=0.
 ***** Axes restored to original set *****
 -------------------------------------------------------------------
 Center     Atomic                   Forces (Hartrees/Bohr)
 Number     Number              X              Y              Z
 -------------------------------------------------------------------
      1        7           0.013899575    0.003561514    0.002526362
      2        6          -0.018810677    0.008720891   -0.015966465
      3        7          -0.001705414   -0.010828952    0.006361474
      4        6          -0.002636596   -0.012575690    0.002563012
      5        6           0.001172417    0.013155552   -0.004798533
      6        6          -0.005525914   -0.002410600   -0.001057552
      7        6          -0.010685083    0.004391329    0.009573046
      8        7           0.027571355   -0.004502802   -0.002668503
      9        6          -0.005710141    0.000588193    0.004628673
     10        6          -0.012006946   -0.056507736    0.035636403
     11        6          -0.003369815    0.035855698   -0.025079912
     12        6           0.007587298   -0.000690472    0.001814991
     13        1          -0.000032654   -0.001438371    0.001621453
     14        1           0.006157023    0.001810803   -0.000936733
     15        1          -0.000885102   -0.001301035    0.001226246
     16        1           0.001748024    0.002546982   -0.000609986
     17        1           0.000808478    0.000712392    0.000928226
     18        1           0.002581504   -0.001590086    0.000363461
     19        1          -0.013857029   -0.000049792    0.003715634
     20        1          -0.000904580   -0.001580472   -0.002636435
     21        1          -0.001708826    0.000386039    0.000307937
     22        1           0.005070287    0.006354768    0.006904685
     23        1           0.000768514   -0.001086580   -0.000178702
     24        1           0.003955343   -0.000444530   -0.004659912
     25        1          -0.009265934   -0.042872449    0.015647930
     26        1           0.004829431   -0.013761895   -0.002838945
     27        1          -0.003467612   -0.009918517   -0.002874716
     28        1          -0.003348449    0.065130604   -0.014614224
     29        1           0.003884169    0.002647974    0.000167990
     30        1          -0.000917733    0.013867138   -0.001981823
     31        1           0.012601976   -0.001308283   -0.010158188
     32        1          -0.002194871    0.004352949   -0.002413805
     33        1           0.004397983   -0.001214563   -0.000513092
 -------------------------------------------------------------------
 Cartesian Forces:  Max     0.065130604 RMS     0.013134466
 FormGI is forming the generalized inverse of G from B-inverse, IUseBI=4.

 GradGradGradGradGradGradGradGradGradGradGradGradGradGradGradGradGradGrad
 Berny optimization.
 Internal  Forces:  Max     0.273389107 RMS     0.045993209
 Search for a local minimum.
 Step number   1 out of a maximum of  164
 All quantities printed in internal units (Hartrees-Bohrs-Radians)
 Mixed Optimization -- RFO/linear search
 Second derivative matrix not updated -- analytic derivatives used.
 ITU=  0
     Eigenvalues ---   -0.18313  -0.10748  -0.05154  -0.02475  -0.01161
     Eigenvalues ---   -0.00437  -0.00022   0.00081   0.00151   0.00227
     Eigenvalues ---    0.00309   0.01808   0.03868   0.04087   0.04374
     Eigenvalues ---    0.04664   0.04698   0.04773   0.04811   0.04921
     Eigenvalues ---    0.05616   0.05804   0.05916   0.06432   0.06473
     Eigenvalues ---    0.06485   0.06682   0.06708   0.06964   0.08378
     Eigenvalues ---    0.08996   0.09439   0.10005   0.10931   0.11934
     Eigenvalues ---    0.12001   0.12221   0.12282   0.12611   0.12893
     Eigenvalues ---    0.13206   0.13508   0.14199   0.15106   0.15203
     Eigenvalues ---    0.15292   0.15911   0.16107   0.17256   0.17648
     Eigenvalues ---    0.18005   0.18055   0.18652   0.18674   0.19915
     Eigenvalues ---    0.21635   0.22029   0.23814   0.26005   0.28237
     Eigenvalues ---    0.28731   0.29355   0.30459   0.31784   0.32174
     Eigenvalues ---    0.32972   0.33070   0.33169   0.33271   0.33281
     Eigenvalues ---    0.33573   0.33612   0.33688   0.33824   0.34046
     Eigenvalues ---    0.34152   0.34230   0.34522   0.34581   0.34791
     Eigenvalues ---    0.34999   0.35290   0.35921   0.36680   0.36759
     Eigenvalues ---    0.37238   0.38388   0.38933   0.40463   0.43202
     Eigenvalues ---    0.72463   2.38164   4.69777
 RFO step:  Lambda=-1.83166608D-01 EMin=-1.83133951D-01
 I=     1 Eig=   -1.83D-01 Dot1=  1.04D-03
 I=     1 Stepn=  6.00D-01 RXN=   6.00D-01 EDone=F
 I=     2 Eig=   -1.07D-01 Dot1=  2.44D-03
 I=     2 Stepn=  3.00D-01 RXN=   6.71D-01 EDone=F
 I=     3 Eig=   -5.15D-02 Dot1=  5.03D-04
 I=     3 Stepn=  1.50D-01 RXN=   6.87D-01 EDone=F
 Mixed    3 eigenvectors in step.  Raw Step.Grad=  3.99D-03.
 RFO eigenvector is Hessian eigenvector with negative curvature.
 Taking step of  6.00D-01 in eigenvector direction(s).  Step.Grad=  3.02D-02.
 Linear search not attempted -- first point.
 Maximum step size (   0.300) exceeded in Quadratic search.
    -- Step size not scaled.
 Iteration  1 RMS(Cart)=  0.17819788 RMS(Int)=  0.01830086
 Iteration  2 RMS(Cart)=  0.05222320 RMS(Int)=  0.00138312
 Iteration  3 RMS(Cart)=  0.00196164 RMS(Int)=  0.00100976
 Iteration  4 RMS(Cart)=  0.00000420 RMS(Int)=  0.00100976
 Iteration  5 RMS(Cart)=  0.00000003 RMS(Int)=  0.00100976
 Variable       Old X    -DE/DX   Delta X   Delta X   Delta X     New X
                                 (Linear)    (Quad)   (Total)
    R1        2.62534   0.10492   0.00000  -0.03228  -0.03228   2.59306
    R2        2.77312   0.01414   0.00000  -0.04657  -0.04657   2.72655
    R3        2.74216  -0.00771   0.00000   0.00338   0.00338   2.74553
    R4        2.41762   0.02575   0.00000  -0.00280  -0.00280   2.41482
    R5        2.63587   0.10069   0.00000   0.02863   0.02863   2.66450
    R6        2.73423   0.01942   0.00000   0.00123   0.00123   2.73547
    R7        2.89238   0.01052   0.00000  -0.00242  -0.00242   2.88996
    R8        2.93530   0.00075   0.00000  -0.00113  -0.00113   2.93416
    R9        2.89852   0.01209   0.00000  -0.01708  -0.01708   2.88144
   R10        2.07042  -0.00082   0.00000   0.00020   0.00020   2.07062
   R11        2.06095   0.00459   0.00000   0.00274   0.00274   2.06369
   R12        2.07242   0.00009   0.00000  -0.00029  -0.00029   2.07214
   R13        2.07213  -0.00101   0.00000   0.00036   0.00036   2.07249
   R14        2.07513  -0.00031   0.00000  -0.00018  -0.00018   2.07495
   R15        2.06840   0.00074   0.00000   0.00012   0.00012   2.06851
   R16        2.05466  -0.01087   0.00000  -0.00903  -0.00903   2.04564
   R17        2.07192  -0.00058   0.00000   0.00022   0.00022   2.07214
   R18        2.07160   0.00152   0.00000   0.00004   0.00004   2.07164
   R19        2.75761  -0.00936   0.00000   0.00226   0.00226   2.75987
   R20        2.77091  -0.00758   0.00000   0.06233   0.06233   2.83324
   R21        2.06995  -0.00466   0.00000   0.00069   0.00069   2.07064
   R22        2.07162   0.00099   0.00000  -0.00025  -0.00025   2.07137
   R23        2.06744   0.00586   0.00000   0.00021   0.00021   2.06764
   R24        2.06992  -0.02571   0.00000   0.01975   0.01975   2.08967
   R25        2.07100   0.00383   0.00000  -0.00131  -0.00131   2.06969
   R26        2.06943   0.00676   0.00000   0.00185   0.00185   2.07128
   R27        2.07134  -0.05120   0.00000   0.00223   0.00223   2.07358
   R28        2.07225   0.00341   0.00000  -0.00195  -0.00195   2.07029
   R29        2.05709   0.01111   0.00000   0.00525   0.00525   2.06234
   R30        2.04871  -0.01610   0.00000   0.01232   0.01232   2.06103
   R31        2.06583   0.00483   0.00000   0.00026   0.00026   2.06609
   R32        2.07304   0.00256   0.00000  -0.00131  -0.00131   2.07173
    A1        2.13678   0.16581   0.00000  -0.20092  -0.19985   1.93693
    A2        2.18209  -0.04084   0.00000   0.13114   0.12862   2.31072
    A3        1.94110  -0.13037   0.00000   0.05485   0.05483   1.99593
    A4        2.28987  -0.09076   0.00000   0.05131   0.04977   2.33964
    A5        1.97529   0.27339   0.00000  -0.04964  -0.05106   1.92424
    A6        2.01626  -0.18147   0.00000   0.00389   0.00246   2.01873
    A7        2.40148   0.08089   0.00000  -0.06590  -0.06590   2.33559
    A8        1.97038  -0.00773   0.00000  -0.00184  -0.00189   1.96849
    A9        1.83093  -0.00603   0.00000   0.00196   0.00198   1.83290
   A10        1.95085   0.01781   0.00000  -0.00545  -0.00550   1.94535
   A11        1.86847   0.01060   0.00000   0.00439   0.00441   1.87289
   A12        1.98117  -0.00080   0.00000  -0.00676  -0.00681   1.97436
   A13        1.84902  -0.01531   0.00000   0.00995   0.00997   1.85899
   A14        1.94711  -0.00321   0.00000   0.00079   0.00079   1.94790
   A15        1.95614   0.00160   0.00000  -0.00289  -0.00289   1.95325
   A16        1.95305  -0.00186   0.00000   0.00117   0.00117   1.95423
   A17        1.89438  -0.00036   0.00000   0.00061   0.00061   1.89499
   A18        1.87218   0.00212   0.00000  -0.00037  -0.00037   1.87181
   A19        1.83542   0.00206   0.00000   0.00077   0.00077   1.83618
   A20        1.94263  -0.00325   0.00000   0.00105   0.00105   1.94367
   A21        1.94862  -0.00039   0.00000  -0.00076  -0.00076   1.94786
   A22        1.94420  -0.00165   0.00000   0.00012   0.00012   1.94433
   A23        1.88452   0.00172   0.00000  -0.00024  -0.00024   1.88428
   A24        1.86987   0.00207   0.00000  -0.00037  -0.00037   1.86950
   A25        1.87022   0.00186   0.00000   0.00018   0.00018   1.87040
   A26        1.98437   0.01427   0.00000  -0.02974  -0.02974   1.95464
   A27        1.93905  -0.00654   0.00000   0.00521   0.00517   1.94423
   A28        1.93630  -0.00236   0.00000   0.00794   0.00792   1.94422
   A29        1.84432  -0.00201   0.00000   0.00917   0.00916   1.85347
   A30        1.87513  -0.00538   0.00000   0.00988   0.00991   1.88503
   A31        1.87910   0.00157   0.00000  -0.00117  -0.00121   1.87789
   A32        2.15314  -0.12005   0.00000  -0.00520  -0.00529   2.14785
   A33        2.09278   0.21047   0.00000   0.05458   0.05464   2.14742
   A34        1.96572  -0.07792   0.00000  -0.03980  -0.04001   1.92571
   A35        1.97981  -0.01392   0.00000  -0.00103  -0.00103   1.97878
   A36        1.91134   0.00274   0.00000  -0.00046  -0.00046   1.91088
   A37        1.93391   0.00125   0.00000   0.00361   0.00361   1.93752
   A38        1.87982   0.00452   0.00000  -0.00031  -0.00031   1.87951
   A39        1.87151   0.00632   0.00000  -0.00116  -0.00116   1.87035
   A40        1.88423  -0.00027   0.00000  -0.00077  -0.00077   1.88346
   A41        1.97399   0.01220   0.00000   0.05907   0.05889   2.03288
   A42        1.93325   0.01347   0.00000   0.00550   0.00528   1.93853
   A43        1.91360  -0.02009   0.00000  -0.02338  -0.02351   1.89010
   A44        1.89049   0.01139   0.00000  -0.03724  -0.03749   1.85300
   A45        1.85765  -0.01099   0.00000   0.00939   0.00931   1.86696
   A46        1.89175  -0.00747   0.00000  -0.01604  -0.01619   1.87556
   A47        1.98736   0.04200   0.00000  -0.09237  -0.09255   1.89481
   A48        1.91014   0.00230   0.00000   0.05422   0.05460   1.96474
   A49        1.92422  -0.02124   0.00000   0.00143   0.00029   1.92451
   A50        1.87512  -0.00183   0.00000   0.04818   0.04945   1.92457
   A51        1.86966  -0.01967   0.00000  -0.00046  -0.00228   1.86738
   A52        1.89459  -0.00302   0.00000  -0.00860  -0.00912   1.88547
   A53        1.97832  -0.00167   0.00000   0.01675   0.01671   1.99503
   A54        1.93129   0.00318   0.00000   0.00368   0.00361   1.93490
   A55        1.92287  -0.00436   0.00000  -0.01345  -0.01342   1.90945
   A56        1.91447  -0.00134   0.00000   0.00060   0.00047   1.91494
   A57        1.84425   0.00359   0.00000  -0.01076  -0.01070   1.83355
   A58        1.86763   0.00067   0.00000   0.00170   0.00170   1.86933
    D1       -2.61183   0.08653   0.00000   0.18886   0.18841  -2.42342
    D2        0.46200   0.10456   0.00000   0.29528   0.29562   0.75761
    D3        0.27945   0.04116   0.00000   0.11562   0.11529   0.39474
    D4       -2.92991   0.05920   0.00000   0.22204   0.22249  -2.70742
    D5       -0.19285   0.00831   0.00000   0.04451   0.04669  -0.14616
    D6       -2.29150  -0.01900   0.00000   0.00544   0.00959  -2.28191
    D7        1.90896  -0.00372   0.00000  -0.01857  -0.01458   1.89438
    D8       -3.11509   0.04297   0.00000   0.09263   0.08794  -3.02715
    D9        1.06945   0.01565   0.00000   0.05357   0.05083   1.12028
   D10       -1.01328   0.03094   0.00000   0.02956   0.02666  -0.98662
   D11        0.30991   0.00286   0.00000   0.06937   0.07214   0.38205
   D12       -1.84918   0.00341   0.00000   0.05333   0.05599  -1.79319
   D13        2.37222   0.00334   0.00000   0.05735   0.06003   2.43225
   D14       -3.05789  -0.00208   0.00000  -0.03084  -0.03347  -3.09136
   D15        1.06621  -0.00153   0.00000  -0.04688  -0.04962   1.01658
   D16       -0.99558  -0.00161   0.00000  -0.04286  -0.04558  -1.04116
   D17        0.09804  -0.01178   0.00000   0.09881   0.10044   0.19848
   D18       -2.97452  -0.04424   0.00000  -0.00801  -0.00965  -2.98417
   D19       -2.61183   0.04303   0.00000  -0.09279  -0.09153  -2.70336
   D20        0.10278   0.06340   0.00000  -0.07428  -0.07237   0.03042
   D21        0.47327   0.05846   0.00000  -0.00169  -0.00360   0.46968
   D22       -3.09530   0.07883   0.00000   0.01682   0.01557  -3.07973
   D23        1.03488  -0.02863   0.00000  -0.00224  -0.00225   1.03263
   D24        3.06335  -0.02347   0.00000   0.00327   0.00328   3.06662
   D25       -1.22399  -0.03642   0.00000   0.01349   0.01350  -1.21049
   D26        0.52818  -0.00684   0.00000   0.00620   0.00620   0.53439
   D27       -1.60030  -0.00519   0.00000   0.00691   0.00691  -1.59338
   D28        2.62589  -0.00763   0.00000   0.00709   0.00709   2.63298
   D29       -1.47783  -0.00186   0.00000   0.00214   0.00213  -1.47569
   D30        2.67688  -0.00021   0.00000   0.00285   0.00285   2.67972
   D31        0.61988  -0.00265   0.00000   0.00303   0.00302   0.62290
   D32        2.77141   0.01058   0.00000  -0.00909  -0.00908   2.76233
   D33        0.64293   0.01222   0.00000  -0.00837  -0.00836   0.63456
   D34       -1.41407   0.00978   0.00000  -0.00819  -0.00819  -1.42226
   D35       -0.84608   0.00485   0.00000  -0.00052  -0.00051  -0.84659
   D36       -2.95340   0.00517   0.00000  -0.00041  -0.00041  -2.95381
   D37        1.23961   0.00419   0.00000  -0.00021  -0.00020   1.23941
   D38        1.25150  -0.00199   0.00000   0.00050   0.00048   1.25198
   D39       -0.85583  -0.00166   0.00000   0.00060   0.00059  -0.85524
   D40       -2.94600  -0.00265   0.00000   0.00081   0.00080  -2.94521
   D41       -2.91214  -0.00556   0.00000   0.00021   0.00022  -2.91192
   D42        1.26373  -0.00524   0.00000   0.00031   0.00032   1.26405
   D43       -0.82645  -0.00622   0.00000   0.00052   0.00053  -0.82592
   D44        1.01924   0.00476   0.00000  -0.00995  -0.00992   1.00932
   D45       -1.05854   0.00226   0.00000  -0.00513  -0.00511  -1.06365
   D46        3.13496   0.00616   0.00000  -0.01237  -0.01236   3.12259
   D47       -1.23396   0.00046   0.00000   0.00330   0.00329  -1.23067
   D48        2.97144  -0.00204   0.00000   0.00812   0.00811   2.97955
   D49        0.88176   0.00187   0.00000   0.00089   0.00085   0.88260
   D50        3.00390  -0.00229   0.00000  -0.00470  -0.00469   2.99921
   D51        0.92612  -0.00479   0.00000   0.00012   0.00013   0.92624
   D52       -1.16357  -0.00088   0.00000  -0.00712  -0.00713  -1.17070
   D53       -0.25462   0.04133   0.00000   0.01776   0.01754  -0.23707
   D54       -2.35510   0.04287   0.00000   0.01917   0.01895  -2.33615
   D55        1.85142   0.04070   0.00000   0.01818   0.01796   1.86938
   D56       -2.99676  -0.04239   0.00000  -0.01967  -0.01945  -3.01621
   D57        1.18594  -0.04085   0.00000  -0.01826  -0.01804   1.16790
   D58       -0.89072  -0.04302   0.00000  -0.01925  -0.01903  -0.90976
[...]
 Traceless Quadrupole moment (field-independent basis, Debye-Ang):
   XX=              1.0007   YY=              0.9992   ZZ=             -1.9998
   XY=             -0.2948   XZ=             -0.3600   YZ=              0.3641
 Octapole moment (field-independent basis, Debye-Ang**2):
  XXX=              7.6264  YYY=             -0.7727  ZZZ=              3.6706  XYY=              5.3659
  XXY=             -2.4526  XXZ=              3.6732  XZZ=              1.3692  YZZ=             -1.0988
  YYZ=              0.5906  XYZ=              1.0840
 Hexadecapole moment (field-independent basis, Debye-Ang**3):
 XXXX=          -1823.6437 YYYY=          -1017.7257 ZZZZ=           -419.7595 XXXY=              5.8566
 XXXZ=             -2.5482 YYYX=              4.1783 YYYZ=              2.4467 ZZZX=              3.4136
 ZZZY=              0.3512 XXYY=           -473.5236 XXZZ=           -386.9349 YYZZ=           -239.5705
 XXYZ=             -3.1658 YYXZ=              5.5452 ZZXY=             -4.1254
 N-N= 8.082630969183D+02 E-N=-2.821121516845D+03  KE= 5.149012019666D+02
 Evaluate density.
 Using the total density.
 Monte-Carlo method of calculating molar volume:
 based on  0.001 e/bohr**3 density envelope.
 Number of points per bohr**3 =   20 CutOff= 1.00D-04
 Using the CI density.
 There are       417 points.  Will hold       417 in memory.
 LenV=  1342033532 MDV=  1342177280.
 Box volume = 9074.870 fraction occupied=0.192
 Integrated density= 7.0540445355523602D+01 error=-2.5459554644476398D+01
 Molar volume = 1740.982 bohr**3/mol (155.363 cm**3/mol)
 Recommended a0 for SCRF calculation =  4.85 angstrom (  9.16 bohr)
 ******************************Gaussian NBO Version 3.1******************************
             N A T U R A L   A T O M I C   O R B I T A L   A N D
          N A T U R A L   B O N D   O R B I T A L   A N A L Y S I S
 ******************************Gaussian NBO Version 3.1******************************
       /RESON  / : Allow strongly delocalized NBO set

 Analyzing the CI density

 Job title: Title Card Required                                             

 Storage needed:    151374 in NPA (1342171505 available)


 NATURAL POPULATIONS:  Natural atomic orbital occupancies 
                                                          
   NAO  Atom  No  lang   Type(AO)    Occupancy
 --------------------------------------------
     1    N    1  S      Cor( 1S)     1.99935
     2    N    1  S      Val( 2S)     1.18671
     3    N    1  S      Ryd( 3S)     0.00085
     4    N    1  S      Ryd( 4S)     0.00002
     5    N    1  px     Val( 2p)     1.55849
     6    N    1  px     Ryd( 3p)     0.00570
     7    N    1  py     Val( 2p)     1.30474
     8    N    1  py     Ryd( 3p)     0.00109
     9    N    1  pz     Val( 2p)     1.39464
    10    N    1  pz     Ryd( 3p)     0.00173
    11    N    1  dxy    Ryd( 3d)     0.00037
    12    N    1  dxz    Ryd( 3d)     0.00058
    13    N    1  dyz    Ryd( 3d)     0.00129
    14    N    1  dx2y2  Ryd( 3d)     0.00053
    15    N    1  dz2    Ryd( 3d)     0.00041
 
    16    C    2  S      Cor( 1S)     1.99913
    17    C    2  S      Val( 2S)     0.69983
    18    C    2  S      Ryd( 3S)     0.00224
    19    C    2  S      Ryd( 4S)     0.00022
    20    C    2  px     Val( 2p)     0.85258
    21    C    2  px     Ryd( 3p)     0.00600
    22    C    2  py     Val( 2p)     0.81677
    23    C    2  py     Ryd( 3p)     0.00573
    24    C    2  pz     Val( 2p)     1.21919
    25    C    2  pz     Ryd( 3p)     0.01204
    26    C    2  dxy    Ryd( 3d)     0.00245
    27    C    2  dxz    Ryd( 3d)     0.00238
    28    C    2  dyz    Ryd( 3d)     0.00102
    29    C    2  dx2y2  Ryd( 3d)     0.00160
    30    C    2  dz2    Ryd( 3d)     0.00060
 
    31    N    3  S      Cor( 1S)     1.99898
    32    N    3  S      Val( 2S)     1.27315
    33    N    3  S      Ryd( 3S)     0.00214
    34    N    3  S      Ryd( 4S)     0.00003
    35    N    3  px     Val( 2p)     1.23444
    36    N    3  px     Ryd( 3p)     0.00200
    37    N    3  py     Val( 2p)     1.13590
    38    N    3  py     Ryd( 3p)     0.00431
    39    N    3  pz     Val( 2p)     1.67179
    40    N    3  pz     Ryd( 3p)     0.00715
    41    N    3  dxy    Ryd( 3d)     0.00082
    42    N    3  dxz    Ryd( 3d)     0.00112
    43    N    3  dyz    Ryd( 3d)     0.00072
    44    N    3  dx2y2  Ryd( 3d)     0.00031
    45    N    3  dz2    Ryd( 3d)     0.00055
 
    46    C    4  S      Cor( 1S)     1.99908
    47    C    4  S      Val( 2S)     0.90539
    48    C    4  S      Ryd( 3S)     0.00068
    49    C    4  S      Ryd( 4S)     0.00003
    50    C    4  px     Val( 2p)     0.90371
    51    C    4  px     Ryd( 3p)     0.00291
    52    C    4  py     Val( 2p)     1.02532
    53    C    4  py     Ryd( 3p)     0.00462
    54    C    4  pz     Val( 2p)     1.04962
    55    C    4  pz     Ryd( 3p)     0.00487
    56    C    4  dxy    Ryd( 3d)     0.00125
    57    C    4  dxz    Ryd( 3d)     0.00169
    58    C    4  dyz    Ryd( 3d)     0.00103
    59    C    4  dx2y2  Ryd( 3d)     0.00101
    60    C    4  dz2    Ryd( 3d)     0.00093
 
    61    C    5  S      Cor( 1S)     1.99931
    62    C    5  S      Val( 2S)     1.09802
    63    C    5  S      Ryd( 3S)     0.00065
    64    C    5  S      Ryd( 4S)     0.00002
    65    C    5  px     Val( 2p)     1.24345
    66    C    5  px     Ryd( 3p)     0.00148
    67    C    5  py     Val( 2p)     1.14372
    68    C    5  py     Ryd( 3p)     0.00207
    69    C    5  pz     Val( 2p)     1.16716
    70    C    5  pz     Ryd( 3p)     0.00184
    71    C    5  dxy    Ryd( 3d)     0.00044
    72    C    5  dxz    Ryd( 3d)     0.00056
    73    C    5  dyz    Ryd( 3d)     0.00068
    74    C    5  dx2y2  Ryd( 3d)     0.00097
    75    C    5  dz2    Ryd( 3d)     0.00076
 
    76    C    6  S      Cor( 1S)     1.99935
    77    C    6  S      Val( 2S)     1.10074
    78    C    6  S      Ryd( 3S)     0.00078
    79    C    6  S      Ryd( 4S)     0.00001
    80    C    6  px     Val( 2p)     1.19101
    81    C    6  px     Ryd( 3p)     0.00181
    82    C    6  py     Val( 2p)     1.14010
    83    C    6  py     Ryd( 3p)     0.00216
    84    C    6  pz     Val( 2p)     1.22377
    85    C    6  pz     Ryd( 3p)     0.00212
    86    C    6  dxy    Ryd( 3d)     0.00041
    87    C    6  dxz    Ryd( 3d)     0.00040
    88    C    6  dyz    Ryd( 3d)     0.00100
    89    C    6  dx2y2  Ryd( 3d)     0.00096
    90    C    6  dz2    Ryd( 3d)     0.00066
 
    91    C    7  S      Cor( 1S)     1.99935
    92    C    7  S      Val( 2S)     1.10195
    93    C    7  S      Ryd( 3S)     0.00084
    94    C    7  S      Ryd( 4S)     0.00002
    95    C    7  px     Val( 2p)     1.20302
    96    C    7  px     Ryd( 3p)     0.00165
    97    C    7  py     Val( 2p)     1.23343
    98    C    7  py     Ryd( 3p)     0.00216
    99    C    7  pz     Val( 2p)     1.12820
   100    C    7  pz     Ryd( 3p)     0.00242
   101    C    7  dxy    Ryd( 3d)     0.00043
   102    C    7  dxz    Ryd( 3d)     0.00035
   103    C    7  dyz    Ryd( 3d)     0.00106
   104    C    7  dx2y2  Ryd( 3d)     0.00092
   105    C    7  dz2    Ryd( 3d)     0.00063
 
   106    N    8  S      Cor( 1S)     1.99939
   107    N    8  S      Val( 2S)     1.23290
   108    N    8  S      Ryd( 3S)     0.00145
   109    N    8  S      Ryd( 4S)     0.00003
   110    N    8  px     Val( 2p)     1.31488
   111    N    8  px     Ryd( 3p)     0.00214
   112    N    8  py     Val( 2p)     1.28292
   113    N    8  py     Ryd( 3p)     0.00207
   114    N    8  pz     Val( 2p)     1.65306
   115    N    8  pz     Ryd( 3p)     0.00431
   116    N    8  dxy    Ryd( 3d)     0.00058
   117    N    8  dxz    Ryd( 3d)     0.00118
   118    N    8  dyz    Ryd( 3d)     0.00076
   119    N    8  dx2y2  Ryd( 3d)     0.00059
   120    N    8  dz2    Ryd( 3d)     0.00077
 
   121    C    9  S      Cor( 1S)     1.99949
   122    C    9  S      Val( 2S)     1.07933
   123    C    9  S      Ryd( 3S)     0.00111
   124    C    9  S      Ryd( 4S)     0.00003
   125    C    9  px     Val( 2p)     1.23705
   126    C    9  px     Ryd( 3p)     0.00296
   127    C    9  py     Val( 2p)     0.90600
   128    C    9  py     Ryd( 3p)     0.00201
   129    C    9  pz     Val( 2p)     1.23290
   130    C    9  pz     Ryd( 3p)     0.00151
   131    C    9  dxy    Ryd( 3d)     0.00084
   132    C    9  dxz    Ryd( 3d)     0.00092
   133    C    9  dyz    Ryd( 3d)     0.00140
   134    C    9  dx2y2  Ryd( 3d)     0.00116
   135    C    9  dz2    Ryd( 3d)     0.00071
 
   136    C   10  S      Cor( 1S)     1.99946
   137    C   10  S      Val( 2S)     1.08354
   138    C   10  S      Ryd( 3S)     0.00103
   139    C   10  S      Ryd( 4S)     0.00003
   140    C   10  px     Val( 2p)     1.00860
   141    C   10  px     Ryd( 3p)     0.00141
   142    C   10  py     Val( 2p)     1.22746
   143    C   10  py     Ryd( 3p)     0.00296
   144    C   10  pz     Val( 2p)     1.12921
   145    C   10  pz     Ryd( 3p)     0.00178
   146    C   10  dxy    Ryd( 3d)     0.00061
   147    C   10  dxz    Ryd( 3d)     0.00121
   148    C   10  dyz    Ryd( 3d)     0.00052
   149    C   10  dx2y2  Ryd( 3d)     0.00127
   150    C   10  dz2    Ryd( 3d)     0.00140
 
   151    C   11  S      Cor( 1S)     1.99946
   152    C   11  S      Val( 2S)     1.08279
   153    C   11  S      Ryd( 3S)     0.00117
   154    C   11  S      Ryd( 4S)     0.00002
   155    C   11  px     Val( 2p)     1.09037
   156    C   11  px     Ryd( 3p)     0.00137
   157    C   11  py     Val( 2p)     1.21662
   158    C   11  py     Ryd( 3p)     0.00298
   159    C   11  pz     Val( 2p)     1.06767
   160    C   11  pz     Ryd( 3p)     0.00227
   161    C   11  dxy    Ryd( 3d)     0.00079
   162    C   11  dxz    Ryd( 3d)     0.00109
   163    C   11  dyz    Ryd( 3d)     0.00135
   164    C   11  dx2y2  Ryd( 3d)     0.00101
   165    C   11  dz2    Ryd( 3d)     0.00070
 
   166    C   12  S      Cor( 1S)     1.99946
   167    C   12  S      Val( 2S)     1.08113
   168    C   12  S      Ryd( 3S)     0.00112
   169    C   12  S      Ryd( 4S)     0.00002
   170    C   12  px     Val( 2p)     1.21649
   171    C   12  px     Ryd( 3p)     0.00147
   172    C   12  py     Val( 2p)     1.09132
   173    C   12  py     Ryd( 3p)     0.00218
   174    C   12  pz     Val( 2p)     1.06511
   175    C   12  pz     Ryd( 3p)     0.00254
   176    C   12  dxy    Ryd( 3d)     0.00140
   177    C   12  dxz    Ryd( 3d)     0.00107
   178    C   12  dyz    Ryd( 3d)     0.00131
   179    C   12  dx2y2  Ryd( 3d)     0.00047
   180    C   12  dz2    Ryd( 3d)     0.00072
 
   181    H   13  S      Val( 1S)     0.75709
   182    H   13  S      Ryd( 2S)     0.00105
 
   183    H   14  S      Val( 1S)     0.76320
   184    H   14  S      Ryd( 2S)     0.00107
 
   185    H   15  S      Val( 1S)     0.76152
   186    H   15  S      Ryd( 2S)     0.00137
 
   187    H   16  S      Val( 1S)     0.76517
   188    H   16  S      Ryd( 2S)     0.00120
 
   189    H   17  S      Val( 1S)     0.77654
   190    H   17  S      Ryd( 2S)     0.00158
 
   191    H   18  S      Val( 1S)     0.76368
   192    H   18  S      Ryd( 2S)     0.00121
 
   193    H   19  S      Val( 1S)     0.77712
   194    H   19  S      Ryd( 2S)     0.00092
 
   195    H   20  S      Val( 1S)     0.76112
   196    H   20  S      Ryd( 2S)     0.00143
 
   197    H   21  S      Val( 1S)     0.77709
   198    H   21  S      Ryd( 2S)     0.00177
 
   199    H   22  S      Val( 1S)     0.76446
   200    H   22  S      Ryd( 2S)     0.00088
 
   201    H   23  S      Val( 1S)     0.80292
   202    H   23  S      Ryd( 2S)     0.00469
 
   203    H   24  S      Val( 1S)     0.77751
   204    H   24  S      Ryd( 2S)     0.00097
 
   205    H   25  S      Val( 1S)     0.77625
   206    H   25  S      Ryd( 2S)     0.00090
 
   207    H   26  S      Val( 1S)     0.78373
   208    H   26  S      Ryd( 2S)     0.00226
 
   209    H   27  S      Val( 1S)     0.80649
   210    H   27  S      Ryd( 2S)     0.00651
 
   211    H   28  S      Val( 1S)     0.74820
   212    H   28  S      Ryd( 2S)     0.00102
 
   213    H   29  S      Val( 1S)     0.78734
   214    H   29  S      Ryd( 2S)     0.00202
 
   215    H   30  S      Val( 1S)     0.78808
   216    H   30  S      Ryd( 2S)     0.00255
 
   217    H   31  S      Val( 1S)     0.76342
   218    H   31  S      Ryd( 2S)     0.00090
 
   219    H   32  S      Val( 1S)     0.79193
   220    H   32  S      Ryd( 2S)     0.00186
 
   221    H   33  S      Val( 1S)     0.79016
   222    H   33  S      Ryd( 2S)     0.00378

 WARNING:  1 low occupancy (<1.9990e) core orbital  found on  N    3


 Summary of Natural Population Analysis:                  
                                                          
                                       Natural Population 
                Natural  -----------------------------------------------
    Atom  No    Charge         Core      Valence    Rydberg      Total
 -----------------------------------------------------------------------
      N    1   -0.45651      1.99935     5.44458    0.01258     7.45651
      C    2    0.37821      1.99913     3.58838    0.03428     5.62179
      N    3   -0.33341      1.99898     5.31528    0.01914     7.33341
      C    4    0.09788      1.99908     3.88404    0.01901     5.90212
      C    5   -0.66113      1.99931     4.65235    0.00947     6.66113
      C    6   -0.66529      1.99935     4.65562    0.01032     6.66529
      C    7   -0.67641      1.99935     4.66659    0.01047     6.67641
      N    8   -0.49703      1.99939     5.48377    0.01386     7.49703
      C    9   -0.46742      1.99949     4.45528    0.01265     6.46742
      C   10   -0.46049      1.99946     4.44880    0.01223     6.46049
      C   11   -0.46965      1.99946     4.45744    0.01275     6.46965
      C   12   -0.46580      1.99946     4.45404    0.01230     6.46580
      H   13    0.24186      0.00000     0.75709    0.00105     0.75814
      H   14    0.23573      0.00000     0.76320    0.00107     0.76427
      H   15    0.23710      0.00000     0.76152    0.00137     0.76290
      H   16    0.23363      0.00000     0.76517    0.00120     0.76637
      H   17    0.22188      0.00000     0.77654    0.00158     0.77812
      H   18    0.23511      0.00000     0.76368    0.00121     0.76489
      H   19    0.22196      0.00000     0.77712    0.00092     0.77804
      H   20    0.23745      0.00000     0.76112    0.00143     0.76255
      H   21    0.22115      0.00000     0.77709    0.00177     0.77885
      H   22    0.23466      0.00000     0.76446    0.00088     0.76534
      H   23    0.19239      0.00000     0.80292    0.00469     0.80761
      H   24    0.22152      0.00000     0.77751    0.00097     0.77848
      H   25    0.22286      0.00000     0.77625    0.00090     0.77714
      H   26    0.21401      0.00000     0.78373    0.00226     0.78599
      H   27    0.18700      0.00000     0.80649    0.00651     0.81300
      H   28    0.25078      0.00000     0.74820    0.00102     0.74922
      H   29    0.21063      0.00000     0.78734    0.00202     0.78937
      H   30    0.20937      0.00000     0.78808    0.00255     0.79063
      H   31    0.23568      0.00000     0.76342    0.00090     0.76432
      H   32    0.20622      0.00000     0.79193    0.00186     0.79378
      H   33    0.20606      0.00000     0.79016    0.00378     0.79394
 =======================================================================
   * Total *   -0.00000     23.99182    71.78919    0.21899    96.00000

                                 Natural Population      
 --------------------------------------------------------
   Core                      23.99182 ( 99.9659% of  24)
   Valence                   71.78919 ( 99.7072% of  72)
   Natural Minimal Basis     95.78101 ( 99.7719% of  96)
   Natural Rydberg Basis      0.21899 (  0.2281% of  96)
 --------------------------------------------------------

    Atom  No          Natural Electron Configuration
 ----------------------------------------------------------------------------
      N    1      [core]2S( 1.19)2p( 4.26)3p( 0.01)
      C    2      [core]2S( 0.70)2p( 2.89)3p( 0.02)3d( 0.01)
      N    3      [core]2S( 1.27)2p( 4.04)3p( 0.01)
      C    4      [core]2S( 0.91)2p( 2.98)3p( 0.01)3d( 0.01)
      C    5      [core]2S( 1.10)2p( 3.55)3p( 0.01)
      C    6      [core]2S( 1.10)2p( 3.55)3p( 0.01)
      C    7      [core]2S( 1.10)2p( 3.56)3p( 0.01)
      N    8      [core]2S( 1.23)2p( 4.25)3p( 0.01)
      C    9      [core]2S( 1.08)2p( 3.38)3p( 0.01)3d( 0.01)
      C   10      [core]2S( 1.08)2p( 3.37)3p( 0.01)3d( 0.01)
      C   11      [core]2S( 1.08)2p( 3.37)3p( 0.01)
      C   12      [core]2S( 1.08)2p( 3.37)3p( 0.01)
      H   13            1S( 0.76)
      H   14            1S( 0.76)
      H   15            1S( 0.76)
      H   16            1S( 0.77)
      H   17            1S( 0.78)
      H   18            1S( 0.76)
      H   19            1S( 0.78)
      H   20            1S( 0.76)
      H   21            1S( 0.78)
      H   22            1S( 0.76)
      H   23            1S( 0.80)
      H   24            1S( 0.78)
      H   25            1S( 0.78)
      H   26            1S( 0.78)
      H   27            1S( 0.81)2S( 0.01)
      H   28            1S( 0.75)
      H   29            1S( 0.79)
      H   30            1S( 0.79)
      H   31            1S( 0.76)
      H   32            1S( 0.79)
      H   33            1S( 0.79)


 NBO analysis skipped by request.
 1\1\GINC-DELLA-R4C2N4\SP\RB3LYP TD-FC\6-31G(d)\C9H21N3\BJS4\24-Aug-202
 0\0\\# TD(NStates=10, Root=1) B3LYP/6-31G* scf=qc volume pop=NPA densi
 ty=current Geom=AllCheck Guess=Read\\Title Card Required\\0,1\N,0,1.28
 34699787,0.3305335298,-0.2883200739\C,0,0.4992986185,-0.8406994852,-0.
 233085728\N,0,-0.7381146725,-0.9578989887,0.0795905786\C,0,-1.78280951
 66,0.072864866,0.0946979112\C,0,-1.5226519292,1.325440388,-0.770198124
 5\C,0,-3.03412537,-0.6406081859,-0.471097079\C,0,-2.0879486138,0.47860
 4589,1.5524261987\N,0,1.2013483998,-1.9999700806,-0.6118342478\C,0,0.4
 136960698,-3.1974949426,-0.8661088744\C,0,2.4812637263,-2.2826177403,0
 .0294603221\C,0,2.2161233747,0.5746034272,-1.3719441194\C,0,1.43552459
 68,1.1877727586,0.8686782174\H,0,-1.2418475487,1.039692594,-1.79021255
 37\H,0,-0.7365419525,1.9680931747,-0.3691164569\H,0,-2.4400056681,1.92
 38096962,-0.8308255463\H,0,-2.8637959985,-0.9426801655,-1.5108434608\H
 ,0,-3.9127896012,0.0154950177,-0.4427012441\H,0,-3.2479873281,-1.54291
 3493,0.1103236632\H,0,-1.2723291667,1.0596074755,1.9946952084\H,0,-2.2
 429715398,-0.4144704271,2.1669308792\H,0,-2.9958104053,1.0920511644,1.
 5997610688\H,0,-0.4606383485,-2.940271077,-1.464636344\H,0,0.056889624
 9,-3.6712964752,0.0610163565\H,0,1.0356109047,-3.915791902,-1.41344463
 6\H,0,3.0124146092,-1.3558472874,0.248492771\H,0,3.1069177098,-2.89208
 65342,-0.6332678765\H,0,2.3493906283,-2.8344943896,0.9756120861\H,0,2.
 0383212756,-0.1405359563,-2.1761852643\H,0,3.2698054369,0.4858315398,-
 1.0564026226\H,0,2.0761662082,1.5917967001,-1.7668066493\H,0,0.7974241
 601,0.8333132807,1.6785641122\H,0,1.1716561359,2.2334684947,0.64935257
 84\H,0,2.4792562012,1.1806484344,1.2267789496\\Version=ES64L-G16RevA.0
 3\State=1-A\HF=-519.8294524\RMSD=2.719e-13\Dipole=0.1504929,0.4378515,
 -0.0885866\Quadrupole=0.9492809,0.488806,-1.4380869,0.1384774,0.151559
 7,0.4524637\PG=C01 [X(C9H21N3)]\\@


 CHINESE FORTUNE COOKIE OF JAN 1 1967 SAY....
 ALL THINGS ARE DIFFICULT BEFORE THEY ARE EASY.
 WE LEARN SO LITTLE AND FORGET SO MUCH.
 YOU WILL OVERCOME OBSTACLES TO ACHIEVE SUCCESS.
 AH SO.
 Job cpu time:       0 days  0 hours 34 minutes 22.5 seconds.
 Elapsed time:       0 days  0 hours  6 minutes 53.7 seconds.
 File lengths (MBytes):  RWF=    456 Int=      0 D2E=      0 Chk=    268 Scr=      1
 Normal termination of Gaussian 16 at Mon Aug 24 13:25:23 2020.
